Membrane in water
40167
    1TCq1    O1    1   1.467   4.189  10.879 -0.2066 -0.1111 -0.1047
    1TCq1    C1    2   1.416   4.121  10.991 -0.8711 -0.1946 -0.1829
    1TCq1    O2    3   1.389   3.999  10.998  0.1336 -0.1385 -0.0105
    1TCq1    C2    4   1.353   4.227  11.069 -0.0791 -0.6940 -0.9078
    1TCq1    C3    5   1.408   4.355  11.067 -0.0710  0.5995 -0.9799
    1TCq1    C4    6   1.345   4.448  11.143 -0.5928  0.5929  0.2592
    1TCq1    C5    7   1.218   4.425  11.202 -0.5816 -0.5538 -0.2663
    1TCq1    C6    8   1.166   4.297  11.182  0.6693 -0.6489 -0.3219
    1TCq1    C7    9   1.226   4.195  11.120  0.4567 -0.3192  0.1177
    1TCq1    C8   10   1.044   4.261  11.253 -0.6007 -0.0874 -0.1497
    1TCq1    O4   11   1.008   4.327  11.353  0.2804  0.5373 -0.1536
    1TCq1    C9   12   1.406   4.582  11.148 -0.8748  0.3238 -0.4160
    1TCq1    O5   13   1.352   4.668  11.226 -0.1401  0.2477 -0.0329
    1TCq1    O6   14   1.530   4.593  11.112 -0.6673 -0.0395  0.2812
    1TCq1    H1   15   1.482   4.286  10.878 -2.6019  0.2886  1.3676
    1TCq1    H2   16   1.507   4.378  11.029  0.0757  1.7601  0.1096
    1TCq1    H3   17   1.167   4.488  11.273 -1.2058  1.4638 -2.4805
    1TCq1    H4   18   1.192   4.093  11.106  0.9141 -0.8140  2.5791
    2MPD2     C   19   0.646   3.935  11.318  0.4355  0.9170  0.0601
    2MPD2    C1   20   0.703   4.023  11.411  0.3042  0.0921  0.5254
    2MPD2    C2   21   0.812   4.096  11.372 -0.4235  0.2168  0.3347
    2MPD2    C3   22   0.864   4.089  11.240  0.2036 -0.2986  0.4177
    2MPD2    C4   23   0.801   4.004  11.152  0.9267 -0.2918  0.2044
    2MPD2    C5   24   0.703   3.923  11.193 -0.4445  1.1135 -0.1751
    2MPD2     H   25   0.858   4.172  11.435 -2.0107  1.5372 -0.0947
    2MPD2    H1   26   0.826   3.998  11.046  0.2427  1.6758 -0.0700
    2MPD2    H2   27   0.555   3.882  11.342  0.7851  0.0523 -0.5017
    2MPD2    H3   28   0.649   3.863  11.122  1.3687 -2.6819  1.6296
    2MPD2     N   29   0.975   4.161  11.188  0.9765  0.5382  0.1924
    2MPD2    H5   30   1.008   4.138  11.095  1.1412 -0.8856  0.6034
    2MPD2    N1   31   0.649   4.046  11.539  0.0467 -0.0649 -0.4012
    2MPD2    H7   32   0.685   4.124  11.593  0.1207  0.2769 -0.9462
    3TCq1    O1   33   0.464   1.467  10.364 -0.1727 -0.2049 -0.1505
    3TCq1    C1   34   0.332   1.486  10.352  0.3439 -0.4982  0.2990
    3TCq1    O2   35   0.265   1.554  10.428  0.5191 -0.0031  0.1502
    3TCq1    C2   36   0.290   1.378  10.271 -0.5861 -0.8591  0.5888
    3TCq1    C3   37   0.351   1.357  10.151  0.0383 -0.9644  0.8145
    3TCq1    C4   38   0.310   1.244  10.080  0.7511 -0.2593  0.2988
    3TCq1    C5   39   0.209   1.164  10.128  0.4959  0.4009  0.6774
    3TCq1    C6   40   0.148   1.193  10.242 -1.0473 -0.1992 -0.7295
    3TCq1    C7   41   0.184   1.296  10.318 -0.3949  0.1035 -0.1697
    3TCq1    C8   42   0.042   1.107  10.278  0.4223 -0.5130  0.6738
    3TCq1    O4   43   0.039   0.997  10.231  0.0880 -0.1421  0.2777
    3TCq1    C9   44   0.354   1.223   9.945  0.3543  0.9843 -0.4681
    3TCq1    O5   45   0.436   1.312   9.899  0.1735  0.4709 -0.3676
    3TCq1    O6   46   0.331   1.114   9.891  0.9983 -0.1569 -0.4865
    3TCq1    H1   47   0.502   1.395  10.308  0.1344 -0.5604  0.5145
    3TCq1    H2   48   0.423   1.420  10.101 -0.6199 -0.4377  0.5312
    3TCq1    H3   49   0.169   1.086  10.064 -2.6400  1.4210  1.3886
    3TCq1    H4   50   0.147   1.318  10.418 -1.2726  1.1657 -0.7248
    4MPD2     C   51   4.322   0.942  10.496 -0.5811  0.4365 -0.0881
    4MPD2    C1   52   4.374   1.062  10.558 -0.5477  0.4083  0.3427
    4MPD2    C2   53   4.472   1.139  10.505  0.2597  0.0934  0.2844
    4MPD2    C3   54   4.556   1.076  10.417  0.7480 -0.3310  0.1388
    4MPD2    C4   55   4.509   0.962  10.345 -0.0484  0.5585  0.8428
    4MPD2    C5   56   4.391   0.900  10.378 -0.4368  0.5557  0.2049
    4MPD2     H   57   4.493   1.233  10.555 -0.7956 -0.7781  2.3705
    4MPD2    H1   58   4.559   0.920  10.259 -1.4109  0.2587  0.1907
    4MPD2    H2   59   4.239   0.884  10.535 -0.1354 -0.0760  0.1091
    4MPD2    H3   60   4.367   0.805  10.333  2.6166  0.0896 -0.3977
    4MPD2     N   61   4.671   1.152  10.374  0.0199 -0.7776  0.0965
    4MPD2    H5   62   4.687   1.248  10.405  1.5523 -0.9201 -0.2346
    4MPD2    N1   63   4.325   1.109  10.689  0.2082 -0.4116 -0.0554
    4MPD2    H7   64   4.365   1.198  10.717 -1.7891 -0.3916  2.7653
    5TCq1    O1   65   0.038   2.610  11.652 -0.3525  0.5051  0.1852
    5TCq1    C1   66   0.139   2.531  11.612 -0.1757  0.5655  0.3715
    5TCq1    O2   67   0.192   2.440  11.673  0.2593 -0.5947  0.4757
    5TCq1    C2   68   0.145   2.549  11.470 -0.2853  0.3733  0.4737
    5TCq1    C3   69   0.025   2.542  11.407 -0.3691 -0.0925  0.2667
    5TCq1    C4   70   0.014   2.461  11.294 -0.7962 -0.5576  0.9383
    5TCq1    C5   71   0.119   2.392  11.249 -0.3745  0.1361  0.0957
    5TCq1    C6   72   0.239   2.404  11.316 -0.5045  0.2267  0.5819
    5TCq1    C7   73   0.259   2.484  11.426 -0.0772 -0.0846  0.6946
    5TCq1    C8   74   0.352   2.336  11.256 -0.7887 -0.3793  0.4895
    5TCq1    O4   75   0.325   2.246  11.178  0.4128 -0.6247  0.3163
    5TCq1    C9   76   4.603   2.440  11.229 -1.0941 -0.4098 -0.1485
    5TCq1    O5   77   4.502   2.489  11.286  0.7676 -0.4875  0.1868
    5TCq1    O6   78   4.597   2.352  11.141  0.3306 -0.0652 -0.4591
    5TCq1    H1   79   0.038   2.691  11.597 -0.5413  1.7343  2.0016
    5TCq1    H2   80   4.654   2.573  11.456 -0.8586  0.7341 -1.1809
    5TCq1    H3   81   0.110   2.327  11.162 -0.9829 -1.6959  1.5437
    5TCq1    H4   82   0.352   2.477  11.480 -0.5618 -2.3170  1.2501
    6MPD2     C   83   0.716   2.455  11.253 -0.6276  0.4820 -0.6777
    6MPD2    C1   84   0.606   2.362  11.242 -0.5337 -0.3211 -0.1422
    6MPD2    C2   85   0.626   2.238  11.172 -0.4349 -0.1141  0.5600
    6MPD2    C3   86   0.750   2.206  11.127 -0.4424  0.2722 -0.8203
    6MPD2    C4   87   0.856   2.296  11.143 -0.1469 -0.2922 -0.3624
    6MPD2    C5   88   0.839   2.415  11.210  0.1946 -0.0432  0.0439
    6MPD2     H   89   0.545   2.170  11.149 -1.1382  1.4277 -1.5641
    6MPD2    H1   90   0.954   2.275  11.101  0.0284 -1.6222  0.7004
    6MPD2    H2   91   0.716   2.556  11.291  1.5565  0.3277 -0.2910
    6MPD2    H3   92   0.915   2.491  11.217  1.0611 -0.7301 -1.7962
    6MPD2     N   93   0.755   2.090  11.048 -0.5561  0.4156  0.3666
    6MPD2    H5   94   0.668   2.049  11.017 -0.5441 -0.2679  1.2444
    6MPD2    N1   95   0.474   2.400  11.287  0.4820  0.0673  0.1464
    6MPD2    H7   96   0.469   2.493  11.328  0.0940  0.9474 -1.9071
    7TCq1    O1   97   2.894   1.984  12.677 -0.2823 -0.5926  0.1075
    7TCq1    C1   98   2.773   2.028  12.722 -0.1576 -0.1031 -0.5435
    7TCq1    O2   99   2.739   2.138  12.754 -0.1760 -0.0934  0.4053
    7TCq1    C2  100   2.684   1.919  12.743 -0.0201 -0.1152 -0.2982
    7TCq1    C3  101   2.548   1.930  12.709  0.3573  0.3314 -0.3621
    7TCq1    C4  102   2.473   1.828  12.754 -0.5706 -0.3395 -0.0004
    7TCq1    C5  103   2.530   1.709  12.790 -0.0687  0.0735  0.6758
    7TCq1    C6  104   2.662   1.693  12.793  0.0688  0.2397 -0.7665
    7TCq1    C7  105   2.745   1.799  12.786 -0.1267  0.1888  0.2357
    7TCq1    C8  106   2.723   1.580  12.862  0.5026  0.2649 -0.9813
    7TCq1    O4  107   2.639   1.519  12.923 -0.0007  0.3738  0.0097
    7TCq1    C9  108   2.331   1.841  12.755  1.1243 -0.0250 -0.2079
    7TCq1    O5  109   2.279   1.762  12.836 -0.3896  0.5907  0.2736
    7TCq1    O6  110   2.284   1.954  12.725  0.2504 -0.0776  0.4627
    7TCq1    H1  111   2.885   1.908  12.615  1.2957  0.3129 -1.2199
    7TCq1    H2  112   2.504   2.027  12.689 -2.5126 -0.8685  0.1782
    7TCq1    H3  113   2.461   1.631  12.818 -1.3327 -0.0408 -2.8567
    7TCq1    H4  114   2.848   1.790  12.820  0.5075 -0.1248 -1.8075
    8MPD2     C  115   3.077   1.200  12.885  0.0883 -0.2320  0.0353
    8MPD2    C1  116   2.956   1.218  12.957 -1.1822  0.0029  0.3364
    8MPD2    C2  117   2.878   1.331  12.945 -0.3826  0.4767  0.7461
    8MPD2    C3  118   2.912   1.421  12.850 -0.0826 -0.9593 -0.5112
    8MPD2    C4  119   3.019   1.395  12.773  0.7427 -0.1582 -0.5655
    8MPD2    C5  120   3.107   1.294  12.790 -0.2900  0.8030  0.0036
    8MPD2     H  121   2.794   1.347  13.012  0.4313  0.5270  1.7433
    8MPD2    H1  122   3.051   1.459  12.691  2.1841  1.6609  1.4037
    8MPD2    H2  123   3.133   1.108  12.892  2.7697  1.4558  0.7584
    8MPD2    H3  124   3.202   1.280  12.740 -0.1456 -1.4292  0.9273
    8MPD2     N  125   2.842   1.543  12.821  0.9017 -0.3725  0.0469
    8MPD2    H5  126   2.875   1.593  12.740  2.4579  1.8141  2.0248
    8MPD2    N1  127   2.929   1.117  13.059  0.0257 -0.0742 -0.2513
    8MPD2    H7  128   2.998   1.044  13.071 -2.3053 -2.6009 -2.2389
    9TCq1    O1  129   0.452   4.675  11.054 -0.3242  0.0249  0.0816
    9TCq1    C1  130   0.509   4.635  10.937  0.3783  0.2047 -0.3693
    9TCq1    O2  131   0.485   4.532  10.875 -0.4831 -0.0283 -0.2519
    9TCq1    C2  132   0.633   4.708  10.901 -0.5149  0.1384  0.3940
    9TCq1    C3  133   0.704   4.647  10.800 -0.1662  0.1855  0.5400
    9TCq1    C4  134   0.806   0.003  10.746 -0.0253  0.4368  0.5855
    9TCq1    C5  135   0.844   0.120  10.798 -0.1249 -1.0146  0.2699
    9TCq1    C6  136   0.764   0.173  10.901 -0.0877 -0.2879  0.1356
    9TCq1    C7  137   0.660   0.106  10.953 -0.0420  0.2999  0.8552
    9TCq1    C8  138   0.787   0.313  10.941 -0.3647 -0.4353 -0.2572
    9TCq1    O4  139   0.867   0.380  10.883 -0.1596  0.2837 -0.0896
    9TCq1    C9  140   0.874   4.674  10.624  0.3830 -0.2796 -1.3846
    9TCq1    O5  141   0.978   0.018  10.580  0.0605 -0.7304 -0.1647
    9TCq1    O6  142   0.819   4.575  10.574  0.4608  0.0159 -0.2216
    9TCq1    H1  143   0.493   0.033  11.095  1.8315 -0.5497 -0.9592
    9TCq1    H2  144   0.672   4.560  10.744  2.3110 -0.4503  0.0908
    9TCq1    H3  145   0.929   0.174  10.758 -1.4405 -0.1487 -1.3324
    9TCq1    H4  146   0.580   0.166  10.994 -1.0567 -1.0990  0.9274
   10MPD2     C  147   0.828   0.569  11.101 -0.2531 -0.0291 -0.1794
   10MPD2    C1  148   0.765   0.459  11.137  0.2543  0.1441  0.3696
   10MPD2    C2  149   0.715   0.449  11.263  0.3047  0.1092  0.5959
   10MPD2    C3  150   0.733   0.553  11.356  0.3218  0.4840 -0.6077
   10MPD2    C4  151   0.799   0.665  11.316 -0.1553 -0.4999  0.4470
   10MPD2    C5  152   0.837   0.669  11.188  0.0175  0.3162  0.2640
   10MPD2     H  153   0.652   0.363  11.284 -0.2637  0.0932 -1.1714
   10MPD2    H1  154   0.797   0.752  11.380 -2.1608 -2.0109  2.4372
   10MPD2    H2  155   0.872   0.576  11.003  1.2746 -1.7345  0.3936
   10MPD2    H3  156   0.873   0.763  11.149  0.9788 -0.5810 -1.0146
   10MPD2     N  157   0.679   0.548  11.489 -0.3055 -0.7156 -0.0864
   10MPD2    H5  158   0.678   0.639  11.534 -0.0472 -0.5681 -0.3775
   10MPD2    N1  159   0.725   0.352  11.057 -0.0653 -0.6130  0.4058
   10MPD2    H7  160   0.656   0.288  11.095 -1.5649 -0.9117 -2.7681
   11TCq1    O1  161   1.759   0.664  13.392 -0.0186  0.2295 -0.0333
   11TCq1    C1  162   1.747   0.542  13.458  1.0726 -0.1671 -0.1281
   11TCq1    O2  163   1.799   0.435  13.422  0.4822  0.3290 -0.1546
   11TCq1    C2  164   1.677   0.569  13.581 -0.7060 -0.0356 -0.5137
   11TCq1    C3  165   1.714   0.673  13.654  0.4214 -0.4653 -0.4344
   11TCq1    C4  166   1.647   0.695  13.771 -0.4700  0.3519  0.5461
   11TCq1    C5  167   1.535   0.622  13.813  0.0416 -0.1134 -0.4278
   11TCq1    C6  168   1.505   0.513  13.734 -0.4771  0.9465 -0.2252
   11TCq1    C7  169   1.570   0.489  13.619 -0.2821  0.1929  0.7615
   11TCq1    C8  170   1.408   0.411  13.768  0.5707 -0.5889  0.1691
   11TCq1    O4  171   1.386   0.313  13.695 -0.1105  0.0688  0.0115
   11TCq1    C9  172   1.703   0.798  13.853  1.0278  0.2658  0.2385
   11TCq1    O5  173   1.754   0.894  13.793  0.5101 -0.3885  0.2159
   11TCq1    O6  174   1.685   0.796  13.977  0.2011 -0.0844  0.4898
   11TCq1    H1  175   1.702   0.734  13.430 -0.2513  1.3315 -2.3988
   11TCq1    H2  176   1.805   0.726  13.627 -0.1988 -0.4480 -2.4568
   11TCq1    H3  177   1.480   0.647  13.903 -2.5186 -2.3603 -1.3772
   11TCq1    H4  178   1.545   0.406  13.554 -1.5543  1.9517 -1.0013
   12MPD2     C  179   1.208   0.363  14.074 -0.1074 -0.4766  0.1200
   12MPD2    C1  180   1.232   0.366  13.938  0.8197  0.3052  0.5032
   12MPD2    C2  181   1.136   0.305  13.854  0.2246  0.1325 -0.4542
   12MPD2    C3  182   1.028   0.242  13.912 -0.3039 -0.1846  0.6158
   12MPD2    C4  183   1.005   0.246  14.056 -0.4095 -0.3686 -0.3578
   12MPD2    C5  184   1.098   0.305  14.128  0.1369  0.3177  0.0569
   12MPD2     H  185   1.155   0.303  13.747 -2.0220 -1.1670 -0.8223
   12MPD2    H1  186   0.923   0.201  14.110 -1.9477  0.1462 -2.3065
   12MPD2    H2  187   1.277   0.416  14.140 -0.7489  0.6734 -0.1447
   12MPD2    H3  188   1.080   0.315  14.234  0.0096  1.8792 -0.1146
   12MPD2     N  189   0.949   0.160  13.822  0.1265 -0.2643  0.3990
   12MPD2    H5  190   0.976   0.164  13.724 -0.8365 -1.9664  0.0646
   12MPD2    N1  191   1.347   0.429  13.892 -0.6086  0.3907  0.0503
   12MPD2    H7  192   1.399   0.486  13.958  2.1077 -1.0805 -0.8355
   13TCq1    O1  193   1.291   0.175  11.160 -0.0599 -0.5920 -0.8193
   13TCq1    C1  194   1.158   0.213  11.152 -0.3083 -0.3182 -0.3219
   13TCq1    O2  195   1.108   0.326  11.171  0.5923 -0.4162 -0.1641
   13TCq1    C2  196   1.087   0.089  11.120  0.0846  0.0085 -0.2145
   13TCq1    C3  197   1.148   0.000  11.034  0.6641  0.8033 -0.0303
   13TCq1    C4  198   1.078   4.612  10.997 -0.5987  0.1500  0.9345
   13TCq1    C5  199   0.961   4.576  11.050 -0.1504  0.2392 -0.2738
   13TCq1    C6  200   0.907   4.660  11.144 -0.3748  0.6429 -0.1551
   13TCq1    C7  201   0.964   0.062  11.174 -0.1491  0.4130 -0.0124
   13TCq1    C8  202   0.784   4.631  11.216 -0.2029  0.5340 -0.1124
   13TCq1    O4  203   0.746   0.012  11.271 -0.1690 -0.1979  0.2270
   13TCq1    C9  204   1.136   4.529  10.893  1.2278  0.2402  0.3031
   13TCq1    O5  205   1.215   4.581  10.807 -0.1802  0.4969  0.5847
   13TCq1    O6  206   1.107   4.405  10.893  0.0120  0.2362 -0.1062
   13TCq1    H1  207   1.288   0.077  11.173 -0.2325 -0.5670 -0.6563
   13TCq1    H2  208   1.243   0.020  10.986  0.6059 -0.5004 -0.6858
   13TCq1    H3  209   0.916   4.483  11.018  0.2725 -0.3670  0.8832
   13TCq1    H4  210   0.914   0.142  11.228  0.4598  1.0185 -0.3434
   14MPD2     C  211   0.594   4.320  11.231 -0.8742 -0.1111 -0.1636
   14MPD2    C1  212   0.620   4.451  11.263 -0.2200  0.4843  0.0929
   14MPD2    C2  213   0.539   4.531  11.344  0.1934  0.0790 -0.4134
   14MPD2    C3  214   0.431   4.468  11.408 -1.3151  0.4187  0.4186
   14MPD2    C4  215   0.406   4.333  11.372  0.1727  0.3814 -0.8828
   14MPD2    C5  216   0.490   4.257  11.295  0.0404 -0.3167 -0.2641
   14MPD2     H  217   0.560   4.634  11.373  0.2791 -0.3378  0.9918
   14MPD2    H1  218   0.325   4.280  11.422  0.2957  2.7285  1.7819
   14MPD2    H2  219   0.648   4.258  11.161 -1.2030 -1.3855  0.7014
   14MPD2    H3  220   0.460   4.156  11.270  0.5905 -0.9983  1.8262
   14MPD2     N  221   0.335   4.541  11.480  0.1075 -0.3937 -0.1463
   14MPD2    H5  222   0.339   4.642  11.476 -0.8146 -0.3515 -0.1833
   14MPD2    N1  223   0.737   4.499  11.212  0.1094  0.2019  0.8322
   14MPD2    H7  224   0.793   4.437  11.155 -0.7955  1.5475 -1.5016
   15TCq1    O1  225   2.944   4.310   2.451 -0.0528 -0.0396 -0.2734
   15TCq1    C1  226   2.899   4.432   2.436  0.3021  0.3198  0.7436
   15TCq1    O2  227   2.918   4.532   2.503 -0.0701  0.3123  0.0014
   15TCq1    C2  228   2.780   4.420   2.362 -0.2830  1.0605 -0.2307
   15TCq1    C3  229   2.668   4.486   2.410  0.0608  1.2174  0.1010
   15TCq1    C4  230   2.548   4.461   2.344  0.5874 -0.6143 -0.3714
   15TCq1    C5  231   2.543   4.378   2.237 -0.5689 -0.9104 -0.4245
   15TCq1    C6  232   2.658   4.320   2.190  0.5940 -0.3392 -0.7805
   15TCq1    C7  233   2.776   4.336   2.257  0.6534 -0.1891  0.0264
   15TCq1    C8  234   2.670   4.245   2.064 -0.3289 -0.4144 -0.1398
   15TCq1    O4  235   2.780   4.195   2.034 -0.7967 -0.3300  0.1376
   15TCq1    C9  236   2.433   4.514   2.409 -0.3382  0.1506  0.6177
   15TCq1    O5  237   2.451   4.532   2.535 -0.4235  0.0620  0.0880
   15TCq1    O6  238   2.320   4.478   2.361 -0.5765  0.1082 -0.1468
   15TCq1    H1  239   2.880   4.247   2.413 -2.3415  2.0294  0.1740
   15TCq1    H2  240   2.670   4.562   2.487  0.0822  1.2874  0.0320
   15TCq1    H3  241   2.443   4.376   2.194 -0.8090  2.4731 -0.0072
   15TCq1    H4  242   2.864   4.292   2.214  0.3358 -0.1866 -0.6279
   16MPD2     C  243   2.424   4.193   1.794  0.3693  0.3260  0.0966
   16MPD2    C1  244   2.542   4.178   1.866  0.0652  0.8953  0.3653
   16MPD2    C2  245   2.633   4.089   1.808 -0.2245  0.4338  0.7543
   16MPD2    C3  246   2.600   4.021   1.697 -0.0405  0.0412 -0.1564
   16MPD2    C4  247   2.488   4.052   1.619 -0.0088  0.1289 -0.4844
   16MPD2    C5  248   2.401   4.142   1.671 -0.1597 -0.1702 -0.0616
   16MPD2     H  249   2.727   4.069   1.858  1.3598  1.8745 -1.6478
   16MPD2    H1  250   2.473   4.004   1.523  0.8145  1.7781 -1.4264
   16MPD2    H2  251   2.348   4.264   1.827  0.1689 -0.8521  2.1429
   16MPD2    H3  252   2.307   4.165   1.621 -0.2409  1.1394  0.7035
   16MPD2     N  253   2.697   3.930   1.648 -0.1126 -0.5911  0.4377
   16MPD2    H5  254   2.775   3.911   1.711 -0.5296  0.6444  1.3242
   16MPD2    N1  255   2.557   4.251   1.986  0.2296 -0.3614 -0.0523
   16MPD2    H7  256   2.478   4.311   2.008 -0.9324 -0.2281 -4.6003
   17TCq1    O1  257   0.140   3.260  10.522  0.4380  0.4448  0.0490
   17TCq1    C1  258   0.241   3.292  10.438 -0.3093  0.6270 -0.4121
   17TCq1    O2  259   0.345   3.231  10.428 -0.1272 -0.0427  0.5141
   17TCq1    C2  260   0.193   3.352  10.314 -0.4505  0.2576 -0.6251
   17TCq1    C3  261   0.059   3.363  10.276 -0.6975  0.1000 -0.8524
   17TCq1    C4  262   0.024   3.404  10.147  0.3884  0.4839 -0.4031
   17TCq1    C5  263   0.122   3.437  10.056  0.5395 -0.1277  0.0072
   17TCq1    C6  264   0.249   3.436  10.102  1.1590 -0.2384 -0.4776
   17TCq1    C7  265   0.291   3.393  10.229 -1.0458 -0.4720 -0.3908
   17TCq1    C8  266   0.344   3.469   9.997  0.2139 -0.5874 -0.0334
   17TCq1    O4  267   0.304   3.490   9.879  0.1146  0.0939 -0.2884
   17TCq1    C9  268   4.602   3.390  10.111  0.8533  0.2432 -0.1938
   17TCq1    O5  269   4.570   3.391   9.990 -0.7574 -0.2629 -0.2732
   17TCq1    O6  270   4.516   3.409  10.201  0.4655  0.0740 -0.3535
   17TCq1    H1  271   0.064   3.322  10.516 -1.0138 -1.1862  1.5623
   17TCq1    H2  272   4.697   3.347  10.344 -0.4212  0.3877 -0.4473
   17TCq1    H3  273   0.099   3.487   9.962 -2.5898 -2.3159 -0.4021
   17TCq1    H4  274   0.395   3.365  10.245  0.0692  3.0729 -1.5291
   18MPD2     C  275   0.580   3.513   9.831  0.0784 -0.3971 -0.3845
   18MPD2    C1  276   0.570   3.550   9.962 -0.2977  0.3482 -0.5596
   18MPD2    C2  277   0.676   3.623  10.017 -0.5131  0.5830  0.3842
   18MPD2    C3  278   0.779   3.660   9.931  0.2533  0.1066 -0.2336
   18MPD2    C4  279   0.784   3.622   9.797  0.2422 -0.1230 -0.1803
   18MPD2    C5  280   0.686   3.542   9.752 -0.2999  0.2063  0.2183
   18MPD2     H  281   0.679   3.640  10.124 -0.3781  0.0955  0.4564
   18MPD2    H1  282   0.863   3.658   9.732  1.3162 -0.2881  1.0300
   18MPD2    H2  283   0.506   3.456   9.776 -0.6850 -1.5172  1.7634
   18MPD2    H3  284   0.673   3.508   9.650 -0.5097  2.4318 -0.4801
   18MPD2     N  285   0.881   3.747   9.971 -0.8194  0.0595 -0.8110
   18MPD2    H5  286   0.955   3.762   9.903  0.8607 -1.3034  0.7465
   18MPD2    N1  287   0.467   3.502  10.046 -0.2831  0.1694 -0.1958
   18MPD2    H7  288   0.487   3.511  10.145 -1.9625  0.4621  0.1127
   19TMC2    C1  289   2.013   0.136  14.138 -0.4570  0.3787  0.0657
   19TMC2    C2  290   1.995   0.236  14.050 -0.3043  0.6299 -0.2075
   19TMC2    C3  291   1.923   0.206  13.939 -0.3551  0.2933  0.5567
   19TMC2    C4  292   1.955   0.011  14.125  0.5969 -0.0251  0.2184
   19TMC2    C5  293   1.870   4.710  14.019 -0.7750 -0.3379 -0.8192
   19TMC2    C6  294   1.859   0.084  13.920 -0.3946 -0.2571 -0.4160
   19TMC2     C  295   2.139   0.163  14.207  0.2727 -0.2149 -0.3379
   19TMC2     O  296   2.214   0.246  14.161 -0.4059 -0.6712  0.1362
   19TMC2     H  297   2.045   0.332  14.050  1.8542 -0.4953 -0.3776
   19TMC2    H1  298   1.956   4.659  14.205  1.3462  1.8283  1.8974
   19TMC2    H2  299   1.808   0.068  13.826  0.5761 -0.7632 -0.8626
   19TMC2    C7  300   1.780   4.598  14.030 -0.0233 -0.6577 -0.7537
   19TMC2    C8  301   1.893   0.323  13.853  0.2885  0.3451  0.9430
   19TMC2    O1  302   1.801   4.515  14.119  0.3876 -0.9748 -0.3348
   19TMC2    O2  303   1.956   0.425  13.848 -0.3567  0.0967 -0.3924
   19TMC2    O5  304   1.755   0.331  13.839 -0.0532  0.1979 -0.4730
   19TMC2    H5  305   1.721   0.239  13.846 -2.4977  1.0875 -0.6996
   20MPD2     C  306   2.405   0.119  14.321  0.0805  0.2270 -0.3366
   20MPD2    C1  307   2.288   0.074  14.377 -0.1077  0.1164 -0.2524
   20MPD2    C2  308   2.296   0.035  14.513  0.7326 -0.1863  0.3816
   20MPD2    C3  309   2.415   0.050  14.585  0.1877 -0.2039 -0.6884
   20MPD2    C4  310   2.531   0.108  14.526  0.2059 -0.1730  0.3306
   20MPD2    C5  311   2.522   0.140  14.392 -0.3554  0.1606 -0.3966
   20MPD2     H  312   2.201   0.004  14.554 -0.2907  0.6035 -1.4102
   20MPD2    H1  313   2.626   0.120  14.577  1.0313 -2.4926 -0.6503
   20MPD2    H2  314   2.409   0.137  14.214  0.1582  3.0599  0.1492
   20MPD2    H3  315   2.611   0.183  14.349 -0.6349  0.3325 -0.8065
   20MPD2     N  316   2.422   0.010  14.721  0.6677 -0.0657 -0.7584
   20MPD2    H5  317   2.503   0.042  14.773  0.9248  1.0517 -1.8362
   20MPD2    N1  318   2.167   0.072  14.307 -0.2016  0.1699  0.3877
   20MPD2    H7  319   2.093   0.017  14.350 -1.4502 -0.0296 -2.0487
   21MPD2     C  320   0.343   0.643  14.153  0.3096  0.5797  0.6688
   21MPD2    C1  321   0.324   0.508  14.115  0.3074 -0.4853 -0.2665
   21MPD2    C2  322   0.201   0.466  14.078 -0.4836  0.5208 -0.6869
   21MPD2    C3  323   0.088   0.554  14.070 -0.0855  0.3127 -0.6020
   21MPD2    C4  324   0.106   0.687  14.102 -0.0092 -0.2601  0.3016
   21MPD2    C5  325   0.229   0.727  14.155 -0.5105 -0.3761 -0.4337
   21MPD2     H  326   0.182   0.361  14.062 -2.1413  0.5855  0.8163
   21MPD2    H1  327   0.024   0.757  14.095  1.4773  1.1540 -2.8595
   21MPD2    H2  328   0.442   0.678  14.179  1.7492 -2.6821 -0.5099
   21MPD2    H3  329   0.242   0.832  14.182 -0.9310 -0.7318  1.1125
   21MPD2     N  330   4.670   0.512  14.057  0.1264  0.7208 -0.1231
   21MPD2    H5  331   4.587   0.568  14.072  0.6974  1.6188 -0.3385
   21MPD2    N1  332   0.425   0.411  14.106 -0.1480 -0.2229 -0.0216
   21MPD2    H7  333   0.400   0.316  14.081 -0.9192  0.3518 -1.4032
   22TCq2    C1  334   4.640   0.383  14.023  0.0771 -0.6025  0.3264
   22TCq2    O2  335   4.708   0.296  13.973  0.0626 -0.2464  0.2827
   22TCq2    C2  336   4.499   0.342  14.042  0.2141 -0.0016  0.4251
   22TCq2    C3  337   4.463   0.221  13.980  0.1202  0.4761 -0.0777
   22TCq2    C4  338   4.338   0.173  14.012  0.1425  0.7281  0.3831
   22TCq2    C5  339   4.253   0.244  14.093 -0.5942  0.0940  1.2857
   22TCq2    C6  340   4.304   0.348  14.166  0.1142 -0.2392  0.9229
   22TCq2    C7  341   4.426   0.401  14.142 -0.2625 -0.1694 -0.2455
   22TCq2    C8  342   4.254   0.382  14.298  0.0494 -0.1411  0.9609
   22TCq2    O4  343   4.329   0.357  14.392  0.5071  0.2431  0.1892
   22TCq2    C9  344   4.281   0.059  13.946 -0.0680 -0.0096  0.4257
   22TCq2    O5  345   4.310   0.037  13.820 -0.1545 -0.4306 -0.0241
   22TCq2    O6  346   4.258   4.695  14.038  0.0435 -0.4689 -0.3050
   22TCq2    H2  347   4.519   0.160  13.911  0.8976 -0.4973  1.4016
   22TCq2    H3  348   4.155   0.204  14.118 -0.6776  0.3851  1.4386
   22TCq2    H4  349   4.456   0.495  14.188 -0.3163 -1.9598  3.4549
   23MPD2     C  350   1.198   1.412  15.046 -0.3743  0.1780  0.0153
   23MPD2    C1  351   1.290   1.365  14.952  0.3478 -0.4592 -0.2755
   23MPD2    C2  352   1.248   1.331  14.825  0.3575 -0.8647 -0.4470
   23MPD2    C3  353   1.113   1.357  14.794  0.5020  0.0970 -0.5781
   23MPD2    C4  354   1.025   1.406  14.887 -0.4148  0.1970 -0.6107
   23MPD2    C5  355   1.064   1.434  15.011 -0.0969  0.0910 -0.6381
   23MPD2     H  356   1.311   1.283  14.751 -0.4312 -1.0607 -0.9962
   23MPD2    H1  357   0.923   1.429  14.860 -1.0416 -1.7935  0.0346
   23MPD2    H2  358   1.234   1.430  15.147 -0.7985  2.0186 -0.1635
   23MPD2    H3  359   0.990   1.471  15.081 -0.8291  0.8281 -1.8079
   23MPD2     N  360   1.051   1.341  14.667  0.0029  0.4590 -0.6369
   23MPD2    H5  361   0.952   1.360  14.662 -0.1966  0.0105  1.7773
   23MPD2    N1  362   1.428   1.336  14.975 -0.5383  0.5449  0.3550
   23MPD2    H7  363   1.482   1.300  14.897  0.1533  1.4220  0.4247
   24TCq2    C1  364   1.119   1.306  14.551  0.3417  0.1486  0.2414
   24TCq2    O2  365   1.235   1.324  14.526  0.0912 -0.3241  0.0620
   24TCq2    C2  366   1.018   1.301  14.452  0.1227  0.1733  0.1498
   24TCq2    C3  367   1.013   1.402  14.363  0.5137 -0.3594  0.2436
   24TCq2    C4  368   0.885   1.428  14.313 -0.4385  0.1338 -0.1352
   24TCq2    C5  369   0.781   1.340  14.329  0.4839 -0.0673 -0.2855
   24TCq2    C6  370   0.797   1.237  14.411 -0.5183  0.4512  0.1191
   24TCq2    C7  371   0.916   1.213  14.477 -0.0790 -0.0089 -0.0989
   24TCq2    C8  372   0.708   1.120  14.421 -0.1041 -0.7301 -0.3239
   24TCq2    O4  373   0.766   1.015  14.435 -0.0208 -0.0549  0.0608
   24TCq2    C9  374   0.868   1.542  14.228  0.1644 -0.1570  0.2217
   24TCq2    O5  375   0.762   1.549  14.165  0.4730 -0.5466  0.3344
   24TCq2    O6  376   0.973   1.616  14.213  0.2872  0.0001 -0.0775
   24TCq2    H2  377   1.096   1.471  14.350 -0.3915  1.0386  1.9201
   24TCq2    H3  378   0.682   1.362  14.290  0.3351 -0.4098 -0.1050
   24TCq2    H4  379   0.934   1.136  14.550  0.1883  0.3803  0.2455
   25TMC2    C1  380   4.504   4.068  11.224 -0.1920 -0.0234  0.1869
   25TMC2    C2  381   4.604   4.155  11.236 -0.3054  0.2730 -0.2767
   25TMC2    C3  382   4.611   4.235  11.342 -1.1086 -0.5415  0.2430
   25TMC2    C4  383   4.406   4.045  11.313 -0.1228 -0.1932  0.1795
   25TMC2    C5  384   4.421   4.123  11.430 -0.1360 -0.0430  0.4263
   25TMC2    C6  385   4.519   4.219  11.443  0.3711 -0.0353 -1.2264
   25TMC2     C  386   4.500   4.001  11.099 -0.3831  0.5937 -0.3774
   25TMC2     O  387   4.544   4.056  10.996  0.0927 -0.8906  0.3555
   25TMC2     H  388   4.678   4.164  11.157  1.8638 -1.7694  1.5294
   25TMC2    H1  389   4.318   3.983  11.304  0.7283 -1.2745 -0.7018
   25TMC2    H2  390   4.537   4.270  11.537  1.6147 -0.5844 -1.1591
   25TMC2    C7  391   4.339   4.092  11.555 -0.1241 -0.1302  0.4096
   25TMC2    C8  392   0.003   4.317  11.361  0.3233  0.3138 -0.1780
   25TMC2    O1  393   4.306   4.188  11.631  0.5522  0.0251 -0.0837
   25TMC2    O2  394   0.097   4.302  11.284  0.4218  0.0083  0.1669
   25TMC2    O5  395   4.677   4.440  11.384 -0.4997 -0.1744 -0.1615
   25TMC2    H5  396   4.588   4.447  11.426  0.7164 -1.3925  2.6087
   26MPD2     C  397   4.398   3.601  10.802 -1.3644  0.1938 -0.2050
   26MPD2    C1  398   4.338   3.585  10.928 -0.4793  0.1814 -0.4248
   26MPD2    C2  399   4.350   3.681  11.028 -0.2809 -0.3402  0.5606
   26MPD2    C3  400   4.421   3.790  11.008  0.7261 -0.0386  0.2452
   26MPD2    C4  401   4.479   3.807  10.882  0.2323 -0.5574  1.2419
   26MPD2    C5  402   4.475   3.708  10.784  0.4908 -0.3479 -0.5025
   26MPD2     H  403   4.298   3.654  11.120  1.8023 -2.2244  1.1876
   26MPD2    H1  404   4.541   3.892  10.855  1.7850 -1.2317  2.6560
   26MPD2    H2  405   4.379   3.530  10.723  0.4041  0.2155 -0.6545
   26MPD2    H3  406   4.520   3.719  10.686 -1.4770  0.8702 -1.2565
   26MPD2     N  407   4.435   3.878  11.115  0.3448 -0.2524  0.3069
   26MPD2    H5  408   4.403   3.831  11.199 -0.7095  1.4943  0.8829
   26MPD2    N1  409   4.250   3.473  10.939 -0.2235  0.1499 -0.4381
   26MPD2    H7  410   4.264   3.404  10.866 -3.1668 -0.8263 -0.0783
   27TMC2    C1  411   3.616   1.005  12.006  0.0250 -0.5987  0.7363
   27TMC2    C2  412   3.648   1.052  11.885  0.6863 -0.3356  0.5476
   27TMC2    C3  413   3.704   1.181  11.880 -1.1101 -0.5264  0.2449
   27TMC2    C4  414   3.621   1.083  12.119  0.6376 -0.4245  0.3243
   27TMC2    C5  415   3.684   1.203  12.113  1.2893 -1.3339  0.3666
   27TMC2    C6  416   3.727   1.253  11.994 -0.2169 -0.3427 -0.2506
   27TMC2     C  417   3.531   0.893  12.017 -0.4966 -0.1499 -0.5226
   27TMC2     O  418   3.563   0.784  11.983  0.1942 -0.3297 -0.0756
   27TMC2     H  419   3.632   0.986  11.800  1.0976  0.7303 -0.3674
   27TMC2    H1  420   3.581   1.035  12.207  2.4854 -1.0409  0.8209
   27TMC2    H2  421   3.784   1.345  11.988  0.3368 -0.7117 -0.5849
   27TMC2    C7  422   3.745   1.239  12.248  0.1017  0.1387 -0.4366
   27TMC2    C8  423   3.660   1.254  11.763 -0.8784 -0.0839 -0.3116
   27TMC2    O1  424   3.725   1.151  12.333  0.3194  0.3098 -0.3389
   27TMC2    O2  425   3.573   1.199  11.693  0.0825  0.0365  0.4799
   27TMC2    O5  426   3.764   1.329  11.721  0.2836 -0.2598 -0.7180
   27TMC2    H5  427   3.833   1.328  11.790  0.1158  0.4543 -0.5488
   28MPD2     C  428   3.246   0.719  12.398  0.4526  0.0342 -0.1660
   28MPD2    C1  429   3.214   0.851  12.370  0.2814 -0.7920 -0.0675
   28MPD2    C2  430   3.259   0.904  12.258 -0.3918  0.4833  0.3594
   28MPD2    C3  431   3.343   0.836  12.171  0.1067 -0.1704 -0.2971
   28MPD2    C4  432   3.382   0.709  12.206 -0.1251  0.6266 -0.5723
   28MPD2    C5  433   3.324   0.643  12.313  0.1259  0.4719 -0.7107
   28MPD2     H  434   3.219   0.999  12.224 -0.4873  0.5267  0.5936
   28MPD2    H1  435   3.482   0.677  12.181 -0.8066  0.2546 -2.8347
   28MPD2    H2  436   3.207   0.673  12.488  1.1451 -0.5962 -0.1967
   28MPD2    H3  437   3.342   0.539  12.335  0.4214  0.7403  0.3213
   28MPD2     N  438   3.414   0.927  12.088 -0.1426 -0.4307  0.4280
   28MPD2    H5  439   3.398   1.026  12.108 -0.4368 -0.1501 -1.1739
   28MPD2    N1  440   3.128   0.919  12.453 -0.7756  0.4174  0.3661
   28MPD2    H7  441   3.072   0.862  12.517  1.0989  0.2128  1.8133
   29MPD2     C  442   3.433   3.008  13.563 -0.3071 -0.3891 -0.0572
   29MPD2    C1  443   3.422   2.997  13.703  0.1926 -0.7120 -0.0294
   29MPD2    C2  444   3.439   3.122  13.771  0.0130  0.2517 -0.8954
   29MPD2    C3  445   3.468   3.244  13.704  0.2198 -0.4633 -0.7373
   29MPD2    C4  446   3.474   3.250  13.570 -0.4485 -0.7246  0.5604
   29MPD2    C5  447   3.463   3.130  13.504 -0.4899  0.4943  0.5292
   29MPD2     H  448   3.441   3.125  13.880 -0.6179  0.7598 -0.8973
   29MPD2    H1  449   3.514   3.343  13.531 -1.6983  0.4826  2.1907
   29MPD2    H2  450   3.424   2.927  13.492 -0.3757 -1.5275  1.2675
   29MPD2    H3  451   3.474   3.136  13.396  2.3562  1.7713  0.9038
   29MPD2     N  452   3.484   3.364  13.771  0.3609 -0.6285  0.8939
   29MPD2    H5  453   3.495   3.450  13.718  1.2166 -2.3836 -1.7677
   29MPD2    N1  454   3.402   2.878  13.779 -0.4844  0.2182  0.1212
   29MPD2    H7  455   3.413   2.888  13.880  0.8915  0.9896 -0.1085
   30TCq2    C1  456   3.444   3.393  13.902 -0.1692  0.5173 -0.7165
   30TCq2    O2  457   3.405   3.317  13.990  0.6653 -0.1722  0.0780
   30TCq2    C2  458   3.436   3.540  13.932 -0.2117 -0.2132  0.3232
   30TCq2    C3  459   3.528   3.623  13.871 -0.0638  0.0074 -0.5033
   30TCq2    C4  460   3.574   3.730  13.941 -0.0192 -0.4376  0.2390
   30TCq2    C5  461   3.524   3.762  14.061  0.6780 -0.1971 -0.8782
   30TCq2    C6  462   3.418   3.685  14.109  0.2611 -0.4970 -0.5760
   30TCq2    C7  463   3.375   3.573  14.050  0.2594 -0.5591 -0.2509
   30TCq2    C8  464   3.351   3.731  14.225 -0.4042 -0.0125  0.5710
   30TCq2    O4  465   3.254   3.665  14.262  0.3037  0.2759  0.0807
   30TCq2    C9  466   3.703   3.788  13.914  0.2173 -0.6252 -0.6187
   30TCq2    O5  467   3.747   3.773  13.801 -0.4968  0.3541  0.4341
   30TCq2    O6  468   3.775   3.818  14.011  0.0760  0.0291 -0.4367
   30TCq2    H2  469   3.587   3.595  13.785  0.0908 -0.3672 -0.2759
   30TCq2    H3  470   3.579   3.839  14.114  1.7638 -1.3160 -0.3753
   30TCq2    H4  471   3.294   3.514  14.091  0.5541  0.8913  2.4516
   31MPD2     C  472   1.025   2.590  14.403 -0.2519 -0.8106 -0.2372
   31MPD2    C1  473   0.963   2.506  14.310  0.3788 -0.1596  1.0907
   31MPD2    C2  474   0.940   2.372  14.350 -0.0669 -0.1012 -0.0880
   31MPD2    C3  475   0.981   2.324  14.473  0.0488  0.6545  0.0802
   31MPD2    C4  476   1.051   2.408  14.555  0.0997  0.0827  0.3915
   31MPD2    C5  477   1.067   2.544  14.530 -0.0442  0.8068  1.1285
   31MPD2     H  478   0.879   2.311  14.284  0.3825 -0.5329 -0.0963
   31MPD2    H1  479   1.076   2.385  14.658 -1.0488 -1.1826  0.3735
   31MPD2    H2  480   1.044   2.694  14.378  0.4129 -0.2884  2.4839
   31MPD2    H3  481   1.108   2.615  14.601  2.9608 -0.1368  0.3211
   31MPD2     N  482   0.964   2.197  14.516 -0.0472 -0.2357  0.4870
   31MPD2    H5  483   0.991   2.177  14.612  1.1451 -3.1612 -0.4287
   31MPD2    N1  484   0.920   2.557  14.180 -0.5455  0.2510 -0.1185
   31MPD2    H7  485   0.945   2.654  14.161 -0.4086 -0.0911 -1.6627
   32TCq2    C1  486   0.907   2.090  14.437  0.1667 -0.7290  0.8736
   32TCq2    O2  487   0.844   2.094  14.330  0.3799 -0.0004 -0.3402
   32TCq2    C2  488   0.889   1.973  14.518 -0.4471  0.0082 -0.0301
   32TCq2    C3  489   0.789   1.890  14.474  0.3369  0.0588  0.4748
   32TCq2    C4  490   0.763   1.780  14.545  0.4066  0.4148 -0.3703
   32TCq2    C5  491   0.837   1.753  14.660 -0.1159  0.0225  0.4515
   32TCq2    C6  492   0.921   1.844  14.708 -0.3786  0.4216  0.1734
   32TCq2    C7  493   0.940   1.964  14.647 -0.1432  0.2068 -0.0044
   32TCq2    C8  494   0.974   1.834  14.841  0.9074  0.2849 -0.2270
   32TCq2    O4  495   1.090   1.869  14.852  0.7249 -0.2587  0.1592
   32TCq2    C9  496   0.669   1.682  14.496 -0.3141  0.4688  0.2178
   32TCq2    O5  497   0.657   1.579  14.570 -0.4999 -0.0104  0.7072
   32TCq2    O6  498   0.591   1.707  14.398 -0.2331  0.2139  0.6728
   32TCq2    H2  499   0.742   1.896  14.377 -0.4894  1.2607  0.9350
   32TCq2    H3  500   0.818   1.662  14.718  0.0684 -1.1514 -1.3383
   32TCq2    H4  501   1.010   2.030  14.697 -0.0862 -0.4640  0.7815
   33MPD2     C  502   1.566   3.981   9.709 -0.2538 -0.4996 -0.1473
   33MPD2    C1  503   1.456   4.057   9.720  0.5971  0.2649 -0.1630
   33MPD2    C2  504   1.432   4.151   9.618  0.4545  0.0431 -0.1290
   33MPD2    C3  505   1.519   4.160   9.504  0.7109 -0.1846 -0.3306
   33MPD2    C4  506   1.628   4.076   9.497 -0.2665  0.2855 -0.0157
   33MPD2    C5  507   1.649   3.988   9.604  0.0910  0.1270 -0.2924
   33MPD2     H  508   1.347   4.217   9.624 -0.9184 -1.5714 -1.7953
   33MPD2    H1  509   1.706   4.075   9.423 -0.4939  1.4595 -0.2694
   33MPD2    H2  510   1.602   3.911   9.784  1.9320  1.0097  0.1883
   33MPD2    H3  511   1.743   3.934   9.612 -0.2293 -0.3928  0.0287
   33MPD2     N  512   1.506   4.261   9.411  0.0115 -0.1095 -0.0410
   33MPD2    H5  513   1.583   4.275   9.346  0.5605  0.3605  0.7067
   33MPD2    N1  514   1.371   4.029   9.828  0.1793  0.3087 -0.1455
   33MPD2    H7  515   1.407   3.969   9.901 -0.2200 -0.2166 -0.3839
   34TCq2    C1  516   1.391   4.333   9.382 -0.1072  0.1921 -0.5266
   34TCq2    O2  517   1.282   4.306   9.423  0.2159 -0.0114  0.1023
   34TCq2    C2  518   1.383   4.430   9.277  0.0289  0.1410 -0.9465
   34TCq2    C3  519   1.265   4.437   9.214 -0.2773 -0.4910  0.1212
   34TCq2    C4  520   1.265   4.503   9.090  0.7481 -0.0641  0.0898
   34TCq2    C5  521   1.377   4.553   9.030 -0.1593 -0.5885 -0.6756
   34TCq2    C6  522   1.495   4.529   9.091 -0.4376 -0.1758  0.2590
   34TCq2    C7  523   1.499   4.477   9.216 -0.7599 -0.5894  0.9443
   34TCq2    C8  524   1.615   4.576   9.033  0.2148  0.8971 -0.5399
   34TCq2    O4  525   1.725   4.573   9.094  0.0320  0.2873  0.0785
   34TCq2    C9  526   1.141   4.498   9.014  0.0801  0.7818 -0.9421
   34TCq2    O5  527   1.134   4.562   8.903  1.1683  0.0192  0.0916
   34TCq2    O6  528   1.049   4.422   9.048 -0.7429  0.2669  0.2292
   34TCq2    H2  529   1.173   4.412   9.266  0.0604 -0.5931  0.6677
   34TCq2    H3  530   1.368   4.621   8.946 -2.0515 -0.1408 -0.1020
   34TCq2    H4  531   1.590   4.474   9.274 -0.7329  2.6454  1.0698
   35MPD2     C  532   2.706   1.899  11.903  0.8545 -0.0038  0.7345
   35MPD2    C1  533   2.638   1.778  11.882 -0.3657  0.0180  0.3293
   35MPD2    C2  534   2.656   1.712  11.761  0.6211  0.2271  0.3509
   35MPD2    C3  535   2.728   1.775  11.662 -0.2912  0.0791  0.0850
   35MPD2    C4  536   2.799   1.896  11.684  0.2430  0.2748 -0.0352
   35MPD2    C5  537   2.782   1.953  11.804  0.0009 -0.0155  0.4364
   35MPD2     H  538   2.600   1.625  11.728  1.7686 -0.1650 -0.5637
   35MPD2    H1  539   2.859   1.944  11.608 -2.3878 -0.4393 -2.5828
   35MPD2    H2  540   2.699   1.953  11.997  1.4109 -1.5867  1.6954
   35MPD2    H3  541   2.830   2.049  11.820 -0.0027  0.7963 -4.4898
   35MPD2     N  542   2.730   1.705  11.537 -0.0232 -0.7381 -0.3289
   35MPD2    H5  543   2.689   1.613  11.531 -0.0801 -0.8285  1.6308
   35MPD2    N1  544   2.558   1.717  11.985  0.2371  0.0108 -0.2479
   35MPD2    H7  545   2.580   1.743  12.080 -0.9451  0.3946 -0.0889
   36TCq2    C1  546   2.791   1.746  11.420  0.3090  0.1594  0.5206
   36TCq2    O2  547   2.849   1.852  11.397 -0.0672 -0.2187 -0.7520
   36TCq2    C2  548   2.795   1.643  11.318 -0.6932  0.3403  0.2195
   36TCq2    C3  549   2.837   1.676  11.188  0.3450  0.1473  0.0475
   36TCq2    C4  550   2.821   1.578  11.097 -0.7966 -0.0193 -0.7209
   36TCq2    C5  551   2.780   1.454  11.128  0.5729 -0.7741  0.4244
   36TCq2    C6  552   2.758   1.420  11.254  0.2778  0.6108  0.6061
   36TCq2    C7  553   2.755   1.520  11.350  0.6032  0.5031  0.2867
   36TCq2    C8  554   2.722   1.282  11.278 -0.6536  0.3715 -0.7302
   36TCq2    O4  555   2.652   1.234  11.190  0.0910  0.2859 -0.6553
   36TCq2    C9  556   2.849   1.606  10.964 -0.5242 -0.0509  0.0186
   36TCq2    O5  557   2.853   1.506  10.890 -0.1526  0.3062  0.0586
   36TCq2    O6  558   2.866   1.728  10.932  0.0774  0.2856  0.6955
   36TCq2    H2  559   2.865   1.776  11.158 -0.2015  0.2356 -0.1501
   36TCq2    H3  560   2.766   1.379  11.051 -5.6018  0.9470 -0.0709
   36TCq2    H4  561   2.734   1.481  11.449 -0.4145  3.1339  1.1011
   37TMC2    C1  562   4.463   1.894  11.264  0.5437 -0.7689  0.3658
   37TMC2    C2  563   4.462   1.973  11.154  0.2323 -0.6846  0.2344
   37TMC2    C3  564   4.575   2.046  11.124  0.4611 -0.0947 -0.2474
   37TMC2    C4  565   4.577   1.876  11.334 -0.2601  0.3434  0.1818
   37TMC2    C5  566   4.690   1.941  11.294  0.2150  0.0108 -0.4313
   37TMC2    C6  567   4.696   2.031  11.183  0.0238  0.6122 -0.3446
   37TMC2     C  568   4.343   1.828  11.314 -0.2432 -0.0582  0.3700
   37TMC2     O  569   4.242   1.852  11.246 -0.3923  0.7666  0.0589
   37TMC2     H  570   4.372   1.981  11.095 -0.9507  2.2623  2.4284
   37TMC2    H1  571   4.585   1.823  11.427  0.1498 -1.0305 -0.6351
   37TMC2    H2  572   0.064   2.076  11.140  0.4303  2.3890  2.3045
   37TMC2    C7  573   0.083   1.927  11.379  0.4138  0.5361 -0.1921
   37TMC2    C8  574   4.575   2.087  10.987  0.4510  0.4838  0.3197
   37TMC2    O1  575   0.061   1.915  11.499 -0.5012 -0.0363  0.2677
   37TMC2    O2  576   4.553   2.007  10.898 -0.6694 -0.0362  0.1282
   37TMC2    O5  577   4.670   2.185  10.974 -0.0240 -0.4830 -0.3655
   37TMC2    H5  578   4.646   2.245  11.048  0.3188 -2.2946  1.2290
   38MPD2     C  579   4.060   1.515  11.606  0.0115  0.3549 -0.3651
   38MPD2    C1  580   4.191   1.494  11.649 -0.0904  0.1475 -0.0079
   38MPD2    C2  581   4.282   1.574  11.585 -0.9726  0.7488 -0.2911
   38MPD2    C3  582   4.247   1.664  11.484 -0.2299  0.2223 -1.1113
   38MPD2    C4  583   4.116   1.670  11.436 -0.4043 -0.2239  0.1211
   38MPD2    C5  584   4.023   1.593  11.497 -0.1868 -0.3671 -0.2700
   38MPD2     H  585   4.388   1.563  11.606 -0.5197  1.8953 -1.9359
   38MPD2    H1  586   4.079   1.746  11.368  0.4431 -0.1424 -0.2500
   38MPD2    H2  587   3.973   1.472  11.654  0.9550 -0.2664  0.7819
   38MPD2    H3  588   3.918   1.588  11.469  0.1956 -4.1779 -1.0633
   38MPD2     N  589   4.355   1.738  11.418  0.2105 -0.1499  0.4916
   38MPD2    H5  590   4.452   1.716  11.439  0.2737 -0.8678 -0.5917
   38MPD2    N1  591   4.223   1.410  11.762  0.3960 -0.2179 -0.1451
   38MPD2    H7  592   4.321   1.408  11.786 -0.3133  2.0228  2.9542
   39MPD2     C  593   2.910   3.465   1.784  0.7748  0.2567  0.4567
   39MPD2    C1  594   2.815   3.561   1.806  0.4719  0.5589  0.0246
   39MPD2    C2  595   2.694   3.554   1.740 -0.1846  0.6371  0.3098
   39MPD2    C3  596   2.671   3.441   1.659  0.0312 -0.4682  0.4009
   39MPD2    C4  597   2.763   3.342   1.647 -0.3863 -0.3189  0.1122
   39MPD2    C5  598   2.883   3.351   1.712  0.0979  0.0996 -1.1346
   39MPD2     H  599   2.626   3.637   1.749  0.1229  0.7383  1.7703
   39MPD2    H1  600   2.755   3.262   1.575 -0.2157 -0.7684  0.5908
   39MPD2    H2  601   3.008   3.464   1.832 -0.3110 -2.2017  2.6285
   39MPD2    H3  602   2.956   3.271   1.701 -0.2697 -0.4468  0.5252
   39MPD2     N  603   2.557   3.427   1.575 -0.1622 -0.2705  0.4017
   39MPD2    H5  604   2.546   3.341   1.522  1.6885  0.9570 -1.9585
   39MPD2    N1  605   2.848   3.668   1.899  0.3374 -0.5193  0.1916
   39MPD2    H7  606   2.947   3.666   1.922  0.0523  1.5948  1.5149
   40TCq2    C1  607   2.753   3.761   1.951  1.2186 -0.5024 -0.4126
   40TCq2    O2  608   2.634   3.745   1.969  0.3664 -0.1266  0.2637
   40TCq2    C2  609   2.821   3.869   2.031  0.9691  0.1324  0.4823
   40TCq2    C3  610   2.768   3.886   2.157  0.0703 -0.8245  0.2476
   40TCq2    C4  611   2.841   3.959   2.244 -0.3905  0.2774  0.0590
   40TCq2    C5  612   2.958   4.021   2.215  0.0122 -0.4558 -0.3879
   40TCq2    C6  613   2.996   4.006   2.087  0.1359  1.0102 -0.2364
   40TCq2    C7  614   2.936   3.923   1.994 -0.1674 -0.0740  0.1010
   40TCq2    C8  615   3.140   4.037   2.062 -0.8964  0.4423 -0.1564
   40TCq2    O4  616   3.212   4.038   2.160  0.2656  0.4600  0.0359
   40TCq2    C9  617   2.787   3.989   2.375  0.3743 -0.1900  1.0289
   40TCq2    O5  618   2.835   4.085   2.440 -0.1361 -0.2036  0.2086
   40TCq2    O6  619   2.687   3.919   2.412  0.0428  0.6299 -0.4123
   40TCq2    H2  620   2.676   3.840   2.191 -1.7776  2.7102 -0.0676
   40TCq2    H3  621   3.006   4.088   2.285  2.2519  0.6690 -2.9994
   40TCq2    H4  622   2.980   3.904   1.896  1.4852  0.3152  0.7786
   41TMC2    C1  623   1.703   1.567  13.785  0.0338 -0.1528 -0.4666
   41TMC2    C2  624   1.681   1.456  13.708  0.3888 -0.2602  0.0289
   41TMC2    C3  625   1.708   1.478  13.580 -0.3892  0.1669 -0.6210
   41TMC2    C4  626   1.764   1.679  13.741  0.2355  0.2726 -0.0301
   41TMC2    C5  627   1.788   1.687  13.614  0.6108  0.4165 -1.0088
   41TMC2    C6  628   1.751   1.593  13.526 -0.4620 -0.2137  0.6631
   41TMC2     C  629   1.694   1.544  13.923  0.5097  0.8680 -0.3805
   41TMC2     O  630   1.689   1.433  13.976  0.0129 -0.6393 -0.2521
   41TMC2     H  631   1.643   1.368  13.758  3.0960 -1.6917 -0.3791
   41TMC2    H1  632   1.782   1.773  13.793 -1.3585  1.6692 -2.0246
   41TMC2    H2  633   1.771   1.586  13.420 -1.2122  0.7421  0.4665
   41TMC2    C7  634   1.845   1.814  13.566 -0.0473 -0.1923  0.5347
   41TMC2    C8  635   1.698   1.366  13.488 -0.7809 -0.1431  0.4981
   41TMC2    O1  636   1.873   1.905  13.640 -0.2450  0.4591 -0.3075
   41TMC2    O2  637   1.658   1.374  13.372  0.3485 -0.5077 -0.8951
   41TMC2    O5  638   1.725   1.243  13.551  0.4134  0.0509 -0.3983
   41TMC2    H5  639   1.759   1.255  13.642 -0.2140  2.3953 -0.4898
   42MPD2     C  640   1.681   1.587  14.219 -0.8860  0.3822 -0.4751
   42MPD2    C1  641   1.631   1.678  14.122 -0.0798 -0.0736 -0.2915
   42MPD2    C2  642   1.570   1.793  14.165  0.9532  0.0463 -0.1180
   42MPD2    C3  643   1.556   1.824  14.300 -0.2673  0.7486 -0.4763
   42MPD2    C4  644   1.592   1.725  14.391  0.5748 -0.3560 -0.0723
   42MPD2    C5  645   1.657   1.612  14.353 -0.2106  0.2085 -0.1200
   42MPD2     H  646   1.542   1.871  14.095  3.0971  0.7802 -0.1576
   42MPD2    H1  647   1.594   1.751  14.496  0.1064 -0.2295 -0.0918
   42MPD2    H2  648   1.747   1.507  14.188 -1.4915  0.6305 -2.4503
   42MPD2    H3  649   1.690   1.543  14.430  1.6277  0.3754 -0.7709
   42MPD2     N  650   1.510   1.946  14.352  0.0905  0.9242  0.3393
   42MPD2    H5  651   1.494   1.952  14.452 -2.8052  2.0730 -0.2228
   42MPD2    N1  652   1.656   1.666  13.984 -0.1900 -0.3327  0.5966
   42MPD2    H7  653   1.634   1.746  13.925  0.1456  0.3856  1.4509
   43MPD2     C  654   3.536   4.529   0.261 -0.0761 -0.5569 -0.5198
   43MPD2    C1  655   3.584   4.450   0.368 -0.0334  0.2443 -0.1815
   43MPD2    C2  656   3.547   4.489   0.495 -0.8678  0.7719 -0.2656
   43MPD2    C3  657   3.498   4.615   0.513  0.4926 -0.5147  0.0051
   43MPD2    C4  658   3.452   4.694   0.410  0.0792 -0.6959  0.1721
   43MPD2    C5  659   3.469   4.648   0.286 -0.1300  0.2933  0.4125
   43MPD2     H  660   3.573   4.422   0.576 -0.3054  0.4859 -0.6804
   43MPD2    H1  661   3.407   0.069   0.431  1.5080  0.0935 -0.3384
   43MPD2    H2  662   3.545   4.489   0.161  0.7889 -0.9869 -0.2755
   43MPD2    H3  663   3.437   4.705   0.200 -0.4207  0.3563  0.5636
   43MPD2     N  664   3.473   4.660   0.647  0.1348  0.4630  0.6811
   43MPD2    H5  665   3.422   0.027   0.652 -2.7615 -1.2042  0.4406
   43MPD2    N1  666   3.643   4.321   0.362 -0.0178  0.8917  0.5887
   43MPD2    H7  667   3.633   4.264   0.446 -2.3346  0.5294  0.0872
   44TCq2    C1  668   3.597   4.642   1.222  0.2793  0.0521 -0.4716
   44TCq2    O2  669   3.709   4.615   1.190 -0.2504 -0.2332  0.1313
   44TCq2    C2  670   3.523   4.694   1.108 -0.2234 -0.1525  0.7849
   44TCq2    C3  671   3.434   0.077   1.125 -1.2274 -0.2992 -0.0098
   44TCq2    C4  672   3.373   0.118   1.013  0.4110 -1.3341  0.2421
   44TCq2    C5  673   3.398   0.066   0.887 -0.2832  0.3429  0.3349
   44TCq2    C6  674   3.492   4.689   0.877 -0.0785  0.2890 -0.4172
   44TCq2    C7  675   3.552   4.638   0.989  0.2257  0.1780  0.3008
   44TCq2    C8  676   3.505   4.602   0.766 -0.2927  0.1321 -0.1451
   44TCq2    O4  677   3.559   4.492   0.782  0.4436 -0.1681  0.4561
   44TCq2    C9  678   3.271   0.221   1.020  0.2597 -0.2120  0.5308
   44TCq2    O5  679   3.263   0.275   1.132  0.1352  0.7624 -0.7462
   44TCq2    O6  680   3.230   0.273   0.911  0.4826  0.0895  0.0069
   44TCq2    H2  681   3.423   0.130   1.218 -0.1711 -1.1367  0.5914
   44TCq2    H3  682   3.343   0.097   0.799 -1.2581  0.4273  0.9717
   44TCq2    H4  683   3.630   4.562   0.980  0.0982  0.1136 -0.2438
   45TMC2    C1  684   4.382   1.469   9.710  0.3265  0.2643 -0.2059
   45TMC2    C2  685   4.462   1.535   9.623  0.1278  0.4771  0.2478
   45TMC2    C3  686   4.500   1.668   9.647  0.2484 -0.0074 -0.1298
   45TMC2    C4  687   4.373   1.515   9.839  0.8167 -0.2764  0.3091
   45TMC2    C5  688   4.432   1.632   9.867 -0.5521 -0.4502  0.7060
   45TMC2    C6  689   4.476   1.718   9.770 -0.3617 -0.0828 -0.0082
   45TMC2     C  690   4.335   1.331   9.699 -0.1720 -0.5882 -0.2618
   45TMC2     O  691   4.300   1.266   9.796 -0.0166 -0.2820  0.6380
   45TMC2     H  692   4.487   1.489   9.528 -0.1625 -0.4873  0.6415
   45TMC2    H1  693   4.323   1.457   9.915  1.0439 -1.1107 -0.1735
   45TMC2    H2  694   4.510   1.818   9.795 -0.6663  0.4199 -1.6222
   45TMC2    C7  695   4.380   1.698   9.987 -0.6500  0.7618  0.2160
   45TMC2    C8  696   4.596   1.730   9.552 -0.3478 -0.6976 -0.3432
   45TMC2    O1  697   4.360   1.819   9.982  0.4275 -0.5949  0.2971
   45TMC2    O2  698   4.644   1.665   9.465  0.0140  0.5499  0.1728
   45TMC2    O5  699   4.640   1.843   9.611  0.5410 -0.6420  0.3984
   45TMC2    H5  700   4.565   1.895   9.647  0.8213  1.3753 -1.9698
   46MPD2     C  701   4.213   1.082   9.585 -0.8776 -0.6985  0.1358
   46MPD2    C1  702   4.233   1.195   9.512  0.5265  0.3054 -0.7980
   46MPD2    C2  703   4.194   1.197   9.380  0.4011  0.0367  0.6397
   46MPD2    C3  704   4.126   1.091   9.327 -1.2851  0.2512 -0.3132
   46MPD2    C4  705   4.108   0.974   9.405  0.2012  0.3451  0.3537
   46MPD2    C5  706   4.151   0.970   9.530 -0.3009 -0.0549  0.0318
   46MPD2     H  707   4.206   1.286   9.319  4.4288 -1.1165 -0.2579
   46MPD2    H1  708   4.046   0.889   9.377  2.6942 -0.8871 -1.4494
   46MPD2    H2  709   4.250   1.062   9.685  0.7381 -1.7459 -0.6695
   46MPD2    H3  710   4.123   0.886   9.594  0.2923  0.2320  0.6693
   46MPD2     N  711   4.072   1.116   9.198  0.4119  0.1444  0.0133
   46MPD2    H5  712   4.088   1.206   9.155  0.3891  0.1164 -0.0531
   46MPD2    N1  713   4.303   1.308   9.564  0.7158 -0.3381 -0.1518
   46MPD2    H7  714   4.323   1.383   9.498  1.2789  2.1984  2.9057
   47TMC2    C1  715   1.561   0.797   9.786 -0.2418  0.7735  0.4712
   47TMC2    C2  716   1.556   0.925   9.834 -0.1217  0.0023 -0.0734
   47TMC2    C3  717   1.471   0.942   9.940 -0.3778 -0.0712 -0.9763
   47TMC2    C4  718   1.489   0.690   9.833  0.7172 -0.1792 -0.0490
   47TMC2    C5  719   1.400   0.715   9.926  0.1565 -0.1895  0.3303
   47TMC2    C6  720   1.394   0.841   9.981  0.1202 -0.3291  0.2047
   47TMC2     C  721   1.614   0.779   9.651 -0.6737 -0.3398 -0.1817
   47TMC2     O  722   1.575   0.676   9.603 -0.2762 -0.0817  0.0444
   47TMC2     H  723   1.620   1.009   9.808  1.2545 -1.2901 -0.8695
   47TMC2    H1  724   1.502   0.592   9.787 -0.6504  0.0686 -0.9726
   47TMC2    H2  725   1.335   0.860  10.070  2.1005  1.1893  1.1962
   47TMC2    C7  726   1.302   0.620   9.967  1.1184  0.7414 -0.0039
   47TMC2    C8  727   1.416   1.075   9.956 -0.0826  0.0080  0.2974
   47TMC2    O1  728   1.206   0.672  10.020 -0.1796  0.1581  0.3102
   47TMC2    O2  729   1.371   1.113  10.064 -0.0013 -0.0794 -0.0144
   47TMC2    O5  730   1.421   1.146   9.842 -0.2916  0.1162  0.3886
   47TMC2    H5  731   1.441   1.092   9.762  1.8404 -0.6764  1.4810
   48MPD2     C  732   1.678   0.799   9.372 -0.1258 -1.0607  0.4590
   48MPD2    C1  733   1.739   0.879   9.467 -1.2080 -0.6597 -0.4532
   48MPD2    C2  734   1.841   0.960   9.435  0.8502  0.3013 -0.1861
   48MPD2    C3  735   1.873   0.978   9.303  0.0656 -0.1281  0.0376
   48MPD2    C4  736   1.803   0.908   9.203 -0.4188 -0.1421  0.1233
   48MPD2    C5  737   1.715   0.810   9.240 -0.6679  0.9112 -0.3282
   48MPD2     H  738   1.885   1.030   9.505 -0.4554 -0.1572  1.0815
   48MPD2    H1  739   1.836   0.918   9.100  0.5697  0.7142  0.5261
   48MPD2    H2  740   1.588   0.741   9.384 -0.3697 -0.2658  2.5994
   48MPD2    H3  741   1.671   0.753   9.159 -1.0407  0.8524 -0.0835
   48MPD2     N  742   1.977   1.069   9.268  0.1887 -0.0145  0.5683
   48MPD2    H5  743   2.012   1.124   9.346  2.5023 -0.2298 -0.3439
   48MPD2    N1  744   1.696   0.879   9.599 -0.6285 -0.8283 -0.3507
   48MPD2    H7  745   1.737   0.945   9.664 -1.5732  0.6240 -1.2259
   49MPD2     C  746   3.841   3.696  10.107 -0.4395  0.2818 -0.0254
   49MPD2    C1  747   3.805   3.660  10.234  0.3073  0.5260  0.6492
   49MPD2    C2  748   3.896   3.686  10.341 -0.1978 -0.2108  0.2634
   49MPD2    C3  749   4.015   3.736  10.317  0.3830  0.1648 -0.0917
   49MPD2    C4  750   4.045   3.769  10.182 -0.5972 -0.1481  0.8173
   49MPD2    C5  751   3.961   3.757  10.079  0.6720 -0.0336 -0.6074
   49MPD2     H  752   3.859   3.666  10.441  2.2829  1.2133  1.4503
   49MPD2    H1  753   4.137   3.824  10.160 -1.8531  1.5052 -0.3381
   49MPD2    H2  754   3.769   3.706  10.027 -1.2261  0.1590  0.6641
   49MPD2    H3  755   3.967   3.795   9.978  3.4659 -1.4554 -0.9721
   49MPD2     N  756   4.111   3.781  10.417 -0.4219 -0.8311  0.4585
   49MPD2    H5  757   4.192   3.829  10.378 -1.4209 -0.7862 -1.5534
   49MPD2    N1  758   3.685   3.592  10.262 -0.0077  0.4002 -0.5448
   49MPD2    H7  759   3.665   3.553  10.354  1.3738 -0.6834 -0.7052
   50TCq2    C1  760   3.602   3.548  10.158  0.4394  0.0270  0.6362
   50TCq2    O2  761   3.601   3.573  10.039 -0.8386 -0.5472 -0.2376
   50TCq2    C2  762   3.486   3.466  10.199  0.1808  0.2720  0.2713
   50TCq2    C3  763   3.422   3.401  10.101  0.9233 -0.3545 -0.0953
   50TCq2    C4  764   3.324   3.308  10.133  0.0564 -0.3857  0.4943
   50TCq2    C5  765   3.285   3.282  10.262 -0.0344  0.8152 -0.0043
   50TCq2    C6  766   3.349   3.348  10.365  1.0806 -0.2614 -0.2743
   50TCq2    C7  767   3.450   3.439  10.335  0.7177  0.2567  0.0642
   50TCq2    C8  768   3.275   3.362  10.487  0.4956 -0.1458 -0.1063
   50TCq2    O4  769   3.327   3.427  10.574 -0.1082 -0.2222 -0.4693
   50TCq2    C9  770   3.264   3.238  10.026  0.5877 -0.1200  0.7174
   50TCq2    O5  771   3.182   3.147  10.056  0.0573 -0.7254  0.2597
   50TCq2    O6  772   3.302   3.274   9.910  0.3844  0.6945 -0.4805
   50TCq2    H2  773   3.445   3.423   9.997  1.4392  0.4267  0.1949
   50TCq2    H3  774   3.213   3.202  10.274 -0.4355  1.3046  0.8750
   50TCq2    H4  775   3.481   3.494  10.423 -3.1683 -1.1464  2.3096
   51MPD2     C  776   0.333   3.000   0.898 -0.0845 -0.0558  0.2455
   51MPD2    C1  777   0.195   2.961   0.874  0.1974  0.0409  0.2919
   51MPD2    C2  778   0.098   3.065   0.871  1.0490  0.5239  0.0731
   51MPD2    C3  779   0.131   3.201   0.895 -0.2204 -0.4582  0.5137
   51MPD2    C4  780   0.262   3.230   0.931  0.4856 -0.1000 -0.3929
   51MPD2    C5  781   0.358   3.129   0.937 -0.8587  0.5524 -0.5177
   51MPD2     H  782   4.716   3.042   0.845  0.4595  0.4084  2.4627
   51MPD2    H1  783   0.293   3.332   0.950 -0.2448  0.0043  0.2402
   51MPD2    H2  784   0.411   2.930   0.925 -1.1078 -1.2785 -0.0304
   51MPD2    H3  785   0.457   3.147   0.976 -0.8650  1.0525 -0.7298
   51MPD2     N  786   0.028   3.300   0.894  0.0162  0.2493 -0.2543
   51MPD2    H5  787   0.057   3.395   0.919  1.6973 -0.4992  0.6922
   51MPD2    N1  788   0.157   2.827   0.846  0.5354  0.1066  0.2854
   51MPD2    H7  789   0.059   2.799   0.846  0.1946  1.2637 -1.5643
   52TCq2    C1  790   4.615   3.284   0.879  0.7721  0.5564  0.2602
   52TCq2    O2  791   4.555   3.184   0.851 -0.0656 -0.7836 -0.1302
   52TCq2    C2  792   4.550   3.419   0.875 -0.2841  0.4188  0.1235
   52TCq2    C3  793   4.439   3.434   0.800  0.3470 -0.4159  0.1157
   52TCq2    C4  794   4.398   3.564   0.773  1.0049  0.4254  0.0579
   52TCq2    C5  795   4.456   3.677   0.819 -0.6261 -0.0830  1.1862
   52TCq2    C6  796   4.571   3.656   0.888 -0.5143  0.5653  0.2535
   52TCq2    C7  797   4.616   3.527   0.923 -0.4332 -0.0273  0.3663
   52TCq2    C8  798   4.651   3.771   0.925 -0.5490  0.5233  0.2148
   52TCq2    O4  799   0.029   3.750   0.996 -0.4281 -0.3744  0.1923
   52TCq2    C9  800   4.273   3.576   0.694 -0.2356 -0.5976 -0.5882
   52TCq2    O5  801   4.196   3.474   0.688  0.0441  0.0444  0.5805
   52TCq2    O6  802   4.225   3.694   0.690 -0.1649  0.6277 -0.5601
   52TCq2    H2  803   4.399   3.350   0.744 -0.0871  0.9312 -1.6159
   52TCq2    H3  804   4.414   3.771   0.786 -1.1454 -0.8638 -0.3469
   52TCq2    H4  805   4.686   3.509   1.005 -0.4308 -1.8056 -0.0260
   53TMC2    C1  806   0.500   2.014  11.953 -0.3016  0.0152  0.4329
   53TMC2    C2  807   0.593   1.996  12.056  0.0667 -0.6307 -0.3818
   53TMC2    C3  808   0.551   1.968  12.189 -1.2346  0.0297 -0.3913
   53TMC2    C4  809   0.369   1.978  11.976  0.2684 -1.2753 -0.0912
   53TMC2    C5  810   0.334   1.946  12.102 -0.3871 -0.0648  0.3901
   53TMC2    C6  811   0.416   1.955  12.209 -0.1303 -0.6779  0.4925
   53TMC2     C  812   0.545   2.014  11.821 -0.7171 -0.3541  0.1792
   53TMC2     O  813   0.657   1.966  11.797 -0.1788 -0.4482 -0.3441
   53TMC2     H  814   0.700   2.004  12.041 -0.2270  0.0896 -2.1030
   53TMC2    H1  815   0.293   1.967  11.899  0.3545 -0.6029 -0.2718
   53TMC2    H2  816   0.381   1.945  12.311 -1.1271  1.5543  0.3673
   53TMC2    C7  817   0.187   1.933  12.127  0.5425 -0.0814 -0.1317
   53TMC2    C8  818   0.650   1.958  12.298 -0.4774  0.6738 -0.1322
   53TMC2    O1  819   0.106   1.968  12.046 -0.0397 -0.0611  0.2770
   53TMC2    O2  820   0.658   2.033  12.396  0.4149 -0.4487  0.2806
   53TMC2    O5  821   0.753   1.907  12.234  0.2755 -0.0813 -0.1012
   53TMC2    H5  822   0.736   1.827  12.179  0.6747 -0.5276  0.4292
   54MPD2     C  823   0.572   1.994  11.511 -0.0649 -0.1006  0.2999
   54MPD2    C1  824   0.459   2.012  11.590  0.0421  0.3089 -0.1756
   54MPD2    C2  825   0.338   1.990  11.524  0.0586 -0.3335 -0.3210
   54MPD2    C3  826   0.322   1.961  11.388  0.1340 -0.6767 -0.2002
   54MPD2    C4  827   0.435   1.949  11.315  0.2853  0.0536 -0.6068
   54MPD2    C5  828   0.557   1.958  11.382 -0.2505 -0.6928 -0.0014
   54MPD2     H  829   0.249   1.999  11.585 -1.2438  1.1075 -2.4400
   54MPD2    H1  830   0.438   1.924  11.209  1.0722  0.3287 -0.6543
   54MPD2    H2  831   0.673   2.006  11.550  0.5079  0.7930 -1.4050
   54MPD2    H3  832   0.646   1.954  11.320  1.0389  2.4221  1.6858
   54MPD2     N  833   0.204   1.933  11.318  0.0475 -0.5599 -0.1728
   54MPD2    H5  834   0.211   1.931  11.217 -1.7097 -0.3232 -0.2869
   54MPD2    N1  835   0.449   2.044  11.731 -0.1516 -0.3678 -0.5049
   54MPD2    H7  836   0.370   2.093  11.771 -1.7495 -2.9739 -0.4233
   55MPD2     C  837   1.433   3.610  16.900 -0.0054 -1.2568 -0.2973
   55MPD2    C1  838   1.426   3.596  17.036  0.3882  0.7754  0.3281
   55MPD2    C2  839   1.339   3.678  17.101 -0.2505  0.9651  0.8775
   55MPD2    C3  840   1.249   3.757  17.029 -0.2171 -0.5359  0.0771
   55MPD2    C4  841   1.249   3.765  16.892  0.6062  0.8628  0.6541
   55MPD2    C5  842   1.347   3.695  16.827  0.5592 -0.3780 -0.1739
   55MPD2     H  843   1.343   3.693  17.208  1.4708 -2.7630  1.3172
   55MPD2    H1  844   1.177   3.827  16.839  1.2658  0.6744 -0.4684
   55MPD2    H2  845   1.491   3.549  16.831 -2.3492 -1.1424 -2.3685
   55MPD2    H3  846   1.358   3.706  16.720  0.5809  1.4075  0.0024
   55MPD2     N  847   1.161   3.847  17.104 -0.6187 -0.4467  0.6580
   55MPD2    H5  848   1.161   3.825  17.203 -0.5931  0.0419  0.7687
   55MPD2    N1  849   1.504   3.504  17.102 -0.5083 -0.2273 -0.8012
   55MPD2    H7  850   1.577   3.457  17.049 -0.5418 -0.3648 -0.7254
   56TCq2    C1  851   1.498   3.473  17.234  0.3900  0.1124  0.3773
   56TCq2    O2  852   1.429   3.517  17.324 -1.0199  0.3192 -0.1675
   56TCq2    C2  853   1.615   3.402  17.270 -0.2890 -0.1688 -0.3128
   56TCq2    C3  854   1.705   3.368  17.174  0.7582 -1.0863  0.3639
   56TCq2    C4  855   1.835   3.359  17.209  0.0137  0.1563  0.1486
   56TCq2    C5  856   1.868   3.352  17.343  0.0477  0.7209  0.4410
   56TCq2    C6  857   1.780   3.396  17.436  0.5325  0.1982  0.3575
   56TCq2    C7  858   1.654   3.419  17.401 -0.5212 -0.8307 -0.0458
   56TCq2    C8  859   1.839   3.452  17.559 -0.0366  0.3692  0.3163
   56TCq2    O4  860   1.956   3.424  17.564 -0.2223 -0.4671  0.0505
   56TCq2    C9  861   1.940   3.335  17.108  0.5551  0.4060 -0.6351
   56TCq2    O5  862   1.906   3.313  16.987  0.1955  0.1799  0.3310
   56TCq2    O6  863   2.059   3.343  17.138  0.2682 -0.1572  0.6337
   56TCq2    H2  864   1.685   3.355  17.068  1.9983  1.8391 -0.2371
   56TCq2    H3  865   1.975   3.353  17.357 -0.1112 -0.2905  1.6675
   56TCq2    H4  866   1.580   3.442  17.476  0.3639 -0.0359  0.5869
   57TMC2    C1  867   0.043   0.333  13.166 -0.4436  0.1511  0.2526
   57TMC2    C2  868   0.059   0.208  13.218  0.4769 -0.5656  0.1416
   57TMC2    C3  869   0.165   0.134  13.173  0.3313  0.3554  0.5557
   57TMC2    C4  870   0.135   0.385  13.085 -0.3454 -0.0726 -0.3537
   57TMC2    C5  871   0.256   0.318  13.063  0.6503 -0.1660 -0.0909
   57TMC2    C6  872   0.267   0.187  13.098 -0.4507  0.4299  0.5125
   57TMC2     C  873   4.624   0.385  13.153  0.0824  0.3720 -0.4085
   57TMC2     O  874   4.598   0.458  13.058  0.0164  0.7332 -0.3087
   57TMC2     H  875   4.696   0.169  13.275 -1.1534 -0.3521 -2.0689
   57TMC2    H1  876   0.123   0.490  13.058 -0.5985  0.5249  2.1105
   57TMC2    H2  877   0.331   0.117  13.046 -2.1992  0.6923 -1.9628
   57TMC2    C7  878   0.359   0.387  12.985  0.2325 -1.1589  0.8063
   57TMC2    C8  879   0.146   4.719  13.193 -0.5374  0.4455  0.3903
   57TMC2    O1  880   0.333   0.494  12.929 -0.0197 -0.2140 -0.1381
   57TMC2    O2  881   0.119   4.675  13.308  0.1567 -0.4074  0.1604
   57TMC2    O5  882   0.073   4.694  13.088 -0.7317  0.2802  0.2849
   57TMC2    H5  883   0.123   4.715  13.006 -1.5409 -0.1868 -0.3129
   58MPD2     C  884   4.123   0.320  13.236  0.3265 -0.0524 -0.0207
   58MPD2    C1  885   4.185   0.338  13.360  0.1292  0.1924  0.7044
   58MPD2    C2  886   4.325   0.346  13.361 -0.3216  0.4020 -0.6544
   58MPD2    C3  887   4.403   0.349  13.241  0.1355 -0.3039 -0.3696
   58MPD2    C4  888   4.330   0.346  13.121 -0.5021 -0.0915 -0.0892
   58MPD2    C5  889   4.195   0.332  13.120 -0.0188  0.2020 -0.4246
   58MPD2     H  890   4.379   0.344  13.455 -0.7213  3.0442 -0.3632
   58MPD2    H1  891   4.384   0.356  13.027 -0.8119  0.5542 -0.2016
   58MPD2    H2  892   4.015   0.317  13.234  0.3634 -1.1083 -0.3909
   58MPD2    H3  893   4.145   0.337  13.024 -1.0051  0.0739  0.0891
   58MPD2     N  894   4.545   0.354  13.258 -0.2833 -0.2730 -0.2090
   58MPD2    H5  895   4.584   0.309  13.339  0.0755 -1.1294 -0.8611
   58MPD2    N1  896   4.119   0.370  13.473 -0.5858  0.4006 -0.2154
   58MPD2    H7  897   4.181   0.396  13.549 -0.3774 -1.9009  0.4061
   59MPD2     C  898   2.971   0.421  13.058 -0.7427  0.1592 -0.3873
   59MPD2    C1  899   2.951   0.541  12.994 -0.1939 -0.1488  1.1027
   59MPD2    C2  900   3.025   0.652  13.037 -0.0795 -0.1261  0.3998
   59MPD2    C3  901   3.121   0.637  13.134  0.2510  0.2347  0.3867
   59MPD2    C4  902   3.138   0.517  13.199  0.4184  0.2376  0.2675
   59MPD2    C5  903   3.068   0.408  13.161 -0.3835  0.5132  1.1020
   59MPD2     H  904   3.008   0.744  12.982  1.3354 -0.9277 -1.3833
   59MPD2    H1  905   3.221   0.492  13.265  0.6445 -1.5532 -0.6933
   59MPD2    H2  906   2.924   0.329  13.027 -0.0133  0.8242 -3.4384
   59MPD2    H3  907   3.098   0.316  13.209 -2.2130 -0.8774 -0.4086
   59MPD2     N  908   3.217   0.734  13.168 -0.9595  0.1127  0.3436
   59MPD2    H5  909   3.303   0.706  13.213  0.2982  1.7134 -1.0188
   59MPD2    N1  910   2.854   0.559  12.888 -0.5687  0.6324 -0.2558
   59MPD2    H7  911   2.854   0.652  12.847 -0.8017  0.3138 -0.9844
   60TCq2    C1  912   2.783   0.449  12.832  0.1504 -0.0591  0.1976
   60TCq2    O2  913   2.757   0.333  12.878 -0.0060 -0.4752 -0.3277
   60TCq2    C2  914   2.703   0.499  12.724 -0.1107 -0.5176  0.6502
   60TCq2    C3  915   2.576   0.457  12.709  0.6986 -0.3548  0.9976
   60TCq2    C4  916   2.503   0.522  12.617  0.5483 -1.0700  0.2983
   60TCq2    C5  917   2.547   0.618  12.533  0.3057 -0.0641  0.7092
   60TCq2    C6  918   2.672   0.667  12.550 -0.9806  0.6468  0.1791
   60TCq2    C7  919   2.746   0.608  12.651 -0.6223 -0.7796  0.0169
   60TCq2    C8  920   2.737   0.749  12.452  0.8765 -0.6185 -0.7762
   60TCq2    O4  921   2.851   0.721  12.429  0.5239  0.1169 -0.5490
   60TCq2    C9  922   2.368   0.486  12.600  0.3976  0.2139  0.3947
   60TCq2    O5  923   2.286   0.580  12.596 -0.5608 -0.2029  0.0785
   60TCq2    O6  924   2.333   0.364  12.605 -0.4561  0.0976  0.0168
   60TCq2    H2  925   2.528   0.375  12.761  2.5249 -1.0893  1.5377
   60TCq2    H3  926   2.477   0.655  12.458  1.6566  2.1060  0.5159
   60TCq2    H4  927   2.846   0.648  12.665  0.0714 -2.4826 -0.0588
   61MPD2     C  928   2.258   2.103  14.873  0.1999 -0.0074 -0.2341
   61MPD2    C1  929   2.164   2.190  14.820 -0.2682  0.4667  0.1102
   61MPD2    C2  930   2.213   2.283  14.735 -0.3461 -0.2266  0.8963
   61MPD2    C3  931   2.342   2.275  14.685  0.1226  0.1138  0.2322
   61MPD2    C4  932   2.422   2.171  14.723 -0.1620  0.1293 -0.4428
   61MPD2    C5  933   2.384   2.086  14.825  0.1394  0.6654 -0.4707
   61MPD2     H  934   2.139   2.358  14.711  0.9092  0.6290 -0.3158
   61MPD2    H1  935   2.519   2.139  14.688 -1.3009 -2.4118 -1.3026
   61MPD2    H2  936   2.235   2.029  14.949 -1.6732 -1.1283 -1.8880
   61MPD2    H3  937   2.449   2.009  14.866 -1.1678  0.3390  1.0054
   61MPD2     N  938   2.381   2.354  14.581 -0.2094  0.6010  0.4222
   61MPD2    H5  939   2.476   2.340  14.549  0.1378  1.1665  1.1837
   61MPD2    N1  940   2.026   2.192  14.850  0.0040  0.1068 -1.1312
   61MPD2    H7  941   1.972   2.262  14.800  1.1938  1.7181 -0.1742
   62TCq2    C1  942   1.956   2.113  14.937  0.3365 -0.3378  1.0136
   62TCq2    O2  943   1.980   2.011  15.000  0.1702  0.3602  0.1152
   62TCq2    C2  944   1.816   2.151  14.941 -0.7816  0.0909 -0.4659
   62TCq2    C3  945   1.726   2.055  14.968 -0.3752 -0.2131  0.1708
   62TCq2    C4  946   1.594   2.086  14.967 -0.0791  0.0202  0.0925
   62TCq2    C5  947   1.554   2.217  14.947 -0.0810 -0.3147 -0.3118
   62TCq2    C6  948   1.657   2.311  14.920 -0.1707  0.0021  0.4673
   62TCq2    C7  949   1.786   2.281  14.923 -0.4202 -0.0394  0.4295
   62TCq2    C8  950   1.624   2.452  14.921  0.2217  0.2357  0.2715
   62TCq2    O4  951   1.722   2.521  14.932  0.3024  0.2962 -0.2029
   62TCq2    C9  952   1.490   1.983  14.986  0.4578  0.2398 -0.6778
   62TCq2    O5  953   1.366   2.006  14.954  0.0052  0.2068 -0.1646
   62TCq2    O6  954   1.535   1.868  15.019  0.1603  0.1028  0.0820
   62TCq2    H2  955   1.767   1.957  14.989 -2.5343 -0.3235  3.9162
   62TCq2    H3  956   1.449   2.242  14.957  0.0856  0.5783 -0.7928
   62TCq2    H4  957   1.867   2.352  14.932  1.9061 -2.4899 -1.0770
   63TMC2    C1  958   1.948   1.634  10.674  0.5919 -0.1676 -0.1909
   63TMC2    C2  959   2.039   1.675  10.766  0.1000  0.1861 -0.0146
   63TMC2    C3  960   2.143   1.735  10.713 -0.3511 -0.0446 -0.5393
   63TMC2    C4  961   1.973   1.635  10.537  0.3634  0.3329 -0.1072
   63TMC2    C5  962   2.085   1.691  10.497 -1.0064  0.2038  0.4149
   63TMC2    C6  963   2.168   1.754  10.582  0.0511  0.3703 -0.0147
   63TMC2     C  964   1.825   1.578  10.726  1.1291 -0.0038 -0.5220
   63TMC2     O  965   1.801   1.570  10.846  0.4852 -0.1078 -0.4052
   63TMC2     H  966   2.016   1.660  10.871 -0.8774  0.8109 -0.1380
   63TMC2    H1  967   1.913   1.571  10.473 -1.4726  2.7297 -0.7499
   63TMC2    H2  968   2.241   1.830  10.557 -0.1362  1.1059  1.6471
   63TMC2    C7  969   2.046   1.762  10.370  0.3966 -0.1495 -0.3885
   63TMC2    C8  970   2.248   1.773  10.800 -0.1869  0.0176 -0.5943
   63TMC2    O1  971   1.931   1.762  10.341  0.4331  0.2056  0.2892
   63TMC2    O2  972   2.362   1.780  10.757  0.3008 -0.4117  0.3496
   63TMC2    O5  973   2.205   1.814  10.917  0.1545 -0.5900 -0.4784
   63TMC2    H5  974   2.110   1.815  10.939  0.3899  0.9729  0.5153
   64MPD2     C  975   1.412   1.264  10.679  0.3910 -0.2967  0.3557
   64MPD2    C1  976   1.490   1.263  10.565 -0.0743 -0.1790  0.0355
   64MPD2    C2  977   1.597   1.349  10.549 -0.6648 -0.5391 -0.0062
   64MPD2    C3  978   1.634   1.435  10.650  0.0870 -0.2743  0.3327
   64MPD2    C4  979   1.556   1.439  10.769  0.3855  1.1512  0.0528
   64MPD2    C5  980   1.449   1.353  10.777  0.0305  0.1694 -0.9029
   64MPD2     H  981   1.650   1.349  10.454  0.9492 -0.4630  0.8922
   64MPD2    H1  982   1.575   1.507  10.851 -0.8128  2.7775 -1.0215
   64MPD2    H2  983   1.322   1.203  10.685  0.5660 -0.6488 -0.6105
   64MPD2    H3  984   1.390   1.360  10.868  2.8364 -0.6897  0.9859
   64MPD2     N  985   1.745   1.524  10.623  0.2010  0.0605 -0.1358
   64MPD2    H5  986   1.778   1.527  10.527  0.6705  1.8133  0.0931
   64MPD2    N1  987   1.462   1.182  10.450 -0.0505 -0.8319  0.1383
   64MPD2    H7  988   1.518   1.197  10.367 -0.6445 -2.2740 -0.5222
   65MPD2     C  989   2.959   1.468  15.522 -0.7391 -0.8107 -0.1632
   65MPD2    C1  990   2.978   1.427  15.390 -0.7125  0.1449 -0.1039
   65MPD2    C2  991   2.968   1.291  15.349 -0.0360  0.3282 -0.6064
   65MPD2    C3  992   2.945   1.194  15.446 -0.2277  0.1024 -0.4414
   65MPD2    C4  993   2.932   1.239  15.573  0.4944  0.4421 -0.1405
   65MPD2    C5  994   2.938   1.369  15.617  0.1031  0.0802  0.2986
   65MPD2     H  995   3.000   1.262  15.250 -0.7108  0.3103 -0.8185
   65MPD2    H1  996   2.922   1.164  15.651  0.3535  2.0443  1.3767
   65MPD2    H2  997   2.957   1.566  15.568 -2.7846 -1.3870  0.9793
   65MPD2    H3  998   2.927   1.392  15.722  1.0843  1.1740  0.1590
   65MPD2     N  999   2.934   1.051  15.433 -0.2050 -0.1825  0.3093
   65MPD2    H5 1000   2.917   0.986  15.509  1.1373 -2.5891 -1.4580
   65MPD2    N1 1001   3.011   1.518  15.289  0.4171 -0.0572 -0.2284
   65MPD2    H7 1002   3.035   1.474  15.201 -0.9227 -0.3029 -0.4696
   66TCq2    C1 1003   3.022   1.655  15.296 -0.0423  0.1894  0.0703
   66TCq2    O2 1004   3.004   1.725  15.393 -0.3711  0.4588 -0.5674
   66TCq2    C2 1005   3.051   1.723  15.167 -0.1912  0.1830  0.8010
   66TCq2    C3 1006   3.083   1.650  15.058 -0.3636  0.4246 -0.0182
   66TCq2    C4 1007   3.110   1.712  14.942  0.0056 -0.0915 -0.2615
   66TCq2    C5 1008   3.095   1.843  14.927 -0.5994 -0.1266  0.4095
   66TCq2    C6 1009   3.063   1.911  15.042  0.8490 -0.1547 -0.9310
   66TCq2    C7 1010   3.048   1.857  15.163 -0.0581 -0.7822  0.3111
   66TCq2    C8 1011   3.028   2.052  15.030  0.3439  1.2298  0.0281
   66TCq2    O4 1012   3.059   2.106  14.925 -0.4861  0.0862 -0.0038
   66TCq2    C9 1013   3.132   1.635  14.831 -0.3918 -0.9809 -0.5570
   66TCq2    O5 1014   3.136   1.693  14.720 -0.0900 -0.0655  0.1240
   66TCq2    O6 1015   3.133   1.509  14.852  0.3398 -0.2311 -0.0680
   66TCq2    H2 1016   3.078   1.542  15.065  2.5694  0.2051 -1.2842
   66TCq2    H3 1017   3.090   1.889  14.829  0.4410 -0.3045  0.2734
   66TCq2    H4 1018   3.049   1.917  15.253 -0.2934  1.7358 -1.3627
   67MPD2     C 1019   2.619   0.821  14.027  1.1041 -0.3047  0.2221
   67MPD2    C1 1020   2.653   0.951  14.057 -0.1498 -0.5709 -1.1714
   67MPD2    C2 1021   2.564   1.048  14.024 -0.0775  0.0751  0.3742
   67MPD2    C3 1022   2.443   1.022  13.959  0.3781  0.0668 -0.3427
   67MPD2    C4 1023   2.406   0.891  13.949 -0.5092 -0.2392  0.4840
   67MPD2    C5 1024   2.494   0.795  13.970 -0.2112  0.3115 -0.3720
   67MPD2     H 1025   2.599   1.149  14.042  1.4816 -0.6671  1.5049
   67MPD2    H1 1026   2.303   0.865  13.926 -0.9892  2.0534  0.0094
   67MPD2    H2 1027   2.691   0.743  14.050  0.8314 -0.9104 -0.9556
   67MPD2    H3 1028   2.474   0.689  13.961  0.8793 -0.0032  0.9741
   67MPD2     N 1029   2.358   1.126  13.919  0.4079 -0.5441 -0.1327
   67MPD2    H5 1030   2.272   1.094  13.874  0.3633 -0.1853 -0.3011
   67MPD2    N1 1031   2.760   0.987  14.131 -0.5586 -0.1057  0.0055
   67MPD2    H7 1032   2.765   1.084  14.162 -0.9271  0.1200 -0.6500
   68TCq2    C1 1033   2.872   0.908  14.159  0.2062  0.1085  0.1432
   68TCq2    O2 1034   2.886   0.793  14.134  0.8929  0.4088  0.0569
   68TCq2    C2 1035   2.980   0.987  14.222 -0.4078  0.1073  0.7217
   68TCq2    C3 1036   2.982   1.125  14.222  0.6098  0.5677  0.4384
   68TCq2    C4 1037   3.058   1.187  14.309 -0.0481 -0.1910  0.4288
   68TCq2    C5 1038   3.141   1.117  14.394 -0.2538  0.2359  0.3081
   68TCq2    C6 1039   3.139   0.986  14.397  0.1225  0.8348 -0.0427
   68TCq2    C7 1040   3.064   0.916  14.309 -0.6910 -0.5094  0.0398
   68TCq2    C8 1041   3.221   0.915  14.495  0.4849 -0.4559 -0.0675
   68TCq2    O4 1042   3.252   0.800  14.456  0.4058  0.7660  0.3508
   68TCq2    C9 1043   3.069   1.332  14.309 -0.3981 -0.1641 -0.8630
   68TCq2    O5 1044   3.131   1.387  14.401  0.4972 -0.4578 -0.1226
   68TCq2    O6 1045   2.978   1.388  14.246  0.0607  0.7340 -0.0902
   68TCq2    H2 1046   2.921   1.174  14.147  2.3868  0.2635 -1.2001
   68TCq2    H3 1047   3.190   1.180  14.467 -1.0690  0.6316  0.5218
   68TCq2    H4 1048   3.057   0.809  14.324 -4.5253 -0.3097 -0.2881
   69TMC2    C1 1049   0.456   2.271  12.470  0.0404  0.1821 -0.2369
   69TMC2    C2 1050   0.546   2.293  12.573 -0.2404 -0.4147 -0.0347
   69TMC2    C3 1051   0.659   2.363  12.538 -0.1774  0.3866  0.3605
   69TMC2    C4 1052   0.475   2.311  12.340  0.0491  0.1763  0.0652
   69TMC2    C5 1053   0.585   2.383  12.315  0.0586 -0.7363 -0.1373
   69TMC2    C6 1054   0.684   2.405  12.413  0.5618 -0.0784  0.2278
   69TMC2     C 1055   0.340   2.195  12.502  0.3344  0.7732 -0.1990
   69TMC2     O 1056   0.249   2.202  12.421  0.4098 -0.0345 -0.0968
   69TMC2     H 1057   0.511   2.279  12.675  2.2560 -0.5019  0.7914
   69TMC2    H1 1058   0.416   2.284  12.253 -2.9974 -2.7932  3.0153
   69TMC2    H2 1059   0.780   2.440  12.379 -0.1828 -0.1344 -1.9213
   69TMC2    C7 1060   0.657   2.361  12.197 -0.4232 -0.0438  0.3285
   69TMC2    C8 1061   0.774   2.367  12.630 -0.4109 -0.1824 -0.3430
   69TMC2    O1 1062   0.759   2.296  12.214  0.3554  0.8230  0.3169
   69TMC2    O2 1063   0.864   2.452  12.613 -1.0086  0.2159  0.3802
   69TMC2    O5 1064   0.768   2.274  12.730 -0.4054  0.2643 -0.0294
   69TMC2    H5 1065   0.686   2.220  12.728  0.0446 -0.4073 -0.3215
   70MPD2     C 1066   0.133   2.016  12.618  0.3407  0.8480 -0.1902
   70MPD2    C1 1067   0.266   2.007  12.649 -0.6766  0.7200 -0.1278
   70MPD2    C2 1068   0.307   1.903  12.739  0.0563  0.9471  0.5201
   70MPD2    C3 1069   0.219   1.799  12.764 -0.0097 -1.5113  0.4076
   70MPD2    C4 1070   0.082   1.821  12.748  0.7878 -0.0808 -0.2744
   70MPD2    C5 1071   0.046   1.926  12.671  0.1253 -0.0790 -0.0455
   70MPD2     H 1072   0.409   1.910  12.775 -0.5140  3.4902  1.6089
   70MPD2    H1 1073   0.002   1.751  12.768  1.3997 -0.1462  1.9086
   70MPD2    H2 1074   0.088   2.093  12.557  0.7980  0.7173 -0.6905
   70MPD2    H3 1075   4.666   1.927  12.630 -0.0358 -0.0478  0.3540
   70MPD2     N 1076   0.266   1.675  12.822 -0.3208  0.0620 -0.0820
   70MPD2    H5 1077   0.198   1.609  12.857 -1.4016  1.2368  0.0040
   70MPD2    N1 1078   0.362   2.098  12.601  0.4309  0.0747  0.1683
   70MPD2    H7 1079   0.453   2.089  12.645  2.2445  0.0443 -3.5104
   71TMC2    C1 1080   2.193   3.428   1.869 -0.1129  0.3315  0.2117
   71TMC2    C2 1081   2.235   3.360   1.978 -0.0858 -0.4420  0.1447
   71TMC2    C3 1082   2.182   3.394   2.099 -0.3204 -0.6750 -0.0963
   71TMC2    C4 1083   2.104   3.529   1.879 -0.2790 -0.4689  0.2134
   71TMC2    C5 1084   2.041   3.546   2.001 -0.0135  0.6006 -0.3836
   71TMC2    C6 1085   2.087   3.486   2.110 -0.7579 -0.3766 -0.0121
   71TMC2     C 1086   2.204   3.362   1.738  0.4332 -0.0353 -0.2913
   71TMC2     O 1087   2.278   3.261   1.724  0.0586  0.7156 -0.2499
   71TMC2     H 1088   2.276   3.260   1.964 -1.8870 -1.2950  1.0632
   71TMC2    H1 1089   2.067   3.595   1.801 -1.3928 -2.7057 -1.1506
   71TMC2    H2 1090   2.042   3.521   2.203 -0.1268  1.0434 -0.2424
   71TMC2    C7 1091   1.913   3.625   2.007 -0.1237  0.0898  0.3652
   71TMC2    C8 1092   2.234   3.331   2.218 -0.0727 -0.0711 -0.5366
   71TMC2    O1 1093   1.909   3.715   2.087  0.0468 -0.1206  0.1204
   71TMC2    O2 1094   2.168   3.298   2.319 -0.0682 -0.2184  0.3745
   71TMC2    O5 1095   2.366   3.315   2.187  0.1819 -0.1486 -0.0330
   71TMC2    H5 1096   2.397   3.363   2.107  1.5540 -1.0019  0.0013
   72MPD2     C 1097   1.994   3.237   1.283  0.2819  0.0577  0.0757
   72MPD2    C1 1098   2.119   3.202   1.339 -0.3319  0.1165 -0.1988
   72MPD2    C2 1099   2.157   3.250   1.461 -0.2768  0.3071  0.3348
   72MPD2    C3 1100   2.082   3.351   1.521 -0.2173  0.1238  0.2269
   72MPD2    C4 1101   1.967   3.394   1.456 -0.3209 -0.0299 -0.0175
   72MPD2    C5 1102   1.919   3.338   1.341  0.6597 -0.3083 -0.7948
   72MPD2     H 1103   2.249   3.214   1.506 -0.7618 -2.7384 -1.0906
   72MPD2    H1 1104   1.897   3.465   1.500  1.0435 -1.1070  3.9289
   72MPD2    H2 1105   1.953   3.198   1.190  0.0491 -0.3944  0.3705
   72MPD2    H3 1106   1.821   3.368   1.306 -0.2119 -1.5713  0.5516
   72MPD2     N 1107   2.103   3.399   1.656  0.6865  1.3509  0.1119
   72MPD2    H5 1108   2.043   3.471   1.694 -1.4118  0.4612 -1.5049
   72MPD2    N1 1109   2.207   3.105   1.273  0.8952 -0.3533 -0.2630
   72MPD2    H7 1110   2.297   3.093   1.317  1.7559 -0.2669 -1.9869
   73TMC2    C1 1111   2.015   4.223  14.106  0.5563 -0.1048 -0.1709
   73TMC2    C2 1112   1.945   4.281  14.212 -0.1710 -0.6004 -0.1922
   73TMC2    C3 1113   1.839   4.216  14.273  0.2718  0.5844  0.1150
   73TMC2    C4 1114   1.967   4.100  14.057 -0.7421  0.4202 -0.0385
   73TMC2    C5 1115   1.851   4.044  14.105 -0.2823  0.0295 -0.1435
   73TMC2    C6 1116   1.793   4.097  14.220 -0.4038  0.0891  0.5134
   73TMC2     C 1117   2.046   4.310  13.997 -0.4794  0.7816  0.1578
   73TMC2     O 1118   2.008   4.263  13.890  1.0776 -0.4091  0.1574
   73TMC2     H 1119   1.970   4.383  14.238  0.5309 -0.5667 -0.9969
   73TMC2    H1 1120   2.028   4.052  13.981 -1.4554 -1.8485  0.7903
   73TMC2    H2 1121   1.708   4.048  14.266 -0.1022  0.6697  1.6892
   73TMC2    C7 1122   1.762   4.014  13.996 -0.4789  0.1030  0.5565
   73TMC2    C8 1123   1.770   4.276  14.389  0.4195  0.3497 -0.2903
   73TMC2    O1 1124   1.658   3.964  14.024  0.1271  0.0522 -0.1779
   73TMC2    O2 1125   1.701   4.205  14.460  0.1058 -0.4380  0.6407
   73TMC2    O5 1126   1.732   4.399  14.357  0.6815  0.5871 -0.1112
   73TMC2    H5 1127   1.776   4.429  14.274 -0.0439 -1.6454 -1.3054
   74MPD2     C 1128   2.225   0.007  13.759 -0.1206  0.0271  0.0837
   74MPD2    C1 1129   2.132   4.641  13.721 -0.0973 -0.1965 -0.4810
   74MPD2    C2 1130   2.092   4.541  13.809  0.1895 -0.1735  0.4914
   74MPD2    C3 1131   2.150   4.535  13.935 -0.7441 -0.1928  0.2601
   74MPD2    C4 1132   2.252   4.618  13.969 -0.1966  0.3453  0.4456
   74MPD2    C5 1133   2.288   4.717  13.878 -0.3778 -0.3207 -0.1054
   74MPD2     H 1134   2.007   4.482  13.776 -0.3587 -0.1398  1.8589
   74MPD2    H1 1135   2.312   4.611  14.059  2.7967  1.7714 -1.4271
   74MPD2    H2 1136   2.247   0.095  13.700  0.6243  0.7061  1.3829
   74MPD2    H3 1137   2.361   0.069  13.910  0.2388  0.2051 -2.7296
   74MPD2     N 1138   2.133   4.419  14.023  0.1476  0.3756  0.0397
   74MPD2    H5 1139   2.179   4.420  14.114 -0.9283  0.0886  0.5882
   74MPD2    N1 1140   2.060   4.659  13.596  0.4410  0.1278 -0.2124
   74MPD2    H7 1141   2.101   4.714  13.522 -1.2578  0.5954 -0.8054
   75TCq2    C1 1142   2.379   1.265  13.930 -0.3632  0.6508 -1.1634
   75TCq2    O2 1143   2.484   1.326  13.932  0.0562 -0.2834  0.5063
   75TCq2    C2 1144   2.260   1.341  13.898 -0.2359 -0.2665  0.2314
   75TCq2    C3 1145   2.142   1.276  13.932  0.5402 -0.3770 -0.4593
   75TCq2    C4 1146   2.036   1.307  13.855 -0.1246  0.4437  0.1419
   75TCq2    C5 1147   2.044   1.408  13.765  0.1513  0.0558  0.9901
   75TCq2    C6 1148   2.160   1.480  13.748 -0.4418  0.2693 -0.6086
   75TCq2    C7 1149   2.275   1.446  13.813  0.1551 -0.9050  0.0445
   75TCq2    C8 1150   2.177   1.531  13.615  0.1260 -0.0206  0.1760
   75TCq2    O4 1151   2.268   1.611  13.595 -0.4589 -0.0811 -0.0104
   75TCq2    C9 1152   1.926   1.224  13.866  0.4152 -0.3769  0.5224
   75TCq2    O5 1153   1.936   1.138  13.958  0.0959  0.0068 -0.2998
   75TCq2    O6 1154   1.829   1.241  13.789  0.6332  0.6591  0.2910
   75TCq2    H2 1155   2.131   1.196  14.005  0.5018 -2.6126 -2.8844
   75TCq2    H3 1156   1.962   1.428  13.697  0.2162 -2.8013  0.0416
   75TCq2    H4 1157   2.375   1.484  13.790 -0.5574  1.7620  1.3126
   76MPD2     C 1158   1.597   1.736  12.103  0.2549 -0.1246  0.4984
   76MPD2    C1 1159   1.524   1.680  12.003 -0.7575  0.2261 -0.1637
   76MPD2    C2 1160   1.551   1.547  11.973 -0.7503  0.6809  0.2495
   76MPD2    C3 1161   1.643   1.471  12.042  0.0788  0.4939 -0.6515
   76MPD2    C4 1162   1.712   1.530  12.143 -0.1887  0.4082  0.2164
   76MPD2    C5 1163   1.690   1.662  12.166 -0.4768  0.4676  0.2638
   76MPD2     H 1164   1.495   1.497  11.895 -0.1109  1.0743 -0.4634
   76MPD2    H1 1165   1.788   1.482  12.203 -1.5815 -1.8959  0.1299
   76MPD2    H2 1166   1.594   1.844  12.104 -2.1714 -0.1313 -3.1610
   76MPD2    H3 1167   1.759   1.714  12.232  0.9933 -0.1318 -0.7995
   76MPD2     N 1168   1.672   1.333  12.027  0.1404 -0.7205 -0.0436
   76MPD2    H5 1169   1.722   1.285  12.102  0.4305  0.8901  0.7884
   76MPD2    N1 1170   1.436   1.755  11.915  0.2240  0.0047  0.4657
   76MPD2    H7 1171   1.382   1.698  11.851 -1.3550 -0.4870  2.2440
   77TCq2    C1 1172   1.631   1.247  11.935  0.2006 -0.7404 -0.1372
   77TCq2    O2 1173   1.565   1.259  11.830  0.4079  0.3321 -0.2245
   77TCq2    C2 1174   1.692   1.119  11.956 -0.1319 -0.1077 -0.5373
   77TCq2    C3 1175   1.616   1.010  11.933 -0.4343  0.0357  0.1253
   77TCq2    C4 1176   1.662   0.886  11.977 -0.2042  0.0972  0.0572
   77TCq2    C5 1177   1.767   0.875  12.059 -0.5571 -0.6479 -0.3278
   77TCq2    C6 1178   1.838   0.990  12.079  0.0603  0.5696  1.1574
   77TCq2    C7 1179   1.807   1.104  12.020  0.1487  0.7450 -0.6511
   77TCq2    C8 1180   1.939   0.986  12.186 -0.9409  0.8448 -0.3948
   77TCq2    O4 1181   1.939   0.888  12.261 -0.7888 -0.0375  0.6208
   77TCq2    C9 1182   1.590   0.771  11.944  0.2580 -0.3311  0.5738
   77TCq2    O5 1183   1.575   0.681  12.037  0.0358  0.4055 -0.5055
   77TCq2    O6 1184   1.517   0.772  11.839  0.6510  0.3795  0.4559
   77TCq2    H2 1185   1.536   1.013  11.860  0.1692 -3.2663 -0.6839
   77TCq2    H3 1186   1.789   0.776  12.097 -3.5553  0.2298  3.6885
   77TCq2    H4 1187   1.870   1.192  12.010  1.7327 -0.5111 -1.6325
   78MPD1     C 1188   2.616   2.719   0.577 -0.4879  1.0822 -0.5297
   78MPD1    C1 1189   2.561   2.625   0.495  0.0905 -0.1893  0.0065
   78MPD1    C2 1190   2.603   2.493   0.512  0.8894  0.1785 -0.3169
   78MPD1    C3 1191   2.686   2.454   0.613  0.6569  0.0341 -0.2136
   78MPD1    C4 1192   2.730   2.555   0.699  0.4184  0.1875  0.2982
   78MPD1    C5 1193   2.689   2.686   0.680 -0.4465  0.1781 -0.2528
   78MPD1     H 1194   2.567   2.411   0.450  3.0363  0.0332 -1.3789
   78MPD1    H1 1195   2.813   2.540   0.767 -0.2404 -0.5277  0.9491
   78MPD1    H2 1196   2.596   2.825   0.573 -0.2134  1.0915 -1.7631
   78MPD1    H3 1197   2.716   2.761   0.754 -1.8489 -1.1921  1.6402
   78MPD1     N 1198   2.741   2.327   0.642  0.1030  0.1149  0.8175
   78MPD1    H5 1199   2.799   2.311   0.724 -0.5100  0.8063  1.3864
   78MPD1    N1 1200   2.493   2.663   0.384  0.0119  0.2259 -0.0562
   78MPD1    H6 1201   2.434   2.744   0.401 -0.2108  0.5238 -2.1798
   78MPD1    H7 1202   2.431   2.594   0.342  2.0657 -1.8576  0.3026
   79TCq2    C1 1203   2.708   2.214   0.579 -1.3987 -0.0762  0.0443
   79TCq2    O2 1204   2.621   2.193   0.492 -0.5079 -0.0583  0.4590
   79TCq2    C2 1205   2.788   2.103   0.618 -0.8127  0.4357  0.0900
   79TCq2    C3 1206   2.745   1.978   0.581  0.0611 -0.1573 -0.6023
   79TCq2    C4 1207   2.825   1.871   0.612 -0.3705  0.6362  0.2465
   79TCq2    C5 1208   2.938   1.888   0.684 -0.7823  0.3040  0.4086
   79TCq2    C6 1209   2.976   2.014   0.711  0.1636 -0.1883  0.2554
   79TCq2    C7 1210   2.902   2.122   0.684 -0.2376 -0.3415 -0.3153
   79TCq2    C8 1211   3.115   2.042   0.735  0.0238  0.4177  0.2184
   79TCq2    O4 1212   3.142   2.155   0.772  0.1436  0.1477 -0.2059
   79TCq2    C9 1213   2.787   1.733   0.570 -0.4172 -0.1185  0.2688
   79TCq2    O5 1214   2.870   1.637   0.587  0.0998 -0.5447 -0.0627
   79TCq2    O6 1215   2.673   1.723   0.519  0.1788  0.0710 -0.0264
   79TCq2    H2 1216   2.652   1.970   0.526 -1.1770  0.4322  1.3966
   79TCq2    H3 1217   3.001   1.801   0.698 -1.3432 -0.2647 -0.6162
   79TCq2    H4 1218   2.942   2.220   0.707 -1.2234  0.4523 -2.0524
   80MPD2     C 1219   0.144   1.335  12.527  1.0802  0.6428  0.0326
   80MPD2    C1 1220   0.143   1.352  12.389 -0.2027 -0.3447  0.3588
   80MPD2    C2 1221   0.025   1.350  12.317  0.0650  0.6895 -0.2803
   80MPD2    C3 1222   4.624   1.328  12.372  0.5032 -0.1276 -0.5083
   80MPD2    C4 1223   4.623   1.299  12.506 -0.3055  0.2545  0.1598
   80MPD2    C5 1224   0.019   1.309  12.579  0.2904  0.6319 -0.3507
   80MPD2     H 1225   0.035   1.353  12.209  1.6362  2.6453 -0.0834
   80MPD2    H1 1226   4.527   1.284  12.554 -0.5931 -0.4175 -0.6176
   80MPD2    H2 1227   0.229   1.332  12.595 -0.3198 -0.1742  1.7230
   80MPD2    H3 1228   0.016   1.300  12.687  0.9145  0.1529 -0.3722
   80MPD2     N 1229   4.498   1.325  12.306 -0.9544  0.0925 -0.1620
   80MPD2    H5 1230   4.416   1.298  12.361 -0.2119 -0.6909  0.5571
   80MPD2    N1 1231   0.265   1.370  12.323  0.1525  0.2857  0.1818
   80MPD2    H7 1232   0.252   1.372  12.222 -0.0197  0.9021  0.2164
   81TCq2    C1 1233   0.386   1.394  12.385  0.3168 -0.3310  0.5702
   81TCq2    O2 1234   0.417   1.431  12.499  0.4939 -0.1949  0.3025
   81TCq2    C2 1235   0.487   1.386  12.277 -0.0569  0.1551  0.5637
   81TCq2    C3 1236   0.553   1.499  12.227 -0.3786  0.2085  0.6538
   81TCq2    C4 1237   0.587   1.508  12.091 -0.8368 -0.3488  0.6208
   81TCq2    C5 1238   0.556   1.412  12.003 -0.8451 -0.2407 -0.8437
   81TCq2    C6 1239   0.494   1.296  12.055  0.1784  0.5938 -0.5078
   81TCq2    C7 1240   0.463   1.279  12.190  0.4209  0.7737  0.2555
   81TCq2    C8 1241   0.435   1.195  11.959 -0.4688 -0.5124  0.0738
   81TCq2    O4 1242   0.428   1.237  11.846  0.0358 -0.7024  0.1261
   81TCq2    C9 1243   0.651   1.626  12.026 -0.7694  0.3247  0.8301
   81TCq2    O5 1244   0.711   1.702  12.101 -0.1470 -0.0052  0.9042
   81TCq2    O6 1245   0.652   1.635  11.899 -0.1378  0.5185  0.7512
   81TCq2    H2 1246   0.565   1.587  12.290 -0.1929 -0.2293  1.2335
   81TCq2    H3 1247   0.585   1.415  11.898 -1.7807  1.5066 -1.0488
   81TCq2    H4 1248   0.409   1.195  12.233  1.5538 -0.3718 -0.5783
   82MPD2     C 1249   3.427   0.778  10.128 -0.4579 -0.3298  0.3497
   82MPD2    C1 1250   3.351   0.664  10.160 -0.1686  0.1813 -0.3401
   82MPD2    C2 1251   3.401   0.575  10.253  0.2751 -0.3976  0.0575
   82MPD2    C3 1252   3.527   0.592  10.310 -0.8023  0.3975  0.1224
   82MPD2    C4 1253   3.598   0.709  10.275  0.4499  0.2756 -0.0849
   82MPD2    C5 1254   3.550   0.796  10.188  0.5217  0.2153 -0.5703
   82MPD2     H 1255   3.356   0.480  10.279 -3.2078  1.0445 -0.7379
   82MPD2    H1 1256   3.696   0.731  10.314  1.1793  1.2270 -2.4169
   82MPD2    H2 1257   3.392   0.852  10.057  0.0196 -1.4645 -1.0479
   82MPD2    H3 1258   3.605   0.884  10.157  0.9009  0.4997  0.9170
   82MPD2     N 1259   3.584   0.488  10.376  0.0239  0.6935  0.0352
   82MPD2    H5 1260   3.526   0.406  10.394  1.1081 -0.4158 -1.5676
   82MPD2    N1 1261   3.233   0.631  10.093  0.4440 -0.2911 -0.3864
   82MPD2    H7 1262   3.206   0.684  10.011 -1.5955  1.0804  1.1715
   83TCq2    C1 1263   3.710   0.480  10.432 -0.2168  0.0349 -0.1981
   83TCq2    O2 1264   3.797   0.570  10.441  0.1626  0.9062  0.0079
   83TCq2    C2 1265   3.736   0.361  10.507  0.0383  0.0441 -0.4963
   83TCq2    C3 1266   3.808   0.373  10.625 -0.0421 -0.4517 -0.4155
   83TCq2    C4 1267   3.819   0.262  10.698  0.6364  0.5166  1.0141
   83TCq2    C5 1268   3.761   0.142  10.669 -0.3810  0.4001 -0.1250
   83TCq2    C6 1269   3.685   0.136  10.552  0.1512 -0.4957 -0.0689
   83TCq2    C7 1270   3.665   0.245  10.475 -0.5619  0.2575 -0.5918
   83TCq2    C8 1271   3.597   0.026  10.541 -0.0961  0.7265 -0.4805
   83TCq2    O4 1272   3.590   4.697  10.431  0.0126 -0.3022  0.0323
   83TCq2    C9 1273   3.902   0.272  10.812 -0.4325  0.2090 -0.2146
   83TCq2    O5 1274   3.966   0.378  10.831  0.4480  0.5330  0.2213
   83TCq2    O6 1275   3.915   0.169  10.881 -0.3962  0.5755  0.1947
   83TCq2    H2 1276   3.856   0.465  10.658 -1.7462 -0.0246  0.8961
   83TCq2    H3 1277   3.779   0.055  10.730  1.5328  1.7213  1.1780
   83TCq2    H4 1278   3.600   0.230  10.390  0.7945 -0.0428 -1.5744
   84TCq2    C1 1279   4.102   3.761  10.552  0.2755  0.7854 -0.5442
   84TCq2    O2 1280   4.009   3.717  10.618 -0.2165 -0.3585  0.5118
   84TCq2    C2 1281   4.204   3.836  10.627 -0.4508  1.1049  0.3461
   84TCq2    C3 1282   4.309   3.886  10.558 -0.1504 -0.1488  0.0868
   84TCq2    C4 1283   4.382   3.992  10.604 -0.3247  0.2242  0.4014
   84TCq2    C5 1284   4.346   4.066  10.711 -0.6359 -0.4333 -0.0183
   84TCq2    C6 1285   4.246   4.003  10.789 -0.2970  0.2812  0.2206
   84TCq2    C7 1286   4.167   3.897  10.743  0.0986  0.6288 -1.1446
   84TCq2    C8 1287   4.221   4.056  10.921 -0.7750 -0.6450 -0.3278
   84TCq2    O4 1288   4.267   4.169  10.939 -0.6899 -0.4727 -0.3953
   84TCq2    C9 1289   4.508   4.021  10.544 -0.4347  0.2359 -0.1555
   84TCq2    O5 1290   4.598   4.047  10.624  0.0969 -0.0548 -0.2534
   84TCq2    O6 1291   4.527   3.982  10.424  0.1451  0.2245 -0.0571
   84TCq2    H2 1292   4.347   3.831  10.473 -0.4460 -1.5538  0.8517
   84TCq2    H3 1293   4.406   4.153  10.733  0.4890 -0.7472 -1.8282
   84TCq2    H4 1294   4.089   3.852  10.803 -1.6024  1.7055 -2.5270
   85MPD2     C 1295   4.519   2.356  16.208 -0.0582 -0.1549  0.1710
   85MPD2    C1 1296   4.575   2.283  16.104  0.0372 -0.2225 -0.0989
   85MPD2    C2 1297   4.601   2.342  15.983  0.7857  0.4562 -0.4176
   85MPD2    C3 1298   4.583   2.481  15.969  0.2375  0.0164  0.0357
   85MPD2    C4 1299   4.547   2.552  16.080 -0.2328  0.1299 -0.4710
   85MPD2    C5 1300   4.507   2.493  16.198  0.5369 -0.0904 -0.3697
   85MPD2     H 1301   4.650   2.282  15.907  2.0334  1.4404 -0.3824
   85MPD2    H1 1302   4.547   2.660  16.077 -1.4711  0.1899  0.9566
   85MPD2    H2 1303   4.489   2.322  16.307 -0.9784  0.1330 -0.0033
   85MPD2    H3 1304   4.458   2.536  16.284  1.6555 -1.9538  1.2183
   85MPD2     N 1305   4.618   2.541  15.844  0.1658 -0.0711 -0.1921
   85MPD2    H5 1306   4.649   2.483  15.767 -1.7016 -1.1775 -0.1271
   85MPD2    N1 1307   4.621   2.147  16.126  0.1080  0.6916  0.2895
   85MPD2    H7 1308   4.663   2.101  16.046 -0.6744 -0.0541  0.3027
   86TCq2    C1 1309   4.585   2.673  15.812  0.0600  0.0853  0.2780
   86TCq2    O2 1310   4.524   2.752  15.881  0.1379  0.0251 -0.0656
   86TCq2    C2 1311   4.665   2.732  15.703 -0.0740  0.6835 -0.6095
   86TCq2    C3 1312   4.677   2.869  15.703 -0.6783 -0.4360 -0.2030
   86TCq2    C4 1313   0.039   2.922  15.610  0.6031  0.4538  0.1241
   86TCq2    C5 1314   0.108   2.853  15.514  0.7038  0.4269  0.2593
   86TCq2    C6 1315   0.071   2.716  15.508 -0.2607  0.4389 -0.1453
   86TCq2    C7 1316   4.711   2.652  15.597  0.0722  0.0552 -0.3178
   86TCq2    C8 1317   0.142   2.629  15.416  0.1095 -0.2478 -0.0812
   86TCq2    O4 1318   0.132   2.507  15.434  0.6900 -0.3231 -0.7889
   86TCq2    C9 1319   0.054   3.059  15.627  0.0103  0.0613 -0.7380
   86TCq2    O5 1320   4.713   3.123  15.715 -0.1897 -0.2162 -0.3962
   86TCq2    O6 1321   0.119   3.121  15.544 -0.3338 -0.8273 -0.2229
   86TCq2    H2 1322   4.639   2.924  15.788  0.6930 -0.9938  0.7755
   86TCq2    H3 1323   0.177   2.898  15.443 -1.7247  3.0756 -0.4056
   86TCq2    H4 1324   4.683   2.548  15.584  0.2100 -0.3105  2.2288
   87MPD2     C 1325   3.371   2.075   1.587  0.0897 -0.1675  0.7810
   87MPD2    C1 1326   3.309   1.974   1.519  0.0741  0.6536  0.3317
   87MPD2    C2 1327   3.172   1.987   1.491 -0.4156  0.4923  0.2340
   87MPD2    C3 1328   3.104   2.104   1.515  0.7066 -0.7540 -0.6825
   87MPD2    C4 1329   3.181   2.208   1.581  0.1246  0.0769 -0.3263
   87MPD2    C5 1330   3.310   2.191   1.619  0.2822 -0.1102  0.0049
   87MPD2     H 1331   3.118   1.906   1.441 -0.4778 -0.7117  2.2538
   87MPD2    H1 1332   3.139   2.306   1.596  1.0287  0.3451  0.4600
   87MPD2    H2 1333   3.468   2.053   1.630  1.3318 -1.2069 -2.5176
   87MPD2    H3 1334   3.364   2.259   1.683  0.9519  0.1074 -0.7819
   87MPD2     N 1335   2.980   2.132   1.455 -0.0295 -0.1335 -0.2622
   87MPD2    H5 1336   2.950   2.229   1.460 -1.3067 -0.4980 -0.7187
   87MPD2    N1 1337   3.382   1.853   1.503  0.4400  0.1040 -0.2569
   87MPD2    H7 1338   3.466   1.846   1.560  0.4324  0.6337 -0.1795
   88TCq2    C1 1339   3.347   1.752   1.417 -0.1119  0.4615 -0.2652
   88TCq2    O2 1340   3.249   1.735   1.346 -0.3301  0.4553  0.7086
   88TCq2    C2 1341   3.457   1.655   1.403 -0.1080  0.5477  0.3283
   88TCq2    C3 1342   3.586   1.710   1.425  0.1999 -0.2232  0.3093
   88TCq2    C4 1343   3.697   1.637   1.377  0.7957 -0.8877 -0.6324
   88TCq2    C5 1344   3.677   1.524   1.312 -0.5078  0.0104 -0.0789
   88TCq2    C6 1345   3.554   1.476   1.292  1.3304  0.2661  0.4141
   88TCq2    C7 1346   3.444   1.539   1.342  0.1650 -0.4427  0.2857
   88TCq2    C8 1347   3.537   1.357   1.215 -0.2813 -0.2346 -0.3607
   88TCq2    O4 1348   3.639   1.322   1.154  0.2086 -0.0031  0.4788
   88TCq2    C9 1349   3.834   1.679   1.383 -0.1488  0.5709 -0.7182
   88TCq2    O5 1350   3.854   1.804   1.381 -0.4749 -0.1109  0.3875
   88TCq2    O6 1351   3.933   1.600   1.381 -0.0012 -0.5175  0.6796
   88TCq2    H2 1352   3.598   1.812   1.461  2.7488  0.0267 -1.2354
   88TCq2    H3 1353   3.763   1.469   1.275 -1.3558 -1.2995 -0.1288
   88TCq2    H4 1354   3.343   1.511   1.313 -1.1245  3.2167  1.2775
   89MPD2     C 1355   3.409   4.124   1.948  0.4618  0.0115  0.8208
   89MPD2    C1 1356   3.292   4.118   1.873 -0.3255  0.1504 -0.6097
   89MPD2    C2 1357   3.287   4.148   1.732  1.0526  0.8964 -0.2248
   89MPD2    C3 1358   3.408   4.179   1.662 -0.8044  0.0754 -0.2629
   89MPD2    C4 1359   3.530   4.168   1.730 -0.0031  0.1429 -0.2575
   89MPD2    C5 1360   3.525   4.147   1.868 -0.5627  0.0541 -0.2185
   89MPD2     H 1361   3.195   4.132   1.677  0.6382 -0.7211  0.9604
   89MPD2    H1 1362   3.624   4.185   1.677 -0.1952  1.8645 -0.0470
   89MPD2    H2 1363   3.417   4.121   2.056 -0.4573  0.9587  0.9065
   89MPD2    H3 1364   3.622   4.145   1.916  0.1331 -0.8414 -1.6714
   89MPD2     N 1365   3.415   4.192   1.518 -0.4556 -0.2631  0.7611
   89MPD2    H5 1366   3.505   4.200   1.473  0.8809  0.4843  3.5832
   89MPD2    N1 1367   3.168   4.074   1.934 -0.0356  0.7943  0.2021
   89MPD2    H7 1368   3.089   4.082   1.871  0.6993  2.3526 -0.5200
   90TCq2    C1 1369   3.305   4.221   1.440 -0.0940 -0.7185  0.5330
   90TCq2    O2 1370   3.188   4.246   1.474  0.0012 -0.5903 -0.0562
   90TCq2    C2 1371   3.342   4.247   1.303  0.3704 -0.0119 -0.3342
   90TCq2    C3 1372   3.264   4.340   1.244  0.0908 -0.1688 -0.0151
   90TCq2    C4 1373   3.285   4.360   1.111 -0.0734 -0.4259 -0.1853
   90TCq2    C5 1374   3.385   4.291   1.037 -0.3172 -0.1493  0.5466
   90TCq2    C6 1375   3.466   4.205   1.107 -0.2738  0.2631 -0.4712
   90TCq2    C7 1376   3.434   4.173   1.241  0.0037 -0.6782  0.4037
   90TCq2    C8 1377   3.576   4.132   1.047  0.0458 -0.0511 -0.2447
   90TCq2    O4 1378   3.603   4.022   1.092  0.5196 -0.2942 -0.2484
   90TCq2    C9 1379   3.217   4.468   1.047 -0.3859 -0.4972 -0.3458
   90TCq2    O5 1380   3.204   4.565   1.122  0.1768  0.0097 -0.1752
   90TCq2    O6 1381   3.221   4.474   0.922  0.0722 -0.1877 -0.6038
   90TCq2    H2 1382   3.197   4.400   1.305 -0.2147  0.2436 -0.7547
   90TCq2    H3 1383   3.404   4.320   0.934  0.2073  1.5395  1.1332
   90TCq2    H4 1384   3.501   4.114   1.302  0.3304  0.5715  1.2650
   91TMC2    C1 1385   0.373   3.520  16.475  0.6836 -0.4555  0.0222
   91TMC2    C2 1386   0.384   3.600  16.362  0.1573 -0.0251 -0.0413
   91TMC2    C3 1387   0.272   3.648  16.298  0.2512 -0.3297 -0.3326
   91TMC2    C4 1388   0.244   3.470  16.510  1.1276 -0.3534 -0.2785
   91TMC2    C5 1389   0.139   3.518  16.444 -0.1168  0.1610  0.5608
   91TMC2    C6 1390   0.149   3.614  16.342  0.1838  0.1071  0.1382
   91TMC2     C 1391   0.491   3.454  16.527 -0.6040 -0.0315 -0.5599
   91TMC2     O 1392   0.483   3.404  16.642 -0.1478 -0.5216 -0.0885
   91TMC2     H 1393   0.477   3.636  16.320  0.9084  0.9025  2.4786
   91TMC2    H1 1394   0.235   3.396  16.589  0.9528  0.3258  0.3350
   91TMC2    H2 1395   0.056   3.654  16.302  0.1102 -0.1568  0.0445
   91TMC2    C7 1396   0.010   3.456  16.467  0.0009 -0.2455  0.2567
   91TMC2    C8 1397   0.281   3.739  16.179 -0.0191 -0.0859  0.1644
   91TMC2    O1 1398   4.720   3.394  16.571 -0.1986 -1.3464 -0.4849
   91TMC2    O2 1399   0.252   3.856  16.179  0.6428 -0.0991  0.2955
   91TMC2    O5 1400   0.384   3.688  16.114 -0.7100  0.6168 -0.5487
   91TMC2    H5 1401   0.397   3.591  16.120 -2.6494  0.4152  0.1525
   92MPD2     C 1402   0.769   3.366  16.592 -0.6774 -0.6679  0.5570
   92MPD2    C1 1403   0.730   3.427  16.472 -0.3963 -0.4293 -0.4848
   92MPD2    C2 1404   0.825   3.447  16.369  0.2022 -0.0024  0.5113
   92MPD2    C3 1405   0.949   3.385  16.380 -0.4240  0.3358  0.4704
   92MPD2    C4 1406   0.982   3.331  16.498  0.2021 -0.4375  0.6781
   92MPD2    C5 1407   0.898   3.328  16.605  0.0507  0.1356 -0.1195
   92MPD2     H 1408   0.790   3.494  16.278 -1.7002  1.1072  1.8243
   92MPD2    H1 1409   1.082   3.298  16.523  0.0639 -2.6678 -1.7544
   92MPD2    H2 1410   0.702   3.365  16.678 -0.2298 -0.7516  0.9019
   92MPD2    H3 1411   0.946   3.293  16.696  0.3467  0.3102 -0.2073
   92MPD2     N 1412   1.039   3.403  16.276  0.8165 -0.5981  0.7722
   92MPD2    H5 1413   1.020   3.460  16.195  0.5736 -1.6365  0.0974
   92MPD2    N1 1414   0.601   3.471  16.444 -0.0932 -0.6333  0.1668
   92MPD2    H7 1415   0.597   3.523  16.356 -1.2448 -0.3703  0.3812
   93MPD2     C 1416   1.786   3.657  13.699 -0.2009  0.1585  1.2112
   93MPD2    C1 1417   1.738   3.668  13.823 -0.1125  0.2897 -0.1876
   93MPD2    C2 1418   1.600   3.653  13.843 -0.4276 -0.1104  0.2927
   93MPD2    C3 1419   1.516   3.633  13.730  0.6007 -0.7190 -0.2022
   93MPD2    C4 1420   1.574   3.616  13.609  0.5002  0.1193 -0.1559
   93MPD2    C5 1421   1.708   3.637  13.592  0.1114 -0.3422 -0.3599
   93MPD2     H 1422   1.555   3.654  13.942  0.2432  1.7402  0.5671
   93MPD2    H1 1423   1.519   3.605  13.516  1.0742 -0.9958 -0.3597
   93MPD2    H2 1424   1.892   3.666  13.676 -0.6035  1.1042 -0.2433
   93MPD2    H3 1425   1.754   3.627  13.495  0.6244  0.8875 -0.2301
   93MPD2     N 1426   1.375   3.630  13.738 -0.2250 -0.3884 -0.1233
   93MPD2    H5 1427   1.323   3.638  13.652 -0.9690  1.1491  0.4625
   93MPD2    N1 1428   1.820   3.682  13.934 -0.3220  0.1123 -0.3068
   93MPD2    H7 1429   1.769   3.680  14.022  1.1565 -0.9509  0.5170
   94TCq2    C1 1430   1.950   3.724  13.927  0.6168  0.2884 -0.4148
   94TCq2    O2 1431   2.015   3.775  13.838  0.2956  1.1325 -0.0230
   94TCq2    C2 1432   2.015   3.729  14.057  0.2353  0.4682 -0.2774
   94TCq2    C3 1433   1.976   3.653  14.161 -0.2479  0.3735  0.0118
   94TCq2    C4 1434   2.055   3.637  14.271 -0.0028 -0.9432  0.3617
   94TCq2    C5 1435   2.178   3.697  14.272 -0.0858  0.1334 -0.1715
   94TCq2    C6 1436   2.223   3.764  14.166 -0.3707  0.4406  0.1230
   94TCq2    C7 1437   2.143   3.783  14.058  0.9523  1.0556  0.3701
   94TCq2    C8 1438   2.363   3.800  14.147 -0.5701 -0.0600 -0.2644
   94TCq2    O4 1439   2.407   3.815  14.031  0.1541 -0.3702  0.4568
   94TCq2    C9 1440   2.017   3.555  14.383 -0.0939 -0.1132 -0.0848
   94TCq2    O5 1441   1.893   3.532  14.392  0.3651  0.3501  0.0733
   94TCq2    O6 1442   2.108   3.493  14.448  0.1886 -0.4221  0.0478
   94TCq2    H2 1443   1.885   3.597  14.145  0.6883 -1.2921  0.5222
   94TCq2    H3 1444   2.234   3.677  14.362  1.5143 -0.3272 -1.2591
   94TCq2    H4 1445   2.178   3.850  13.980 -0.4977  1.3181 -0.0423
   95TMC2    C1 1446   2.264   0.261  15.981  0.1491 -0.4768 -0.4109
   95TMC2    C2 1447   2.339   0.150  15.941  0.2184 -0.4584 -0.8612
   95TMC2    C3 1448   2.267   0.055  15.866 -0.3970 -0.4425 -1.1419
   95TMC2    C4 1449   2.139   0.280  15.940  0.3400  0.1853  0.5257
   95TMC2    C5 1450   2.075   0.186  15.869 -0.1054 -0.1125 -0.6211
   95TMC2    C6 1451   2.133   0.066  15.841  0.1401 -0.7384 -0.1935
   95TMC2     C 1452   2.333   0.388  16.017  0.5317  0.0456  0.4764
   95TMC2     O 1453   2.265   0.458  16.090  0.2048 -0.8312  0.1065
   95TMC2     H 1454   2.446   0.143  15.958 -0.1107 -0.4950  1.2458
   95TMC2    H1 1455   2.092   0.373  15.967 -0.9963 -0.0636 -0.9576
   95TMC2    H2 1456   2.085   4.710  15.782 -2.5699 -1.6849  3.1901
   95TMC2    C7 1457   1.935   0.219  15.836 -0.6170  0.3420 -0.1747
   95TMC2    C8 1458   2.326   4.644  15.871 -0.1066 -0.1616  0.3675
   95TMC2    O1 1459   1.900   0.337  15.857  0.3578  0.0027 -0.0802
   95TMC2    O2 1460   2.416   4.609  15.949 -0.4205  0.7171 -0.0800
   95TMC2    O5 1461   2.305   4.583  15.748  0.3955 -0.4173  0.9757
   95TMC2    H5 1462   2.268   4.640  15.678  0.8524  0.0990  1.1533
   96MPD2     C 1463   2.610   0.793  15.885 -0.5247  1.4439 -0.1973
   96MPD2    C1 1464   2.619   0.691  15.788  0.0761 -0.4404 -0.1143
   96MPD2    C2 1465   2.567   0.564  15.813 -0.0960 -0.4035  0.0448
   96MPD2    C3 1466   2.490   0.545  15.924 -0.3239 -0.1570 -0.2367
   96MPD2    C4 1467   2.457   0.653  16.009  0.3490  0.0283 -0.1278
   96MPD2    C5 1468   2.524   0.774  15.988 -0.3951 -0.0047 -0.8922
   96MPD2     H 1469   2.574   0.486  15.738 -0.6174 -2.0588  1.7423
   96MPD2    H1 1470   2.395   0.641  16.097  2.3005  2.1816  1.5447
   96MPD2    H2 1471   2.660   0.888  15.872  1.5021  0.3587 -0.3328
   96MPD2    H3 1472   2.502   0.853  16.060 -1.5857 -1.2891  0.1657
   96MPD2     N 1473   2.432   0.419  15.933 -0.0662  0.2741 -0.1564
   96MPD2    H5 1474   2.456   0.351  15.861  0.6751 -0.5253  0.8467
   96MPD2    N1 1475   2.686   0.724  15.667 -0.2268  0.0480 -0.2437
   96MPD2    H7 1476   2.751   0.803  15.669  1.0378 -1.0302  1.0460
   97MPD2     C 1477   4.479   2.364   0.912 -0.1651  0.3576 -0.1013
   97MPD2    C1 1478   4.498   2.499   0.891 -0.6479 -0.3768  0.2838
   97MPD2    C2 1479   4.515   2.546   0.756 -0.0225 -1.1202  0.1444
   97MPD2    C3 1480   4.525   2.455   0.656  0.1718 -0.1526  0.2205
   97MPD2    C4 1481   4.488   2.327   0.679 -0.0592 -0.5448 -0.4835
   97MPD2    C5 1482   4.464   2.283   0.807 -0.2420 -0.4905 -0.7200
   97MPD2     H 1483   4.533   2.652   0.739 -0.8080 -1.3699 -2.2901
   97MPD2    H1 1484   4.477   2.253   0.600  0.0226 -0.3870 -0.6436
   97MPD2    H2 1485   4.467   2.313   1.007  0.5010 -1.7267 -1.1256
   97MPD2    H3 1486   4.449   2.177   0.823 -4.4900  0.5037  1.7560
   97MPD2     N 1487   4.543   2.500   0.526  0.5542  0.2951  0.7068
   97MPD2    H5 1488   4.506   2.440   0.452 -1.7240 -0.2918  2.3097
   97MPD2    N1 1489   4.499   2.581   1.004 -0.8145 -0.0884 -0.2658
   97MPD2    H7 1490   4.471   2.542   1.093  1.6082 -0.5440  0.3041
   98TCq2    C1 1491   4.593   2.625   0.491  0.1440  0.2971 -0.9671
   98TCq2    O2 1492   4.671   2.690   0.555  0.4029  0.4480  0.7927
   98TCq2    C2 1493   4.574   2.668   0.353  0.3141 -0.0290 -0.2494
   98TCq2    C3 1494   4.490   2.608   0.263 -0.5729  0.1050  0.2302
   98TCq2    C4 1495   4.462   2.681   0.148  0.5246  0.5673  0.1532
   98TCq2    C5 1496   4.514   2.798   0.122 -0.1074  0.2949 -0.3626
   98TCq2    C6 1497   4.609   2.849   0.206  0.6210  0.4374 -0.3863
   98TCq2    C7 1498   4.637   2.786   0.324 -0.6271  0.0471 -0.1136
   98TCq2    C8 1499   4.674   2.977   0.186  0.3532 -0.3242 -0.1339
   98TCq2    O4 1500   0.038   3.011   0.267 -0.1317 -0.0514  0.9469
   98TCq2    C9 1501   4.361   2.620   0.056  0.1653 -0.4349 -0.2578
   98TCq2    O5 1502   4.302   2.695  17.665  0.0187  0.6148 -0.5348
   98TCq2    O6 1503   4.340   2.496   0.058  0.3667 -0.0779 -0.2660
   98TCq2    H2 1504   4.424   2.523   0.279  1.6847 -1.4554  1.2656
   98TCq2    H3 1505   4.491   2.841   0.025 -0.3877  0.3292 -0.2790
   98TCq2    H4 1506   4.719   2.819   0.386 -2.1426  0.8510  1.4657
   99MPD2     C 1507   3.707   4.472   1.681  0.4848  0.1748 -0.3666
   99MPD2    C1 1508   3.577   4.514   1.689  0.5917  0.5732 -0.2707
   99MPD2    C2 1509   3.525   4.571   1.570  0.0978 -0.2089  0.7607
   99MPD2    C3 1510   3.597   4.589   1.456 -0.3429  0.6276  0.6122
   99MPD2    C4 1511   3.732   4.547   1.459 -0.2222 -0.1094 -0.0798
   99MPD2    C5 1512   3.778   4.486   1.573 -0.0733  0.1004 -0.4398
   99MPD2     H 1513   3.423   4.603   1.557 -0.1080 -0.4383  1.7952
   99MPD2    H1 1514   3.806   4.567   1.382 -0.7562 -2.5483 -1.2157
   99MPD2    H2 1515   3.765   4.424   1.758  1.3448  0.3145 -0.9298
   99MPD2    H3 1516   3.877   4.441   1.576 -0.9203 -1.8980 -1.9293
   99MPD2     N 1517   3.535   4.648   1.344 -0.6793 -0.2622  0.2500
   99MPD2    H5 1518   3.437   4.676   1.346 -0.3847  0.6721  1.9074
   99MPD2    N1 1519   3.494   4.506   1.801  0.0212  0.1316  0.2019
   99MPD2    H7 1520   3.399   4.530   1.776 -1.5663 -2.8110  3.3764
  100TCq2    C1 1521   3.541   4.481   1.927  0.4274  0.3950 -0.4514
  100TCq2    O2 1522   3.657   4.463   1.966  0.1348  0.1866  0.2006
  100TCq2    C2 1523   3.438   4.473   2.032  0.0403  0.3479  0.5642
  100TCq2    C3 1524   3.482   4.441   2.152  0.0766  0.1452  0.6205
  100TCq2    C4 1525   3.391   4.425   2.254  0.4348  0.2774  0.0667
  100TCq2    C5 1526   3.259   4.440   2.235 -0.1855  0.3516  0.5797
  100TCq2    C6 1527   3.218   4.478   2.108  0.0197 -0.3034  0.0450
  100TCq2    C7 1528   3.305   4.495   2.011  0.5067  0.6141  0.7345
  100TCq2    C8 1529   3.089   4.544   2.109  0.2349  0.2197  0.0990
  100TCq2    O4 1530   3.048   4.594   2.209 -0.1584 -0.0834 -0.3175
  100TCq2    C9 1531   3.437   4.381   2.382 -0.5924 -0.0376 -0.8786
  100TCq2    O5 1532   3.360   4.402   2.479 -0.2073  0.1183 -0.5890
  100TCq2    O6 1533   3.562   4.362   2.403  0.2115  0.1686  0.1957
  100TCq2    H2 1534   3.588   4.434   2.175 -0.1440 -1.2193  1.1839
  100TCq2    H3 1535   3.182   4.437   2.312  0.5014 -1.0925  1.1960
  100TCq2    H4 1536   3.269   4.542   1.920 -1.4911 -0.2711  1.0610
  101MPD2     C 1537   3.218   1.751  13.041 -0.0146  0.3768 -1.0209
  101MPD2    C1 1538   3.238   1.646  12.948  0.6330  0.2341  0.2866
  101MPD2    C2 1539   3.264   1.521  13.001 -0.6871  0.4291  0.1143
  101MPD2    C3 1540   3.266   1.498  13.140  0.2241 -0.1686 -0.4270
  101MPD2    C4 1541   3.241   1.595  13.224 -0.3408 -0.1658 -0.5015
  101MPD2    C5 1542   3.218   1.727  13.178  0.3750  0.2697 -0.4332
  101MPD2     H 1543   3.279   1.434  12.939  3.3360  1.3931 -0.2032
  101MPD2    H1 1544   3.252   1.580  13.331  0.5965 -0.0047 -0.5750
  101MPD2    H2 1545   3.191   1.851  13.009  0.6604  1.3960  1.5358
  101MPD2    H3 1546   3.189   1.809  13.243  2.3278 -0.9978  2.0497
  101MPD2     N 1547   3.278   1.358  13.179 -0.3592  0.3318 -0.0614
  101MPD2    H5 1548   3.298   1.301  13.097 -0.9043 -2.6094  1.8458
  101MPD2    N1 1549   3.224   1.672  12.814 -0.2781  0.5062 -0.2908
  101MPD2    H7 1550   3.186   1.763  12.789 -0.6120  0.5862  0.5082
  102TCq2    C1 1551   3.410   1.670  12.250 -0.4476 -0.2472 -0.8861
  102TCq2    O2 1552   3.522   1.704  12.288  0.0614 -0.5759  0.2262
  102TCq2    C2 1553   3.306   1.667  12.351  0.2535 -0.1761 -0.0503
  102TCq2    C3 1554   3.187   1.724  12.324 -0.6233  0.1694  0.1706
  102TCq2    C4 1555   3.102   1.757  12.428  0.1270 -0.3652 -0.2028
  102TCq2    C5 1556   3.136   1.726  12.556  0.5580 -0.0686  0.0615
  102TCq2    C6 1557   3.254   1.658  12.575  0.5186  0.7262  0.1032
  102TCq2    C7 1558   3.343   1.634  12.478 -0.1767  0.5606 -1.0802
  102TCq2    C8 1559   3.280   1.603  12.709  0.2482 -0.0308 -0.4972
  102TCq2    O4 1560   3.336   1.498  12.709 -0.2687 -0.4854 -0.1112
  102TCq2    C9 1561   2.958   1.777  12.397 -0.0677  0.4305  0.3391
  102TCq2    O5 1562   2.929   1.752  12.273 -0.0248  0.0027  0.1993
  102TCq2    O6 1563   2.887   1.817  12.493 -0.4914 -0.9489  0.4861
  102TCq2    H2 1564   3.163   1.746  12.220 -0.0578  0.5083  0.1149
  102TCq2    H3 1565   3.052   1.726  12.625  0.9757 -3.0787  0.5925
  102TCq2    H4 1566   3.441   1.590  12.497 -0.7783 -0.1826  0.2883
  103TMC2    C1 1567   1.940   1.673  12.567 -0.5215  0.1656 -0.7727
  103TMC2    C2 1568   1.988   1.778  12.495 -1.0847 -0.6207  0.6739
  103TMC2    C3 1569   2.020   1.886  12.566  0.2750  0.3054  0.7563
  103TMC2    C4 1570   1.919   1.677  12.705  0.2363  0.0190 -0.2508
  103TMC2    C5 1571   1.946   1.791  12.776 -0.8187  0.2285 -0.4137
  103TMC2    C6 1572   1.985   1.897  12.698  0.2897 -0.7294 -0.4096
  103TMC2     C 1573   1.928   1.548  12.502 -0.4500 -0.0392 -0.2287
  103TMC2     O 1574   1.907   1.545  12.383  0.3227  0.3849  0.4286
  103TMC2     H 1575   2.016   1.758  12.392  1.0040 -3.2071  1.7532
  103TMC2    H1 1576   1.888   1.594  12.768 -2.5264  1.1335 -0.1310
  103TMC2    H2 1577   2.018   1.991  12.740 -2.2601  1.1965 -2.7141
  103TMC2    C7 1578   1.911   1.808  12.920 -0.1209  0.8265 -0.0537
  103TMC2    C8 1579   2.028   2.002  12.481 -0.5467 -0.7801  0.2331
  103TMC2    O1 1580   1.802   1.775  12.961 -0.4691 -0.2007 -0.2862
  103TMC2    O2 1581   2.008   1.994  12.361 -0.0310 -0.1710  1.1454
  103TMC2    O5 1582   2.126   2.082  12.535 -0.8660 -0.6588  0.0091
  103TMC2    H5 1583   2.166   2.032  12.609  0.4008  2.1060  1.2059
  104MPD2     C 1584   2.050   1.228  12.610  0.5227  0.5245  0.3653
  104MPD2    C1 1585   2.009   1.318  12.524 -0.2303 -0.8070 -0.3938
  104MPD2    C2 1586   1.988   1.277  12.396  0.0535 -0.5012  0.0801
  104MPD2    C3 1587   2.012   1.148  12.358  0.1986 -0.4777 -0.0624
  104MPD2    C4 1588   2.059   1.056  12.450 -0.0413 -0.5062 -0.2458
  104MPD2    C5 1589   2.072   1.100  12.577  0.6454 -0.1530  0.1954
  104MPD2     H 1590   1.941   1.340  12.321 -0.5700 -0.5300  0.4460
  104MPD2    H1 1591   2.074   0.950  12.436 -0.3256 -0.6108  0.2278
  104MPD2    H2 1592   2.063   1.255  12.714  1.3354 -0.3541  0.4951
  104MPD2    H3 1593   2.098   1.026  12.652 -2.5480 -2.2335 -0.7515
  104MPD2     N 1594   1.969   1.114  12.224  0.4319  0.6615  0.5338
  104MPD2    H5 1595   1.935   1.183  12.158  0.4903  2.1148  2.0432
  104MPD2    N1 1596   1.973   1.444  12.578  0.3475 -0.2664 -0.2380
  104MPD2    H7 1597   1.987   1.453  12.678 -0.5196  0.6329 -0.1901
  105MPD2     C 1598   3.757   0.258   0.082  0.1190 -0.5538  0.4713
  105MPD2    C1 1599   3.829   0.375   0.072  0.2170  0.2275  0.4564
  105MPD2    C2 1600   3.821   0.462   0.179 -0.6116 -0.5828 -0.0811
  105MPD2    C3 1601   3.751   0.446   0.294  0.2525 -1.2455 -0.1619
  105MPD2    C4 1602   3.686   0.324   0.303  0.2418  0.3631 -1.0993
  105MPD2    C5 1603   3.696   0.228   0.207 -0.7625  1.3349  0.2872
  105MPD2     H 1604   3.861   0.563   0.170  0.8423 -1.1488  0.0781
  105MPD2    H1 1605   3.623   0.303   0.389  1.3634 -0.1680 -0.4046
  105MPD2    H2 1606   3.765   0.176   0.013  1.7510 -1.8621  2.2184
  105MPD2    H3 1607   3.637   0.137   0.207  0.6405  0.4334 -0.5993
  105MPD2     N 1608   3.734   0.553   0.386 -0.6197  0.3512  0.3897
  105MPD2    H5 1609   3.774   0.643   0.363 -0.9177  0.8255  1.6969
  105MPD2    N1 1610   3.889   0.429  17.644  0.4156 -0.6052  0.3163
  105MPD2    H7 1611   3.922   0.525  17.649 -0.6484 -0.3034  1.6244
  106TCq2    C1 1612   3.694   0.542   0.513 -0.8099 -0.2987  0.0228
  106TCq2    O2 1613   3.653   0.444   0.576  0.6979  0.2086 -0.1915
  106TCq2    C2 1614   3.697   0.659   0.592 -0.1581  0.1155 -0.0420
  106TCq2    C3 1615   3.762   0.763   0.543 -0.0065  0.2806  0.1920
  106TCq2    C4 1616   3.751   0.882   0.600  0.0952  0.6408  0.2208
  106TCq2    C5 1617   3.663   0.896   0.705  0.2838  0.4698 -0.1790
  106TCq2    C6 1618   3.597   0.786   0.753 -0.0196 -0.5738  0.0548
  106TCq2    C7 1619   3.619   0.665   0.700 -0.0129 -0.5297 -0.4304
  106TCq2    C8 1620   3.501   0.801   0.867 -0.0027 -0.5985 -0.0529
  106TCq2    O4 1621   3.420   0.711   0.879  0.3888  0.1969  0.1065
  106TCq2    C9 1622   3.814   0.995   0.545 -0.0433  0.3830  0.2297
  106TCq2    O5 1623   3.822   1.094   0.621 -0.2162 -0.0959 -0.5280
  106TCq2    O6 1624   3.877   0.981   0.439 -0.2966  0.7467  0.2010
  106TCq2    H2 1625   3.825   0.763   0.454  0.4847  2.1638  0.5461
  106TCq2    H3 1626   3.630   0.996   0.727 -2.0479 -0.8039  2.1246
  106TCq2    H4 1627   3.574   0.580   0.751  0.8005 -0.8310 -0.2244
  107TMC2    C1 1628   4.055   4.617  11.675 -0.6161  0.1953  0.3324
  107TMC2    C2 1629   4.181   4.654  11.641 -0.1299 -0.4456  0.1755
  107TMC2    C3 1630   4.238   4.576  11.551 -0.0504  0.7365 -0.6511
  107TMC2    C4 1631   3.995   4.506  11.632 -0.3958 -0.2136 -0.0380
  107TMC2    C5 1632   4.060   4.429  11.542  0.2137  0.8942 -0.7922
  107TMC2    C6 1633   4.189   4.457  11.507 -0.0312 -0.0295  0.6125
  107TMC2     C 1634   3.970   4.700  11.760 -0.4461  0.5122 -0.0201
  107TMC2     O 1635   3.878   4.655  11.825 -0.5004  0.0246 -0.4118
  107TMC2     H 1636   4.221   0.024  11.686  0.2262  0.4463 -1.9567
  107TMC2    H1 1637   3.903   4.474  11.680 -0.3675  0.3797  0.4022
  107TMC2    H2 1638   4.251   4.392  11.445  0.5536  0.1135  1.0477
  107TMC2    C7 1639   4.004   4.298  11.500 -0.6310  0.1653  0.8808
  107TMC2    C8 1640   4.370   4.608  11.498  0.1356 -0.2231 -0.8603
  107TMC2    O1 1641   3.919   4.243  11.570  0.3286  0.0865  0.1338
  107TMC2    O2 1642   4.451   4.518  11.502 -0.2657 -0.8536 -0.2774
  107TMC2    O5 1643   4.397   0.015  11.516 -0.4282  0.1682 -0.3022
  107TMC2    H5 1644   4.317   0.071  11.505 -1.4950 -1.1009  1.0719
  108MPD2     C 1645   3.938   0.352  11.727 -0.3902 -0.5784 -0.0896
  108MPD2    C1 1646   3.911   0.224  11.771  0.1240  0.2442 -0.0282
  108MPD2    C2 1647   3.797   0.209  11.853 -0.3848  0.4109  0.2503
  108MPD2    C3 1648   3.714   0.316  11.877 -0.0852 -0.3079  0.3890
  108MPD2    C4 1649   3.744   0.441  11.824  0.6810  0.6248  0.5731
  108MPD2    C5 1650   3.856   0.462  11.748  0.2783 -0.7813  0.0265
  108MPD2     H 1651   3.766   0.113  11.893 -0.5400  0.4915  0.3227
  108MPD2    H1 1652   3.684   0.528  11.846  1.6899  0.9246  2.1455
  108MPD2    H2 1653   4.018   0.373  11.658 -1.0449  1.0768 -0.3366
  108MPD2    H3 1654   3.885   0.556  11.702 -2.3938  1.3414  2.7142
  108MPD2     N 1655   3.595   0.311  11.960 -0.2990 -0.2339  0.3670
  108MPD2    H5 1656   3.534   0.392  11.959 -2.3072 -1.7450 -1.0589
  108MPD2    N1 1657   3.994   0.116  11.730  0.9238  0.4583  0.5089
  108MPD2    H7 1658   4.066   0.148  11.666  1.1886 -1.7313 -0.2917
  109MPD2     C 1659   3.360   2.704   1.321 -0.7490  0.8259  0.0229
  109MPD2    C1 1660   3.499   2.687   1.313 -0.2097  0.9595 -0.4560
  109MPD2    C2 1661   3.580   2.720   1.420 -0.0599 -0.0718  0.0070
  109MPD2    C3 1662   3.519   2.725   1.545  0.0873 -0.3966 -0.0153
  109MPD2    C4 1663   3.382   2.744   1.558  0.5204 -0.0447 -0.7904
  109MPD2    C5 1664   3.303   2.742   1.445 -0.2708  0.2356 -0.3559
  109MPD2     H 1665   3.685   2.694   1.423 -0.0827 -0.1763 -0.0963
  109MPD2    H1 1666   3.329   2.761   1.651 -0.9665  0.1089 -1.6737
  109MPD2    H2 1667   3.281   2.679   1.251  1.8018 -2.4724 -1.6512
  109MPD2    H3 1668   3.196   2.742   1.462 -0.0783 -0.1783  0.8744
  109MPD2     N 1669   3.598   2.720   1.664  0.4347  0.5696 -0.2910
  109MPD2    H5 1670   3.692   2.689   1.642 -1.0723 -3.0273 -1.5908
  109MPD2    N1 1671   3.557   2.633   1.192 -0.2771 -0.4509  0.3136
  109MPD2    H7 1672   3.493   2.588   1.128 -0.6608 -0.2168  0.5325
  110TCq2    C1 1673   3.567   2.760   1.792 -0.7863  0.3715  0.7963
  110TCq2    O2 1674   3.454   2.783   1.833 -0.2459  0.2263  0.4361
  110TCq2    C2 1675   3.682   2.771   1.877  0.3723 -0.1740  0.2995
  110TCq2    C3 1676   3.666   2.738   2.008 -0.0335 -0.2350 -0.0814
  110TCq2    C4 1677   3.778   2.709   2.085  0.3452 -0.2362  0.2675
  110TCq2    C5 1678   3.906   2.712   2.032 -0.6735 -0.4549 -0.2731
  110TCq2    C6 1679   3.915   2.750   1.901  0.6579 -0.0872 -0.5856
  110TCq2    C7 1680   3.807   2.769   1.823 -0.0605  0.1153  0.5339
  110TCq2    C8 1681   4.045   2.746   1.839 -0.0169 -0.5417 -0.2946
  110TCq2    O4 1682   4.070   2.833   1.754 -0.1911  0.1344 -0.5556
  110TCq2    C9 1683   3.769   2.661   2.224 -0.0695  0.6329 -0.2273
  110TCq2    O5 1684   3.879   2.679   2.291  0.2029  0.4249 -0.0334
  110TCq2    O6 1685   3.659   2.622   2.272  0.2861  0.3702  0.2164
  110TCq2    H2 1686   3.565   2.729   2.047 -0.0047 -0.2412 -0.0077
  110TCq2    H3 1687   3.993   2.704   2.097 -1.0448  2.0551  0.5308
  110TCq2    H4 1688   3.822   2.807   1.723 -1.7744  1.1679  0.6784
  111TMC2    C1 1689   4.055   2.630  11.164 -0.8178  0.6830  0.0163
  111TMC2    C2 1690   4.155   2.721  11.173 -0.5257 -0.3637  0.8653
  111TMC2    C3 1691   4.255   2.709  11.267  0.1468  0.3304  0.6990
  111TMC2    C4 1692   4.057   2.523  11.256  0.2276  0.7152  0.0944
  111TMC2    C5 1693   4.161   2.511  11.342 -0.0486 -0.0428 -0.1643
  111TMC2    C6 1694   4.258   2.609  11.359  0.8466 -0.3890 -0.4214
  111TMC2     C 1695   3.933   2.660  11.094  0.3861 -0.0754 -0.4028
  111TMC2     O 1696   3.949   2.741  11.000 -0.7135 -0.0154  0.2199
  111TMC2     H 1697   4.152   2.808  11.108 -0.4288 -1.2642 -0.3414
  111TMC2    H1 1698   3.977   2.450  11.254  0.6055  0.2773  0.7133
  111TMC2    H2 1699   4.338   2.609  11.431 -1.4448 -1.0598  2.1137
  111TMC2    C7 1700   4.185   2.378  11.408 -0.3214 -0.2322 -0.0464
  111TMC2    C8 1701   4.360   2.806  11.273 -1.5541  0.0796 -0.7203
  111TMC2    O1 1702   4.091   2.297  11.401 -0.1711 -0.1710 -0.0386
  111TMC2    O2 1703   4.341   2.922  11.238  0.1235 -0.1581  0.1978
  111TMC2    O5 1704   4.477   2.749  11.310  0.2649 -0.0901  0.2024
  111TMC2    H5 1705   4.474   2.651  11.311  1.4753 -0.1754 -4.0596
  112MPD2     C 1706   3.429   2.657  11.009 -0.6979  0.0262 -0.0960
  112MPD2    C1 1707   3.526   2.700  10.925  0.3551  0.3950 -0.2732
  112MPD2    C2 1708   3.660   2.677  10.965  0.4694  0.1392 -0.5408
  112MPD2    C3 1709   3.693   2.615  11.086 -0.1690 -0.2313  0.5862
  112MPD2    C4 1710   3.590   2.557  11.160 -0.3886 -0.4629 -0.0140
  112MPD2    C5 1711   3.461   2.576  11.123 -0.4151 -1.0592  0.8010
  112MPD2     H 1712   3.744   2.705  10.902  1.3523  0.3245  0.7109
  112MPD2    H1 1713   3.604   2.491  11.244  1.2297 -0.4914 -0.3014
  112MPD2    H2 1714   3.328   2.659  10.970 -1.3033 -0.9089  1.4068
  112MPD2    H3 1715   3.385   2.506  11.155  1.3737 -3.1504  0.4820
  112MPD2     N 1716   3.821   2.596  11.142  0.5550  0.3323 -0.7047
  112MPD2    H5 1717   3.827   2.538  11.225  2.1351  0.3131 -0.8244
  112MPD2    N1 1718   3.501   2.752  10.797  0.2807  0.2492 -0.1730
  112MPD2    H7 1719   3.583   2.764  10.738 -0.3422  1.9768 -0.6811
  113MPD2     C 1720   2.840   4.506   1.262 -0.1675  0.5172 -0.3044
  113MPD2    C1 1721   2.787   4.628   1.295 -0.3000 -0.1012 -0.2484
  113MPD2    C2 1722   2.716   4.700   1.204 -0.6078 -0.0153  0.0814
  113MPD2    C3 1723   2.710   4.648   1.073  0.1104  0.3423  0.6391
  113MPD2    C4 1724   2.763   4.521   1.044  0.1583  0.4821  0.1014
  113MPD2    C5 1725   2.831   4.447   1.139  0.3450 -0.3402  0.3053
  113MPD2     H 1726   2.653   0.063   1.233 -0.6358  0.2053 -0.6090
  113MPD2    H1 1727   2.758   4.478   0.945 -1.3501  1.5541 -0.2839
  113MPD2    H2 1728   2.909   4.455   1.328 -4.9480 -3.3828  1.7076
  113MPD2    H3 1729   2.877   4.352   1.115  0.8078 -0.1038  0.2432
  113MPD2     N 1730   2.648   4.716   0.971  0.3973 -0.1102  0.1489
  113MPD2    H5 1731   2.634   4.665   0.885  2.5162  0.9939 -0.8577
  113MPD2    N1 1732   2.820   4.699   1.419  0.4763  0.1508 -0.2982
  113MPD2    H7 1733   2.782   0.072   1.419 -1.4840 -0.6314 -1.7958
  114TCq2    C1 1734   2.611   0.127   0.974 -0.1021 -0.0829  0.3967
  114TCq2    O2 1735   2.652   0.210   1.051 -0.1074  0.6159 -0.4760
  114TCq2    C2 1736   2.589   0.168   0.839  0.4809  0.0139 -0.9203
  114TCq2    C3 1737   2.651   0.279   0.781  0.2855  0.0341 -0.2656
  114TCq2    C4 1738   2.609   0.326   0.654  0.1598  0.1872  0.2973
  114TCq2    C5 1739   2.507   0.258   0.587  0.4160 -0.4479 -0.4168
  114TCq2    C6 1740   2.449   0.154   0.653  0.0779 -0.0806  0.5077
  114TCq2    C7 1741   2.492   0.101   0.767  0.3179 -0.3435  0.7916
  114TCq2    C8 1742   2.323   0.105   0.580 -0.6314 -0.0929 -0.1117
  114TCq2    O4 1743   2.314   0.140   0.464 -0.0806  0.0424 -0.6147
  114TCq2    C9 1744   2.674   0.433   0.591  0.3043 -0.0310 -0.3840
  114TCq2    O5 1745   2.772   0.476   0.648  0.1939  0.3550  0.2867
  114TCq2    O6 1746   2.625   0.461   0.476  0.3176 -0.5167  0.4064
  114TCq2    H2 1747   2.732   0.335   0.827 -0.9482  1.7926 -0.2205
  114TCq2    H3 1748   2.482   0.287   0.485 -2.3394 -3.6993 -0.6716
  114TCq2    H4 1749   2.440   0.012   0.802  2.3901 -1.8859 -0.0418
  115TMC2    C1 1750   3.645   2.913   0.072  0.5040 -0.6504  0.5924
  115TMC2    C2 1751   3.679   2.958   0.203 -1.0222 -0.0156 -0.4197
  115TMC2    C3 1752   3.689   3.095   0.223  0.4228  0.3060 -0.2299
  115TMC2    C4 1753   3.634   2.999  17.652 -0.0475  0.4721  0.6259
  115TMC2    C5 1754   3.641   3.137  17.678  0.4667 -0.1902  0.4023
  115TMC2    C6 1755   3.672   3.186   0.118 -0.1785  0.0243  0.0677
  115TMC2     C 1756   3.632   2.767   0.045 -1.0456 -0.2328  0.4114
  115TMC2     O 1757   3.524   2.738  17.674  0.5558 -0.0583 -0.2255
  115TMC2     H 1758   3.692   2.891   0.286  2.0807  3.0002  1.4942
  115TMC2    H1 1759   3.616   2.954  17.555 -1.4078  0.2575  0.9881
  115TMC2    H2 1760   3.683   3.291   0.139 -1.7128  0.2948 -0.4491
  115TMC2    C7 1761   3.631   3.244  17.576 -0.8008  0.2876 -0.6090
  115TMC2    C8 1762   3.740   3.137   0.356 -0.4816  0.2673  0.7728
  115TMC2    O1 1763   3.586   3.352  17.617 -0.5708 -0.1432 -0.0241
  115TMC2    O2 1764   3.823   3.067   0.413  0.0976  0.2569  0.6317
  115TMC2    O5 1765   3.615   3.164   0.414  0.5219 -0.0039 -0.2965
  115TMC2    H5 1766   3.548   3.217   0.366  1.5463  3.0549  1.6474
  116MPD2     C 1767   3.777   2.277   0.172 -0.0859  0.5323 -0.4081
  116MPD2    C1 1768   3.647   2.324   0.127  0.0725 -0.7555  0.2165
  116MPD2    C2 1769   3.640   2.458   0.089  0.1638 -0.6028  0.4034
  116MPD2    C3 1770   3.741   2.549   0.114  0.0631 -0.2014 -0.1312
  116MPD2    C4 1771   3.859   2.500   0.171 -0.1157 -0.6337  0.2824
  116MPD2    C5 1772   3.877   2.365   0.190  0.5044 -0.2733  0.4208
  116MPD2     H 1773   3.548   2.498   0.047 -0.8957 -1.0096  2.3299
  116MPD2    H1 1774   3.938   2.572   0.188  1.0010 -1.6252 -0.7247
  116MPD2    H2 1775   3.788   2.176   0.208 -1.8724  0.0045 -1.3123
  116MPD2    H3 1776   3.971   2.341   0.238  0.6944  0.0885  0.2301
  116MPD2     N 1777   3.727   2.692   0.108 -0.4760 -0.3655 -0.0147
  116MPD2    H5 1778   3.804   2.741   0.151  0.2591 -0.7081 -0.9241
  116MPD2    N1 1779   3.542   2.223   0.115  0.3075 -0.3560 -0.7793
  116MPD2    H7 1780   3.573   2.127   0.126  0.3487 -0.3018 -0.4204
  117TMC2    C1 1781   1.218   3.882  14.173  0.2661 -0.5690 -0.4645
  117TMC2    C2 1782   1.204   3.863  14.307  0.4296 -0.4441 -0.1875
  117TMC2    C3 1783   1.289   3.921  14.392  0.1858 -0.4228 -0.4911
  117TMC2    C4 1784   1.312   3.962  14.118 -0.6702  0.1519  0.1752
  117TMC2    C5 1785   1.400   4.027  14.208  0.0371 -0.8730 -0.0210
  117TMC2    C6 1786   1.382   4.006  14.343 -0.9016  0.3695 -0.1910
  117TMC2     C 1787   1.104   3.852  14.096  0.6553  0.0809 -0.0455
  117TMC2     O 1788   1.041   3.751  14.120 -0.2774  0.2869  0.2793
  117TMC2     H 1789   1.116   3.807  14.339 -0.8894  1.2901 -0.7895
  117TMC2    H1 1790   1.330   3.954  14.011 -0.8407  0.2971  0.1344
  117TMC2    H2 1791   1.442   4.068  14.408  3.1921 -3.0444 -0.6840
  117TMC2    C7 1792   1.447   4.156  14.165 -0.2886 -0.0338 -0.3193
  117TMC2    C8 1793   1.237   3.922  14.521  0.0507 -0.1542 -0.1144
  117TMC2    O1 1794   1.496   4.231  14.249 -0.3985 -0.1096  0.0220
  117TMC2    O2 1795   1.114   3.925  14.546 -0.6006  0.6018  0.1789
  117TMC2    O5 1796   1.344   3.962  14.599  0.6843 -0.4982 -0.2398
  117TMC2    H5 1797   1.431   3.949  14.557 -0.5958 -1.1618 -2.6541
  118MPD2     C 1798   1.356   4.337  13.858 -0.2698  0.4320 -0.0709
  118MPD2    C1 1799   1.436   4.309  13.971 -0.0376  0.0223 -0.6962
  118MPD2    C2 1800   1.546   4.394  14.003  0.3486 -0.4511 -0.2185
  118MPD2    C3 1801   1.578   4.500  13.920  0.3579 -0.3963  0.0492
  118MPD2    C4 1802   1.494   4.525  13.812 -0.0319  0.0671 -0.4911
  118MPD2    C5 1803   1.384   4.453  13.791  1.0033  0.9864 -0.2788
  118MPD2     H 1804   1.608   4.388  14.091  0.4633 -0.5196 -0.3043
  118MPD2    H1 1805   1.510   4.609  13.746 -1.7894  1.4382  0.8711
  118MPD2    H2 1806   1.257   4.295  13.845 -1.5894  3.8571 -1.2610
  118MPD2    H3 1807   1.324   4.484  13.706 -0.7687 -1.9824 -0.1462
  118MPD2     N 1808   1.679   4.596  13.933 -0.5117 -0.4924 -0.5623
  118MPD2    H5 1809   1.671   4.663  13.858 -2.4983 -0.7508 -0.5985
  118MPD2    N1 1810   1.400   4.189  14.041 -0.3555  0.0478 -0.6040
  118MPD2    H7 1811   1.333   4.131  13.991 -0.7541 -1.1282  1.2854
  119MPD2     C 1812   4.465   0.577  13.709 -0.4001  0.2892 -0.3370
  119MPD2    C1 1813   4.330   0.607  13.735  0.1908  0.2940 -0.0812
  119MPD2    C2 1814   4.255   0.655  13.631  0.2450 -0.6902 -0.2474
  119MPD2    C3 1815   4.304   0.680  13.503 -0.4068  0.0121  0.5002
  119MPD2    C4 1816   4.438   0.658  13.483 -0.4493  0.3168  0.1001
  119MPD2    C5 1817   4.511   0.604  13.585 -0.1360  0.2330 -0.0394
  119MPD2     H 1818   4.149   0.675  13.644  1.0040  2.9271  0.2414
  119MPD2    H1 1819   4.485   0.690  13.391 -1.5042  0.5357 -0.3690
  119MPD2    H2 1820   4.532   0.555  13.791 -0.8092  1.1363  0.2253
  119MPD2    H3 1821   4.615   0.576  13.569  0.1696  1.3868 -0.0716
  119MPD2     N 1822   4.225   0.724  13.396  0.3031  0.0618  0.5716
  119MPD2    H5 1823   4.263   0.734  13.303  1.9753  0.1544  1.2604
  119MPD2    N1 1824   4.274   0.579  13.860  0.1875  0.8302 -0.1092
  119MPD2    H7 1825   4.344   0.568  13.933 -1.0812  2.0688  1.2836
  120TCq2    C1 1826   4.085   0.728  13.394  0.4974 -0.2480  0.0539
  120TCq2    O2 1827   4.007   0.695  13.485  0.4461 -0.4412 -0.2397
  120TCq2    C2 1828   4.046   0.718  13.250 -0.0479  0.0623 -0.9799
  120TCq2    C3 1829   4.134   0.762  13.155 -0.0567 -0.0624 -0.1259
  120TCq2    C4 1830   4.107   0.722  13.027 -0.6120  0.4779  0.5504
  120TCq2    C5 1831   4.001   0.641  12.997  0.4775 -0.2654 -0.0773
  120TCq2    C6 1832   3.919   0.593  13.103 -0.2111 -0.5837 -0.2188
  120TCq2    C7 1833   3.940   0.636  13.228 -0.6031 -0.3449 -0.1941
  120TCq2    C8 1834   3.811   0.514  13.066  0.3032 -0.0538 -0.1917
  120TCq2    O4 1835   3.793   0.483  12.950 -0.2722  0.6513 -0.0576
  120TCq2    C9 1836   4.195   0.764  12.913  0.2099 -0.4347  0.0012
  120TCq2    O5 1837   4.168   0.707  12.800 -0.3576 -0.4652 -0.4952
  120TCq2    O6 1838   4.281   0.852  12.936 -0.5006 -0.3967 -0.3550
  120TCq2    H2 1839   4.207   0.841  13.167 -0.6602  0.4239  0.3352
  120TCq2    H3 1840   3.974   0.616  12.895 -0.8656  1.5249 -0.1732
  120TCq2    H4 1841   3.872   0.625  13.312  0.5662 -1.8414  0.5638
  121TMC2    C1 1842   1.039   2.369  13.697 -0.2193  0.0313  0.2959
  121TMC2    C2 1843   1.021   2.234  13.697 -1.2617 -0.2280  0.3821
  121TMC2    C3 1844   0.921   2.184  13.624 -0.4966  0.1115 -0.8341
  121TMC2    C4 1845   0.960   2.458  13.626 -0.5279 -0.4334  0.4259
  121TMC2    C5 1846   0.855   2.402  13.563  0.3908  0.1826 -0.7835
  121TMC2    C6 1847   0.835   2.264  13.555  0.2112  0.3573  0.2665
  121TMC2     C 1848   1.135   2.421  13.791 -0.3588 -0.9525 -0.3307
  121TMC2     O 1849   1.156   2.345  13.884 -0.3825  0.3625  0.5480
  121TMC2     H 1850   1.092   2.170  13.749 -0.9494 -1.6864 -1.8374
  121TMC2    H1 1851   0.964   2.565  13.636  1.9266 -0.3795 -0.9236
  121TMC2    H2 1852   0.749   2.215  13.510  1.7126 -2.2722  0.2370
  121TMC2    C7 1853   0.791   2.486  13.466 -0.2260 -0.3171 -0.1109
  121TMC2    C8 1854   0.903   2.036  13.629 -0.3005 -0.4553 -0.3952
  121TMC2    O1 1855   0.835   2.602  13.451  0.1917  0.7412 -0.3561
  121TMC2    O2 1856   0.851   1.968  13.539 -0.9658  0.2196 -0.0561
  121TMC2    O5 1857   0.913   1.994  13.759 -0.0514 -0.8477  0.2006
  121TMC2    H5 1858   0.930   2.068  13.821  1.6886  1.6515 -3.2737
  122MPD2     C 1859   1.378   2.559  13.923  0.0481 -0.2108 -0.1494
  122MPD2    C1 1860   1.303   2.606  13.815 -0.5351  0.7539 -0.7253
  122MPD2    C2 1861   1.338   2.725  13.764  1.0498 -0.3585 -0.9200
  122MPD2    C3 1862   1.457   2.785  13.804 -0.1473  0.2567 -0.4962
  122MPD2    C4 1863   1.523   2.748  13.917 -0.1026 -0.6957  0.4117
  122MPD2    C5 1864   1.477   2.633  13.979 -0.2800  0.3696  0.6785
  122MPD2     H 1865   1.280   2.757  13.679 -0.1288  0.6547  0.2580
  122MPD2    H1 1866   1.612   2.796  13.955 -0.0033 -0.0418 -0.6184
  122MPD2    H2 1867   1.352   2.469  13.978  2.4453 -0.3775  0.6865
  122MPD2    H3 1868   1.519   2.596  14.072 -1.4645  1.6719  1.7290
  122MPD2     N 1869   1.523   2.876  13.721  0.3158  0.1555 -0.3069
  122MPD2    H5 1870   1.617   2.898  13.752  0.5403  1.0192 -1.6128
  122MPD2    N1 1871   1.191   2.540  13.754 -0.3603 -0.4994 -0.0753
  122MPD2    H7 1872   1.155   2.572  13.665 -1.1612  2.5696  1.3479
  123MPD2     C 1873   3.104   0.807   9.065 -0.0030 -0.1256 -0.5073
  123MPD2    C1 1874   3.212   0.720   9.076 -0.0840 -0.2007 -0.0552
  123MPD2    C2 1875   3.327   0.738   8.997 -0.2526 -0.2512  0.0351
  123MPD2    C3 1876   3.324   0.840   8.900  0.5876 -0.0722 -0.3354
  123MPD2    C4 1877   3.214   0.915   8.884 -0.7536  0.9725  0.1263
  123MPD2    C5 1878   3.107   0.909   8.972 -0.1865 -0.4965  0.1130
  123MPD2     H 1879   3.413   0.672   9.003 -0.1570 -0.0108  1.2400
  123MPD2    H1 1880   3.219   0.993   8.809 -2.4380 -0.1234 -1.1144
  123MPD2    H2 1881   3.019   0.806   9.133 -0.2144  0.5444 -0.7664
  123MPD2    H3 1882   3.027   0.982   8.982  0.4908  0.3190 -0.5063
  123MPD2     N 1883   3.438   0.859   8.815  0.2053  0.2070 -0.2215
  123MPD2    H5 1884   3.523   0.810   8.842  0.9770  2.1462  0.9121
  123MPD2    N1 1885   3.204   0.629   9.186 -0.2094  0.1863  0.2428
  123MPD2    H7 1886   3.114   0.623   9.234 -0.9338  0.6047 -1.0593
  124TCq2    C1 1887   3.444   0.941   8.708 -1.0745 -1.0540  0.7269
  124TCq2    O2 1888   3.347   0.984   8.642  0.1246 -0.3926  0.1621
  124TCq2    C2 1889   3.574   0.951   8.647 -0.5969  0.2117  0.0204
  124TCq2    C3 1890   3.588   0.986   8.518 -0.4096  0.5091 -0.4175
  124TCq2    C4 1891   3.713   0.986   8.463  0.4437  0.1512 -0.0145
  124TCq2    C5 1892   3.821   0.943   8.537  0.0340  0.0757  0.0051
  124TCq2    C6 1893   3.805   0.918   8.667 -0.5840  0.9304  0.1091
  124TCq2    C7 1894   3.683   0.908   8.724 -0.4350 -0.0264  0.0740
  124TCq2    C8 1895   3.927   0.877   8.743  0.3317 -0.4256 -0.0114
  124TCq2    O4 1896   3.904   0.815   8.850 -0.3142  0.2779 -0.1946
  124TCq2    C9 1897   3.730   0.999   8.321 -0.3408 -0.4236 -0.1126
  124TCq2    O5 1898   3.850   1.009   8.276 -0.2119  0.2492  0.1721
  124TCq2    O6 1899   3.628   1.005   8.248  0.6440  0.2950  0.1919
  124TCq2    H2 1900   3.502   0.995   8.453  0.5945  0.0671 -1.8190
  124TCq2    H3 1901   3.912   0.918   8.484  0.6317 -1.3506  1.7006
  124TCq2    H4 1902   3.675   0.884   8.829  0.8739 -0.2727  0.1171
  125TMC2    C1 1903   0.585   0.260  10.438  0.6056 -0.3286  0.0025
  125TMC2    C2 1904   0.523   0.385  10.404  0.3508  0.2569 -0.5913
  125TMC2    C3 1905   0.586   0.446  10.302 -0.1921  0.3631 -0.2106
  125TMC2    C4 1906   0.672   0.194  10.359 -1.2804  0.5762 -0.2704
  125TMC2    C5 1907   0.721   0.263  10.250 -0.1516  1.1003  0.9936
  125TMC2    C6 1908   0.679   0.383  10.222  0.4444 -0.7356 -0.1685
  125TMC2     C 1909   0.507   0.178  10.524  0.4072  0.6417 -0.8036
  125TMC2     O 1910   0.495   0.065  10.481  0.4391  0.4325 -0.3272
  125TMC2     H 1911   0.449   0.440  10.461  3.5048  3.3436  0.4767
  125TMC2    H1 1912   0.717   0.098  10.381  0.7766  1.6796  0.3071
  125TMC2    H2 1913   0.701   0.424  10.124 -1.2253 -1.9592 -1.0604
  125TMC2    C7 1914   0.839   0.209  10.183 -0.0350 -0.3083  0.1618
  125TMC2    C8 1915   0.537   0.572  10.262 -0.5278  0.4254  0.0587
  125TMC2    O1 1916   0.879   0.105  10.235 -0.5711 -0.6346  0.2222
  125TMC2    O2 1917   0.423   0.610  10.281 -0.2656  0.0709 -0.1173
  125TMC2    O5 1918   0.622   0.639  10.187  0.3179 -0.5124  1.0714
  125TMC2    H5 1919   0.719   0.626  10.198  0.3747  0.0971  1.3089
  126MPD1     C 1920   0.164   0.119  10.913  0.5182  0.3212 -0.4201
  126MPD1    C1 1921   0.236   0.239  10.926 -0.1548  0.0708 -0.1137
  126MPD1    C2 1922   0.324   0.282  10.826  0.2498 -0.0797  0.3208
  126MPD1    C3 1923   0.359   0.196  10.723 -0.5741  0.4508  0.2514
  126MPD1    C4 1924   0.305   0.070  10.721  0.0218  0.5222  0.1015
  126MPD1    C5 1925   0.208   0.028  10.813  0.0245  0.9983 -0.4472
  126MPD1     H 1926   0.368   0.381  10.818 -0.0437 -0.0460 -0.8670
  126MPD1    H1 1927   0.319   0.015  10.628 -1.1018 -0.6646  0.6333
  126MPD1    H2 1928   0.086   0.090  10.982  1.1180 -1.5376 -0.5257
  126MPD1    H3 1929   0.155   4.657  10.794  0.7899  0.8077 -1.6516
  126MPD1     N 1930   0.452   0.246  10.626 -0.3873 -0.0534  0.2344
  126MPD1    H5 1931   0.478   0.343  10.643  3.4775 -1.0734  0.0205
  126MPD1    N1 1932   0.191   0.328  11.028 -0.3963  0.6779 -0.1403
  126MPD1    H6 1933   0.275   0.369  11.067 -1.0579  3.7049 -1.9427
  126MPD1    H7 1934   0.139   0.285  11.104  1.9636  1.8511  2.1227
  127MPD2     C 1935   2.696   0.651   8.893  0.0198  0.3741 -0.0635
  127MPD2    C1 1936   2.573   0.623   8.945 -0.3334  0.2096  0.0363
  127MPD2    C2 1937   2.503   0.718   9.019 -0.2132  1.4302 -0.6378
  127MPD2    C3 1938   2.558   0.844   9.033  0.3864 -0.2641 -0.4565
  127MPD2    C4 1939   2.670   0.881   8.973 -0.4584 -0.1476  0.1066
  127MPD2    C5 1940   2.741   0.785   8.913 -0.3438 -0.3097 -0.2187
  127MPD2     H 1941   2.400   0.705   9.049 -0.3308  0.1524 -1.6013
  127MPD2    H1 1942   2.710   0.982   8.974  0.2622 -0.4206 -1.0188
  127MPD2    H2 1943   2.767   0.582   8.851 -2.1260 -0.6112 -2.0592
  127MPD2    H3 1944   2.839   0.817   8.878  0.3802 -1.3851  0.8026
  127MPD2     N 1945   2.474   0.947   9.079 -0.1740  0.1459 -0.1264
  127MPD2    H5 1946   2.382   0.918   9.110  0.9248 -2.3519  0.8167
  127MPD2    N1 1947   2.517   0.494   8.919 -0.2665 -0.1016 -0.1235
  127MPD2    H7 1948   2.569   0.433   8.858 -0.0160  0.3449 -0.3592
  128TCq2    C1 1949   2.401   0.441   8.987  0.4595 -0.1123  0.1420
  128TCq2    O2 1950   2.314   0.494   9.055 -0.4353  0.4858 -0.5797
  128TCq2    C2 1951   2.391   0.295   8.963 -0.0802 -0.0108 -0.3704
  128TCq2    C3 1952   2.506   0.230   8.932  0.1062 -0.2873 -0.6141
  128TCq2    C4 1953   2.494   0.108   8.878  0.2425 -0.1939  0.0319
  128TCq2    C5 1954   2.370   0.063   8.825 -0.2293 -0.8100  0.4936
  128TCq2    C6 1955   2.257   0.140   8.846  0.4278  0.3524 -0.8262
  128TCq2    C7 1956   2.266   0.263   8.912  0.1672 -0.2838  0.1928
  128TCq2    C8 1957   2.143   0.114   8.760 -0.2289 -0.3387  0.3331
  128TCq2    O4 1958   2.171   0.091   8.643 -0.1710 -0.1961  0.0162
  128TCq2    C9 1959   2.610   0.023   8.866  1.3401  0.3344  0.0747
  128TCq2    O5 1960   2.705   0.057   8.937 -0.3943  0.0156 -0.4978
  128TCq2    O6 1961   2.589   4.626   8.837  0.4019 -0.4869 -0.3497
  128TCq2    H2 1962   2.600   0.258   8.979 -0.6518  1.0655  0.0757
  128TCq2    H3 1963   2.373   4.685   8.780 -2.3768  0.4392 -2.3524
  128TCq2    H4 1964   2.192   0.340   8.926 -0.1117 -0.5204  0.0049
  129MPD2     C 1965   0.147   2.117   1.524  0.4976  0.5782 -0.0847
  129MPD2    C1 1966   0.249   2.088   1.438  0.1857  0.2337  0.2990
  129MPD2    C2 1967   0.256   2.155   1.317  0.1537 -0.9305  0.3480
  129MPD2    C3 1968   0.163   2.241   1.271 -0.3150 -0.0994  0.0606
  129MPD2    C4 1969   0.061   2.260   1.357 -0.1367  0.3939 -0.3437
  129MPD2    C5 1970   0.045   2.196   1.476 -0.1894  0.4426 -0.5750
  129MPD2     H 1971   0.334   2.125   1.249 -0.4555 -1.6626 -0.0226
  129MPD2    H1 1972   4.691   2.305   1.320 -0.9493 -0.8934  0.0840
  129MPD2    H2 1973   0.118   2.073   1.619 -0.2744  1.4256  0.0718
  129MPD2    H3 1974   4.676   2.213   1.535  0.5575 -3.3723  1.6630
  129MPD2     N 1975   0.163   2.286   1.139  0.1692 -0.2174  0.4840
  129MPD2    H5 1976   0.241   2.256   1.082 -0.6227 -1.4557  0.0370
  129MPD2    N1 1977   0.342   1.983   1.462  0.2021  0.6568 -0.4356
  129MPD2    H7 1978   0.425   1.975   1.405 -0.6851  0.8371 -1.7632
  130TCq2    C1 1979   0.330   1.895   1.569 -0.1303 -0.9566 -0.5145
  130TCq2    O2 1980   0.227   1.872   1.632 -0.0968 -0.1593 -0.0584
  130TCq2    C2 1981   0.443   1.811   1.579  0.0633  0.9461 -0.6128
  130TCq2    C3 1982   0.560   1.847   1.516 -0.6524 -0.0279 -0.2839
  130TCq2    C4 1983   0.663   1.758   1.525 -0.3735 -0.0674 -0.7032
  130TCq2    C5 1984   0.647   1.634   1.585 -0.2678  0.8845 -0.1730
  130TCq2    C6 1985   0.525   1.606   1.639  0.2987 -0.4383  0.2914
  130TCq2    C7 1986   0.420   1.687   1.636  0.1545  0.2381  0.1355
  130TCq2    C8 1987   0.496   1.472   1.682 -0.4181  0.2300  0.0503
  130TCq2    O4 1988   0.378   1.453   1.715 -0.0652 -0.2043 -0.2763
  130TCq2    C9 1989   0.792   1.795   1.470 -0.2190  0.3518 -1.6443
  130TCq2    O5 1990   0.885   1.712   1.458 -0.3572  0.2163  0.4973
  130TCq2    O6 1991   0.801   1.918   1.440 -0.2469 -0.2629 -0.2221
  130TCq2    H2 1992   0.579   1.950   1.489 -1.9185  0.3633  0.3200
  130TCq2    H3 1993   0.730   1.564   1.585 -0.5078  0.5974 -0.1318
  130TCq2    H4 1994   0.326   1.656   1.680  0.4921 -0.9706  0.0105
  131MPD2     C 1995   3.841   0.101   9.762  0.0426 -0.0532 -0.2574
  131MPD2    C1 1996   3.867   0.186   9.663  0.6413 -0.2360  0.5820
  131MPD2    C2 1997   3.755   0.217   9.590 -0.4078 -0.1522  0.6610
  131MPD2    C3 1998   3.628   0.174   9.617  0.7119  0.0250  0.1623
  131MPD2    C4 1999   3.606   0.099   9.731 -0.1827 -0.0262  0.3006
  131MPD2    C5 2000   3.719   0.062   9.801  0.0330 -0.6855  0.2441
  131MPD2     H 2001   3.757   0.289   9.509  0.8252  0.4665  1.2249
  131MPD2    H1 2002   3.515   0.070   9.782 -0.2945  0.0914  0.1687
  131MPD2    H2 2003   3.925   0.060   9.817  1.3814  2.2642 -0.5572
  131MPD2    H3 2004   3.714   4.710   9.881  3.2412  0.5561  1.5535
  131MPD2     N 2005   3.517   0.214   9.532 -0.6437 -0.3661  0.1586
  131MPD2    H5 2006   3.541   0.245   9.438 -0.2375  0.8368  0.6669
  131MPD2    N1 2007   3.994   0.246   9.650 -0.2253  0.8296  0.4339
  131MPD2    H7 2008   4.062   0.223   9.722  1.8615  1.8605 -1.2038
  132TCq2    C1 2009   4.327   0.690   9.406  0.3109 -0.6014  0.0208
  132TCq2    O2 2010   4.254   0.713   9.309  0.3882  0.0108 -0.3304
  132TCq2    C2 2011   4.302   0.573   9.498 -0.0033 -0.2414 -0.1566
  132TCq2    C3 2012   4.393   0.524   9.591  0.1822 -0.2627  0.2709
  132TCq2    C4 2013   4.357   0.423   9.678  0.4823 -0.1014 -0.9405
  132TCq2    C5 2014   4.229   0.368   9.680 -0.4392 -0.6117  0.4056
  132TCq2    C6 2015   4.150   0.410   9.578 -0.7806 -0.1046  0.4564
  132TCq2    C7 2016   4.184   0.505   9.481  0.2068 -0.3095  0.2629
  132TCq2    C8 2017   4.020   0.348   9.561  0.0457 -0.6585  0.2137
  132TCq2    O4 2018   3.951   0.392   9.472  0.6646 -0.5809 -0.7447
  132TCq2    C9 2019   4.454   0.375   9.774 -0.0644 -0.8295  0.4895
  132TCq2    O5 2020   4.420   0.309   9.870  0.2038 -0.1399  0.2561
  132TCq2    O6 2021   4.575   0.403   9.751 -0.4506  0.3789  0.5755
  132TCq2    H2 2022   4.488   0.570   9.617 -0.8616  2.8308 -1.3941
  132TCq2    H3 2023   4.191   0.307   9.761 -2.4724  1.1909  0.7875
  132TCq2    H4 2024   4.113   0.541   9.407  0.0117 -1.6645 -0.2125
  133MPD2     C 2025   4.507   1.428   8.590 -0.0712 -0.0545 -0.6819
  133MPD2    C1 2026   4.386   1.435   8.524 -0.6047  0.1684 -0.0861
  133MPD2    C2 2027   4.271   1.395   8.584 -0.8417 -0.1616 -0.3359
  133MPD2    C3 2028   4.275   1.358   8.717  1.0366  0.7720  0.1785
  133MPD2    C4 2029   4.395   1.350   8.783 -0.0313 -0.3487  0.3538
  133MPD2    C5 2030   4.512   1.374   8.714  0.5797 -0.2599  1.3994
  133MPD2     H 2031   4.178   1.388   8.528 -2.2860 -0.3325  2.0738
  133MPD2    H1 2032   4.402   1.320   8.887  1.1665  3.5569  1.4124
  133MPD2    H2 2033   4.599   1.450   8.538 -0.3161 -1.9493 -1.9369
  133MPD2    H3 2034   4.608   1.352   8.759  0.1991 -0.9960  1.8583
  133MPD2     N 2035   4.167   1.327   8.792 -0.4368 -0.2171  0.0806
  133MPD2    H5 2036   4.180   1.321   8.893 -0.7235 -0.6883  0.0874
  133MPD2    N1 2037   4.384   1.491   8.395 -0.3191  0.4967  0.1490
  133MPD2    H7 2038   4.473   1.515   8.353 -1.3084 -0.5960 -2.5177
  134TCq2    C1 2039   4.274   1.541   8.327  0.7624 -0.1252 -0.3584
  134TCq2    O2 2040   4.156   1.531   8.356  0.0212  0.2060 -0.1270
  134TCq2    C2 2041   4.312   1.585   8.196 -0.4308  0.8512 -0.2388
  134TCq2    C3 2042   4.438   1.562   8.147 -0.4273  0.2188  0.2353
  134TCq2    C4 2043   4.474   1.607   8.019  0.3036 -0.0074  0.3061
  134TCq2    C5 2044   4.378   1.687   7.949 -0.4404  0.3090 -1.0967
  134TCq2    C6 2045   4.267   1.714   8.016 -0.7779 -0.4212 -0.3835
  134TCq2    C7 2046   4.222   1.659   8.131  0.1135  1.0860  0.4257
  134TCq2    C8 2047   4.166   1.786   7.938 -0.4757 -0.3852 -0.2623
  134TCq2    O4 2048   4.178   1.792   7.817 -1.0157  0.6425  0.1969
  134TCq2    C9 2049   4.598   1.563   7.959 -0.0269 -0.0124 -0.0954
  134TCq2    O5 2050   4.669   1.488   8.030  0.1993  0.3632  0.5275
  134TCq2    O6 2051   4.632   1.634   7.862  0.4619 -0.1830 -0.2280
  134TCq2    H2 2052   4.515   1.506   8.198 -0.5674 -0.1608  0.0296
  134TCq2    H3 2053   4.388   1.708   7.843 -2.4691 -1.5263 -1.6437
  134TCq2    H4 2054   4.123   1.667   8.174  0.0858 -0.8958  0.7309
  135MPD2     C 2055   1.198   1.978   9.688 -0.2634 -0.2078  0.1724
  135MPD2    C1 2056   1.221   1.862   9.756  0.1828  0.8963  0.1059
  135MPD2    C2 2057   1.291   1.760   9.698  0.9952 -0.0263  0.5509
  135MPD2    C3 2058   1.354   1.775   9.575 -0.3923 -0.5302 -0.8035
  135MPD2    C4 2059   1.343   1.896   9.499  0.0674  0.5108  0.9669
  135MPD2    C5 2060   1.263   1.995   9.558  0.1976  0.6982 -0.3238
  135MPD2     H 2061   1.299   1.664   9.749  2.5085 -0.0492  0.2829
  135MPD2    H1 2062   1.393   1.919   9.406 -2.6641  3.1963  0.1423
  135MPD2    H2 2063   1.133   2.056   9.724 -0.7049  0.9452 -3.0844
  135MPD2    H3 2064   1.248   2.083   9.497 -0.6129  1.3761  0.8641
  135MPD2     N 2065   1.418   1.666   9.512 -0.2660 -0.4656 -0.1212
  135MPD2    H5 2066   1.440   1.678   9.414  3.2018  0.1971  0.7556
  135MPD2    N1 2067   1.173   1.843   9.884 -0.1557  0.1994  0.3039
  135MPD2    H7 2068   1.181   1.752   9.929  1.6491  0.3707  0.3485
  136TCq2    C1 2069   1.081   1.921   9.947  0.3593 -0.2897 -0.4451
  136TCq2    O2 2070   1.061   2.041   9.941  0.0792  0.3750 -0.3525
  136TCq2    C2 2071   1.000   1.852  10.044  0.2343 -0.9908 -0.4549
  136TCq2    C3 2072   0.977   1.722  10.018  0.0057  0.0463  0.4102
  136TCq2    C4 2073   0.924   1.648  10.122  0.0640 -0.2035  0.4412
  136TCq2    C5 2074   0.887   1.713  10.235 -0.2216 -0.4905  0.7041
  136TCq2    C6 2075   0.907   1.846  10.250  1.1458 -0.4777  0.8109
  136TCq2    C7 2076   0.967   1.922  10.158  0.2339 -0.8703 -0.0187
  136TCq2    C8 2077   0.838   1.923  10.349 -0.1531 -0.0877 -0.0495
  136TCq2    O4 2078   0.878   2.025  10.405  0.8747  0.3824  0.1593
  136TCq2    C9 2079   0.900   1.506  10.100  0.8616 -0.4597 -0.2852
  136TCq2    O5 2080   0.837   1.450  10.195 -0.6688  0.3771  0.6643
  136TCq2    O6 2081   0.942   1.443   9.993 -0.4659 -0.4418 -0.0525
  136TCq2    H2 2082   1.003   1.671   9.926 -1.3179  0.6080 -0.2725
  136TCq2    H3 2083   0.853   1.652  10.318  1.3816  1.2392  2.6413
  136TCq2    H4 2084   0.974   2.029  10.171 -2.1685 -0.8485  1.0128
  137MPD2     C 2085   1.085   1.266   9.460  0.3897 -0.3717  0.2325
  137MPD2    C1 2086   1.042   1.377   9.533 -0.4374 -0.1072 -0.0043
  137MPD2    C2 2087   1.037   1.366   9.674  0.3486  0.4289  0.1567
  137MPD2    C3 2088   1.064   1.247   9.733  0.6217 -0.0768 -0.2339
  137MPD2    C4 2089   1.108   1.140   9.659  0.3019 -0.2117  0.5904
  137MPD2    C5 2090   1.125   1.150   9.522 -0.5739  0.1400 -0.4304
  137MPD2     H 2091   1.018   1.455   9.733  0.2874  0.1116  0.6124
  137MPD2    H1 2092   1.138   1.042   9.696  0.7959 -0.7623 -1.2657
  137MPD2    H2 2093   1.114   1.283   9.357 -0.0978 -0.6832  0.0459
  137MPD2    H3 2094   1.165   1.064   9.469  0.1465 -0.0250  0.3662
  137MPD2     N 2095   1.041   1.228   9.875  0.3762  0.5619 -0.1009
  137MPD2    H5 2096   1.006   1.309   9.925  0.5925 -0.2358  1.3256
  137MPD2    N1 2097   1.027   1.501   9.464 -0.3286 -0.4834 -0.2757
  137MPD2    H7 2098   1.034   1.489   9.363  0.6461  0.7403 -0.3602
  138TCq2    C1 2099   0.999   1.624   9.527  0.8439 -0.4279  0.5643
  138TCq2    O2 2100   0.987   1.651   9.646  0.0627 -0.3714 -0.2848
  138TCq2    C2 2101   0.986   1.735   9.439 -0.5127 -0.1582 -0.3020
  138TCq2    C3 2102   1.050   1.743   9.318  0.1258 -0.2085 -0.4758
  138TCq2    C4 2103   1.038   1.858   9.257  0.9408  0.2770 -0.1535
  138TCq2    C5 2104   0.947   1.953   9.301 -0.6826  0.4865 -0.3340
  138TCq2    C6 2105   0.875   1.936   9.415 -0.4822 -0.1356 -0.1530
  138TCq2    C7 2106   0.898   1.822   9.484 -0.3615 -0.3870 -0.1641
  138TCq2    C8 2107   0.745   2.001   9.433  0.1562  0.2119 -0.6564
  138TCq2    O4 2108   0.733   2.119   9.400  0.3611 -0.1665 -0.4672
  138TCq2    C9 2109   1.119   1.887   9.138  0.6037  0.0084 -0.5967
  138TCq2    O5 2110   1.087   1.985   9.062  0.2171 -0.5057  0.3318
  138TCq2    O6 2111   1.214   1.808   9.102 -0.2437 -0.2229 -0.3647
  138TCq2    H2 2112   1.127   1.672   9.291  2.6974  2.4112 -0.0196
  138TCq2    H3 2113   0.948   2.054   9.261  0.5322  0.6451  0.1084
  138TCq2    H4 2114   0.855   1.824   9.583 -1.7050  1.0127 -0.7784
  139TMC2    C1 2115   1.089   0.185  13.201 -0.0019  0.3324  0.2991
  139TMC2    C2 2116   1.150   0.264  13.112 -0.0325 -0.4033  0.9739
  139TMC2    C3 2117   1.093   0.387  13.090  0.4104 -0.1962 -0.2452
  139TMC2    C4 2118   0.964   0.220  13.251 -0.5399  0.0957 -0.0752
  139TMC2    C5 2119   0.912   0.350  13.221 -0.0751  0.3356  0.2350
  139TMC2    C6 2120   0.990   0.442  13.154 -0.1177  0.1119 -0.6016
  139TMC2     C 2121   1.131   0.043  13.212  0.1801  0.2789  0.2207
  139TMC2     O 2122   1.223   4.720  13.142 -0.5129  0.3312 -0.1715
  139TMC2     H 2123   1.232   0.228  13.053 -1.6668 -2.3571 -0.1081
  139TMC2    H1 2124   0.902   0.161  13.317 -1.4630  0.6315 -0.4598
  139TMC2    H2 2125   0.951   0.541  13.130  0.9543  0.8370  0.6173
  139TMC2    C7 2126   0.780   0.389  13.270  0.0811 -0.0685  0.0169
  139TMC2    C8 2127   1.163   0.467  12.996 -0.1492  0.0318  0.3732
  139TMC2    O1 2128   0.763   0.511  13.279 -0.2308  0.4269  0.2438
  139TMC2    O2 2129   1.216   0.407  12.907 -0.1771 -0.1891 -0.0434
  139TMC2    O5 2130   1.213   0.571  13.054  0.0840  0.2062 -0.0095
  139TMC2    H5 2131   1.159   0.600  13.130 -0.8113 -0.8512 -0.2410
  140MPD2     C 2132   1.047   4.507  13.456 -0.4916 -0.3324  0.3256
  140MPD2    C1 2133   1.085   4.558  13.336 -0.8588  0.5318  0.1126
  140MPD2    C2 2134   1.125   4.461  13.250 -0.2953 -0.1838  0.5322
  140MPD2    C3 2135   1.128   4.324  13.284  0.0265  0.4658  0.9144
  140MPD2    C4 2136   1.084   4.283  13.406 -0.2175  0.4552  0.1084
  140MPD2    C5 2137   1.047   4.378  13.492  0.8571  0.3403  0.1413
  140MPD2     H 2138   1.154   4.496  13.152 -1.3327 -1.0189 -0.0710
  140MPD2    H1 2139   1.077   4.184  13.448 -4.4268  0.5452 -0.4430
  140MPD2    H2 2140   1.015   4.581  13.529 -0.3846  0.0253  0.0092
  140MPD2    H3 2141   1.012   4.354  13.592 -2.0355 -0.6544 -1.1068
  140MPD2     N 2142   1.175   4.240  13.185 -0.0891 -0.3893  0.1955
  140MPD2    H5 2143   1.205   4.285  13.099 -0.7499  0.7367  0.5551
  140MPD2    N1 2144   1.065   4.698  13.312  0.7709  0.4384  0.1523
  140MPD2    H7 2145   1.008   0.029  13.378  0.9261 -1.7273  1.9707
  141TCq2    C1 2146   1.496   2.064  14.285  0.1569  0.2004  1.3584
  141TCq2    O2 2147   1.534   2.093  14.172  0.3306 -0.0776 -0.1252
  141TCq2    C2 2148   1.440   2.176  14.366 -0.1724 -1.1626 -0.6061
  141TCq2    C3 2149   1.376   2.152  14.485  0.3184 -0.2944  0.0464
  141TCq2    C4 2150   1.358   2.256  14.566  0.2213  0.5362 -0.1587
  141TCq2    C5 2151   1.410   2.379  14.535 -0.1408  0.0391 -0.0026
  141TCq2    C6 2152   1.479   2.401  14.417 -0.4775 -0.0732  0.1714
  141TCq2    C7 2153   1.486   2.302  14.326 -0.2315 -0.2242 -0.2132
  141TCq2    C8 2154   1.531   2.537  14.393  0.1642  0.2326  0.0317
  141TCq2    O4 2155   1.451   2.632  14.410 -0.0259  0.1395 -0.1182
  141TCq2    C9 2156   1.302   2.218  14.697 -0.3827  0.2544 -0.1751
  141TCq2    O5 2157   1.235   2.111  14.710 -0.3939  0.3152 -0.3219
  141TCq2    O6 2158   1.289   2.318  14.776 -0.2428  0.0366  0.2707
  141TCq2    H2 2159   1.326   2.057  14.502 -0.5544  0.1723  0.0735
  141TCq2    H3 2160   1.403   2.460  14.607 -0.4930 -0.1441  0.1673
  141TCq2    H4 2161   1.529   2.323  14.228 -0.4875 -0.4065 -0.3617
  142MPD2     C 2162   4.252   4.654   9.674  0.0878  0.1003 -0.1505
  142MPD2    C1 2163   4.174   4.667   9.561 -0.6157 -0.1157 -0.0238
  142MPD2    C2 2164   4.221   0.021   9.456  0.1087 -0.3890  0.9691
  142MPD2    C3 2165   4.344   0.088   9.461 -0.2940  0.6054 -0.4040
  142MPD2    C4 2166   4.419   0.078   9.574  0.6850  0.0599 -0.5485
  142MPD2    C5 2167   4.370   0.008   9.687  0.5005 -0.1533  0.2387
  142MPD2     H 2168   4.158   0.037   9.369 -0.4715 -2.2498  1.0585
  142MPD2    H1 2169   4.517   0.124   9.570  1.1373 -1.2199 -4.3291
  142MPD2    H2 2170   4.221   4.594   9.759 -2.8722  0.7244 -0.7937
  142MPD2    H3 2171   4.420   4.721   9.783 -1.2943  0.3075  1.2005
  142MPD2     N 2172   4.384   0.184   9.363  0.9633 -0.4396 -0.0651
  142MPD2    H5 2173   4.483   0.200   9.373  1.1018 -0.4865 -1.3535
  142MPD2    N1 2174   4.049   4.604   9.566  0.2986  0.0456  0.1327
  142MPD2    H7 2175   4.026   4.550   9.649  0.8232 -1.5492 -0.7559
  143TCq2    C1 2176   4.316   0.234   9.260 -0.2077  0.3942  0.8839
  143TCq2    O2 2177   4.198   0.222   9.232  0.9722  0.1228 -0.1046
  143TCq2    C2 2178   4.405   0.331   9.195 -0.3911  0.3698  0.6431
  143TCq2    C3 2179   4.531   0.363   9.247 -0.7339 -0.1710 -0.3231
  143TCq2    C4 2180   4.580   0.490   9.217  0.6908  0.9672 -0.6651
  143TCq2    C5 2181   4.508   0.575   9.142 -0.9818 -0.2507  0.3241
  143TCq2    C6 2182   4.388   0.540   9.091 -0.1135  0.4317  1.1391
  143TCq2    C7 2183   4.334   0.423   9.124  0.2034  0.4549 -0.0306
  143TCq2    C8 2184   4.310   0.625   9.004  0.0969  0.2949 -0.4383
  143TCq2    O4 2185   4.193   0.593   8.976  0.5187 -0.2864 -0.1396
  143TCq2    C9 2186   4.706   0.533   9.265 -0.2168  1.1522  0.1498
  143TCq2    O5 2187   0.028   0.645   9.216  0.6542  0.3493  0.0592
  143TCq2    O6 2188   0.043   0.458   9.347 -0.3944 -0.0075  0.1573
  143TCq2    H2 2189   4.594   0.294   9.301  2.1668  1.2387 -1.9205
  143TCq2    H3 2190   4.548   0.675   9.127  1.9707 -1.4563  0.0976
  143TCq2    H4 2191   4.238   0.399   9.082  0.2875 -1.0677  0.6619
  144MPD2     C 2192   2.024   4.103   0.562 -0.1768  0.3997  0.1828
  144MPD2    C1 2193   2.020   3.991   0.486  0.0733  0.7186  0.6750
  144MPD2    C2 2194   2.094   3.874   0.525 -0.5933  0.6273 -0.7419
  144MPD2    C3 2195   2.173   3.878   0.639  0.3265 -0.5082 -0.3609
  144MPD2    C4 2196   2.188   3.992   0.708 -0.4785  0.1240 -0.4831
  144MPD2    C5 2197   2.105   4.095   0.671  0.5057 -0.2064 -0.9689
  144MPD2     H 2198   2.094   3.785   0.463 -0.7099 -0.9495  1.5203
  144MPD2    H1 2199   2.255   4.017   0.790 -0.8390  0.7566 -0.3800
  144MPD2    H2 2200   1.978   4.199   0.544  0.8711  0.8798  0.0912
  144MPD2    H3 2201   2.106   4.179   0.739  0.7054 -1.3063  0.3806
  144MPD2     N 2202   2.264   3.775   0.674 -0.0861 -0.1223  0.2235
  144MPD2    H5 2203   2.328   3.804   0.747 -1.4598 -0.9515  1.7406
  144MPD2    N1 2204   1.936   3.977   0.378  0.2226  0.1546  0.5104
  144MPD2    H7 2205   1.931   3.882   0.342  1.9357 -0.0495  0.8217
  145TCq2    C1 2206   2.271   3.649   0.617  0.5124  0.4665 -0.8434
  145TCq2    O2 2207   2.188   3.596   0.549  0.6564 -0.2341 -1.3851
  145TCq2    C2 2208   2.377   3.568   0.666 -0.2367 -0.1919 -0.1487
  145TCq2    C3 2209   2.421   3.472   0.578 -1.5244 -0.4620  0.0386
  145TCq2    C4 2210   2.540   3.408   0.601 -0.1490  0.6105  0.8621
  145TCq2    C5 2211   2.607   3.442   0.716 -0.4084 -0.0050  0.0018
  145TCq2    C6 2212   2.559   3.535   0.804 -0.1310  0.2931  0.2550
  145TCq2    C7 2213   2.438   3.598   0.785 -0.6248 -0.5030 -0.3127
  145TCq2    C8 2214   2.659   3.588   0.899  0.2101 -0.7261  0.0643
  145TCq2    O4 2215   2.763   3.531   0.913 -0.2343 -0.1525 -0.5703
  145TCq2    C9 2216   2.585   3.293   0.516 -0.5988  0.2149  0.0038
  145TCq2    O5 2217   2.513   3.250   0.423 -0.4091  0.4077 -0.3595
  145TCq2    O6 2218   2.698   3.235   0.544 -0.7352  0.8755 -0.2718
  145TCq2    H2 2219   2.367   3.448   0.488  2.1459 -1.0619 -2.0184
  145TCq2    H3 2220   2.698   3.386   0.733 -0.6765 -0.9180 -1.5550
  145TCq2    H4 2221   2.398   3.672   0.853 -1.6431 -0.2163 -1.2076
  146TMC2    C1 2222   3.267   2.919  12.715  0.3838  0.3025 -1.2252
  146TMC2    C2 2223   3.156   2.990  12.738 -0.4613 -0.0719  0.0094
  146TMC2    C3 2224   3.075   3.017  12.632  0.2690 -0.0033 -0.0604
  146TMC2    C4 2225   3.308   2.894  12.587  0.2467 -0.4338 -0.6243
  146TMC2    C5 2226   3.233   2.931  12.479 -0.3614 -0.0008 -0.5675
  146TMC2    C6 2227   3.115   2.990  12.502 -0.1582 -0.5109 -0.8336
  146TMC2     C 2228   3.324   2.850  12.830 -0.6180 -0.7605 -0.8430
  146TMC2     O 2229   3.277   2.869  12.946 -0.1066  0.2479  0.5273
  146TMC2     H 2230   3.126   3.006  12.841  2.5119  2.2211  0.5475
  146TMC2    H1 2231   3.414   2.874  12.572  0.3987 -2.6925  3.1959
  146TMC2    H2 2232   3.047   3.018  12.422  0.0274  1.2397 -0.3751
  146TMC2    C7 2233   3.310   2.971  12.361  0.1431  0.0299  0.0816
  146TMC2    C8 2234   2.967   3.107  12.656 -0.2820  0.4764 -0.3680
  146TMC2    O1 2235   3.288   3.083  12.314  0.0407  0.4574 -0.3645
  146TMC2    O2 2236   2.984   3.224  12.697  0.0592  0.4287  0.5016
  146TMC2    O5 2237   2.861   3.063  12.591  0.0146  0.0458  0.0151
  146TMC2    H5 2238   2.871   2.966  12.580 -1.3840 -0.0522 -0.3236
  147MPD2     C 2239   3.605   2.863  11.960 -0.1261 -0.2750  0.1723
  147MPD2    C1 2240   3.586   2.739  12.030 -0.2202 -0.5142 -0.5768
  147MPD2    C2 2241   3.519   2.747  12.150 -0.2608 -0.4568  0.5261
  147MPD2    C3 2242   3.472   2.869  12.195 -0.2945  0.2812 -0.0966
  147MPD2    C4 2243   3.490   2.987  12.125  0.3889  0.2210  0.2279
  147MPD2    C5 2244   3.557   2.983  12.009  0.1281  0.6051 -0.2355
  147MPD2     H 2245   3.514   2.661  12.216  0.7895 -0.3423  0.7496
  147MPD2    H1 2246   3.488   3.088  12.166 -2.9952 -0.2873  1.2949
  147MPD2    H2 2247   3.647   2.864  11.861 -0.1907 -0.4520  0.1421
  147MPD2    H3 2248   3.580   3.079  11.964  1.2928  0.9357  1.0580
  147MPD2     N 2249   3.398   2.874  12.314  0.1416 -0.1553 -0.1728
  147MPD2    H5 2250   3.386   2.794  12.375  3.1368 -0.1950  0.3443
  147MPD2    N1 2251   3.625   2.624  11.951  0.1836  0.0136  0.8996
  147MPD2    H7 2252   3.654   2.647  11.856  1.6064  0.6160  1.4801
  148MPD2     C 2253   3.645   1.496   9.798  0.0144 -0.5420 -0.2002
  148MPD2    C1 2254   3.689   1.398   9.889 -0.3536  0.1271 -0.2590
  148MPD2    C2 2255   3.675   1.262   9.860  0.2218  0.8601 -0.6080
  148MPD2    C3 2256   3.619   1.219   9.740 -0.1667 -0.0399  1.0066
  148MPD2    C4 2257   3.573   1.319   9.656 -0.0311  0.1706 -0.2655
  148MPD2    C5 2258   3.589   1.450   9.684  0.2505 -0.1853  0.4017
  148MPD2     H 2259   3.702   1.188   9.935  1.2539  0.7315 -1.0973
  148MPD2    H1 2260   3.534   1.291   9.558 -0.0259  0.7961 -0.4505
  148MPD2    H2 2261   3.653   1.602   9.824  1.0074 -0.6409 -0.0968
  148MPD2    H3 2262   3.540   1.523   9.620  1.7906 -0.3873 -0.9813
  148MPD2     N 2263   3.574   1.083   9.718  0.1730 -0.1379  0.0707
  148MPD2    H5 2264   3.515   1.065   9.638  0.2373 -0.5728  0.1207
  148MPD2    N1 2265   3.735   1.431  10.024 -0.1215  0.3340 -0.1912
  148MPD2    H7 2266   3.768   1.354  10.080 -0.5094 -0.0744 -0.5239
  149TCq2    C1 2267   3.707   1.549  10.087  0.3869 -0.1400 -0.2514
  149TCq2    O2 2268   3.635   1.645  10.060 -0.8395  0.3403  0.3437
  149TCq2    C2 2269   3.767   1.553  10.222 -0.6498 -0.3641 -0.0554
  149TCq2    C3 2270   3.704   1.618  10.324  1.3062 -0.1408  0.1442
  149TCq2    C4 2271   3.767   1.622  10.446  0.1614 -0.1308  0.4797
  149TCq2    C5 2272   3.861   1.524  10.483  0.3315 -0.1816  1.2534
  149TCq2    C6 2273   3.917   1.459  10.379  0.3452 -0.7144  0.0729
  149TCq2    C7 2274   3.883   1.485  10.247 -0.3176  0.2781 -0.3479
  149TCq2    C8 2275   3.973   1.331  10.404 -0.5046 -0.0282 -0.2033
  149TCq2    O4 2276   4.035   1.282  10.311 -0.0860 -0.1463  0.8557
  149TCq2    C9 2277   3.689   1.682  10.550 -0.2664  0.3468  0.0608
  149TCq2    O5 2278   3.627   1.793  10.534  0.1220 -0.3787 -0.4356
  149TCq2    O6 2279   3.721   1.640  10.661  0.4199  0.2878  0.0915
  149TCq2    H2 2280   3.619   1.682  10.302  0.8886 -0.5935  0.4413
  149TCq2    H3 2281   3.875   1.502  10.588 -0.1628  1.2467  1.6090
  149TCq2    H4 2282   3.934   1.437  10.163  1.5479  0.9859  0.3738
  150MPD2     C 2283   0.621   0.825  12.277  0.1443 -0.1517  0.4055
  150MPD2    C1 2284   0.622   0.858  12.145 -0.0847 -0.5304 -0.1081
  150MPD2    C2 2285   0.681   0.973  12.105 -0.2914 -0.5429 -0.2564
  150MPD2    C3 2286   0.727   1.063  12.194  0.2556  0.7512 -0.0881
  150MPD2    C4 2287   0.711   1.043  12.325 -0.6201  0.8169  0.3572
  150MPD2    C5 2288   0.661   0.927  12.371  0.4393  0.0090  0.3894
  150MPD2     H 2289   0.699   0.993  12.000  0.9024 -0.5009 -0.0408
  150MPD2    H1 2290   0.738   1.117  12.401 -1.1310  0.5715  0.7755
  150MPD2    H2 2291   0.582   0.727  12.299  0.0753 -0.4939 -1.3104
  150MPD2    H3 2292   0.662   0.905  12.477  0.9980 -0.1396  0.3534
  150MPD2     N 2293   0.800   1.179  12.149  0.2443  0.2627  0.1733
  150MPD2    H5 2294   0.804   1.181  12.047 -1.3530 -0.0016  0.0982
  150MPD2    N1 2295   0.565   0.767  12.053  0.2860 -0.2189 -0.6003
  150MPD2    H7 2296   0.519   0.691  12.102 -0.3507  2.2850  2.6793
  151TCq2    C1 2297   0.868   1.276  12.226  0.5644 -0.0909  0.3246
  151TCq2    O2 2298   0.887   1.283  12.349 -0.4686  0.1004  0.2589
  151TCq2    C2 2299   0.964   1.341  12.147  0.2000  0.2064 -0.1277
  151TCq2    C3 2300   0.927   1.362  12.013 -0.3731  0.0321 -0.2547
  151TCq2    C4 2301   1.025   1.370  11.912 -0.2910  0.5936  0.3791
  151TCq2    C5 2302   1.156   1.339  11.940  0.0094 -0.1411  0.0199
  151TCq2    C6 2303   1.188   1.311  12.071 -0.1166 -0.4670 -1.2318
  151TCq2    C7 2304   1.090   1.302  12.170  0.6533 -0.0462 -0.0737
  151TCq2    C8 2305   1.288   1.213  12.094 -0.4556  0.5353  0.9612
  151TCq2    O4 2306   1.323   1.142  11.999  0.1838  0.2827 -0.1499
  151TCq2    C9 2307   0.992   1.412  11.781  0.5598 -0.1650 -0.0396
  151TCq2    O5 2308   1.090   1.448  11.710 -0.1528 -0.4169 -0.5491
  151TCq2    O6 2309   0.869   1.426  11.760 -0.8721 -1.0673 -0.5979
  151TCq2    H2 2310   0.823   1.369  11.983 -0.5179 -0.7208  0.0812
  151TCq2    H3 2311   1.234   1.345  11.864 -0.1640  2.4227  0.0427
  151TCq2    H4 2312   1.119   1.273  12.270  0.4245 -0.1187 -0.0288
  152MPD2     C 2313   0.656   0.095  12.589 -0.4699  0.2971 -0.7890
  152MPD2    C1 2314   0.669   0.225  12.556  0.0288  0.6837 -0.2092
  152MPD2    C2 2315   0.553   0.298  12.567  0.4526  0.3087 -0.9160
  152MPD2    C3 2316   0.431   0.244  12.600 -0.0256 -0.4230  0.2266
  152MPD2    C4 2317   0.418   0.113  12.630 -0.4425  0.3859  0.8086
  152MPD2    C5 2318   0.532   0.039  12.618  0.2379  0.5081  0.0799
  152MPD2     H 2319   0.552   0.402  12.536 -0.1533  0.8440  0.9283
  152MPD2    H1 2320   0.325   0.061  12.650 -1.0117  0.9550 -0.3691
  152MPD2    H2 2321   0.736   0.024  12.573  0.9054  1.0820  2.5820
  152MPD2    H3 2322   0.535   4.652  12.629  1.6635  0.5229 -0.2814
  152MPD2     N 2323   0.336   0.346  12.595  0.5240 -0.1500  0.4967
  152MPD2    H5 2324   0.360   0.442  12.569  1.3092 -1.0614 -2.1368
  152MPD2    N1 2325   0.797   0.278  12.510 -0.5082  0.3060  0.1214
  152MPD2    H7 2326   0.880   0.220  12.515 -0.7693 -0.0525  0.2741
  153TCq2    C1 2327   0.818   0.410  12.488 -0.7418 -0.0575  0.9341
  153TCq2    O2 2328   0.739   0.507  12.493  0.3602  0.2859 -1.1996
  153TCq2    C2 2329   0.958   0.444  12.473 -0.4136 -0.0945 -0.1863
  153TCq2    C3 2330   1.025   0.386  12.367  0.8670  0.5092  0.6196
  153TCq2    C4 2331   1.112   0.475  12.315 -0.8318  0.3015  0.1895
  153TCq2    C5 2332   1.137   0.600  12.351  0.1638 -0.0159 -0.1474
  153TCq2    C6 2333   1.076   0.642  12.471 -0.0710  0.5499 -0.4300
  153TCq2    C7 2334   0.987   0.561  12.534  0.1157  0.2781 -0.2072
  153TCq2    C8 2335   1.073   0.778  12.502  0.3850  0.6708  0.8050
  153TCq2    O4 2336   0.994   0.806  12.589 -0.1526 -0.0510 -0.2584
  153TCq2    C9 2337   1.205   0.423  12.212 -0.4037  0.2557  0.5402
  153TCq2    O5 2338   1.207   0.300  12.180 -0.2789 -0.0708  0.0150
  153TCq2    O6 2339   1.298   0.499  12.183 -0.0756  0.5518 -0.5296
  153TCq2    H2 2340   1.006   0.286  12.331 -0.4527  1.3059 -0.8840
  153TCq2    H3 2341   1.191   0.666  12.284  1.5241 -0.4116  0.5554
  153TCq2    H4 2342   0.926   0.600  12.615  1.5674  0.4721  0.7938
  154MPD2     C 2343   3.347   1.208   0.711 -0.2254 -0.3188 -0.4219
  154MPD2    C1 2344   3.328   1.281   0.826  0.1356  0.6446 -0.3001
  154MPD2    C2 2345   3.211   1.257   0.896  0.5570 -0.1809 -0.3050
  154MPD2    C3 2346   3.132   1.149   0.863  0.3668 -0.2683 -0.0832
  154MPD2    C4 2347   3.169   1.066   0.762 -0.6859  0.6697  0.0295
  154MPD2    C5 2348   3.268   1.107   0.681 -0.9626 -0.6597 -0.0906
  154MPD2     H 2349   3.166   1.326   0.967  2.0804 -1.7846  2.1816
  154MPD2    H1 2350   3.116   0.978   0.727  1.3519 -0.9140  0.9252
  154MPD2    H2 2351   3.428   1.234   0.644 -0.5606  0.3492 -0.5679
  154MPD2    H3 2352   3.301   1.056   0.591 -0.8063  0.0319 -0.4219
  154MPD2     N 2353   3.005   1.120   0.937 -0.0313 -0.0071 -0.4647
  154MPD2    H5 2354   2.980   1.195   1.000  1.2431 -0.5957  0.7203
  154MPD2    N1 2355   3.408   1.399   0.844  0.4415 -0.4174 -0.5748
  154MPD2    H7 2356   3.491   1.399   0.785 -0.2309 -0.3443 -1.5222
  155TCq2    C1 2357   3.391   1.493   0.940 -0.0391 -0.1248 -0.0911
  155TCq2    O2 2358   3.290   1.518   1.000 -0.3661  0.3028  0.0332
  155TCq2    C2 2359   3.490   1.592   0.958  1.1733  0.3056  0.4289
  155TCq2    C3 2360   3.624   1.568   0.939  0.5797 -0.6284 -0.0229
  155TCq2    C4 2361   3.719   1.652   0.991 -0.3489 -0.2380  0.1959
  155TCq2    C5 2362   3.680   1.750   1.072  0.4008 -0.4753 -0.5518
  155TCq2    C6 2363   3.545   1.778   1.092 -0.0102 -0.0134  0.4996
  155TCq2    C7 2364   3.448   1.700   1.033  0.1351  0.5638 -0.1850
  155TCq2    C8 2365   3.499   1.908   1.145  0.7085  0.0579  0.1579
  155TCq2    O4 2366   3.393   1.958   1.112  0.0963  0.2445  0.0142
  155TCq2    C9 2367   3.855   1.626   0.955 -0.3054  0.0987 -0.2656
  155TCq2    O5 2368   3.937   1.689   1.034 -0.4396  0.0464 -0.6466
  155TCq2    O6 2369   3.878   1.537   0.867 -0.4841  0.6630 -0.4194
  155TCq2    H2 2370   3.659   1.484   0.881  0.0613  0.1307 -1.4290
  155TCq2    H3 2371   3.764   1.808   1.110  0.3910 -0.8990  0.1180
  155TCq2    H4 2372   3.345   1.727   1.050  0.8832  2.3296  1.5122
  156MPD2     C 2373   0.977   2.592  12.183 -0.0732 -0.0808 -0.0898
  156MPD2    C1 2374   0.903   2.663  12.097 -0.4181  0.8778 -0.0323
  156MPD2    C2 2375   0.836   2.773  12.150  0.2181 -0.3348 -0.4043
  156MPD2    C3 2376   0.851   2.810  12.283 -0.0842 -0.0910  0.1746
  156MPD2    C4 2377   0.916   2.720  12.366 -0.1856 -0.2741  0.5671
  156MPD2    C5 2378   0.982   2.609  12.314  0.3323 -0.3542 -0.6983
  156MPD2     H 2379   0.761   2.830  12.097  1.9956  2.1660 -0.2172
  156MPD2    H1 2380   0.915   2.736  12.473 -1.6128 -0.1906  0.5336
  156MPD2    H2 2381   1.039   2.514  12.139  0.6912 -0.1737  1.1443
  156MPD2    H3 2382   1.037   2.540  12.378 -1.2298  0.2547  1.3185
  156MPD2     N 2383   0.779   2.925  12.328 -0.2953  0.2987 -0.5610
  156MPD2    H5 2384   0.722   2.969  12.256  0.3301  3.3178  0.7875
  156MPD2    N1 2385   0.886   2.616  11.965  0.3878  0.0832  0.1532
  156MPD2    H7 2386   0.941   2.535  11.940  0.5480  0.3759 -0.4584
  157TCq2    C1 2387   0.819   2.677  11.866 -0.4298  0.9757  0.5331
  157TCq2    O2 2388   0.753   2.779  11.860  0.0755  0.7778 -0.1074
  157TCq2    C2 2389   0.833   2.611  11.729 -0.6329  1.2751 -0.4787
  157TCq2    C3 2390   0.942   2.529  11.713  0.2213  1.0926  0.7547
  157TCq2    C4 2391   0.998   2.519  11.589 -0.4043 -0.8943  0.0189
  157TCq2    C5 2392   0.954   2.596  11.489 -0.3726  0.2319  1.0839
  157TCq2    C6 2393   0.846   2.676  11.505  0.6731  0.5639  0.4875
  157TCq2    C7 2394   0.778   2.681  11.626  0.1829  0.7348  0.1146
  157TCq2    C8 2395   0.845   2.800  11.424 -0.3317  0.3416  0.2066
  157TCq2    O4 2396   0.942   2.815  11.358 -0.4130 -0.1418  0.0091
  157TCq2    C9 2397   1.088   2.410  11.558  0.2727 -0.1462  0.4863
  157TCq2    O5 2398   1.152   2.371  11.662 -0.5823  0.0177 -0.8377
  157TCq2    O6 2399   1.098   2.370  11.439 -0.5653  0.7528  0.1426
  157TCq2    H2 2400   0.970   2.457  11.789  0.8985  2.4438  1.7814
  157TCq2    H3 2401   1.014   2.603  11.399 -1.5932  0.0578  0.2475
  157TCq2    H4 2402   0.702   2.754  11.649 -0.7296 -0.1744 -0.0025
  158TMC2    C1 2403   0.885   1.643  13.275  0.0331  0.1037 -0.1012
  158TMC2    C2 2404   0.914   1.696  13.150 -0.1428  0.0029  0.1679
  158TMC2    C3 2405   0.806   1.744  13.082 -0.1483  0.3556 -0.1257
  158TMC2    C4 2406   0.758   1.634  13.326  0.4715  0.0427 -0.3673
  158TMC2    C5 2407   0.656   1.684  13.246 -0.0703 -0.0547  0.2345
  158TMC2    C6 2408   0.677   1.744  13.124  0.2017 -0.3131  0.0715
  158TMC2     C 2409   1.005   1.638  13.368 -0.1512  0.5074  0.5671
  158TMC2     O 2410   1.101   1.705  13.323 -0.3356 -0.3804  0.4312
  158TMC2     H 2411   1.017   1.691  13.115  0.3645  1.2488  1.4571
  158TMC2    H1 2412   0.725   1.594  13.421  0.6764 -0.7597 -0.6313
  158TMC2    H2 2413   0.601   1.767  13.050 -0.2926 -1.1844  0.3124
  158TMC2    C7 2414   0.520   1.633  13.254  0.0782 -0.2235 -0.2279
  158TMC2    C8 2415   0.831   1.789  12.947 -0.1904  0.1897 -0.6946
  158TMC2    O1 2416   0.435   1.676  13.176 -0.0594 -0.4135 -0.0460
  158TMC2    O2 2417   0.765   1.882  12.892 -0.0088 -0.7531 -0.3771
  158TMC2    O5 2418   0.917   1.706  12.887 -0.2302  0.0526 -0.4658
  158TMC2    H5 2419   0.931   1.624  12.939  1.3721  0.6962  0.1212
  159MPD2     C 2420   1.297   1.522  13.768  0.1716 -0.3428 -0.3203
  159MPD2    C1 2421   1.185   1.441  13.772  0.3715  0.1841 -0.2760
  159MPD2    C2 2422   1.081   1.464  13.683  1.3751 -0.5998  0.4363
  159MPD2    C3 2423   1.090   1.552  13.578  0.5038 -0.7295  0.0024
  159MPD2    C4 2424   1.212   1.619  13.572 -0.2817  0.4007 -0.2330
  159MPD2    C5 2425   1.312   1.613  13.669  0.1158 -0.3184  0.1726
  159MPD2     H 2426   0.990   1.407  13.699  0.5073  0.1802 -1.7315
  159MPD2    H1 2427   1.239   1.690  13.494 -0.7127  0.4695 -0.3222
  159MPD2    H2 2428   1.376   1.526  13.842 -0.0898  0.2887 -0.0746
  159MPD2    H3 2429   1.406   1.664  13.657 -0.9065  0.8113 -2.9528
  159MPD2     N 2430   0.993   1.565  13.480 -0.3884  0.2839  0.1841
  159MPD2    H5 2431   0.905   1.519  13.499 -1.1596  1.7947  0.3103
  159MPD2    N1 2432   1.165   1.342  13.871 -0.2682 -0.1089 -0.0751
  159MPD2    H7 2433   1.084   1.282  13.862  1.8254 -3.1987  1.3476
  160TMC2    C1 2434   1.338   4.550   1.022  0.9663  0.4370  0.2584
  160TMC2    C2 2435   1.425   4.508   1.117 -0.0417 -0.1135  0.2844
  160TMC2    C3 2436   1.549   4.565   1.122  0.6633  0.7216  0.3683
  160TMC2    C4 2437   1.375   4.653   0.932  0.1650 -0.3155 -0.6152
  160TMC2    C5 2438   1.501   4.709   0.950  0.4290  0.2028 -0.0007
  160TMC2    C6 2439   1.592   4.671   1.046 -0.1549 -0.6301 -0.0114
  160TMC2     C 2440   1.200   4.515   1.030 -0.2792 -0.2658 -0.0766
  160TMC2     O 2441   1.170   4.442   1.122 -0.2648 -0.0109  0.6541
  160TMC2     H 2442   1.393   4.440   1.195 -1.9964  2.3436  1.6077
  160TMC2    H1 2443   1.312   4.695   0.854 -0.7048  0.9581  0.7861
  160TMC2    H2 2444   1.677   0.012   1.074  1.2317 -0.9214 -3.6134
  160TMC2    C7 2445   1.562   0.044   0.828  0.4153  0.2485 -0.6676
  160TMC2    C8 2446   1.640   4.530   1.230  0.4482  0.2307  0.3697
  160TMC2    O1 2447   1.501   0.016   0.726 -0.0291 -0.0049 -0.0863
  160TMC2    O2 2448   1.761   4.549   1.219  0.6707 -0.2021  0.3637
  160TMC2    O5 2449   1.566   4.548   1.346 -0.1326  0.5544 -0.0184
  160TMC2    H5 2450   1.477   4.583   1.324 -0.4346  0.5987  1.2778
  161MPD2     C 2451   0.911   4.470   0.997 -0.9030 -0.9137 -1.1328
  161MPD2    C1 2452   0.986   4.536   0.899  0.3811 -0.4709  0.0257
  161MPD2    C2 2453   0.924   4.588   0.788  0.7938 -0.3388  0.0146
  161MPD2    C3 2454   0.788   4.576   0.771 -0.7763 -0.3495  0.6228
  161MPD2    C4 2455   0.707   4.515   0.868  0.0462  0.0301  0.0300
  161MPD2    C5 2456   0.770   4.464   0.982 -0.1483 -0.3940  0.4666
  161MPD2     H 2457   0.978   4.632   0.705  1.0717  1.7008  1.2947
  161MPD2    H1 2458   0.599   4.513   0.874 -0.0411  0.0682 -1.6329
  161MPD2    H2 2459   0.949   4.425   1.088  0.1028  0.0745 -1.0750
  161MPD2    H3 2460   0.718   4.413   1.063 -1.3501  0.6224  0.3239
  161MPD2     N 2461   0.706   4.641   0.675 -0.2374 -0.4136 -0.7934
  161MPD2    H5 2462   0.606   4.626   0.687 -0.2308 -0.1792 -0.4504
  161MPD2    N1 2463   1.127   4.559   0.921  0.1675 -0.6859  0.1984
  161MPD2    H7 2464   1.173   4.612   0.848  1.4880 -2.1873 -0.0504
  162TMC2    C1 2465   4.210   1.709   1.478  0.3374 -0.2747 -0.1344
  162TMC2    C2 2466   4.125   1.812   1.506  0.6764  0.0587 -0.1779
  162TMC2    C3 2467   4.068   1.803   1.624  0.2385 -0.1381  0.0171
  162TMC2    C4 2468   4.246   1.604   1.562  0.4917 -0.2110  0.2410
  162TMC2    C5 2469   4.178   1.604   1.683  0.3122 -0.1782 -0.0275
  162TMC2    C6 2470   4.084   1.699   1.715  0.7896 -0.0109  0.2525
  162TMC2     C 2471   4.290   1.708   1.360 -0.3226  0.8057 -0.5859
  162TMC2     O 2472   4.387   1.638   1.357 -0.0022  0.2382 -0.1677
  162TMC2     H 2473   4.105   1.902   1.449  0.8587  0.5211  0.4817
  162TMC2    H1 2474   4.300   1.519   1.524 -1.4941 -0.4508 -2.0658
  162TMC2    H2 2475   4.027   1.705   1.807  2.1337  2.0987  0.9328
  162TMC2    C7 2476   4.161   1.485   1.752 -0.0321 -0.1832 -0.3394
  162TMC2    C8 2477   3.987   1.916   1.675  0.1504  0.7907  0.6204
  162TMC2    O1 2478   4.080   1.489   1.844 -0.0719 -0.0732  0.3427
  162TMC2    O2 2479   3.986   1.952   1.791  0.0752  0.2195 -0.6470
  162TMC2    O5 2480   3.895   1.951   1.583 -0.2251  0.5471 -0.3423
  162TMC2    H5 2481   3.884   1.879   1.518 -1.0304 -2.1630  2.8314
  163MPD2     C 2482   4.395   1.883   0.895 -0.4931 -0.0298  0.2338
  163MPD2    C1 2483   4.441   1.766   0.962  0.1478 -0.4849  0.3989
  163MPD2    C2 2484   4.391   1.741   1.087  0.0241  0.0027 -0.0118
  163MPD2    C3 2485   4.295   1.821   1.138  0.4856  0.0517  0.3243
  163MPD2    C4 2486   4.250   1.929   1.070  0.1465  0.4954  0.6141
  163MPD2    C5 2487   4.303   1.962   0.949  0.6924  0.4855 -0.2564
  163MPD2     H 2488   4.423   1.651   1.140  2.4201  0.6614 -0.3248
  163MPD2    H1 2489   4.182   2.001   1.115  1.1987  0.9372  1.4920
  163MPD2    H2 2490   4.433   1.920   0.801  0.7433 -0.5244  0.5309
  163MPD2    H3 2491   4.273   2.055   0.901  2.1536  0.1902 -1.7398
  163MPD2     N 2492   4.241   1.799   1.270 -0.3684 -0.5188 -0.1186
  163MPD2    H5 2493   4.152   1.839   1.296  1.2705  2.6991  0.5670
  163MPD2    N1 2494   4.521   1.675   0.890  0.2588 -0.2607  0.1816
  163MPD2    H7 2495   4.505   1.680   0.789  1.4809  0.8278  0.0411
  164TCq2    C1 2496   4.232   1.043  10.768 -0.0424  0.6943 -0.5629
  164TCq2    O2 2497   4.181   0.934  10.751  0.1927  0.1789 -0.1615
  164TCq2    C2 2498   4.213   1.108  10.893  0.6349 -0.3057 -0.4169
  164TCq2    C3 2499   4.320   1.117  10.971 -0.5266 -0.1080  0.6255
  164TCq2    C4 2500   4.299   1.177  11.096 -0.0706 -0.7512 -1.0035
  164TCq2    C5 2501   4.171   1.210  11.142  0.1115  0.5916 -0.4974
  164TCq2    C6 2502   4.058   1.185  11.061  0.1965 -0.7864  0.1552
  164TCq2    C7 2503   4.086   1.140  10.932  0.3239 -0.5659 -0.9440
  164TCq2    C8 2504   3.938   1.268  11.083  1.4789  0.3660  0.1763
  164TCq2    O4 2505   3.869   1.294  10.986 -0.6809  0.2296 -0.1650
  164TCq2    C9 2506   4.404   1.187  11.189  0.1056 -0.2009 -0.1407
  164TCq2    O5 2507   4.520   1.151  11.162  0.1444 -0.0681 -0.1864
  164TCq2    O6 2508   4.382   1.277  11.280  0.2196  0.4369 -0.1598
  164TCq2    H2 2509   4.419   1.088  10.940  0.3547  2.5073  0.9225
  164TCq2    H3 2510   4.159   1.253  11.241 -0.6963 -1.6429  0.3746
  164TCq2    H4 2511   4.019   1.145  10.846 -0.0723  0.3160 -0.5779
  165MPD2     C 2512   4.586   4.135   0.913 -0.0582  0.0271 -0.4311
  165MPD2    C1 2513   4.656   4.025   0.929 -0.3104  0.2386  0.9941
  165MPD2    C2 2514   0.070   4.038   0.966  0.8333  0.7253 -0.3093
  165MPD2    C3 2515   0.120   4.166   0.997 -0.5454 -0.8155  0.4930
  165MPD2    C4 2516   0.042   4.277   0.978 -0.2622 -0.8627 -1.0761
  165MPD2    C5 2517   4.640   4.263   0.929  0.6587 -0.6617  0.3144
  165MPD2     H 2518   0.132   3.951   0.985  2.4389  1.9002 -0.1778
  165MPD2    H1 2519   0.076   4.379   0.991 -1.3684 -0.7680  1.0827
  165MPD2    H2 2520   4.489   4.134   0.864 -1.1880  0.7575  1.7413
  165MPD2    H3 2521   4.579   4.346   0.894  1.7991 -0.4983 -1.2640
  165MPD2     N 2522   0.259   4.181   1.021 -0.2018  0.7242 -0.3896
  165MPD2    H5 2523   0.293   4.275   1.040  1.8918  0.1851 -1.5206
  165MPD2    N1 2524   4.594   3.894   0.893 -0.1626  0.0435 -0.5298
  165MPD2    H7 2525   4.498   3.897   0.862  0.6788 -0.1919 -3.2388
  166TCq2    C1 2526   0.364   4.104   0.972 -0.5454  0.3171 -0.0319
  166TCq2    O2 2527   0.359   4.026   0.876  0.0728 -0.8017 -0.1482
  166TCq2    C2 2528   0.487   4.139   1.035  0.6792  0.3527  0.3599
  166TCq2    C3 2529   0.477   4.205   1.156  0.2940 -0.7614  0.3228
  166TCq2    C4 2530   0.586   4.216   1.235  0.1039  1.3906  0.2206
  166TCq2    C5 2531   0.704   4.160   1.197  0.6647 -0.4258  0.1645
  166TCq2    C6 2532   0.704   4.092   1.073  0.2366 -0.1079  0.3440
  166TCq2    C7 2533   0.596   4.075   0.992  0.1460 -0.6353 -0.7614
  166TCq2    C8 2534   0.833   4.080   1.005 -0.4680 -0.0335  0.1957
  166TCq2    O4 2535   0.928   4.058   1.080  0.6248 -0.4886 -0.4463
  166TCq2    C9 2536   0.571   4.299   1.353 -0.3656 -0.5533 -0.3868
  166TCq2    O5 2537   0.675   4.320   1.421  0.0357  0.0401  1.0200
  166TCq2    O6 2538   0.468   4.366   1.360  0.2074 -0.2891 -0.0822
  166TCq2    H2 2539   0.386   4.257   1.185  0.5224 -0.4360  0.4500
  166TCq2    H3 2540   0.798   4.177   1.249  1.1747  0.0191 -0.8969
  166TCq2    H4 2541   0.596   4.026   0.895 -0.6436 -0.6000 -0.7817
  167TMC2    C1 2542   4.003   1.183  12.918  0.3205  0.0025  0.0702
  167TMC2    C2 2543   4.035   1.200  13.052 -0.2362 -0.0621 -0.7695
  167TMC2    C3 2544   3.979   1.127  13.150  0.3085 -0.6558 -0.0485
  167TMC2    C4 2545   3.921   1.077  12.880  0.0049  0.3402  0.3465
  167TMC2    C5 2546   3.867   0.992  12.975  0.0389  0.5293 -0.1486
  167TMC2    C6 2547   3.901   1.018  13.109 -0.2972  0.4161  0.5508
  167TMC2     C 2548   4.035   1.289  12.822 -0.4330 -0.0603 -0.6925
  167TMC2     O 2549   4.132   1.354  12.859 -0.0493  0.2096  0.0176
  167TMC2     H 2550   4.122   1.260  13.075  0.4450 -1.1935 -0.3688
  167TMC2    H1 2551   3.909   1.047  12.777 -0.7272  0.2973  0.4448
  167TMC2    H2 2552   3.851   0.953  13.180 -2.9292  0.3010 -1.3852
  167TMC2    C7 2553   3.777   0.889  12.949  0.5852 -0.8552 -0.4302
  167TMC2    C8 2554   4.051   1.122  13.270  0.3912  0.1014 -0.0081
  167TMC2    O1 2555   3.709   0.847  13.042 -0.7394 -0.3746  0.2126
  167TMC2    O2 2556   4.165   1.164  13.268  0.3377  0.4398 -0.1129
  167TMC2    O5 2557   4.008   1.018  13.347  0.3637  0.5578  0.0254
  167TMC2    H5 2558   3.911   1.013  13.331  0.3247  3.5405 -0.7081
  168MPD2     C 2559   4.049   1.477  12.575  0.8069  0.0125 -0.0883
  168MPD2    C1 2560   3.980   1.354  12.583 -0.4409 -0.1172 -0.1886
  168MPD2    C2 2561   3.911   1.316  12.475  0.1790  0.2160  0.2351
  168MPD2    C3 2562   3.907   1.387  12.360  0.5345  0.3851 -0.0041
  168MPD2    C4 2563   3.975   1.509  12.361 -0.1650  0.4404  0.5532
  168MPD2    C5 2564   4.061   1.549  12.463 -0.7500  0.3409 -0.1237
  168MPD2     H 2565   3.858   1.222  12.489  1.2104 -0.0536  2.3014
  168MPD2    H1 2566   3.961   1.590  12.290 -0.2366  0.8783  1.0655
  168MPD2    H2 2567   4.099   1.520  12.661  4.5741 -0.6365 -1.9608
  168MPD2    H3 2568   4.125   1.637  12.456 -3.0527  2.0490  0.3445
  168MPD2     N 2569   3.824   1.352  12.255 -0.4858 -0.4587  0.1927
  168MPD2    H5 2570   3.820   1.416  12.176  1.6066 -0.1589  0.3188
  168MPD2    N1 2571   3.965   1.273  12.700  0.0209 -0.1140  0.0522
  168MPD2    H7 2572   3.897   1.197  12.699 -0.7973  0.6170 -0.8209
  169MPD1     C 2573   1.535   3.937   8.125 -0.4052 -0.1552 -0.4970
  169MPD1    C1 2574   1.459   3.904   8.238 -0.2371  0.1750  0.0650
  169MPD1    C2 2575   1.506   3.958   8.352  0.5851 -0.0742  0.7530
  169MPD1    C3 2576   1.599   4.062   8.360  0.4430 -0.2430  0.2860
  169MPD1    C4 2577   1.676   4.091   8.248 -1.4506  0.4321  1.2079
  169MPD1    C5 2578   1.640   4.025   8.135 -0.0652 -0.6230  0.6323
  169MPD1     H 2579   1.457   3.922   8.442 -0.1314 -2.7517 -0.6961
  169MPD1    H1 2580   1.749   4.171   8.251  1.3498 -2.0177 -1.1897
  169MPD1    H2 2581   1.516   3.904   8.023  0.6562 -2.1148 -0.0589
  169MPD1    H3 2582   1.694   4.040   8.042  2.7790  2.8032  2.8580
  169MPD1     N 2583   1.620   4.121   8.489 -0.1990  0.2164  0.1182
  169MPD1    H5 2584   1.559   4.079   8.558 -1.0403  1.6711  0.2492
  169MPD1    N1 2585   1.369   3.795   8.234  0.0162  0.1797 -0.4704
  169MPD1    H6 2586   1.314   3.794   8.148  0.5604 -0.6337 -0.8130
  169MPD1    H7 2587   1.310   3.798   8.317  0.3407  1.9958 -0.3136
  170MPD1     C 2588   4.316   3.467  12.732 -0.0142 -0.2142  0.9155
  170MPD1    C1 2589   4.422   3.551  12.763 -0.1950  0.3395 -0.3267
  170MPD1    C2 2590   4.423   3.626  12.880 -0.1781  0.4907  0.1562
  170MPD1    C3 2591   4.319   3.611  12.969 -0.2053 -0.5692  0.4164
  170MPD1    C4 2592   4.210   3.531  12.935 -0.5372 -0.3165 -0.5052
  170MPD1    C5 2593   4.208   3.468  12.816  0.2285 -0.5227  0.2940
  170MPD1     H 2594   4.509   3.685  12.909  0.8094  0.1062 -1.9656
  170MPD1    H1 2595   4.127   3.514  13.003  0.1038  0.6129  0.5015
  170MPD1    H2 2596   4.317   3.405  12.643  1.0293 -2.2540  2.3499
  170MPD1    H3 2597   4.124   3.402  12.799  0.2824  0.1000 -2.2511
  170MPD1     N 2598   4.338   3.678  13.097  0.4354  0.6235 -0.0222
  170MPD1    H5 2599   4.415   3.743  13.110 -0.6286  1.3062  2.9243
  170MPD1    N1 2600   4.540   3.546  12.694  0.2540 -0.3137  0.7038
  170MPD1    H6 2601   4.599   3.628  12.701  0.1653 -0.3068  1.3382
  170MPD1    H7 2602   4.526   3.523  12.596  0.3478  1.8918  0.1658
  171MPD1     C 2603   3.348   0.237  15.381 -0.3020  0.2966  0.6099
  171MPD1    C1 2604   3.436   0.156  15.307  0.8164  1.3673 -0.4449
  171MPD1    C2 2605   3.425   0.018  15.313  0.3075  0.0531 -0.1673
  171MPD1    C3 2606   3.315   4.686  15.377  0.2006  0.4819  0.3240
  171MPD1    C4 2607   3.223   0.047  15.445 -0.1649  0.0274  0.4793
  171MPD1    C5 2608   3.246   0.178  15.451  0.5322  0.1100  0.0924
  171MPD1     H 2609   3.497   4.675  15.265 -1.8977 -1.2034 -1.8186
  171MPD1    H1 2610   3.137   0.020  15.505 -0.2525  0.9857  0.7844
  171MPD1    H2 2611   3.355   0.345  15.385  2.8679  0.1332 -0.5935
  171MPD1    H3 2612   3.180   0.237  15.513  0.3028  0.8148 -0.8276
  171MPD1     N 2613   3.278   4.547  15.376  0.2599 -0.6560  0.1755
  171MPD1    H5 2614   3.205   4.522  15.441  1.1946 -0.7873  1.1788
  171MPD1    N1 2615   3.548   0.216  15.246 -0.8183  0.1554  0.0255
  171MPD1    H6 2616   3.587   0.166  15.167  2.3191 -0.2159  1.8092
  171MPD1    H7 2617   3.541   0.312  15.214  3.3999  0.8185  1.0958
  172MPD1     C 2618   2.305   3.519   0.067  0.0790  0.1089  0.0258
  172MPD1    C1 2619   2.239   3.640   0.052  0.4933  0.8948  0.2565
  172MPD1    C2 2620   2.293   3.744   0.127  0.6255  0.3550 -0.6414
  172MPD1    C3 2621   2.388   3.731   0.222 -0.3231  0.0334  0.7639
  172MPD1    C4 2622   2.434   3.600   0.248 -0.2161  0.0875 -0.8631
  172MPD1    C5 2623   2.395   3.496   0.169  0.1115 -0.0362  0.1580
  172MPD1     H 2624   2.250   3.843   0.114  0.1088  0.2841  0.5381
  172MPD1    H1 2625   2.504   3.581   0.329 -1.6025  0.9283  0.5339
  172MPD1    H2 2626   2.288   3.442  17.678  0.1240 -0.8221  0.9542
  172MPD1    H3 2627   2.440   3.398   0.183  1.2708  0.5359  0.5192
  172MPD1     N 2628   2.448   3.830   0.298 -0.1582  0.2207 -0.3132
  172MPD1    H5 2629   2.519   3.797   0.362  0.1302 -1.0509 -1.2728
  172MPD1    N1 2630   2.163   3.661  17.623 -0.0912  0.0413 -0.2936
  172MPD1    H6 2631   2.100   3.738  17.644 -1.0889 -1.2119  1.3083
  172MPD1    H7 2632   2.114   3.573  17.613 -0.0489  0.1269 -1.2290
  173MPD1     C 2633   4.681   2.397  13.845 -0.1237  0.0182  0.3562
  173MPD1    C1 2634   0.025   2.471  13.940 -0.0210  1.0626  0.4876
  173MPD1    C2 2635   4.656   2.515  14.047 -0.0968 -0.2431  0.2090
  173MPD1    C3 2636   4.536   2.454  14.075 -0.2439 -0.2811  0.4065
  173MPD1    C4 2637   4.486   2.364  13.986 -0.2647 -0.7378 -0.1248
  173MPD1    C5 2638   4.555   2.344  13.864 -1.1270  0.3110 -0.2945
  173MPD1     H 2639   4.678   2.602  14.107 -2.4711 -1.1357  2.3468
  173MPD1    H1 2640   4.393   2.311  13.998 -0.9202  0.1354 -1.4015
  173MPD1    H2 2641   0.011   2.378  13.751 -0.3508 -0.8849  0.4258
  173MPD1    H3 2642   4.527   2.279  13.782  0.3167 -0.0940 -0.4701
  173MPD1     N 2643   4.469   2.485  14.195  0.4159  0.8914  0.0982
  173MPD1    H5 2644   4.513   2.552  14.258  0.7257  1.2245 -0.4726
  173MPD1    N1 2645   0.141   2.535  13.914  0.2054 -0.5577  0.7004
  173MPD1    H6 2646   0.206   2.478  13.861 -2.9295 -2.6582 -0.8818
  173MPD1    H7 2647   0.191   2.562  13.998  2.8942  0.7735 -1.3424
  174MPD1     C 2648   3.560   2.174  14.557 -0.5438  0.7606  0.0125
  174MPD1    C1 2649   3.596   2.280  14.637 -0.4304  0.6715  0.5654
  174MPD1    C2 2650   3.715   2.343  14.614  0.8133 -0.1030  0.5495
  174MPD1    C3 2651   3.813   2.290  14.532  0.2248 -0.0338 -0.2763
  174MPD1    C4 2652   3.780   2.174  14.470 -0.2416 -0.2565  0.2552
  174MPD1    C5 2653   3.658   2.117  14.484 -0.9395 -0.4884  0.2586
  174MPD1     H 2654   3.729   2.434  14.673  1.0845  0.5395 -0.5018
  174MPD1    H1 2655   3.850   2.118  14.408 -1.1046 -0.9395 -0.1171
  174MPD1    H2 2656   3.461   2.130  14.560  0.7585 -2.3330 -2.0184
  174MPD1    H3 2657   3.637   2.030  14.424 -0.5209  0.7883 -1.7457
  174MPD1     N 2658   3.946   2.346  14.509  0.1630 -0.1704 -0.1141
  174MPD1    H5 2659   4.011   2.285  14.460  3.2962  2.1371  1.1910
  174MPD1    N1 2660   3.504   2.343  14.716 -0.4497  0.4736 -0.1078
  174MPD1    H6 2661   3.541   2.378  14.804  0.6718 -1.0027  0.0087
  174MPD1    H7 2662   3.419   2.290  14.736  0.0931 -0.6778 -0.9054
  175MPD1     C 2663   2.972   4.314  15.286 -0.1742  0.1048 -0.5550
  175MPD1    C1 2664   2.873   4.409  15.309  0.6892 -0.2858  0.7294
  175MPD1    C2 2665   2.798   4.395  15.427  0.6910  0.4944  0.1502
  175MPD1    C3 2666   2.820   4.295  15.520 -0.2564  0.3452 -0.2671
  175MPD1    C4 2667   2.912   4.197  15.483 -0.4521 -0.3045 -0.2236
  175MPD1    C5 2668   2.988   4.208  15.370 -0.6473 -0.8263  0.6089
  175MPD1     H 2669   2.723   4.469  15.451 -0.3131 -0.8391  1.1273
  175MPD1    H1 2670   2.913   4.104  15.540  0.4614  0.2892  0.7248
  175MPD1    H2 2671   3.030   4.317  15.195 -0.6474 -0.9462 -0.8972
  175MPD1    H3 2672   3.054   4.126  15.345  0.7192  0.4050  0.1679
  175MPD1     N 2673   2.755   4.281  15.644 -0.7075  0.0464  0.1750
  175MPD1    H5 2674   2.790   4.220  15.717  0.9290 -2.2809 -2.5825
  175MPD1    N1 2675   2.845   4.515  15.219 -0.2441  0.2156 -0.1957
  175MPD1    H6 2676   2.928   4.571  15.199 -1.0035  0.8547 -1.6110
  175MPD1    H7 2677   2.764   4.569  15.249  0.9691  0.4390  2.6040
  176MPD1     C 2678   4.251   2.051   0.450 -0.2748 -0.4059  0.8108
  176MPD1    C1 2679   4.220   2.165   0.378 -0.3580 -0.0953 -0.3086
  176MPD1    C2 2680   4.182   2.161   0.244 -0.9101 -0.3372  0.0308
  176MPD1    C3 2681   4.151   2.035   0.194 -0.8319 -0.8882  0.3746
  176MPD1    C4 2682   4.171   1.917   0.271  0.2804 -0.4151 -0.3949
  176MPD1    C5 2683   4.229   1.933   0.393  0.0932 -0.0945 -0.3058
  176MPD1     H 2684   4.160   2.254   0.194 -0.5980 -0.5997 -0.5922
  176MPD1    H1 2685   4.164   1.815   0.235 -0.8016 -0.5499  0.1940
  176MPD1    H2 2686   4.296   2.062   0.548 -1.1769  1.2161  1.0345
  176MPD1    H3 2687   4.257   1.844   0.447 -0.7116 -0.6621 -0.8284
  176MPD1     N 2688   4.095   2.029   0.063  0.3830  0.0741  0.5102
  176MPD1    H5 2689   4.091   2.114   0.009 -0.2435  0.0663  0.5471
  176MPD1    N1 2690   4.265   2.292   0.427  0.1114  0.3721  0.2807
  176MPD1    H6 2691   4.219   2.368   0.378  0.7963  1.4302  1.2684
  176MPD1    H7 2692   4.248   2.302   0.527 -2.8864  1.7934 -0.3674
  177MPD1     C 2693   2.521   1.674   9.765 -0.6060  0.2775  0.3867
  177MPD1    C1 2694   2.616   1.641   9.674 -0.0644  0.6323  0.7260
  177MPD1    C2 2695   2.587   1.567   9.558 -0.4928 -0.0124 -0.4085
  177MPD1    C3 2696   2.459   1.545   9.528 -0.2476  0.4479 -0.1616
  177MPD1    C4 2697   2.363   1.575   9.622 -0.5604 -0.6940 -0.5395
  177MPD1    C5 2698   2.392   1.642   9.739  0.1270  0.8838  0.0410
  177MPD1     H 2699   2.661   1.535   9.486  0.5631 -0.4217  0.8712
  177MPD1    H1 2700   2.259   1.547   9.609 -0.9678  0.4270  0.3329
  177MPD1    H2 2701   2.537   1.730   9.857 -0.7304 -1.5786  1.5503
  177MPD1    H3 2702   2.311   1.655   9.810 -1.2639  0.8996 -1.5467
  177MPD1     N 2703   2.430   1.473   9.412  0.5342 -0.7805  0.1221
  177MPD1    H5 2704   2.505   1.438   9.353 -0.9449 -0.9840 -1.6185
  177MPD1    N1 2705   2.747   1.671   9.715 -0.4836 -0.2382 -0.1117
  177MPD1    H6 2706   2.820   1.665   9.645 -0.3570 -0.3358  0.0299
  177MPD1    H7 2707   2.768   1.746   9.781  0.1594 -2.3623  2.0767
  178MPD1     C 2708   0.186   2.582   0.294  0.1278 -0.1169  0.7394
  178MPD1    C1 2709   0.095   2.483   0.262 -0.3581  0.5158  0.0798
  178MPD1    C2 2710   0.044   2.475   0.134  0.7939  0.2804 -0.1289
  178MPD1    C3 2711   0.059   2.586   0.046  0.1440 -0.4978 -0.0673
  178MPD1    C4 2712   0.127   2.690   0.092  0.1479  0.0295 -0.1291
  178MPD1    C5 2713   0.192   2.686   0.208 -0.0629  0.1761  1.1523
  178MPD1     H 2714   4.704   2.389   0.111 -0.7768  1.9881 -2.2980
  178MPD1    H1 2715   0.134   2.785   0.040 -1.4249  0.1892 -0.0302
  178MPD1    H2 2716   0.224   2.569   0.395 -1.6180 -0.9460  1.2942
  178MPD1    H3 2717   0.252   2.773   0.232  0.9569 -0.4316  0.8369
  178MPD1     N 2718   0.017   2.593  17.597 -0.2236 -0.2066 -0.8006
  178MPD1    H5 2719   0.037   2.680  17.549  0.6682  0.1816  0.2747
  178MPD1    N1 2720   0.084   2.374   0.348 -0.0108  0.1600 -0.3588
  178MPD1    H6 2721   0.114   2.387   0.444 -2.1037 -0.4276  0.3726
  178MPD1    H7 2722   4.714   2.328   0.340  0.0233  0.1445 -0.6428
  179MPD1     C 2723   4.622   0.508  14.548 -0.0511  0.3628 -0.8819
  179MPD1    C1 2724   4.501   0.562  14.596  0.2564  0.0835  0.2185
  179MPD1    C2 2725   4.445   0.510  14.705  0.6437  1.3281 -0.2246
  179MPD1    C3 2726   4.505   0.404  14.774  0.1856 -0.6342  0.4426
  179MPD1    C4 2727   4.629   0.356  14.729  0.2278 -0.1743 -0.2496
  179MPD1    C5 2728   4.689   0.406  14.613  0.2804 -0.5585  0.2338
  179MPD1     H 2729   4.357   0.553  14.751  0.8431 -0.1157  1.4995
  179MPD1    H1 2730   4.679   0.282  14.791  2.7502  1.1770 -0.6441
  179MPD1    H2 2731   4.652   0.557  14.456  2.3488  1.0016  0.2404
  179MPD1    H3 2732   0.066   0.379  14.574 -0.1790  0.8939 -1.9126
  179MPD1     N 2733   4.446   0.354  14.896 -0.1118 -0.2209  0.9648
  179MPD1    H5 2734   4.496   0.280  14.944 -0.9466 -0.1398  1.9754
  179MPD1    N1 2735   4.431   0.664  14.540 -0.1486  0.0021 -0.5505
  179MPD1    H6 2736   4.451   0.691  14.444 -0.3306  0.6458 -0.4091
  179MPD1    H7 2737   4.331   0.642  14.541 -0.2892  0.7066  0.8484
  180MPD1     C 2738   3.483   1.977  13.930 -0.7349 -0.6901  0.8538
  180MPD1    C1 2739   3.564   1.913  14.011 -0.0048  0.1960  0.6841
  180MPD1    C2 2740   3.609   1.779  13.977  0.6962  0.5853 -0.3872
  180MPD1    C3 2741   3.586   1.733  13.849  0.2777 -0.3448  0.5562
  180MPD1    C4 2742   3.514   1.809  13.757  0.5982 -0.0081  0.7689
  180MPD1    C5 2743   3.457   1.926  13.805 -0.2308 -0.0898  1.1468
  180MPD1     H 2744   3.657   1.714  14.048 -1.0966 -2.6418 -2.1649
  180MPD1    H1 2745   3.494   1.787  13.652 -0.0450  0.5450  0.7726
  180MPD1    H2 2746   3.445   2.074  13.961 -0.0791 -0.2714  0.3399
  180MPD1    H3 2747   3.390   1.979  13.738 -2.1374 -2.2712  1.3019
  180MPD1     N 2748   3.634   1.602  13.814  0.1922  0.2040  0.1328
  180MPD1    H5 2749   3.690   1.555  13.884  0.5705 -0.4716 -0.6071
  180MPD1    N1 2750   3.575   1.962  14.143 -0.7796 -0.0730 -0.4653
  180MPD1    H6 2751   3.573   2.064  14.142 -1.4271 -0.0733  0.6242
  180MPD1    H7 2752   3.653   1.927  14.198  0.4822  1.4117 -1.3215
  181MPD1     C 2753   0.602   2.738  10.155  0.1727 -0.0559  0.3616
  181MPD1    C1 2754   0.697   2.778  10.243  0.4560 -0.5060 -0.8785
  181MPD1    C2 2755   0.813   2.828  10.189 -0.3332 -0.2601 -0.5457
  181MPD1    C3 2756   0.844   2.802  10.056 -0.2972  0.2831 -0.3168
  181MPD1    C4 2757   0.752   2.733   9.976 -0.0276  0.0331  0.5608
  181MPD1    C5 2758   0.628   2.710  10.028 -0.1161  0.0022 -0.0791
  181MPD1     H 2759   0.888   2.884  10.245 -1.3987 -0.6419  1.2602
  181MPD1    H1 2760   0.775   2.699   9.875 -3.0307  1.1513 -0.4948
  181MPD1    H2 2761   0.507   2.704  10.195 -0.6094 -1.5043 -2.7067
  181MPD1    H3 2762   0.552   2.672   9.961  0.3511 -1.1821  0.0762
  181MPD1     N 2763   0.971   2.841  10.002  0.1355  0.2433  0.3262
  181MPD1    H5 2764   1.004   2.810   9.911  0.1462  2.0758 -0.2839
  181MPD1    N1 2765   0.665   2.792  10.377  0.1802  0.0365  0.2458
  181MPD1    H6 2766   0.610   2.713  10.411  1.4964 -1.0073 -0.0383
  181MPD1    H7 2767   0.753   2.786  10.429  1.2887  0.6380 -1.5507
  182MPD1     C 2768   1.697   3.660   1.184  0.4446 -0.0555  0.4891
  182MPD1    C1 2769   1.588   3.731   1.130 -0.2579  0.8963  0.0274
  182MPD1    C2 2770   1.541   3.683   1.007  0.4712 -0.2212 -0.6169
  182MPD1    C3 2771   1.598   3.574   0.944 -0.2148  0.2532 -0.0296
  182MPD1    C4 2772   1.708   3.509   0.996 -0.2648  0.3811 -0.2727
  182MPD1    C5 2773   1.765   3.560   1.114  0.0574  0.3764 -0.2235
  182MPD1     H 2774   1.446   3.722   0.973 -0.5854 -1.4820  0.8755
  182MPD1    H1 2775   1.755   3.417   0.963 -0.0926  0.4417 -0.2012
  182MPD1    H2 2776   1.743   3.684   1.279  1.7017  2.4542 -0.7549
  182MPD1    H3 2777   1.845   3.507   1.164  1.5263  1.9784 -0.8626
  182MPD1     N 2778   1.543   3.499   0.838 -0.0290  0.0978  0.9673
  182MPD1    H5 2779   1.594   3.414   0.816  0.7841  1.0618 -0.8837
  182MPD1    N1 2780   1.518   3.833   1.211  0.3605  0.5132 -0.5513
  182MPD1    H6 2781   1.589   3.895   1.252  1.1582  0.0841 -1.2840
  182MPD1    H7 2782   1.451   3.890   1.161  0.2498  0.7379 -0.1533
  183MPD1     C 2783   3.031   3.300   9.645  0.2686 -0.1594 -0.1022
  183MPD1    C1 2784   2.945   3.238   9.727 -0.1037  0.1108  0.0931
  183MPD1    C2 2785   2.809   3.242   9.691  0.1852 -0.1690 -0.0626
  183MPD1    C3 2786   2.765   3.304   9.578 -0.6852  0.1384  0.1081
  183MPD1    C4 2787   2.851   3.367   9.488 -1.0246  0.7773 -0.6643
  183MPD1    C5 2788   2.985   3.358   9.527  0.9311 -0.7837  0.4052
  183MPD1     H 2789   2.734   3.200   9.758 -1.0478  2.7287  0.3709
  183MPD1    H1 2790   2.816   3.426   9.404 -0.1619  0.2297 -1.4121
  183MPD1    H2 2791   3.137   3.309   9.666 -0.0759  0.4650  1.3654
  183MPD1    H3 2792   3.065   3.397   9.465 -2.2282  2.0476 -1.9047
  183MPD1     N 2793   2.627   3.298   9.547  0.7396  0.5253 -0.3099
  183MPD1    H5 2794   2.579   3.235   9.610  1.7629  1.5494  1.4595
  183MPD1    N1 2795   2.992   3.154   9.825  0.5120  0.6122 -1.0177
  183MPD1    H6 2796   2.926   3.139   9.901 -0.0822  2.2475 -1.2034
  183MPD1    H7 2797   3.070   3.193   9.877  1.4175 -1.6400 -0.7160
  184MPD1     C 2798   1.740   0.487  10.048  0.6759 -0.0245  0.2087
  184MPD1    C1 2799   1.693   0.422   9.938 -0.5078  0.9856  0.0592
  184MPD1    C2 2800   1.745   0.453   9.816  0.0855  0.0785 -0.5933
  184MPD1    C3 2801   1.843   0.551   9.798  1.0670  0.5218 -0.3016
  184MPD1    C4 2802   1.889   0.615   9.914 -0.1495 -0.3382  0.8005
  184MPD1    C5 2803   1.843   0.574  10.032  0.1729  0.9234  0.0059
  184MPD1     H 2804   1.700   0.406   9.729  0.8117 -1.4869 -0.1289
  184MPD1    H1 2805   1.962   0.694   9.913 -0.3183 -0.1230  6.5480
  184MPD1    H2 2806   1.710   0.459  10.149 -0.2741 -0.1600 -0.1129
  184MPD1    H3 2807   1.886   0.628  10.116 -0.0690 -0.0013  0.7086
  184MPD1     N 2808   1.905   0.584   9.671 -0.8972  0.2341 -0.1373
  184MPD1    H5 2809   1.961   0.668   9.663 -0.0708 -0.0760  2.5459
  184MPD1    N1 2810   1.593   0.329   9.953  0.7842  0.2334 -0.3443
  184MPD1    H6 2811   1.576   0.278   9.867  2.3693  1.1182 -1.1876
  184MPD1    H7 2812   1.617   0.257  10.022 -0.8543  0.8244  0.8563
  185MPD1     C 2813   1.944   0.562   8.568  0.6436 -0.1512 -0.7094
  185MPD1    C1 2814   1.835   0.547   8.651  0.7420 -0.0958 -0.4638
  185MPD1    C2 2815   1.861   0.542   8.786  0.0266 -0.6591  0.2570
  185MPD1    C3 2816   1.989   0.544   8.842 -0.5388  0.4286  0.5217
  185MPD1    C4 2817   2.098   0.547   8.751 -0.5750  0.0698  0.0049
  185MPD1    C5 2818   2.077   0.565   8.618  0.8536  0.0595  0.2179
  185MPD1     H 2819   1.774   0.531   8.850  0.1360 -0.1373  0.4924
  185MPD1    H1 2820   2.202   0.562   8.777 -0.4660 -1.7900  0.6798
  185MPD1    H2 2821   1.944   0.570   8.460 -0.8665  0.5289 -0.6568
  185MPD1    H3 2822   2.162   0.588   8.555  0.9967  0.3999  0.5372
  185MPD1     N 2823   2.020   0.563   8.978 -0.4954 -0.2175  0.0109
  185MPD1    H5 2824   2.114   0.577   9.013 -0.4258  1.8627 -1.0436
  185MPD1    N1 2825   1.703   0.544   8.604 -0.0314  0.9277  0.2737
  185MPD1    H6 2826   1.692   0.516   8.507  0.7058 -0.5435  0.6247
  185MPD1    H7 2827   1.632   0.508   8.667  1.3464  0.9906  1.8960
  186MPD1     C 2828   4.562   1.011  15.683 -0.1795  0.7898  0.1598
  186MPD1    C1 2829   4.612   0.906  15.762  0.4650  0.6628 -0.4646
  186MPD1    C2 2830   4.696   0.934  15.872 -0.1269 -0.2691  0.2244
  186MPD1    C3 2831   0.005   1.061  15.909  0.0998  0.0478 -0.0745
  186MPD1    C4 2832   4.667   1.159  15.835 -0.0163 -0.2116 -0.1177
  186MPD1    C5 2833   4.592   1.134  15.728 -1.0489 -0.1529  0.2531
  186MPD1     H 2834   0.005   0.850  15.933  1.2882  2.0211  2.7158
  186MPD1    H1 2835   4.677   1.264  15.860  0.7232  0.0038 -1.3114
  186MPD1    H2 2836   4.503   0.997  15.593 -0.9601  0.1923  0.7712
  186MPD1    H3 2837   4.561   1.220  15.670  0.4156 -0.8211 -1.5435
  186MPD1     N 2838   0.084   1.104  16.015  0.2174  0.0777 -0.4765
  186MPD1    H5 2839   0.075   1.201  16.041  0.0165 -0.2451  0.6540
  186MPD1    N1 2840   4.574   0.774  15.734 -0.5749  0.8044 -0.5959
  186MPD1    H6 2841   4.477   0.771  15.765 -0.0319  0.3036  1.0932
  186MPD1    H7 2842   4.628   0.708  15.789 -0.5245  1.7346  0.4741
  187MPD1     C 2843   4.250   1.978  17.369 -0.2582 -0.0225 -0.4718
  187MPD1    C1 2844   4.282   2.094  17.432  0.0181 -0.1967 -0.4559
  187MPD1    C2 2845   4.242   2.207  17.368 -0.0257 -0.6989 -0.2131
  187MPD1    C3 2846   4.166   2.208  17.257 -0.2797 -0.1272  0.4699
  187MPD1    C4 2847   4.126   2.090  17.204  0.1564 -0.1091  0.2155
  187MPD1    C5 2848   4.174   1.973  17.256 -0.3200 -0.1214  0.1825
  187MPD1     H 2849   4.281   2.301  17.405 -0.3276 -0.8001  0.3624
  187MPD1    H1 2850   4.064   2.080  17.116 -1.3482 -2.4482  1.5386
  187MPD1    H2 2851   4.279   1.889  17.423  2.9208 -0.0074 -2.1331
  187MPD1    H3 2852   4.155   1.874  17.217 -1.1108 -0.1526  0.6599
  187MPD1     N 2853   4.125   2.329  17.192  0.0802  0.0531  0.1050
  187MPD1    H5 2854   4.058   2.320  17.116  1.4504 -1.1940 -0.9655
  187MPD1    N1 2855   4.375   2.088  17.538 -0.1227 -0.1190  0.5425
  187MPD1    H6 2856   4.372   2.001  17.591 -0.8680  0.4718  1.4640
  187MPD1    H7 2857   4.386   2.163  17.605 -2.3276  0.1871  0.5562
  188MPD1     C 2858   3.560   2.988  10.138  0.4428 -0.2235  0.0871
  188MPD1    C1 2859   3.683   2.944  10.107 -0.6682  0.2576 -0.2291
  188MPD1    C2 2860   3.692   2.816  10.053 -0.2456 -0.2208 -1.0086
  188MPD1    C3 2861   3.585   2.724  10.041 -0.0157  0.0142 -0.9880
  188MPD1    C4 2862   3.459   2.781  10.059  0.1158  0.0860 -0.3459
  188MPD1    C5 2863   3.458   2.907  10.109 -0.0924 -0.3662  0.2106
  188MPD1     H 2864   3.793   2.785  10.030  0.2288  2.0910 -2.0803
  188MPD1    H1 2865   3.370   2.719  10.058 -3.3799  5.0876 -0.3079
  188MPD1    H2 2866   3.543   3.090  10.173 -2.2633 -0.4784 -0.4297
  188MPD1    H3 2867   3.360   2.947  10.130 -0.1546  0.0794 -0.9318
  188MPD1     N 2868   3.604   2.589   9.996  0.6280 -0.7003  0.1061
  188MPD1    H5 2869   3.519   2.533   9.993  0.3044 -0.4316  3.3276
  188MPD1    N1 2870   3.790   3.031  10.105  0.0870  0.1997  0.4875
  188MPD1    H6 2871   3.875   2.984  10.134  0.7896  0.8043 -0.6267
  188MPD1    H7 2872   3.767   3.119  10.152  0.1295 -1.3259  3.3545
  189MPD1     C 2873   1.143   3.205   0.254 -0.3964 -0.7084  0.5225
  189MPD1    C1 2874   1.037   3.146   0.192  0.2629  0.1970  0.1350
  189MPD1    C2 2875   0.923   3.212   0.161  0.4892 -0.6498  0.2424
  189MPD1    C3 2876   0.908   3.346   0.207  0.7417  0.7559  0.1555
  189MPD1    C4 2877   1.011   3.405   0.284  0.7133  0.1110 -0.0059
  189MPD1    C5 2878   1.132   3.337   0.294 -0.1948 -0.5430 -0.0669
  189MPD1     H 2879   0.842   3.169   0.104 -0.6941  0.2514  1.2188
  189MPD1    H1 2880   1.016   3.508   0.317 -0.4489 -0.2509  1.2577
  189MPD1    H2 2881   1.236   3.150   0.250 -0.8588 -1.5897  1.9913
  189MPD1    H3 2882   1.216   3.395   0.329 -0.9697  0.4009  0.2183
  189MPD1     N 2883   0.785   3.411   0.178 -0.5142  1.3074  0.1066
  189MPD1    H5 2884   0.714   3.346   0.148  0.7132  1.3404 -2.9259
  189MPD1    N1 2885   1.048   3.015   0.140 -0.2358 -1.0658  0.4885
  189MPD1    H6 2886   1.119   3.016   0.067 -0.5445  1.5627  0.1954
  189MPD1    H7 2887   0.958   2.976   0.114 -0.4369 -1.1613  1.3356
  190MPD1     C 2888   3.642   2.483  15.413 -0.8082 -0.3118  0.1029
  190MPD1    C1 2889   3.724   2.535  15.505 -0.8227 -0.3166  0.9932
  190MPD1    C2 2890   3.847   2.468  15.527  0.1321 -0.0759 -0.9418
  190MPD1    C3 2891   3.882   2.355  15.464 -0.1861 -0.6601  0.1806
  190MPD1    C4 2892   3.795   2.309  15.368  0.9893 -0.1798 -0.4220
  190MPD1    C5 2893   3.680   2.373  15.344  0.2082 -0.5633 -0.1893
  190MPD1     H 2894   3.919   2.503  15.600  0.4242 -1.2844 -0.6468
  190MPD1    H1 2895   3.814   2.219  15.310 -1.6235  0.9454 -2.9811
  190MPD1    H2 2896   3.554   2.541  15.386 -1.2961 -1.2587 -0.3570
  190MPD1    H3 2897   3.615   2.337  15.264 -0.6285  1.3266 -0.3625
  190MPD1     N 2898   4.002   2.292  15.491  0.1755  0.5404  0.4066
  190MPD1    H5 2899   4.068   2.327  15.559  0.6159 -1.3299  0.9482
  190MPD1    N1 2900   3.694   2.661  15.559  1.0747 -0.0266  0.6721
  190MPD1    H6 2901   3.595   2.684  15.568 -0.1040 -4.8049  0.1104
  190MPD1    H7 2902   3.739   2.689  15.646  2.1958  0.0829  0.0603
  191MPD1     C 2903   3.768   3.702  13.027  0.0181  0.8329 -0.2095
  191MPD1    C1 2904   3.790   3.679  12.896  0.3560  0.2905 -0.4291
  191MPD1    C2 2905   3.692   3.728  12.813 -0.1156  0.3237  0.3182
  191MPD1    C3 2906   3.584   3.802  12.853  0.0232  0.3288 -0.1543
  191MPD1    C4 2907   3.570   3.822  12.992 -0.3885 -0.2029 -0.3768
  191MPD1    C5 2908   3.666   3.771  13.075 -0.0719  0.2187 -0.6100
  191MPD1     H 2909   3.696   3.714  12.705  0.7261  0.2670  0.3516
  191MPD1    H1 2910   3.483   3.872  13.033  1.0122  0.5282  1.7303
  191MPD1    H2 2911   3.851   3.669  13.089 -0.2147 -0.5024 -0.6080
  191MPD1    H3 2912   3.649   3.787  13.181  3.1675  1.3360 -0.2640
  191MPD1     N 2913   3.515   3.887  12.753 -0.4777 -0.0339  0.3508
  191MPD1    H5 2914   3.561   3.895  12.663  0.7034 -3.4840  0.6368
  191MPD1    N1 2915   3.910   3.611  12.863 -0.5004 -0.2218 -0.1448
  191MPD1    H6 2916   3.874   3.516  12.870  0.9669 -0.7440  0.3296
  191MPD1    H7 2917   3.902   3.602  12.762 -0.9596  0.2935 -0.1530
  192MPD1     C 2918   2.645   4.456  12.440  0.2517  0.4259 -0.9207
  192MPD1    C1 2919   2.677   4.397  12.560 -0.3530  0.5925  0.3493
  192MPD1    C2 2920   2.800   4.344  12.572  0.1654 -0.1051  0.2024
  192MPD1    C3 2921   2.888   4.334  12.462  0.9100 -0.5775  0.3422
  192MPD1    C4 2922   2.852   4.393  12.341  0.0435  0.2018  0.4164
  192MPD1    C5 2923   2.731   4.449  12.333  0.0708  0.7287 -0.1097
  192MPD1     H 2924   2.811   4.282  12.660  0.4272 -0.6517 -0.2090
  192MPD1    H1 2925   2.918   4.405  12.255 -0.5053 -1.3672 -0.2243
  192MPD1    H2 2926   2.560   4.521  12.419 -0.2767  0.3166  0.8355
  192MPD1    H3 2927   2.709   4.518  12.253 -1.5672 -0.0560 -0.3469
  192MPD1     N 2928   3.007   4.256  12.478 -0.3322  0.4352 -0.2987
  192MPD1    H5 2929   3.058   4.241  12.392  1.0631 -2.3963  1.0086
  192MPD1    N1 2930   2.604   4.446  12.674 -0.2706 -0.6990 -0.7768
  192MPD1    H6 2931   2.505   4.455  12.650 -0.6755 -1.9928  0.3791
  192MPD1    H7 2932   2.604   4.367  12.739  1.8587 -0.2038 -0.1935
  193MPD1     C 2933   3.102   3.925  16.346  0.5271 -0.2450 -0.1696
  193MPD1    C1 2934   3.061   3.986  16.464  0.4133 -0.2796  0.3774
  193MPD1    C2 2935   3.158   4.067  16.519 -0.0994 -0.5058 -0.2190
  193MPD1    C3 2936   3.281   4.095  16.469  0.8280  0.1683  0.9602
  193MPD1    C4 2937   3.315   4.035  16.354  0.2929 -0.2714 -0.5823
  193MPD1    C5 2938   3.226   3.948  16.296 -0.5408  0.0657 -0.0795
  193MPD1     H 2939   3.132   4.118  16.611  1.6871 -0.2963  0.1714
  193MPD1    H1 2940   3.411   4.056  16.308  0.3715  1.1498  0.2171
  193MPD1    H2 2941   3.035   3.846  16.314  0.8376 -1.2636  1.7331
  193MPD1    H3 2942   3.256   3.889  16.210 -0.7443 -0.5821  0.2934
  193MPD1     N 2943   3.378   4.178  16.526  0.4015  0.2662 -0.5925
  193MPD1    H5 2944   3.461   4.193  16.470  1.3270 -1.1747  0.4119
  193MPD1    N1 2945   2.951   3.937  16.535  0.2525  0.2822  0.0079
  193MPD1    H6 2946   2.901   4.017  16.576  0.8707  0.7426 -0.1398
  193MPD1    H7 2947   2.875   3.899  16.478  0.1031 -0.4447  0.6950
  194MPD1     C 2948   2.142   1.783  15.904  0.2086 -0.0874 -0.3226
  194MPD1    C1 2949   2.027   1.707  15.887  0.6997 -0.0288 -0.5863
  194MPD1    C2 2950   1.994   1.610  15.982 -0.2290  0.0389 -0.0255
  194MPD1    C3 2951   2.078   1.595  16.096 -0.3443  0.1225  0.7614
  194MPD1    C4 2952   2.189   1.668  16.109 -0.7370 -0.1851  0.4144
  194MPD1    C5 2953   2.219   1.760  16.015 -0.8244  0.2505  0.1046
  194MPD1     H 2954   1.907   1.550  15.960 -2.2431  1.8057  3.1326
  194MPD1    H1 2955   2.266   1.646  16.182 -1.7506 -1.1789  1.1970
  194MPD1    H2 2956   2.165   1.870  15.844  1.0599 -0.7749 -0.9830
  194MPD1    H3 2957   2.302   1.830  16.023 -1.1458  0.3961  2.2307
  194MPD1     N 2958   2.060   1.499  16.197 -0.1301  0.3676 -0.0050
  194MPD1    H5 2959   2.122   1.489  16.277 -1.1836 -2.5596  0.4539
  194MPD1    N1 2960   1.949   1.721  15.773 -0.5496 -0.3072  0.0589
  194MPD1    H6 2961   1.868   1.662  15.755  0.0774 -1.4167  0.8399
  194MPD1    H7 2962   2.002   1.693  15.691  1.1626 -0.6792  1.2944
  195MPD1     C 2963   3.747   3.730   0.013  0.4803 -0.3845  0.0881
  195MPD1    C1 2964   3.743   3.666   0.131  0.2622  0.0862 -0.2654
  195MPD1    C2 2965   3.827   3.552   0.151  0.1051 -0.5820 -0.5835
  195MPD1    C3 2966   3.913   3.517   0.050 -0.0229  0.1956 -0.4567
  195MPD1    C4 2967   3.919   3.587  17.622  0.6046  0.0175 -0.0995
  195MPD1    C5 2968   3.838   3.696  17.598  0.0865  0.7865 -0.0234
  195MPD1     H 2969   3.817   3.501   0.246  0.9606 -1.1592 -0.8037
  195MPD1    H1 2970   3.990   3.565  17.543  1.1269 -1.7275  0.8448
  195MPD1    H2 2971   3.687   3.816  17.673  0.1843 -0.7048 -0.2863
  195MPD1    H3 2972   3.845   3.750  17.504  0.5137  3.0080  1.2882
  195MPD1     N 2973   3.997   3.399   0.054 -1.2118 -0.1353 -0.5194
  195MPD1    H5 2974   4.049   3.385  17.654 -1.2376  0.6754 -0.6645
  195MPD1    N1 2975   3.653   3.698   0.234 -0.2686  0.0562  0.3013
  195MPD1    H6 2976   3.681   3.657   0.323 -1.1694 -1.3160 -0.0585
  195MPD1    H7 2977   3.634   3.797   0.246 -0.1648  0.4490 -2.7673
  196MPD1     C 2978   2.325   2.214   0.694 -0.2231  0.9175 -0.4415
  196MPD1    C1 2979   2.251   2.323   0.651  0.6018  0.0375  0.3040
  196MPD1    C2 2980   2.283   2.450   0.696  0.2711 -0.4908 -0.1458
  196MPD1    C3 2981   2.372   2.461   0.800  0.6623 -0.1259 -0.7381
  196MPD1    C4 2982   2.444   2.355   0.851  0.4569 -0.0756 -0.5042
  196MPD1    C5 2983   2.421   2.233   0.788 -0.2060  0.2654 -0.1316
  196MPD1     H 2984   2.227   2.539   0.666  1.5901 -0.3342 -2.1204
  196MPD1    H1 2985   2.514   2.364   0.933  0.3147  0.4827 -0.4418
  196MPD1    H2 2986   2.327   2.114   0.652 -0.9548  0.4544  0.6401
  196MPD1    H3 2987   2.487   2.149   0.804 -0.1188  0.4083  0.2628
  196MPD1     N 2988   2.394   2.588   0.867 -0.1976 -0.2251 -0.1808
  196MPD1    H5 2989   2.465   2.583   0.939 -0.2733  2.6773  0.0817
  196MPD1    N1 2990   2.168   2.309   0.536 -0.3627 -0.4142 -0.4438
  196MPD1    H6 2991   2.127   2.217   0.531  0.8595 -0.9114 -1.4471
  196MPD1    H7 2992   2.097   2.381   0.550  1.4422  0.9731  1.5457
  197MPD1     C 2993   2.169   4.349  17.399 -0.7520 -0.9923 -0.1245
  197MPD1    C1 2994   2.269   4.403  17.477 -0.7303 -0.1081 -0.3279
  197MPD1    C2 2995   2.342   4.503  17.417 -0.2891  0.2523  0.0476
  197MPD1    C3 2996   2.337   4.523  17.277 -0.5702 -0.0834 -0.2432
  197MPD1    C4 2997   2.233   4.456  17.205  0.5653  0.2911  0.5332
  197MPD1    C5 2998   2.145   4.377  17.267  0.1774  0.3766 -1.0949
  197MPD1     H 2999   2.425   4.542  17.476  2.5525 -1.4424 -2.8528
  197MPD1    H1 3000   2.229   4.477  17.099 -0.0440 -1.5276  0.2020
  197MPD1    H2 3001   2.101   4.278  17.445 -0.9482 -1.7915 -1.6589
  197MPD1    H3 3002   2.065   4.330  17.213 -0.3336 -0.4301  0.3526
  197MPD1     N 3003   2.432   4.610  17.211 -0.2369 -0.0347 -0.0578
  197MPD1    H5 3004   2.432   4.607  17.110  0.7029  0.4225 -0.0684
  197MPD1    N1 3005   2.289   4.379  17.611  0.2878  0.0100 -0.1098
  197MPD1    H6 3006   2.265   4.284  17.639 -1.8109  0.0229 -1.8020
  197MPD1    H7 3007   2.383   4.408  17.636  0.4730 -0.9383  0.3065
  198MPD1     C 3008   3.422   3.902  15.884  0.0450 -0.3123  0.0185
  198MPD1    C1 3009   3.395   3.780  15.820 -0.1570 -0.1069  0.9745
  198MPD1    C2 3010   3.499   3.692  15.801 -0.2645 -1.0198  0.3634
  198MPD1    C3 3011   3.626   3.722  15.849  0.5784 -0.1729  0.4482
  198MPD1    C4 3012   3.650   3.840  15.917  0.0926  0.3675  0.0327
  198MPD1    C5 3013   3.546   3.925  15.940  0.5990 -0.4763 -0.2900
  198MPD1     H 3014   3.483   3.595  15.755  0.4111 -0.1633 -1.7055
  198MPD1    H1 3015   3.749   3.879  15.939 -0.8731  1.4929  2.3398
  198MPD1    H2 3016   3.346   3.978  15.874  0.1981 -0.4259 -2.0569
  198MPD1    H3 3017   3.554   4.023  15.985  0.9026 -1.1551  1.1575
  198MPD1     N 3018   3.732   3.631  15.827 -0.7566 -0.2341 -0.5428
  198MPD1    H5 3019   3.708   3.547  15.775 -1.8748 -0.9923  1.2175
  198MPD1    N1 3020   3.269   3.764  15.756 -0.5116 -0.1651  0.4355
  198MPD1    H6 3021   3.195   3.831  15.777 -0.9173 -0.4467 -0.0838
  198MPD1    H7 3022   3.239   3.668  15.762  0.3528 -0.5849 -1.8014
  199MPD1     C 3023   2.299   3.115   9.865  0.1768 -0.1865 -0.7790
  199MPD1    C1 3024   2.305   3.246   9.825  0.1329  0.3412  0.7468
  199MPD1    C2 3025   2.192   3.306   9.781  0.2382  0.1413  0.2154
  199MPD1    C3 3026   2.068   3.231   9.772  0.4328  0.4783 -0.3372
  199MPD1    C4 3027   2.067   3.106   9.824 -1.0923  0.3602  0.1519
  199MPD1    C5 3028   2.177   3.047   9.872 -0.3238 -0.1322 -0.4630
  199MPD1     H 3029   2.196   3.408   9.744 -0.7828 -0.1438 -0.6682
  199MPD1    H1 3030   1.975   3.049   9.821 -0.8722  0.0219 -0.0861
  199MPD1    H2 3031   2.384   3.066   9.910 -0.7376 -1.5892 -0.5825
  199MPD1    H3 3032   2.169   2.942   9.900 -1.3162  0.5551  1.8462
  199MPD1     N 3033   1.951   3.270   9.703 -0.0177  0.1513  0.1786
  199MPD1    H5 3034   1.872   3.207   9.696 -1.6028  2.1244  0.2166
  199MPD1    N1 3035   2.428   3.311   9.814 -0.2529  0.1716  0.2172
  199MPD1    H6 3036   2.502   3.288   9.880  0.2862  2.0346  0.2644
  199MPD1    H7 3037   2.421   3.412   9.822 -0.9266  0.1908 -0.5751
  200MPD1     C 3038   4.152   4.370  14.868 -0.1548  0.0701  0.0968
  200MPD1    C1 3039   4.207   4.419  14.753 -0.1000 -0.5383 -1.1437
  200MPD1    C2 3040   4.345   4.411  14.733 -0.0454 -0.6427 -0.6158
  200MPD1    C3 3041   4.432   4.356  14.831  0.2686 -0.5923 -0.2908
  200MPD1    C4 3042   4.372   4.303  14.947  0.1724 -0.0918  0.6618
  200MPD1    C5 3043   4.238   4.312  14.964  0.8171 -0.4014  0.3742
  200MPD1     H 3044   4.391   4.456  14.646  0.8253  2.7585  1.5729
  200MPD1    H1 3045   4.425   4.250  15.025 -1.6493 -2.2921  0.4177
  200MPD1    H2 3046   4.045   4.369  14.884 -0.7927  0.6962 -4.1085
  200MPD1    H3 3047   4.190   4.274  15.053  2.4489  0.8139  1.7777
  200MPD1     N 3048   4.570   4.348  14.799 -0.2806  0.7865 -0.1899
  200MPD1    H5 3049   4.588   4.388  14.707 -0.1444 -0.0458 -0.5215
  200MPD1    N1 3050   4.123   4.474  14.654  0.4873  0.5476 -0.1734
  200MPD1    H6 3051   4.162   4.511  14.567  2.5601 -0.9251  0.1314
  200MPD1    H7 3052   4.057   4.407  14.615 -0.7773  1.7910 -0.1561
  201MPD1     C 3053   2.568   3.712  12.803  0.5485 -0.7084  0.0982
  201MPD1    C1 3054   2.631   3.648  12.700  0.1482  0.4912  0.5455
  201MPD1    C2 3055   2.729   3.553  12.731  0.1127  0.0040  0.0569
  201MPD1    C3 3056   2.754   3.522  12.863 -0.1895 -0.1970  0.1681
  201MPD1    C4 3057   2.701   3.597  12.967  0.2350 -0.5217 -0.7885
  201MPD1    C5 3058   2.610   3.693  12.930 -1.0458 -0.3818  0.1248
  201MPD1     H 3059   2.788   3.498  12.659  0.7520  1.5030 -0.5528
  201MPD1    H1 3060   2.708   3.584  13.074  0.7776 -0.7784 -0.8584
  201MPD1    H2 3061   2.496   3.790  12.781  0.6344  0.1906  2.9015
  201MPD1    H3 3062   2.566   3.746  13.013  0.5486  1.3857 -0.1728
  201MPD1     N 3063   2.841   3.413  12.886 -0.2635  0.0869  0.5767
  201MPD1    H5 3064   2.873   3.357  12.807 -0.9326 -0.0619  0.4118
  201MPD1    N1 3065   2.603   3.667  12.563  0.1235  0.0438 -0.4601
  201MPD1    H6 3066   2.603   3.581  12.508 -0.3023  0.1878 -0.6877
  201MPD1    H7 3067   2.505   3.696  12.566  0.1915  0.1533  0.6436
  202MPD1     C 3068   2.544   2.409   8.687 -0.2089 -0.5294 -0.4844
  202MPD1    C1 3069   2.672   2.390   8.739 -0.6459  0.7751  0.9007
  202MPD1    C2 3070   2.669   2.326   8.863 -0.4155  0.5586  0.0203
  202MPD1    C3 3071   2.562   2.334   8.951  0.2259  0.2700  0.7737
  202MPD1    C4 3072   2.441   2.375   8.903  0.3580 -0.7913  0.3011
  202MPD1    C5 3073   2.434   2.409   8.767  0.2284  1.0933  0.3786
  202MPD1     H 3074   2.765   2.297   8.903 -0.4380  2.0586  1.1397
  202MPD1    H1 3075   2.359   2.374   8.974  0.1273  0.7502  0.0493
  202MPD1    H2 3076   2.535   2.430   8.581 -1.4224  2.0812  0.1343
  202MPD1    H3 3077   2.339   2.447   8.732  0.5589  1.2156 -0.3877
  202MPD1     N 3078   2.560   2.289   9.087 -0.3410 -0.2199  0.2592
  202MPD1    H5 3079   2.478   2.311   9.141  0.5218 -0.2719  1.5918
  202MPD1    N1 3080   2.767   2.342   8.650 -0.2811 -0.1939  0.7495
  202MPD1    H6 3081   2.768   2.398   8.565 -0.7639 -0.5931  0.4754
  202MPD1    H7 3082   2.863   2.342   8.683 -0.1894  1.1143  0.4732
  203MPD1     C 3083   0.458   3.663  12.390  0.4016 -0.5899  0.5394
  203MPD1    C1 3084   0.540   3.648  12.273  0.1563 -0.3182 -0.4117
  203MPD1    C2 3085   0.673   3.607  12.293 -0.0226  0.1518  0.4713
  203MPD1    C3 3086   0.719   3.564  12.411 -0.2123  0.3063 -0.3336
  203MPD1    C4 3087   0.639   3.578  12.523 -0.1729 -0.5479  0.7832
  203MPD1    C5 3088   0.504   3.614  12.507  0.1971 -0.0205  0.3111
  203MPD1     H 3089   0.741   3.609  12.208  2.3865  1.6651  2.4472
  203MPD1    H1 3090   0.684   3.544  12.615  0.8725 -0.3307  0.3494
  203MPD1    H2 3091   0.360   3.710  12.391  0.5469 -0.3069  1.3118
  203MPD1    H3 3092   0.443   3.607  12.596 -0.4523 -0.9722 -0.2176
  203MPD1     N 3093   0.851   3.519  12.415 -0.4976 -0.1234  0.1196
  203MPD1    H5 3094   0.898   3.521  12.325 -1.1964 -0.2794 -0.2504
  203MPD1    N1 3095   0.500   3.698  12.147  0.5201  0.0933 -0.4144
  203MPD1    H6 3096   0.401   3.680  12.134  0.4267  1.4319 -1.5964
  203MPD1    H7 3097   0.549   3.672  12.061 -2.1889 -1.2408 -1.5546
  204MPD1     C 3098   1.558   0.459  16.852 -0.4639 -0.6656 -0.1951
  204MPD1    C1 3099   1.621   0.334  16.856 -0.0508  0.3957  0.1726
  204MPD1    C2 3100   1.552   0.239  16.777  0.6204 -0.4688 -0.2140
  204MPD1    C3 3101   1.434   0.259  16.709 -0.6858  0.5364 -0.7752
  204MPD1    C4 3102   1.376   0.384  16.717  0.5263  0.0366  0.3563
  204MPD1    C5 3103   1.447   0.482  16.780  0.1897 -0.2493 -0.4337
  204MPD1     H 3104   1.604   0.144  16.766 -0.4325 -0.8533 -1.7919
  204MPD1    H1 3105   1.278   0.411  16.680  0.1924 -2.4110 -0.4943
  204MPD1    H2 3106   1.605   0.548  16.892 -3.0647  0.3750  0.5536
  204MPD1    H3 3107   1.419   0.586  16.784 -2.8688 -1.0581 -0.2348
  204MPD1     N 3108   1.386   0.155  16.622 -0.2770  0.1188  0.1582
  204MPD1    H5 3109   1.440   0.069  16.621 -0.2614  0.1576 -2.6595
  204MPD1    N1 3110   1.748   0.309  16.914 -0.0873 -0.2349 -0.6033
  204MPD1    H6 3111   1.785   0.363  16.991 -1.0634 -3.0383  1.8406
  204MPD1    H7 3112   1.753   0.208  16.929 -1.0503 -0.4504 -1.8059
  205MPD1     C 3113   1.602   3.820  16.210  0.5032  0.2191  0.1456
  205MPD1    C1 3114   1.569   3.691  16.245  0.7720  0.4952  0.1010
  205MPD1    C2 3115   1.446   3.678  16.312  0.6208 -0.6498  0.7356
  205MPD1    C3 3116   1.357   3.782  16.325  0.3774  0.3325  0.6897
  205MPD1    C4 3117   1.383   3.906  16.275 -0.0329  0.3604 -0.0178
  205MPD1    C5 3118   1.511   3.924  16.227  0.0559  0.0400  0.2600
  205MPD1     H 3119   1.424   3.577  16.345  2.4316 -1.6656 -1.1339
  205MPD1    H1 3120   1.319   3.993  16.270 -0.0989  0.0917 -3.7484
  205MPD1    H2 3121   1.702   3.837  16.171 -0.2578  0.4327 -1.7178
  205MPD1    H3 3122   1.542   4.015  16.177  3.6560 -1.8210 -0.8834
  205MPD1     N 3123   1.223   3.778  16.372 -0.2848  0.4631 -0.3246
  205MPD1    H5 3124   1.168   3.864  16.374 -0.3278  0.4747 -1.5887
  205MPD1    N1 3125   1.665   3.588  16.248 -0.2408 -0.4617  0.2036
  205MPD1    H6 3126   1.621   3.496  16.243 -2.8487  0.8614 -1.0954
  205MPD1    H7 3127   1.737   3.604  16.177 -2.1744  0.2819 -1.5801
  206MPD1     C 3128   1.567   1.814  16.244  1.2874  0.3029 -0.0448
  206MPD1    C1 3129   1.663   1.747  16.171  0.5417 -0.7083  0.3742
  206MPD1    C2 3130   1.615   1.697  16.047 -0.2294  0.0684 -0.4058
  206MPD1    C3 3131   1.473   1.694  16.012  0.9235 -0.4380 -0.0514
  206MPD1    C4 3132   1.385   1.757  16.094  0.3239 -0.5404 -0.5065
  206MPD1    C5 3133   1.436   1.817  16.209 -0.1198  0.6988 -0.5389
  206MPD1     H 3134   1.683   1.672  15.966  1.0801 -0.1013  0.7448
  206MPD1    H1 3135   1.277   1.758  16.079  0.4382  0.3904 -1.2268
  206MPD1    H2 3136   1.598   1.870  16.331 -0.9310  0.6014  0.5555
  206MPD1    H3 3137   1.363   1.867  16.272 -2.7136 -1.2228 -2.0328
  206MPD1     N 3138   1.418   1.624  15.904 -0.0056 -0.5883 -0.1970
  206MPD1    H5 3139   1.317   1.631  15.894  0.2467  0.8362 -1.6103
  206MPD1    N1 3140   1.800   1.769  16.187 -0.3337 -0.0947 -0.8590
  206MPD1    H6 3141   1.862   1.702  16.141 -0.8403 -0.7399 -0.6041
  206MPD1    H7 3142   1.833   1.789  16.282 -1.3591  0.1026 -0.5515
  207MPD1     C 3143   3.134   0.064   9.133  0.9060  0.8319 -0.0093
  207MPD1    C1 3144   3.110   0.022   9.263  0.4896  0.5029  0.2532
  207MPD1    C2 3145   3.215   4.688   9.338 -0.4346 -0.5952 -0.2554
  207MPD1    C3 3146   3.345   4.693   9.294  0.5093 -0.3794  0.3399
  207MPD1    C4 3147   3.370   0.027   9.169 -0.4963  0.9215  0.1389
  207MPD1    C5 3148   3.266   0.071   9.088  0.2062  0.3699  0.5675
  207MPD1     H 3149   3.188   4.637   9.430  1.4151  2.0886  1.8011
  207MPD1    H1 3150   3.474   0.047   9.145 -0.4201  0.9956  0.5150
  207MPD1    H2 3151   3.049   0.094   9.073  0.9056  1.5545  0.3581
  207MPD1    H3 3152   3.297   0.111   8.993 -1.8195  2.9361  1.0101
  207MPD1     N 3153   3.460   4.638   9.364  0.2275  0.1429 -0.0498
  207MPD1    H5 3154   3.550   4.650   9.318  0.5822  1.0086  0.8636
  207MPD1    N1 3155   2.979   0.008   9.309  0.6382  0.4323 -0.1362
  207MPD1    H6 3156   2.914   0.068   9.258  1.3858  0.9275 -0.4979
  207MPD1    H7 3157   2.964   0.019   9.409  0.8266  0.1181 -0.0750
  208MPD1     C 3158   2.162   2.835  17.051  0.2417  0.3564  0.2994
  208MPD1    C1 3159   2.171   2.943  17.138 -0.3568  0.3929  0.4197
  208MPD1    C2 3160   2.057   2.977  17.201 -0.3928 -0.3654  0.6868
  208MPD1    C3 3161   1.933   2.922  17.171  0.7024 -0.5191 -0.1694
  208MPD1    C4 3162   1.924   2.823  17.085 -0.2098 -0.0874  0.3944
  208MPD1    C5 3163   2.041   2.783  17.027 -0.4625 -0.5324 -0.8364
  208MPD1     H 3164   2.066   3.044  17.286 -1.2866 -1.1319  1.3817
  208MPD1    H1 3165   1.836   2.763  17.067 -0.3328  0.1856  0.0890
  208MPD1    H2 3166   2.252   2.784  17.018  0.1808  0.7326 -0.4590
  208MPD1    H3 3167   2.045   2.695  16.965 -1.1719  0.4800 -2.3094
  208MPD1     N 3168   1.819   2.985  17.227  0.3765  0.1619  0.5339
  208MPD1    H5 3169   1.839   3.059  17.294  1.7440 -1.4246  1.8930
  208MPD1    N1 3170   2.297   2.982  17.187  0.3792 -0.0680  0.3667
  208MPD1    H6 3171   2.295   3.076  17.226  0.7312 -0.3182  0.9910
  208MPD1    H7 3172   2.366   2.978  17.112  0.3136 -1.1130  0.3567
  209MPD1     C 3173   3.674   3.543  11.068  0.0435 -0.2473 -0.2619
  209MPD1    C1 3174   3.658   3.671  11.096  0.0612  0.5480 -0.0080
  209MPD1    C2 3175   3.663   3.761  10.996  0.5364 -0.1002  0.7084
  209MPD1    C3 3176   3.675   3.725  10.862 -0.1223  0.5467 -0.3474
  209MPD1    C4 3177   3.684   3.592  10.834  0.0700 -0.8375 -0.2767
  209MPD1    C5 3178   3.693   3.504  10.935  0.4873  1.0666 -0.0693
  209MPD1     H 3179   3.662   3.864  11.027 -0.1095  0.7507 -2.0619
  209MPD1    H1 3180   3.720   3.552  10.740  1.0262  0.9058 -0.6501
  209MPD1    H2 3181   3.698   3.475  11.149 -0.3990 -0.8293 -0.6201
  209MPD1    H3 3182   3.720   3.400  10.921  1.1162  1.6532 -3.2893
  209MPD1     N 3183   3.685   3.832  10.767 -0.1003 -0.0057  0.3468
  209MPD1    H5 3184   3.688   3.928  10.799  1.2120  0.4749 -1.1946
  209MPD1    N1 3185   3.678   3.718  11.230 -0.3897  0.8256 -0.3116
  209MPD1    H6 3186   3.639   3.811  11.238 -1.7554  0.4362 -2.3256
  209MPD1    H7 3187   3.637   3.648  11.292 -1.5111  0.9267 -0.9378
  210MPD1     C 3188   4.419   4.456  10.579 -0.1641 -0.1453 -0.5447
  210MPD1    C1 3189   4.334   4.431  10.685  0.1981 -0.2238 -0.2922
  210MPD1    C2 3190   4.219   4.354  10.657 -0.5992 -0.0595  1.2461
  210MPD1    C3 3191   4.193   4.305  10.531 -0.8325 -0.1816 -0.0532
  210MPD1    C4 3192   4.273   4.344  10.426 -0.1906  0.4498 -0.6021
  210MPD1    C5 3193   4.384   4.407  10.459  0.3810  0.4652  0.4967
  210MPD1     H 3194   4.149   4.333  10.737 -1.3124  0.2841  0.7161
  210MPD1    H1 3195   4.258   4.309  10.324  0.8217  0.9307 -0.9223
  210MPD1    H2 3196   4.513   4.507  10.591 -0.3627 -0.1260  0.9158
  210MPD1    H3 3197   4.464   4.421  10.387  1.0422  0.0989  1.1597
  210MPD1     N 3198   4.089   4.216  10.508 -0.4741  0.3432  0.3618
  210MPD1    H5 3199   4.079   4.188  10.411  0.3600 -0.9640  0.6571
  210MPD1    N1 3200   4.369   4.461  10.819 -0.3711  0.5724 -0.0857
  210MPD1    H6 3201   4.285   4.451  10.876 -1.0246  0.3175 -1.0842
  210MPD1    H7 3202   4.405   4.556  10.821 -1.0445  0.8482 -0.8125
  211MPD1     C 3203   1.806   2.834  16.022  0.1659  0.6380  0.2011
  211MPD1    C1 3204   1.745   2.879  16.139  0.5181  0.0938  0.1041
  211MPD1    C2 3205   1.641   2.969  16.131 -0.1372 -0.1624 -0.1659
  211MPD1    C3 3206   1.604   3.018  16.012 -0.0316  0.1475 -0.1023
  211MPD1    C4 3207   1.674   2.986  15.899 -0.1069 -0.1530 -0.1241
  211MPD1    C5 3208   1.769   2.883  15.902  0.0515 -0.2318  0.1194
  211MPD1     H 3209   1.593   3.013  16.218 -4.4579 -2.7552 -1.2929
  211MPD1    H1 3210   1.667   3.042  15.806  2.3273  1.7923  0.8716
  211MPD1    H2 3211   1.882   2.757  16.030  1.3879  2.0856  2.7995
  211MPD1    H3 3212   1.830   2.855  15.816 -0.2655  1.5573 -0.6918
  211MPD1     N 3213   1.504   3.113  16.020 -0.4210 -0.4288  0.0667
  211MPD1    H5 3214   1.466   3.142  16.110 -0.1493 -0.2461  0.1236
  211MPD1    N1 3215   1.804   2.863  16.262 -0.2878 -0.1869  0.1457
  211MPD1    H6 3216   1.863   2.779  16.265  2.0389  1.4313 -0.2296
  211MPD1    H7 3217   1.736   2.857  16.336 -0.2003 -1.0332  0.1590
  212MPD1     C 3218   1.057   2.226  16.950 -0.6245  0.4702 -0.3663
  212MPD1    C1 3219   1.138   2.110  16.949 -0.6551  0.5421 -0.2148
  212MPD1    C2 3220   1.072   1.989  16.923 -0.5012  0.0920 -0.2981
  212MPD1    C3 3221   0.932   1.985  16.922 -0.0298  0.4269  0.0974
  212MPD1    C4 3222   0.861   2.100  16.937  0.0276 -0.2687  0.8122
  212MPD1    C5 3223   0.920   2.216  16.954 -0.3378 -1.0583 -0.4189
  212MPD1     H 3224   1.133   1.899  16.925 -1.9367 -0.8890 -0.5689
  212MPD1    H1 3225   0.754   2.106  16.949 -0.2455 -0.8623 -1.3472
  212MPD1    H2 3226   1.096   2.326  16.935 -0.4583  0.4965  0.2803
  212MPD1    H3 3227   0.865   2.309  16.970  1.2327 -0.2571  0.3049
  212MPD1     N 3228   0.851   1.868  16.911 -0.7794 -0.2533  0.2154
  212MPD1    H5 3229   0.753   1.864  16.935 -0.9711  0.4606 -0.4631
  212MPD1    N1 3230   1.276   2.123  16.930 -0.0543  0.3773  0.0891
  212MPD1    H6 3231   1.312   2.035  16.968  0.6875  0.6184 -0.0601
  212MPD1    H7 3232   1.308   2.209  16.975  0.7400  0.6946 -1.0826
  213MPD1     C 3233   3.118   2.046  14.310 -0.0283 -0.3571  0.2567
  213MPD1    C1 3234   3.220   2.141  14.305 -0.3124 -0.1165 -0.2888
  213MPD1    C2 3235   3.195   2.247  14.377  0.1520 -0.1664  0.4409
  213MPD1    C3 3236   3.109   2.244  14.483 -0.1212  1.2238  0.3758
  213MPD1    C4 3237   3.032   2.129  14.515  0.3252  0.6169 -0.3259
  213MPD1    C5 3238   3.031   2.036  14.412  0.1821 -0.1158  0.0612
  213MPD1     H 3239   3.248   2.333  14.338 -0.5466  1.5401  3.2466
  213MPD1    H1 3240   2.958   2.119  14.594 -1.4337 -2.8707 -2.4034
  213MPD1    H2 3241   3.117   1.969  14.233 -1.4386 -1.9370  1.8430
  213MPD1    H3 3242   2.962   1.953  14.407 -1.7022  1.4141  0.4197
  213MPD1     N 3243   3.105   2.358  14.572 -0.3797  0.2526  0.1301
  213MPD1    H5 3244   3.184   2.418  14.550 -0.3464 -0.1317 -0.8033
  213MPD1    N1 3245   3.294   2.156  14.190  0.6304  0.8456 -0.4823
  213MPD1    H6 3246   3.374   2.216  14.212  0.6474 -0.7279  3.8289
  213MPD1    H7 3247   3.324   2.061  14.165 -0.3750  1.0498 -2.4892
  214MPD1     C 3248   2.270   2.765  14.684  0.3489  0.4522 -0.5665
  214MPD1    C1 3249   2.362   2.849  14.634  0.4138 -0.1461  0.2075
  214MPD1    C2 3250   2.489   2.830  14.684  0.3930  0.6333 -0.1939
  214MPD1    C3 3251   2.523   2.715  14.757  0.1951 -0.3999  0.1291
  214MPD1    C4 3252   2.427   2.620  14.783 -0.3419  0.2691  0.1981
  214MPD1    C5 3253   2.300   2.649  14.748  0.5423 -0.0355  0.4977
  214MPD1     H 3254   2.569   2.898  14.657  0.8395  0.2482  0.1706
  214MPD1    H1 3255   2.444   2.519  14.820 -0.1031 -0.0830 -0.8667
  214MPD1    H2 3256   2.167   2.766  14.652  0.6152 -0.7335 -1.4425
  214MPD1    H3 3257   2.219   2.579  14.767  0.2858  0.1309  0.0251
  214MPD1     N 3258   2.655   2.683  14.795 -0.3508  0.6081 -0.3918
  214MPD1    H5 3259   2.674   2.592  14.835  0.3684  0.3498 -1.3297
  214MPD1    N1 3260   2.328   2.968  14.568  0.1043  0.1165  0.5701
  214MPD1    H6 3261   2.408   2.989  14.509  1.1917  0.1700  2.0429
  214MPD1    H7 3262   2.250   2.962  14.504  0.3276  2.0837  0.1173
  215MPD1     C 3263   3.703   3.010  10.790 -0.1025 -0.0048 -0.1686
  215MPD1    C1 3264   3.684   3.105  10.690 -0.6237  0.0672  0.0434
  215MPD1    C2 3265   3.594   3.203  10.707 -0.2309 -0.0732 -0.2122
  215MPD1    C3 3266   3.533   3.226  10.830  0.0208 -0.0334  0.1199
  215MPD1    C4 3267   3.553   3.131  10.935  0.1615 -0.9115  0.2405
  215MPD1    C5 3268   3.640   3.023  10.910  0.8529 -0.4092  0.7649
  215MPD1     H 3269   3.579   3.265  10.620 -1.7248  0.9498  0.7819
  215MPD1    H1 3270   3.512   3.153  11.032 -1.4020 -0.2735 -0.5736
  215MPD1    H2 3271   3.771   2.927  10.777  1.6885  1.3999  0.1475
  215MPD1    H3 3272   3.652   2.949  10.988  1.3737  1.6590  2.6493
  215MPD1     N 3273   3.433   3.333  10.849 -0.1921 -0.6483 -0.2570
  215MPD1    H5 3274   3.418   3.391  10.767  0.7111  0.4616  0.3576
  215MPD1    N1 3275   3.745   3.092  10.555  0.3015  0.1377 -0.3230
  215MPD1    H6 3276   3.820   3.023  10.555  1.4413  1.3764  3.5013
  215MPD1    H7 3277   3.795   3.174  10.523 -0.2566  0.9434  0.8744
  216MPD1     C 3278   1.298   0.912  16.897 -0.2947 -0.0638 -0.3310
  216MPD1    C1 3279   1.411   0.902  16.978  0.1310  0.0250 -0.3541
  216MPD1    C2 3280   1.430   0.781  17.040 -0.3459 -0.5548  0.4023
  216MPD1    C3 3281   1.331   0.687  17.044 -0.3358 -0.5577 -0.3602
  216MPD1    C4 3282   1.214   0.705  16.981  0.0275 -0.6532 -0.2796
  216MPD1    C5 3283   1.201   0.814  16.905  0.1512 -0.3407  0.0312
  216MPD1     H 3284   1.517   0.768  17.104 -0.2334  0.4426  0.4521
  216MPD1    H1 3285   1.130   0.636  16.983 -0.4604 -0.0290  0.7565
  216MPD1    H2 3286   1.274   1.004  16.844  1.5984  1.0810  0.7897
  216MPD1    H3 3287   1.107   0.839  16.858  0.2224 -1.5887 -0.7746
  216MPD1     N 3288   1.363   0.568  17.111 -0.8518  0.2328  0.0441
  216MPD1    H5 3289   1.453   0.561  17.157  0.0411  1.1809 -1.5827
  216MPD1    N1 3290   1.511   1.001  16.972 -0.4794 -0.2964 -0.4785
  216MPD1    H6 3291   1.580   1.000  17.047  0.2885  2.0647 -1.1511
  216MPD1    H7 3292   1.487   1.096  16.942 -0.1782  0.2929  1.1356
  217MPD1     C 3293   1.166   0.667   9.350 -0.0468  0.4304  0.6019
  217MPD1    C1 3294   1.196   0.715   9.478  0.2582  0.1362 -0.2057
  217MPD1    C2 3295   1.280   0.829   9.485 -0.2013 -0.2851  0.5341
  217MPD1    C3 3296   1.327   0.891   9.366 -0.2699  0.7538 -0.5313
  217MPD1    C4 3297   1.284   0.845   9.244 -0.4684  0.0959 -0.0047
  217MPD1    C5 3298   1.203   0.731   9.235 -0.3674  0.3578  0.1107
  217MPD1     H 3299   1.307   0.873   9.580  1.6002 -0.6808  0.2011
  217MPD1    H1 3300   1.307   0.895   9.151 -0.0371  1.5543  0.8808
  217MPD1    H2 3301   1.107   0.577   9.356 -1.2399  1.1717  0.0999
  217MPD1    H3 3302   1.182   0.698   9.134  0.5490  1.5143 -0.4516
  217MPD1     N 3303   1.405   1.004   9.363  0.8362 -0.1569 -0.0257
  217MPD1    H5 3304   1.435   1.039   9.273 -1.3632 -0.6239 -0.9191
  217MPD1    N1 3305   1.173   0.635   9.591 -0.4911 -0.5150 -0.2533
  217MPD1    H6 3306   1.101   0.563   9.587 -0.4390 -0.6172  0.6070
  217MPD1    H7 3307   1.161   0.691   9.676 -1.5886 -1.6076  0.3148
  218MPD1     C 3308   2.559   4.173  12.989 -0.0002 -0.0931 -0.7910
  218MPD1    C1 3309   2.549   4.145  12.854  0.3588  0.3144 -0.5192
  218MPD1    C2 3310   2.656   4.070  12.798 -0.8022 -0.2618  0.0037
  218MPD1    C3 3311   2.740   4.004  12.875  0.3528 -0.1276  0.3877
  218MPD1    C4 3312   2.749   4.027  13.012 -0.2420  0.1189 -0.1057
  218MPD1    C5 3313   2.653   4.110  13.065 -0.4244  0.3351  0.0087
  218MPD1     H 3314   2.651   4.062  12.690  2.2336 -0.7581 -0.0746
  218MPD1    H1 3315   2.815   3.983  13.086  0.1891 -1.3186 -1.3315
  218MPD1    H2 3316   2.494   4.241  13.043  1.2214  0.7237 -0.3658
  218MPD1    H3 3317   2.659   4.127  13.172  0.1254 -2.0070  0.3612
  218MPD1     N 3318   2.832   3.915  12.803 -0.2720 -0.4082  0.0595
  218MPD1    H5 3319   2.839   3.919  12.702 -0.7748 -1.2388 -0.0129
  218MPD1    N1 3320   2.454   4.216  12.774 -0.3881 -0.0260 -0.2777
  218MPD1    H6 3321   2.366   4.214  12.827  0.5151  1.4172  1.2877
  218MPD1    H7 3322   2.436   4.172  12.684 -2.1780 -2.3015  1.1878
  219MPD1     C 3323   3.124   4.162  12.084  0.4508 -0.4824 -0.1889
  219MPD1    C1 3324   3.243   4.111  12.139 -0.5472 -0.0053  0.0236
  219MPD1    C2 3325   3.227   4.021  12.239  0.3284  0.0287  0.5100
  219MPD1    C3 3326   3.102   3.988  12.297 -0.5814  0.7711  0.3197
  219MPD1    C4 3327   2.989   4.050  12.252 -0.4642  0.1607  0.7527
  219MPD1    C5 3328   3.003   4.143  12.154  0.4177  0.5400  0.2977
  219MPD1     H 3329   3.313   3.969  12.278 -0.2380 -0.8058  0.6459
  219MPD1    H1 3330   2.894   4.025  12.298 -1.1249 -1.3898 -1.4369
  219MPD1    H2 3331   3.124   4.234  12.003 -2.2889  0.1255  0.3497
  219MPD1    H3 3332   2.916   4.207  12.144 -0.2613 -0.2418  1.2299
  219MPD1     N 3333   3.092   3.898  12.408  0.2288  0.1483  0.3799
  219MPD1    H5 3334   3.002   3.884  12.453  0.1538 -1.3535 -0.2461
  219MPD1    N1 3335   3.363   4.125  12.071 -0.3879  0.0717  0.7385
  219MPD1    H6 3336   3.358   4.212  12.018  3.5374  0.6988  1.4502
  219MPD1    H7 3337   3.449   4.127  12.125  0.7175 -2.1143 -0.9338
  220MPD1     C 3338   2.355   3.727   9.343  0.3832 -0.6767  0.8259
  220MPD1    C1 3339   2.300   3.660   9.456  0.0841  0.5040 -0.4163
  220MPD1    C2 3340   2.383   3.638   9.566  0.9682  0.6942 -0.5051
  220MPD1    C3 3341   2.523   3.661   9.562  0.1523  0.2090 -1.1519
  220MPD1    C4 3342   2.572   3.717   9.444  0.0918  0.7584  0.4251
  220MPD1    C5 3343   2.488   3.757   9.344  0.5629 -0.3090 -0.3033
  220MPD1     H 3344   2.340   3.595   9.656  0.8570  0.6119 -0.5972
  220MPD1    H1 3345   2.679   3.728   9.431 -0.1020  0.7112 -1.1098
  220MPD1    H2 3346   2.295   3.774   9.266  0.0525  0.6948  1.9241
  220MPD1    H3 3347   2.518   3.809   9.254 -0.4243 -0.0297 -0.4691
  220MPD1     N 3348   2.600   3.619   9.675  0.6192 -0.5053 -0.1162
  220MPD1    H5 3349   2.541   3.586   9.751 -0.0278 -0.0190 -0.4130
  220MPD1    N1 3350   2.162   3.656   9.470  0.0201 -0.7521 -0.0179
  220MPD1    H6 3351   2.111   3.663   9.382  0.6934 -3.5027 -0.6173
  220MPD1    H7 3352   2.129   3.574   9.521  0.7804 -0.9112  0.2163
  221MPD1     C 3353   0.122   2.544  16.246 -0.5120 -0.6679  0.4738
  221MPD1    C1 3354   0.204   2.649  16.299  0.2097 -0.7005 -0.1699
  221MPD1    C2 3355   0.341   2.639  16.290 -0.2946  0.1645  0.5246
  221MPD1    C3 3356   0.390   2.519  16.245 -0.6055 -0.6742 -0.5483
  221MPD1    C4 3357   0.306   2.405  16.219  0.3166 -0.5715  0.0912
  221MPD1    C5 3358   0.172   2.422  16.213 -0.0527  0.3543  0.7334
  221MPD1     H 3359   0.402   2.726  16.312  0.2040  0.0287 -0.3589
  221MPD1    H1 3360   0.354   2.309  16.202 -0.5173 -0.9450 -0.1620
  221MPD1    H2 3361   0.014   2.551  16.238 -0.4973 -1.2189 -0.2926
  221MPD1    H3 3362   0.104   2.342  16.183 -0.5169  1.3479 -0.8425
  221MPD1     N 3363   0.530   2.495  16.220 -0.2013 -0.2861  0.5377
  221MPD1    H5 3364   0.554   2.400  16.197 -2.3385  0.1209 -3.4320
  221MPD1    N1 3365   0.145   2.771  16.340 -0.0822  0.3148 -0.0741
  221MPD1    H6 3366   0.196   2.832  16.404 -0.1333  0.6468 -0.3518
  221MPD1    H7 3367   0.062   2.746  16.394  0.3279  0.1316  0.4770
  222MPD1     C 3368   1.606   0.603  17.491  0.4383  0.7907  0.0362
  222MPD1    C1 3369   1.628   0.704  17.414  0.5246 -0.1036  0.8052
  222MPD1    C2 3370   1.520   0.778  17.373 -0.2123 -0.0322  0.2609
  222MPD1    C3 3371   1.392   0.747  17.401  0.1082 -0.0702 -0.3020
  222MPD1    C4 3372   1.371   0.629  17.473  0.4541 -0.1177 -0.3528
  222MPD1    C5 3373   1.481   0.557  17.514  0.3158 -0.3970  0.0013
  222MPD1     H 3374   1.530   0.867  17.311  0.4466 -0.7742 -0.7019
  222MPD1    H1 3375   1.272   0.589  17.493 -0.2123  1.3484 -0.7062
  222MPD1    H2 3376   1.687   0.557  17.547  0.4044 -1.1569 -1.5326
  222MPD1    H3 3377   1.466   0.470  17.576  0.3657  0.1605  0.7967
  222MPD1     N 3378   1.277   0.823  17.368  0.4436  0.3037 -0.9493
  222MPD1    H5 3379   1.188   0.776  17.378  0.5101 -0.1286 -2.3724
  222MPD1    N1 3380   1.759   0.737  17.381  0.3340  0.1748  0.2655
  222MPD1    H6 3381   1.766   0.780  17.289 -4.6025  0.1419 -0.1329
  222MPD1    H7 3382   1.817   0.653  17.374  1.9789  1.3488 -0.2596
  223MPD1     C 3383   0.747   0.328  17.192 -0.2107 -0.2638 -0.2979
  223MPD1    C1 3384   0.813   0.361  17.305  0.3573 -0.2935 -0.0859
  223MPD1    C2 3385   0.838   0.498  17.324  0.1171  0.8314 -0.2438
  223MPD1    C3 3386   0.828   0.584  17.214  0.1956 -0.7971  0.0168
  223MPD1    C4 3387   0.768   0.546  17.096  0.5889 -0.3423 -0.5657
  223MPD1    C5 3388   0.721   0.416  17.089  0.3735 -0.4440  0.0004
  223MPD1     H 3389   0.900   0.525  17.408 -0.2764 -0.9250  0.6098
  223MPD1    H1 3390   0.759   0.615  17.013  0.9952 -1.5693 -1.6290
  223MPD1    H2 3391   0.720   0.228  17.160 -1.9454  0.5367 -1.3289
  223MPD1    H3 3392   0.673   0.371  17.002 -1.6469  0.2428  0.7701
  223MPD1     N 3393   0.872   0.720  17.236  0.7274 -0.8506  0.2163
  223MPD1    H5 3394   0.918   0.740  17.325  0.7905  1.3080 -0.2872
  223MPD1    N1 3395   0.864   0.268  17.399 -0.4601 -0.2296 -0.1350
  223MPD1    H6 3396   0.884   0.314  17.488 -0.8640  2.0582 -1.2198
  223MPD1    H7 3397   0.810   0.183  17.415 -2.0351  0.6830 -0.5661
  224MPD1     C 3398   2.164   3.242   8.921 -0.2468  0.3496  0.3681
  224MPD1    C1 3399   2.271   3.171   8.969  0.6298 -0.2952 -0.1389
  224MPD1    C2 3400   2.250   3.060   9.045  0.3723 -0.5134 -0.2484
  224MPD1    C3 3401   2.115   3.020   9.074  0.0084  0.2023 -0.5026
  224MPD1    C4 3402   2.012   3.089   9.014 -0.6115 -0.0444 -0.5108
  224MPD1    C5 3403   2.041   3.204   8.947 -0.4817  0.5243  0.6116
  224MPD1     H 3404   2.330   3.002   9.089 -0.3105 -2.4503 -1.5212
  224MPD1    H1 3405   1.907   3.072   9.037 -0.1341 -0.0588  1.6301
  224MPD1    H2 3406   2.178   3.331   8.860 -0.6188  1.5602  2.0447
  224MPD1    H3 3407   1.965   3.277   8.924 -2.8057 -1.9882  0.2635
  224MPD1     N 3408   2.085   2.897   9.148 -0.4824  0.5798 -0.4058
  224MPD1    H5 3409   1.986   2.876   9.157 -0.3794 -0.4426 -1.5695
  224MPD1    N1 3410   2.396   3.194   8.909 -0.4276 -0.0097 -0.4886
  224MPD1    H6 3411   2.411   3.295   8.910 -0.6190  0.0310 -1.1725
  224MPD1    H7 3412   2.470   3.145   8.958  0.2913  1.1884 -0.3659
  225MPD1     C 3413   3.178   4.555  12.375 -0.8698  0.6543  0.3648
  225MPD1    C1 3414   3.192   4.539  12.239  0.2042  0.1954 -0.4762
  225MPD1    C2 3415   3.102   4.610  12.168  0.2359  0.2043 -0.0302
  225MPD1    C3 3416   2.994   4.680  12.224  0.3760 -0.2183  0.3898
  225MPD1    C4 3417   2.978   4.683  12.359  0.3850 -0.9084  0.4373
  225MPD1    C5 3418   3.070   4.620  12.429 -0.5834 -0.0733 -0.2472
  225MPD1     H 3419   3.118   4.608  12.060 -2.1445 -0.6417 -0.3642
  225MPD1    H1 3420   2.898   0.017  12.408  1.2986  1.2695 -0.5073
  225MPD1    H2 3421   3.248   4.510  12.444 -0.6155  0.9020  0.2664
  225MPD1    H3 3422   3.048   4.620  12.535 -1.2229 -1.9758 -0.3762
  225MPD1     N 3423   2.902   0.031  12.145 -1.2476 -0.1161 -0.8600
  225MPD1    H5 3424   2.821   0.061  12.198  0.0846  0.2843  0.9677
  225MPD1    N1 3425   3.318   4.502  12.183  0.6489 -0.2523  0.0111
  225MPD1    H6 3426   3.367   4.436  12.243  2.6302 -1.0410 -2.4926
  225MPD1    H7 3427   3.307   4.459  12.092 -1.1789  0.8561 -0.2857
  226MPD1     C 3428   1.001   3.875   8.277 -0.0553  0.1584  0.1435
  226MPD1    C1 3429   1.022   3.742   8.317  0.1333  0.3145 -0.3550
  226MPD1    C2 3430   1.107   3.720   8.431 -0.0797  0.7509  0.2961
  226MPD1    C3 3431   1.153   3.831   8.505  0.3046 -0.2730 -0.1530
  226MPD1    C4 3432   1.101   3.956   8.477 -0.0712 -0.1588  0.1392
  226MPD1    C5 3433   1.024   3.974   8.370 -0.2733 -0.1115  0.3447
  226MPD1     H 3434   1.147   3.621   8.447 -0.0417  0.3663 -2.1678
  226MPD1    H1 3435   1.132   4.046   8.528  1.9054 -0.9843  0.3982
  226MPD1    H2 3436   0.939   3.904   8.193  0.7685 -0.8800 -0.8182
  226MPD1    H3 3437   0.990   4.074   8.345 -0.3194 -0.2754 -0.2563
  226MPD1     N 3438   1.244   3.814   8.613 -0.8097  0.2660 -0.0822
  226MPD1    H5 3439   1.267   3.720   8.642  0.0429 -0.0886 -1.8553
  226MPD1    N1 3440   0.989   3.627   8.232  0.2292  0.4481  0.1857
  226MPD1    H6 3441   0.903   3.632   8.178 -0.1232  0.5909  0.7483
  226MPD1    H7 3442   0.971   3.552   8.299 -0.5432 -0.1422 -0.6809
  227MPD1     C 3443   1.354   3.107   9.209 -0.3708  0.1557 -0.4040
  227MPD1    C1 3444   1.483   3.149   9.180  0.7524  0.0688  0.0560
  227MPD1    C2 3445   1.502   3.268   9.112  0.0622 -0.3141 -0.4124
  227MPD1    C3 3446   1.400   3.357   9.112  0.2835 -0.4594 -0.0080
  227MPD1    C4 3447   1.273   3.322   9.153  0.0010  0.4891 -0.5465
  227MPD1    C5 3448   1.250   3.201   9.205  0.3961 -1.0603  0.7293
  227MPD1     H 3449   1.594   3.301   9.066  0.3428 -0.6350 -0.0778
  227MPD1    H1 3450   1.184   3.385   9.147  0.0487  0.5263 -0.8253
  227MPD1    H2 3451   1.327   3.012   9.253  2.6802  0.0674  1.2747
  227MPD1    H3 3452   1.156   3.163   9.242 -0.2312 -1.3238 -1.1440
  227MPD1     N 3453   1.429   3.465   9.036 -0.0118  0.0692 -0.0308
  227MPD1    H5 3454   1.521   3.472   8.994  0.9823  2.1968  2.4654
  227MPD1    N1 3455   1.589   3.059   9.180 -0.0773  0.1983  0.0074
  227MPD1    H6 3456   1.676   3.112   9.188  0.1165 -0.1280  0.0368
  227MPD1    H7 3457   1.579   2.998   9.261  0.4544 -1.4468 -1.1851
  228MPD1     C 3458   4.421   2.717  11.706 -0.0075  0.1489 -0.2898
  228MPD1    C1 3459   4.303   2.780  11.679  0.1124  0.3131 -0.3997
  228MPD1    C2 3460   4.189   2.703  11.693  0.3580 -0.5727 -0.2880
  228MPD1    C3 3461   4.179   2.569  11.710 -0.0124  0.4892 -0.1582
  228MPD1    C4 3462   4.298   2.503  11.731 -0.1987 -0.7184 -0.5436
  228MPD1    C5 3463   4.418   2.581  11.729  0.5321 -0.0575 -0.3307
  228MPD1     H 3464   4.094   2.753  11.678  0.2112 -1.1193 -1.1919
  228MPD1    H1 3465   4.294   2.401  11.768 -0.7509 -0.7888 -0.8077
  228MPD1    H2 3466   4.523   2.754  11.715 -0.5568  1.1556  1.7558
  228MPD1    H3 3467   4.508   2.527  11.757  0.4151 -0.2114 -0.2521
  228MPD1     N 3468   4.052   2.515  11.713  0.1874 -0.3747  0.5254
  228MPD1    H5 3469   3.975   2.581  11.705  0.8397  0.6683  3.0760
  228MPD1    N1 3470   4.303   2.924  11.668  0.5395  0.1055 -0.0985
  228MPD1    H6 3471   4.389   2.943  11.618  1.2742 -1.1585  0.7013
  228MPD1    H7 3472   4.227   2.949  11.605 -0.5093 -0.1990  1.0435
  229MPD1     C 3473   4.100   0.733  15.430  0.4104 -0.2636 -0.5362
  229MPD1    C1 3474   4.153   0.646  15.514  0.1602 -0.5618  0.6699
  229MPD1    C2 3475   4.278   0.590  15.482  0.7765  0.5378 -0.5197
  229MPD1    C3 3476   4.353   0.619  15.365  0.4378  0.1003 -0.1390
  229MPD1    C4 3477   4.294   0.710  15.280 -0.0133  0.4347  0.1982
  229MPD1    C5 3478   4.169   0.761  15.312 -0.3084  0.9631 -0.1468
  229MPD1     H 3479   4.320   0.534  15.565 -1.9433  1.0617  1.2062
  229MPD1    H1 3480   4.335   0.739  15.183 -2.4681  0.1272 -0.9262
  229MPD1    H2 3481   4.004   0.775  15.458  0.5183  0.4727 -1.3006
  229MPD1    H3 3482   4.131   0.825  15.234 -1.4583 -0.9523 -1.1444
  229MPD1     N 3483   4.483   0.578  15.338  0.1923  0.5096  0.2827
  229MPD1    H5 3484   4.531   0.611  15.255  0.7517 -1.6060 -0.2347
  229MPD1    N1 3485   4.110   0.632  15.651 -0.4653 -0.2054 -0.1524
  229MPD1    H6 3486   4.023   0.681  15.673 -0.8065 -1.0810  0.4429
  229MPD1    H7 3487   4.111   0.533  15.675  2.7194 -0.4314 -1.2837
  230MPD1     C 3488   0.629   0.040  15.755 -0.0780  0.1244  0.4518
  230MPD1    C1 3489   0.662   0.077  15.630  0.0140 -0.9228  0.3394
  230MPD1    C2 3490   0.562   0.143  15.557  0.3099  0.0871 -0.8108
  230MPD1    C3 3491   0.446   0.186  15.608  0.4147  0.1131  0.4190
  230MPD1    C4 3492   0.425   0.158  15.743  0.5875  0.1306 -1.0354
  230MPD1    C5 3493   0.516   0.089  15.806 -0.6520 -0.3084  0.0774
  230MPD1     H 3494   0.598   0.145  15.455  1.4016  2.0717 -0.3708
  230MPD1    H1 3495   0.342   0.192  15.804  1.5114  1.5721 -0.5875
  230MPD1    H2 3496   0.695   4.703  15.818  0.1265  1.5425  1.5413
  230MPD1    H3 3497   0.493   0.058  15.907 -0.8213 -2.9455 -0.7707
  230MPD1     N 3498   0.349   0.237  15.522  0.4491 -0.7156  0.2748
  230MPD1    H5 3499   0.371   0.256  15.425  2.4194 -3.3608  0.1926
  230MPD1    N1 3500   0.785   0.034  15.559 -0.1068  0.0486 -0.0452
  230MPD1    H6 3501   0.801   0.101  15.484  1.2530 -0.5307 -0.2865
  230MPD1    H7 3502   0.867   0.028  15.619 -0.1536 -1.9315 -0.1906
  231MPD1     C 3503   3.020   3.158  15.213 -0.0142 -0.2836 -0.3151
  231MPD1    C1 3504   2.934   3.137  15.113 -0.1171  0.3719 -0.2380
  231MPD1    C2 3505   2.978   3.159  14.984  0.4055 -0.3380  0.1761
  231MPD1    C3 3506   3.105   3.216  14.964 -0.2840 -0.7445 -0.1773
  231MPD1    C4 3507   3.189   3.237  15.064  0.2094 -0.1700  1.2521
  231MPD1    C5 3508   3.138   3.209  15.191  0.4884 -0.3753  0.1631
  231MPD1     H 3509   2.916   3.141  14.897  0.1252  2.3666 -0.1568
  231MPD1    H1 3510   3.289   3.274  15.043 -1.1990  2.2825 -1.2102
  231MPD1    H2 3511   3.000   3.125  15.315  2.4541  3.1523  1.2872
  231MPD1    H3 3512   3.192   3.233  15.282  2.0049 -0.3967 -0.7321
  231MPD1     N 3513   3.148   3.231  14.831 -0.2047  0.3538  0.6277
  231MPD1    H5 3514   3.080   3.207  14.760  0.6305  0.7725 -0.3222
  231MPD1    N1 3515   2.820   3.060  15.139 -0.4557  0.7759  0.0443
  231MPD1    H6 3516   2.753   3.048  15.063  0.3319  0.1708 -0.5571
  231MPD1    H7 3517   2.770   3.082  15.225  2.9260  3.3486  1.3764
  232MPD1     C 3518   0.788   4.293   0.354 -0.1911 -0.3466 -0.2457
  232MPD1    C1 3519   0.699   4.243   0.255 -0.4829  0.0187 -0.6496
  232MPD1    C2 3520   0.636   4.336   0.177  0.3710  0.0209 -0.0569
  232MPD1    C3 3521   0.629   4.470   0.202 -1.1854 -0.3315  0.3579
  232MPD1    C4 3522   0.710   4.517   0.295  0.6641 -0.1165  0.1640
  232MPD1    C5 3523   0.788   4.431   0.370  0.9239  0.5243 -0.5021
  232MPD1     H 3524   0.573   4.299   0.097  1.5183 -0.2961 -0.8106
  232MPD1    H1 3525   0.709   4.619   0.331  2.4957  1.3011 -3.8428
  232MPD1    H2 3526   0.852   4.227   0.411 -0.4159  0.2272  0.6734
  232MPD1    H3 3527   0.862   4.468   0.440 -0.0561  0.6616  0.4601
  232MPD1     N 3528   0.539   4.556   0.127 -0.3503 -0.0125  0.0014
  232MPD1    H5 3529   0.473   4.513   0.064 -0.3790 -0.9559  0.6763
  232MPD1    N1 3530   0.692   4.103   0.225 -0.1024 -0.7466 -0.0518
  232MPD1    H6 3531   0.747   4.084   0.141  1.1503  0.9940  0.3753
  232MPD1    H7 3532   0.737   4.050   0.300  0.5514  0.7918  0.6369
  233MPD1     C 3533   4.698   4.080   0.452  0.1332  0.5222 -0.3378
  233MPD1    C1 3534   4.649   3.955   0.472  0.2714  0.4379  0.2509
  233MPD1    C2 3535   0.005   3.865   0.552 -0.2951  0.2664  0.1882
  233MPD1    C3 3536   0.110   3.921   0.629 -0.7433 -0.4326 -0.0973
  233MPD1    C4 3537   0.125   4.058   0.634 -0.1238  0.3179  1.0679
  233MPD1    C5 3538   0.073   4.134   0.539  0.1027  0.2387 -0.1363
  233MPD1     H 3539   4.707   3.759   0.568 -1.4048  0.3764 -0.3846
  233MPD1    H1 3540   0.199   4.109   0.696  0.1798  0.9970  0.1502
  233MPD1    H2 3541   4.655   4.149   0.380 -0.3855 -0.3671 -0.8767
  233MPD1    H3 3542   0.103   4.238   0.535 -2.8672  1.1371  0.7241
  233MPD1     N 3543   0.200   3.848   0.710  0.4537 -0.2734 -0.7743
  233MPD1    H5 3544   0.265   3.907   0.761 -1.6950  0.4246  1.1523
  233MPD1    N1 3545   4.542   3.908   0.396 -0.0644  0.6781 -0.0441
  233MPD1    H6 3546   4.506   3.823   0.439 -0.0187 -0.8230 -3.0018
  233MPD1    H7 3547   4.469   3.979   0.392 -1.9600 -1.2339  0.0722
  234MPD1     C 3548   2.827   1.052   8.651 -0.8710  0.2834  0.1510
  234MPD1    C1 3549   2.711   1.100   8.596 -0.1316 -0.3327  0.0381
  234MPD1    C2 3550   2.639   1.196   8.667 -0.8681  0.7623  1.2058
  234MPD1    C3 3551   2.701   1.265   8.771 -0.4296  0.5046  0.4349
  234MPD1    C4 3552   2.828   1.233   8.807 -0.3541 -0.3321  0.3596
  234MPD1    C5 3553   2.889   1.127   8.747 -0.1959 -0.5017 -0.0247
  234MPD1     H 3554   2.541   1.217   8.627  0.0002  1.5586 -0.5204
  234MPD1    H1 3555   2.880   1.289   8.884  0.6989 -2.3285  1.1018
  234MPD1    H2 3556   2.880   0.966   8.612 -1.7682  0.5671 -1.7330
  234MPD1    H3 3557   2.987   1.098   8.782  0.0586  1.6359  1.0167
  234MPD1     N 3558   2.621   1.354   8.838 -0.9719  0.1993  0.0032
  234MPD1    H5 3559   2.524   1.352   8.806 -0.5718  0.8379 -1.1928
  234MPD1    N1 3560   2.650   1.027   8.494  0.3932  0.0139  0.0408
  234MPD1    H6 3561   2.714   0.974   8.435  1.4660  1.3027  0.0572
  234MPD1    H7 3562   2.584   1.073   8.432  0.5462 -0.5615 -0.5483
  235MPD1     C 3563   2.578   0.324   9.834 -0.5380  0.4322  0.0800
  235MPD1    C1 3564   2.698   0.283   9.893 -1.0181 -0.2554 -0.7923
  235MPD1    C2 3565   2.805   0.273   9.814  0.7460 -0.9086 -0.3947
  235MPD1    C3 3566   2.799   0.319   9.681  0.3072 -0.5174  0.2065
  235MPD1    C4 3567   2.682   0.377   9.629  0.1037 -0.4813 -0.4539
  235MPD1    C5 3568   2.570   0.367   9.703  0.0396 -0.7722 -0.5198
  235MPD1     H 3569   2.900   0.231   9.845  1.6945  0.9040 -0.8448
  235MPD1    H1 3570   2.679   0.410   9.526  1.2373  1.3339  0.1067
  235MPD1    H2 3571   2.496   0.323   9.905 -0.8388 -1.7178 -0.2694
  235MPD1    H3 3572   2.472   0.405   9.679  0.1814 -0.4622 -0.6000
  235MPD1     N 3573   2.918   0.320   9.603  0.4380 -0.2814 -0.8952
  235MPD1    H5 3574   2.998   0.282   9.652 -0.4487 -0.0100  0.7474
  235MPD1    N1 3575   2.694   0.226  10.019 -0.9269 -0.3148 -0.0775
  235MPD1    H6 3576   2.618   0.273  10.069  0.3852  1.3799  0.3214
  235MPD1    H7 3577   2.783   0.230  10.069 -1.1054  0.2905  0.1889
  236MPD1     C 3578   2.821   0.885   9.331  0.6119  0.9122 -0.5033
  236MPD1    C1 3579   2.846   0.762   9.394  0.3466  0.0199 -0.6339
  236MPD1    C2 3580   2.960   0.741   9.468 -0.1909 -0.0267  0.0396
  236MPD1    C3 3581   3.068   0.836   9.465 -0.4712 -0.2452  0.0569
  236MPD1    C4 3582   3.048   0.957   9.391 -0.4887  0.6582  0.6823
  236MPD1    C5 3583   2.928   0.976   9.325  0.4797  0.9728  0.2193
  236MPD1     H 3584   2.973   0.648   9.522  0.2304 -0.5902 -1.0188
  236MPD1    H1 3585   3.123   1.035   9.380  1.5838 -0.8970  3.7241
  236MPD1    H2 3586   2.735   0.906   9.269 -0.1037  1.2381  0.6046
  236MPD1    H3 3587   2.906   1.075   9.285  1.0827  1.3564  0.8305
  236MPD1     N 3588   3.198   0.820   9.533 -0.1393  0.0984  0.4496
  236MPD1    H5 3589   3.250   0.908   9.534 -0.4536  0.2775  2.1189
  236MPD1    N1 3590   2.741   0.670   9.407 -0.7640  0.4517  0.2656
  236MPD1    H6 3591   2.779   0.577   9.420  0.4251  0.5719 -2.4479
  236MPD1    H7 3592   2.674   0.666   9.331 -0.8225  2.5814  0.1959
  237MPD1     C 3593   2.944   3.776  15.572  0.0677 -0.3601  0.4477
  237MPD1    C1 3594   2.885   3.696  15.656 -0.4381  0.1263  0.2188
  237MPD1    C2 3595   2.747   3.675  15.660  0.3852 -0.0988 -0.5073
  237MPD1    C3 3596   2.663   3.725  15.563  0.3824  0.3146 -0.1574
  237MPD1    C4 3597   2.732   3.801  15.467  0.3815  0.1651  0.7794
  237MPD1    C5 3598   2.865   3.827  15.478  0.5942  0.6994 -0.3131
  237MPD1     H 3599   2.710   3.602  15.731  2.1954 -0.3597  0.1666
  237MPD1    H1 3600   2.676   3.858  15.394  0.2434 -0.5366  0.3382
  237MPD1    H2 3601   3.051   3.781  15.557 -0.0083  1.1757  0.4746
  237MPD1    H3 3602   2.905   3.889  15.398  1.1235 -2.0677 -2.1759
  237MPD1     N 3603   2.528   3.682  15.538 -0.5307 -0.5342  0.3137
  237MPD1    H5 3604   2.475   3.735  15.469 -1.4506 -0.6122  0.9495
  237MPD1    N1 3605   2.946   3.633  15.765 -0.6390  0.0443  0.1225
  237MPD1    H6 3606   3.036   3.587  15.752 -0.3064  1.2365 -1.8062
  237MPD1    H7 3607   2.886   3.559  15.800  1.0025 -1.4037 -0.1483
  238MPD1     C 3608   0.396   2.512  14.371 -0.2025  0.4684  0.0529
  238MPD1    C1 3609   0.385   2.420  14.266 -1.6650 -0.7485 -0.3666
  238MPD1    C2 3610   0.265   2.369  14.235 -0.4748 -0.0086  0.7330
  238MPD1    C3 3611   0.150   2.392  14.323 -0.1885  0.0324 -0.5280
  238MPD1    C4 3612   0.164   2.483  14.428  0.2779  0.4068 -0.1347
  238MPD1    C5 3613   0.286   2.542  14.449  0.5976  0.3649 -0.0043
  238MPD1     H 3614   0.254   2.295  14.157 -2.7067  2.5168 -1.3527
  238MPD1    H1 3615   0.080   2.495  14.496 -0.1023  1.0098 -0.7116
  238MPD1    H2 3616   0.482   2.567  14.408 -0.1238  1.3279 -1.4285
  238MPD1    H3 3617   0.294   2.619  14.525  1.3910 -1.7656  2.0426
  238MPD1     N 3618   0.038   2.317  14.323 -0.3336  0.9972 -0.0185
  238MPD1    H5 3619   4.688   2.349  14.388  0.7179  1.5145  0.8715
  238MPD1    N1 3620   0.489   2.400  14.179  0.7007  0.3711  0.2523
  238MPD1    H6 3621   0.486   2.314  14.124  1.3449  0.2875  0.3526
  238MPD1    H7 3622   0.574   2.396  14.234  1.2904 -2.0977 -0.8383
  239MPD1     C 3623   0.109   3.559  14.750  0.1007  0.2122  0.1752
  239MPD1    C1 3624   0.145   3.476  14.643 -0.0136  0.7844 -0.1911
  239MPD1    C2 3625   0.075   3.507  14.530 -1.3604  0.1605 -0.8378
  239MPD1    C3 3626   4.700   3.605  14.526  0.5417 -0.3136 -0.0230
  239MPD1    C4 3627   4.670   3.681  14.633 -0.3866 -0.0248 -0.3549
  239MPD1    C5 3628   0.014   3.657  14.753 -0.5774  0.2211 -0.3631
  239MPD1     H 3629   0.088   3.459  14.434  2.0283  0.4283 -0.4915
  239MPD1    H1 3630   4.599   3.763  14.636  0.0018  0.3262 -0.7878
  239MPD1    H2 3631   0.167   3.548  14.841 -2.0810 -1.2378  1.4086
  239MPD1    H3 3632   4.705   3.717  14.838 -1.8576 -1.0365  0.0796
  239MPD1     N 3633   4.626   3.628  14.406 -0.5435  0.2228 -0.1401
  239MPD1    H5 3634   4.545   3.689  14.414 -0.4063  0.8931 -3.4952
  239MPD1    N1 3635   0.257   3.401  14.638 -0.5142 -0.1021 -0.7167
  239MPD1    H6 3636   0.248   3.325  14.571  2.6554 -0.4465 -0.7428
  239MPD1    H7 3637   0.267   3.364  14.732  0.3705  1.2047 -0.2934
  240MPD1     C 3638   3.837   3.533  13.396 -0.3028 -0.3079  0.3503
  240MPD1    C1 3639   3.795   3.539  13.524 -0.0706 -0.1782 -0.2925
  240MPD1    C2 3640   3.844   3.453  13.619  0.6227  0.1178 -0.3831
  240MPD1    C3 3641   3.951   3.371  13.584 -0.3825  0.0029  0.5375
  240MPD1    C4 3642   4.007   3.374  13.459  0.1027  0.2864  0.9869
  240MPD1    C5 3643   3.942   3.441  13.358  0.3854 -1.0567  0.3137
  240MPD1     H 3644   3.802   3.464  13.718 -1.3250 -1.3225 -1.0440
  240MPD1    H1 3645   4.090   3.312  13.425 -0.5363  0.5108 -0.9489
  240MPD1    H2 3646   3.799   3.597  13.317 -0.5697 -1.1244 -0.1821
  240MPD1    H3 3647   3.974   3.429  13.255  3.0661  3.1059  0.6240
  240MPD1     N 3648   3.998   3.280  13.682 -0.2155  0.6842  0.0264
  240MPD1    H5 3649   3.953   3.273  13.773 -1.7474 -0.9499 -0.8716
  240MPD1    N1 3650   3.686   3.619  13.556  0.0607  0.4368  0.8503
  240MPD1    H6 3651   3.698   3.662  13.648  1.2655 -0.0938  0.9371
  240MPD1    H7 3652   3.682   3.697  13.491  1.6277 -0.6568 -0.5583
  241MPD1     C 3653   0.098   2.829  14.275  0.0200  0.4848 -0.9510
  241MPD1    C1 3654   0.102   2.850  14.132 -0.4310 -0.5891 -0.0658
  241MPD1    C2 3655   4.707   2.894  14.062 -0.5246 -0.9759  0.0009
  241MPD1    C3 3656   4.588   2.890  14.133  0.3143  0.4481 -0.3695
  241MPD1    C4 3657   4.584   2.857  14.267  0.6424  0.9205  0.4298
  241MPD1    C5 3658   4.699   2.837  14.343  0.4335 -0.3117 -0.2273
  241MPD1     H 3659   4.709   2.927  13.959  0.7062 -2.6866 -0.5164
  241MPD1    H1 3660   4.490   2.863  14.320 -0.6661 -4.0211 -1.2820
  241MPD1    H2 3661   0.191   2.823  14.330 -0.2384  1.2945 -0.4309
  241MPD1    H3 3662   4.693   2.815  14.449  0.9776 -0.8267 -0.3051
  241MPD1     N 3663   4.464   2.928  14.077  0.0187 -0.1662 -0.6218
  241MPD1    H5 3664   4.386   2.914  14.140  0.4844  0.9446  0.2097
  241MPD1    N1 3665   0.226   2.860  14.070 -0.6430  0.0444 -0.0456
  241MPD1    H6 3666   0.222   2.823  13.975  2.4204 -0.4305  0.0261
  241MPD1    H7 3667   0.289   2.797  14.118  0.0895  0.6223 -0.2385
  242MPD1     C 3668   3.784   1.989  15.628  0.5171  1.1059  0.5253
  242MPD1    C1 3669   3.703   1.917  15.546 -0.4409 -0.2244  0.2620
  242MPD1    C2 3670   3.718   1.780  15.532 -0.0413  0.5346  0.0908
  242MPD1    C3 3671   3.821   1.724  15.602 -0.0319 -0.3415  0.1393
  242MPD1    C4 3672   3.897   1.798  15.690 -0.3216 -0.1496  0.2125
  242MPD1    C5 3673   3.877   1.930  15.706 -0.4339 -0.5948 -0.5281
  242MPD1     H 3674   3.672   1.730  15.447  0.1598  0.1811  0.1916
  242MPD1    H1 3675   3.987   1.758  15.736 -0.7554 -1.4996 -0.0946
  242MPD1    H2 3676   3.779   2.097  15.633 -0.5967  1.0330  1.0205
  242MPD1    H3 3677   3.936   1.982  15.780 -0.1992 -0.8108 -0.5622
  242MPD1     N 3678   3.858   1.588  15.587 -0.2832  0.0963  0.5792
  242MPD1    H5 3679   3.933   1.556  15.649 -0.8451 -2.0796  0.1236
  242MPD1    N1 3680   3.631   1.986  15.446  0.5523 -0.7250 -0.0729
  242MPD1    H6 3681   3.595   2.070  15.489  0.5888 -2.0071  2.5039
  242MPD1    H7 3682   3.549   1.936  15.412 -0.6085  1.7679 -0.8674
  243MPD1     C 3683   2.408   0.781  16.647 -0.1376 -0.2848  0.2503
  243MPD1    C1 3684   2.367   0.688  16.557 -0.7072 -0.1967 -0.2348
  243MPD1    C2 3685   2.228   0.650  16.556 -0.4428  0.9317  0.4205
  243MPD1    C3 3686   2.146   0.685  16.656 -0.3732 -0.2406  0.2559
  243MPD1    C4 3687   2.190   0.776  16.753 -0.2114  0.5106 -0.1437
  243MPD1    C5 3688   2.321   0.826  16.744  0.6272  0.3454 -0.1225
  243MPD1     H 3689   2.191   0.583  16.480  1.0492 -0.7112  1.1434
  243MPD1    H1 3690   2.128   0.810  16.835 -1.1275  1.3157 -1.1772
  243MPD1    H2 3691   2.510   0.817  16.648 -0.4785  0.7259 -1.3436
  243MPD1    H3 3692   2.350   0.905  16.811  0.2827 -0.9339  1.5238
  243MPD1     N 3693   2.012   0.650  16.640 -0.0741  0.8389 -0.2179
  243MPD1    H5 3694   1.987   0.605  16.552  3.7884 -1.3214 -0.2058
  243MPD1    N1 3695   2.443   0.661  16.446 -0.3621 -0.7828  0.4300
  243MPD1    H6 3696   2.542   0.666  16.471 -0.0016  0.6519 -1.3756
  243MPD1    H7 3697   2.411   0.577  16.397 -1.9391 -1.3288  2.3685
  244MPD1     C 3698   1.309   1.341  16.686  0.1769  0.0318 -0.0972
  244MPD1    C1 3699   1.435   1.341  16.736  0.0929  0.2431 -0.7184
  244MPD1    C2 3700   1.514   1.220  16.708  0.2537  0.7487 -0.4300
  244MPD1    C3 3701   1.460   1.120  16.623 -0.3767  0.5747  0.3147
  244MPD1    C4 3702   1.339   1.140  16.561  0.2837 -0.0301  0.0105
  244MPD1    C5 3703   1.261   1.247  16.600  0.3651 -0.2261 -0.2389
  244MPD1     H 3704   1.611   1.215  16.757 -0.4520  0.2344  0.9204
  244MPD1    H1 3705   1.288   1.066  16.501  0.2127 -0.3380  0.4522
  244MPD1    H2 3706   1.240   1.418  16.718 -2.1082 -3.3925  3.3468
  244MPD1    H3 3707   1.155   1.248  16.575  0.1555 -0.6934  0.6461
  244MPD1     N 3708   1.542   1.006  16.601  0.2435  0.3488 -0.0842
  244MPD1    H5 3709   1.630   1.009  16.651 -0.8094  2.1051  1.6250
  244MPD1    N1 3710   1.462   1.429  16.842  0.5215  0.0279 -0.5405
  244MPD1    H6 3711   1.563   1.431  16.853  0.5774 -0.7811 -0.9557
  244MPD1    H7 3712   1.410   1.516  16.832 -0.5397 -0.5924 -0.3884
  245MPD1     C 3713   2.117   0.556  13.301  0.2580 -0.6606 -0.2155
  245MPD1    C1 3714   2.120   0.689  13.280 -0.2907  0.1985  0.6141
  245MPD1    C2 3715   2.241   0.747  13.250 -0.0277 -1.0624 -1.0140
  245MPD1    C3 3716   2.358   0.685  13.260 -0.4318 -0.6664  0.6503
  245MPD1    C4 3717   2.351   0.552  13.289 -0.5969 -0.2444  0.5897
  245MPD1    C5 3718   2.233   0.490  13.300 -0.3083  0.1557  0.4474
  245MPD1     H 3719   2.249   0.850  13.216  1.5009 -0.5692  0.8549
  245MPD1    H1 3720   2.436   0.484  13.286 -0.3315 -0.0101  2.6558
  245MPD1    H2 3721   2.024   0.502  13.320  1.1141 -2.2040 -0.4210
  245MPD1    H3 3722   2.230   0.382  13.313 -0.7406  0.1454  0.2780
  245MPD1     N 3723   2.480   0.758  13.243  0.7647  0.0789 -0.5273
  245MPD1    H5 3724   2.483   0.858  13.232  1.1976 -0.1481 -2.3964
  245MPD1    N1 3725   1.993   0.754  13.253  0.2051 -0.3626  0.4681
  245MPD1    H6 3726   1.996   0.850  13.285  3.0374 -1.3706  3.2608
  245MPD1    H7 3727   1.913   0.721  13.305  0.4114  0.8836  1.5754
  246MPD1     C 3728   3.739   2.054   7.942 -0.2217 -0.0039  0.0781
  246MPD1    C1 3729   3.806   2.095   8.054 -0.3253  0.0693  0.1175
  246MPD1    C2 3730   3.921   2.013   8.086  0.2491 -0.1969  0.0424
  246MPD1    C3 3731   3.970   1.925   7.993  0.2658  0.2589  0.4740
  246MPD1    C4 3732   3.903   1.894   7.878 -0.1265  0.0593 -0.1743
  246MPD1    C5 3733   3.783   1.943   7.865  0.0810  0.0153 -0.6706
  246MPD1     H 3734   3.983   2.034   8.173  0.1913 -3.2135  0.7997
  246MPD1    H1 3735   3.929   1.807   7.819  0.1855 -2.4085  3.6181
  246MPD1    H2 3736   3.646   2.105   7.921 -0.2739 -1.3015 -2.7670
  246MPD1    H3 3737   3.717   1.924   7.781  1.0799 -1.4193 -1.1223
  246MPD1     N 3738   4.089   1.853   8.031  0.3423 -0.5173 -0.5259
  246MPD1    H5 3739   4.141   1.866   8.116 -0.5755  2.8518 -0.4792
  246MPD1    N1 3740   3.736   2.170   8.151  0.0944 -0.1109 -0.0749
  246MPD1    H6 3741   3.687   2.248   8.108 -0.5959 -0.9889 -0.8761
  246MPD1    H7 3742   3.808   2.207   8.213 -0.4180  0.7446  0.0054
  247MPD1     C 3743   1.439   0.114  15.774 -0.4118 -0.1151  0.9276
  247MPD1    C1 3744   1.501   0.229  15.811  0.1663 -0.7522 -0.9857
  247MPD1    C2 3745   1.639   0.235  15.814 -0.9500 -0.0110  0.7636
  247MPD1    C3 3746   1.718   0.137  15.760 -0.3776  0.3647  0.8625
  247MPD1    C4 3747   1.647   0.026  15.714 -0.0497  0.7434  0.5791
  247MPD1    C5 3748   1.511   0.008  15.727 -0.4023 -0.6615 -0.4715
  247MPD1     H 3749   1.673   0.328  15.859  0.0742  0.6208 -1.3073
  247MPD1    H1 3750   1.698   4.666  15.663 -2.2227  1.7233 -3.1805
  247MPD1    H2 3751   1.332   0.101  15.774 -0.4559  0.2655  0.4536
  247MPD1    H3 3752   1.468   4.647  15.671  0.0250 -2.1303  1.3774
  247MPD1     N 3753   1.864   0.128  15.765 -0.8386 -0.2418 -0.1428
  247MPD1    H5 3754   1.911   0.046  15.729 -1.5432 -1.2384  1.1881
  247MPD1    N1 3755   1.421   0.345  15.829  0.7459 -0.5003 -0.4309
  247MPD1    H6 3756   1.445   0.400  15.912  1.3383  0.9349 -1.5553
  247MPD1    H7 3757   1.323   0.317  15.839  0.6258 -0.1883 -0.7239
  248MPD1     C 3758   3.570   2.365   1.380  0.3142 -0.6943 -0.9595
  248MPD1    C1 3759   3.670   2.277   1.422  0.0027 -0.0583  0.3599
  248MPD1    C2 3760   3.682   2.148   1.374 -0.1090  0.0790  0.9717
  248MPD1    C3 3761   3.582   2.101   1.285 -0.9529 -0.2958 -0.0422
  248MPD1    C4 3762   3.481   2.189   1.252 -0.0624  0.4477 -0.3042
  248MPD1    C5 3763   3.468   2.313   1.302  0.7079  0.5884  0.4526
  248MPD1     H 3764   3.760   2.088   1.419 -0.1569 -2.0445 -1.7827
  248MPD1    H1 3765   3.398   2.159   1.189 -0.4394 -0.2541  0.5356
  248MPD1    H2 3766   3.564   2.465   1.422  1.4596 -0.2121 -1.9578
  248MPD1    H3 3767   3.379   2.374   1.287  1.5076  3.0165  5.3918
  248MPD1     N 3768   3.603   1.971   1.224  0.0166  0.3650 -0.5214
  248MPD1    H5 3769   3.687   1.917   1.243 -0.6879 -0.2059  0.9442
  248MPD1    N1 3770   3.777   2.325   1.504  0.6180  0.8538 -0.2762
  248MPD1    H6 3771   3.809   2.252   1.568 -1.5843  1.7147  1.8441
  248MPD1    H7 3772   3.741   2.400   1.563 -1.1472  0.3633 -0.7205
  249MPD1     C 3773   2.854   3.294  10.775 -0.0749 -0.4416  0.6689
  249MPD1    C1 3774   2.815   3.288  10.643 -0.6980 -0.1068 -0.2693
  249MPD1    C2 3775   2.921   3.287  10.541 -0.4112  0.4131  0.3436
  249MPD1    C3 3776   3.050   3.314  10.574 -0.1862  0.5753 -0.6058
  249MPD1    C4 3777   3.067   3.358  10.705 -0.5106  0.2108  0.3137
  249MPD1    C5 3778   2.980   3.336  10.807 -0.3321 -0.2890 -0.1525
  249MPD1     H 3779   2.893   3.273  10.437  0.4980 -1.6299  0.3823
  249MPD1    H1 3780   3.160   3.395  10.748 -0.8039 -1.5196  2.4167
  249MPD1    H2 3781   2.785   3.285  10.858  1.7246  0.7113  2.2812
  249MPD1    H3 3782   3.010   3.347  10.910 -0.1515 -1.7941 -0.0533
  249MPD1     N 3783   3.150   3.311  10.478  0.1659  0.0303  0.2890
  249MPD1    H5 3784   3.128   3.289  10.381  2.9244  0.3478 -0.4350
  249MPD1    N1 3785   2.690   3.241  10.609 -0.0823  0.0292  0.4297
  249MPD1    H6 3786   2.615   3.283  10.664 -0.0552 -0.1384  0.5934
  249MPD1    H7 3787   2.669   3.270  10.514  3.2999  1.4341  0.1070
  250MPD2     C 3788   0.758   4.290  13.220 -0.7704  0.9959 -0.1991
  250MPD2    C1 3789   0.736   4.286  13.089 -0.0211 -0.1344 -0.3731
  250MPD2    C2 3790   0.637   4.208  13.035 -0.4276  0.5475  0.2759
  250MPD2    C3 3791   0.554   4.142  13.127 -1.0019  0.0186  0.0045
  250MPD2    C4 3792   0.579   4.147  13.266  0.0870 -0.3623 -0.3696
  250MPD2    C5 3793   0.678   4.228  13.314 -0.0608 -0.8296  0.1793
  250MPD2     H 3794   0.624   4.195  12.928 -0.4050 -0.9997  0.4582
  250MPD2    H1 3795   0.516   4.106  13.344 -1.1921 -0.3781 -1.4044
  250MPD2    H2 3796   0.844   4.341  13.260  0.1247 -0.2312 -0.5713
  250MPD2    H3 3797   0.692   4.245  13.420 -1.7608  2.6921 -0.1537
  250MPD2     N 3798   0.444   4.061  13.084  0.2039 -0.1463  0.1846
  250MPD2    H5 3799   0.386   4.017  13.154 -0.9015 -1.0099 -1.2896
  250MPD2    N1 3800   0.832   4.358  13.011  0.3228  0.1264 -0.3425
  250MPD2    H7 3801   0.885   4.426  13.063  0.0950  0.5210 -0.6289
  251TMC3    C1 3802   0.909   4.484  12.821  0.2485  0.3743  0.0940
  251TMC3    C2 3803   0.977   4.568  12.909 -0.4614  0.8842 -0.3587
  251TMC3    C3 3804   1.016   4.689  12.859  0.3956 -0.2120  0.0162
  251TMC3    C4 3805   0.911   4.514  12.682  0.2106 -1.1963 -0.3913
  251TMC3    C5 3806   0.988   4.612  12.638  0.3115  0.0603 -0.4777
  251TMC3    C6 3807   1.035   4.705  12.727 -0.3776  0.3357 -0.0155
  251TMC3     C 3808   0.834   4.370  12.875  0.2259  0.2186  0.1971
  251TMC3     O 3809   0.757   4.319  12.790  0.3684 -0.0273 -0.2247
  251TMC3     H 3810   0.986   4.544  13.014  0.6849 -1.2738 -0.9556
  251TMC3    H1 3811   0.851   4.454  12.614 -1.0681 -0.0948 -0.2357
  251TMC3    H2 3812   1.082   0.073  12.686  3.3592 -1.8138 -0.4445
  251TMC3    C7 3813   0.981   4.647  12.499 -0.0388 -0.6675 -0.0625
  251TMC3    C8 3814   0.931   0.069  12.910 -0.5523  0.4703  0.0989
  251TMC3    O1 3815   0.958   0.047  12.479 -0.0134  0.4176  0.0936
  251TMC3    O2 3816   0.853   0.032  12.996 -0.5181  0.4608  0.1255
  252TMC3    C1 3817   1.717   4.257   8.654  0.1067 -0.2752  0.4775
  252TMC3    C2 3818   1.832   4.313   8.700 -0.0171  0.4664  0.2458
  252TMC3    C3 3819   1.847   4.330   8.836  0.4115  0.0632  0.2161
  252TMC3    C4 3820   1.616   4.227   8.741  0.8263 -0.2909 -0.3514
  252TMC3    C5 3821   1.643   4.234   8.879  0.3239 -0.1241  0.4298
  252TMC3    C6 3822   1.757   4.286   8.931 -0.1318 -0.5092 -0.0391
  252TMC3     C 3823   1.714   4.225   8.515  0.3112  0.2361 -0.6652
  252TMC3     O 3824   1.801   4.266   8.441  0.3049  0.4737  0.3387
  252TMC3     H 3825   1.919   4.336   8.639 -0.6965  0.4030 -0.7316
  252TMC3    H1 3826   1.512   4.215   8.714  0.7005 -0.4788  0.2239
  252TMC3    H2 3827   1.763   4.280   9.039 -1.0901  0.3567  0.0563
  252TMC3    C7 3828   1.541   4.193   8.972 -0.2520 -0.0304  0.2528
  252TMC3    C8 3829   1.974   4.374   8.889 -0.1299 -0.2486  0.0344
  252TMC3    O1 3830   1.429   4.228   8.944 -0.0975  0.2712  0.1688
  252TMC3    O2 3831   2.073   4.325   8.834  0.0462 -0.1173 -0.3006
  253MPD2     C 3832   2.397   3.995  15.738 -0.6373 -0.2160 -0.8437
  253MPD2    C1 3833   2.270   3.942  15.776 -0.4115 -0.0977  0.5483
  253MPD2    C2 3834   2.272   3.825  15.852  0.3592  0.4035  0.1642
  253MPD2    C3 3835   2.388   3.773  15.901 -0.0186  0.9626  0.0937
  253MPD2    C4 3836   2.506   3.834  15.870 -0.5081 -0.5832  0.8331
  253MPD2    C5 3837   2.510   3.944  15.790  0.2089 -0.6029 -0.2822
  253MPD2     H 3838   2.173   3.782  15.860  0.4695  0.4224  1.5300
  253MPD2    H1 3839   2.603   3.811  15.912 -0.1413 -0.8377 -0.1479
  253MPD2    H2 3840   2.419   4.071  15.664 -0.3332  2.5788  2.1265
  253MPD2    H3 3841   2.608   3.982  15.761  0.6403 -1.1074  0.4996
  253MPD2     N 3842   2.394   3.650  15.971 -0.2454 -0.7812  0.2638
  253MPD2    H5 3843   2.486   3.633  16.009 -0.2943 -1.1873  0.2057
  253MPD2    N1 3844   2.154   3.990  15.711 -0.3739  0.0201  0.6256
  253MPD2    H7 3845   2.072   3.930  15.713  0.9460 -1.7537  1.8158
  254TMC3    C1 3846   2.333   3.438  16.048  0.1315  0.2430  1.1277
  254TMC3    C2 3847   2.242   3.337  16.048  0.5384 -0.5739 -0.4073
  254TMC3    C3 3848   2.228   3.254  16.158  0.1410  0.1201  0.0428
  254TMC3    C4 3849   2.419   3.455  16.156  0.1420 -0.0626  0.0848
  254TMC3    C5 3850   2.404   3.366  16.267 -0.1566  0.2231  0.9043
  254TMC3    C6 3851   2.312   3.261  16.265 -1.1101  0.0536 -0.2124
  254TMC3     C 3852   2.295   3.552  15.969  0.9576  0.5124  0.3354
  254TMC3     O 3853   2.188   3.546  15.915  0.6264  0.3203  0.2624
  254TMC3     H 3854   2.176   3.331  15.962 -0.5850 -0.9201  0.4806
  254TMC3    H1 3855   2.480   3.542  16.179  1.3929 -0.5668 -1.3239
  254TMC3    H2 3856   2.323   3.188  16.344  0.5461 -0.2304 -0.7111
  254TMC3    C7 3857   2.508   3.362  16.368  0.2858 -0.0399 -0.2447
  254TMC3    C8 3858   2.124   3.152  16.160 -0.1148 -0.3782 -0.0044
  254TMC3    O1 3859   2.499   3.291  16.471  0.5683 -0.3070  0.4539
  254TMC3    O2 3860   2.170   3.051  16.213  0.1193 -0.6805 -0.4025
  255MPD2     C 3861   0.441   0.952  10.584  0.0058  0.0196 -0.0858
  255MPD2    C1 3862   0.484   1.082  10.573 -0.0718 -0.2024 -0.2948
  255MPD2    C2 3863   0.604   1.103  10.519  0.0532  0.6537 -0.2453
  255MPD2    C3 3864   0.683   0.998  10.488  0.4386  0.1266 -0.0845
  255MPD2    C4 3865   0.649   0.865  10.509 -0.2628  0.4450  0.7531
  255MPD2    C5 3866   0.520   0.844  10.552  0.2296  0.3142  0.9533
  255MPD2     H 3867   0.634   1.203  10.491  2.8558  0.0174  0.4868
  255MPD2    H1 3868   0.714   0.780  10.492 -0.4093  0.9961 -2.5725
  255MPD2    H2 3869   0.345   0.920  10.623 -0.7545  3.0530  0.5876
  255MPD2    H3 3870   0.476   0.745  10.557 -1.0100  0.8181 -0.1112
  255MPD2     N 3871   0.798   1.037  10.416 -0.1755 -0.2555 -0.0569
  255MPD2    H5 3872   0.815   1.135  10.398 -0.1912 -0.2694 -0.1496
  255MPD2    N1 3873   0.406   1.199  10.612  0.4142  0.1978 -0.4401
  255MPD2    H7 3874   0.453   1.289  10.609 -2.1586  1.5958  0.2905
  256TMC3    C1 3875   0.207   1.324  10.692 -0.4536  0.0854  0.1131
  256TMC3    C2 3876   0.282   1.427  10.731  0.5863 -0.1094 -0.5295
  256TMC3    C3 3877   0.215   1.540  10.758 -0.2049 -0.5722 -0.5515
  256TMC3    C4 3878   0.069   1.331  10.672 -0.6140  0.3983 -0.5997
  256TMC3    C5 3879   0.006   1.451  10.695  0.0346 -0.4007 -0.3437
  256TMC3    C6 3880   0.078   1.556  10.743  0.0171  0.9792 -0.7466
  256TMC3     C 3881   0.273   1.194  10.656  0.2704 -0.2255  0.7335
  256TMC3     O 3882   0.202   1.095  10.633 -0.4638 -0.6066 -0.3638
  256TMC3     H 3883   0.382   1.398  10.762 -0.1660 -0.3235  1.6593
  256TMC3    H1 3884   0.015   1.255  10.618 -0.6349 -0.1950  0.2475
  256TMC3    H2 3885   0.032   1.647  10.781  2.3907  0.6313  2.9539
  256TMC3    C7 3886   4.666   1.494  10.565 -0.5085  1.0521  0.5368
  256TMC3    C8 3887   0.287   1.667  10.758  0.1623 -0.3948 -0.0694
  256TMC3    O1 3888   4.665   1.404  10.481  0.5614 -0.4962  0.0147
  256TMC3    O2 3889   0.229   1.763  10.807 -0.6761  0.0992  0.7077
  257MPD2     C 3890   4.565   4.475  13.248  0.6028 -0.3205 -0.0546
  257MPD2    C1 3891   4.480   4.422  13.153 -0.4772 -0.2598 -0.1541
  257MPD2    C2 3892   4.398   4.316  13.190 -0.4659 -0.5990 -0.2397
  257MPD2    C3 3893   4.408   4.269  13.320 -0.2840  0.2433  0.5321
  257MPD2    C4 3894   4.484   4.331  13.415 -0.1055 -0.2404 -0.0427
  257MPD2    C5 3895   4.554   4.444  13.382  0.6080 -0.6380  0.3085
  257MPD2     H 3896   4.331   4.261  13.125 -0.3513 -0.5161 -0.4297
  257MPD2    H1 3897   4.490   4.302  13.519  1.1012  0.0943 -0.0275
  257MPD2    H2 3898   4.629   4.558  13.220  0.7178 -0.4087 -0.0498
  257MPD2    H3 3899   4.627   4.486  13.450  0.7241 -0.4735  0.0813
  257MPD2     N 3900   4.334   4.146  13.336 -0.4272 -0.1595  0.2401
  257MPD2    H5 3901   4.270   4.116  13.264 -2.5618  1.5277  1.4405
  257MPD2    N1 3902   4.472   4.477  13.023 -0.5002  0.1852  0.4641
  257MPD2    H7 3903   4.511   4.569  13.009  0.2960 -0.2639 -0.2703
  258TMC3    C1 3904   4.268   3.939  13.439 -0.1147  0.3090 -0.2460
  258TMC3    C2 3905   4.299   3.863  13.328  0.5194  0.8553 -0.0549
  258TMC3    C3 3906   4.279   3.724  13.336 -0.3121  0.1236 -0.2751
  258TMC3    C4 3907   4.233   3.877  13.554  0.2223 -0.0613  0.4354
  258TMC3    C5 3908   4.209   3.744  13.558  0.2503  0.4056  0.3762
  258TMC3    C6 3909   4.231   3.665  13.449  0.6187  0.5982 -0.1987
  258TMC3     C 3910   4.329   4.071  13.455 -0.3535 -0.2041  0.4389
  258TMC3     O 3911   4.361   4.105  13.567 -0.0223  0.1622  0.7309
  258TMC3     H 3912   4.339   3.910  13.239 -2.2463 -2.4287 -3.0453
  258TMC3    H1 3913   4.222   3.935  13.645  1.8720 -2.9282  2.4557
  258TMC3    H2 3914   4.216   3.558  13.459  1.0073  0.5766  0.1798
  258TMC3    C7 3915   4.183   3.682  13.684 -0.5972 -0.0769 -0.0716
  258TMC3    C8 3916   4.269   3.647  13.213 -0.8257 -0.1676 -0.1739
  258TMC3    O1 3917   4.112   3.759  13.746  0.2771 -0.1427 -0.1302
  258TMC3    O2 3918   4.182   3.562  13.216 -0.1076 -0.7031  0.7494
  259MPD2     C 3919   3.796   0.580   1.100  0.7254  0.3789  0.0062
  259MPD2    C1 3920   3.860   0.462   1.076  0.1487 -0.5108  0.5766
  259MPD2    C2 3921   3.919   0.445   0.952  0.5523  0.2087 -0.6823
  259MPD2    C3 3922   3.949   0.554   0.872  0.5857  0.0739  0.1146
  259MPD2    C4 3923   3.883   0.676   0.900  0.6490  0.3967 -1.0306
  259MPD2    C5 3924   3.802   0.688   1.008  0.3573  0.2464 -0.6065
  259MPD2     H 3925   3.951   0.345   0.923  0.2927  0.2081 -0.9723
  259MPD2    H1 3926   3.890   0.761   0.833  1.5355  1.4251  0.3616
  259MPD2    H2 3927   3.759   0.596   1.200  0.5043 -2.4559  0.3868
  259MPD2    H3 3928   3.767   0.787   1.034 -1.5050 -0.3753 -0.7476
  259MPD2     N 3929   4.028   0.534   0.754  0.7070  0.2062  0.8993
  259MPD2    H5 3930   4.043   0.440   0.720  0.5585  0.7692 -0.7055
  259MPD2    N1 3931   3.839   0.364   1.179  0.0494 -0.1523  1.2909
  259MPD2    H7 3932   3.798   0.395   1.266  0.8432  1.1603  1.2054
  260TMC3    C1 3933   4.164   0.603   0.571 -0.1621  0.5907 -0.7296
  260TMC3    C2 3934   4.283   0.669   0.548  0.9506 -0.4944  0.5171
  260TMC3    C3 3935   4.367   0.618   0.451 -0.0349 -0.1039 -0.2201
  260TMC3    C4 3936   4.122   0.494   0.498 -0.0953  0.1320  0.3267
  260TMC3    C5 3937   4.205   0.453   0.401 -0.0631  0.1961  0.6307
  260TMC3    C6 3938   4.326   0.510   0.379 -0.1286  0.3681  0.1906
  260TMC3     C 3939   4.083   0.641   0.688  0.5505  0.2443  0.5250
  260TMC3     O 3940   4.103   0.758   0.722 -0.1793  0.0094  0.0807
  260TMC3     H 3941   4.321   0.752   0.606  1.2057 -0.7486  0.7118
  260TMC3    H1 3942   4.020   0.458   0.513 -0.3562  1.7049  2.4199
  260TMC3    H2 3943   4.386   0.490   0.292  0.5275 -0.5718  0.8681
  260TMC3    C7 3944   4.170   0.341   0.320  0.3117  1.0718 -1.1151
  260TMC3    C8 3945   4.511   0.640   0.487 -0.1412  0.1788  0.8691
  260TMC3    O1 3946   4.224   0.329   0.211  0.2957  0.2617 -0.1189
  260TMC3    O2 3947   4.537   0.701   0.586  0.3405  0.3614  0.1332
  261MPD2     C 3948   4.693   3.887  12.390  0.0536  0.2685  0.4706
  261MPD2    C1 3949   0.089   3.939  12.437  0.8120  0.0912 -0.7274
  261MPD2    C2 3950   0.192   3.964  12.346 -0.5332  0.0895  0.5478
  261MPD2    C3 3951   0.168   3.951  12.209  0.0002  0.1500  0.6382
  261MPD2    C4 3952   0.046   3.914  12.164 -0.0108 -0.3714 -0.2581
  261MPD2    C5 3953   4.672   3.881  12.251  0.1615 -0.6583  0.6461
  261MPD2     H 3954   0.294   3.993  12.371 -1.3480  3.0962  0.3836
  261MPD2    H1 3955   0.012   3.895  12.062 -1.2645 -0.7620  0.2291
  261MPD2    H2 3956   4.611   3.859  12.455 -0.0706 -0.5008 -0.0192
  261MPD2    H3 3957   4.576   3.851  12.209 -0.7766  0.8135  1.7479
  261MPD2     N 3958   0.275   3.989  12.123 -0.3466  0.5056  0.6889
  261MPD2    H5 3959   0.353   4.033  12.170  0.6267 -1.0785  0.5863
  261MPD2    N1 3960   0.113   3.944  12.575  0.2024  0.3468 -0.4190
  261MPD2    H7 3961   0.209   3.966  12.598 -0.1724  2.5707 -1.0010
  262TMC3    C1 3962   0.395   4.025  11.928 -0.6009 -0.3004  0.2004
  262TMC3    C2 3963   0.399   4.155  11.946 -0.1612 -0.3448  0.8849
  262TMC3    C3 3964   0.440   4.237  11.839 -0.2672  1.1814  0.4435
  262TMC3    C4 3965   0.433   3.975  11.808  0.4338  0.1052 -0.2756
  262TMC3    C5 3966   0.485   4.052  11.708  1.1861 -0.2459 -0.4855
  262TMC3    C6 3967   0.484   4.185  11.719 -0.2080 -0.3632  0.8573
  262TMC3     C 3968   0.294   3.948  11.994 -0.8086 -0.4329 -1.0201
  262TMC3     O 3969   0.217   3.881  11.925  0.1752 -0.4653  0.0142
  262TMC3     H 3970   0.379   4.205  12.041  1.1673 -0.3334  1.1642
  262TMC3    H1 3971   0.441   3.868  11.791  2.8147  0.4068 -1.0642
  262TMC3    H2 3972   0.525   4.244  11.638  0.4351 -0.6544  0.9653
  262TMC3    C7 3973   0.540   3.982  11.592 -0.1828 -0.0735 -1.0000
  262TMC3    C8 3974   0.412   4.380  11.849 -0.0262 -0.4622 -0.4082
  262TMC3    O1 3975   0.490   3.877  11.560  0.3399  0.4577 -0.9894
  262TMC3    O2 3976   0.477   4.447  11.772 -0.3518  0.0362 -0.2172
  263MPD2     C 3977   1.252   3.358  11.543  0.0683  0.3923  0.4036
  263MPD2    C1 3978   1.269   3.261  11.448  0.1486 -0.9386 -0.3125
  263MPD2    C2 3979   1.337   3.289  11.333 -0.4239 -0.0614  0.0087
  263MPD2    C3 3980   1.375   3.418  11.304 -0.1618 -0.1098 -0.0715
  263MPD2    C4 3981   1.351   3.511  11.402  0.4589  0.2561  0.1881
  263MPD2    C5 3982   1.286   3.487  11.518  0.1692 -0.2866 -0.2217
  263MPD2     H 3983   1.349   3.215  11.255 -0.3342  2.2742 -2.1777
  263MPD2    H1 3984   1.375   3.616  11.391  0.7265  0.3235  1.4139
  263MPD2    H2 3985   1.202   3.341  11.638  2.4299 -1.8151  1.2754
  263MPD2    H3 3986   1.264   3.561  11.594  1.8691  1.1633 -1.1363
  263MPD2     N 3987   1.442   3.452  11.187 -0.2188  0.1369 -0.4963
  263MPD2    H5 3988   1.460   3.381  11.117 -2.7682 -0.9878 -0.0179
  263MPD2    N1 3989   1.222   3.132  11.483  0.8983  0.7066  0.4188
  263MPD2    H7 3990   1.176   3.129  11.574 -1.3426  0.0899 -0.7458
  264TMC3    C1 3991   1.553   3.589  11.024 -0.4094 -0.0637  0.2301
  264TMC3    C2 3992   1.589   3.714  10.993 -0.9816  0.0790 -0.4799
  264TMC3    C3 3993   1.652   3.747  10.873 -0.1761 -0.3823  0.3782
  264TMC3    C4 3994   1.600   3.489  10.955 -0.5051 -0.7183  0.2714
  264TMC3    C5 3995   1.642   3.516  10.828  0.0163 -0.1275 -0.8603
  264TMC3    C6 3996   1.681   3.640  10.786 -0.3694  0.2827  0.2988
  264TMC3     C 3997   1.481   3.577  11.149  0.4242 -0.1924  0.8327
  264TMC3     O 3998   1.438   3.684  11.193  0.2737 -0.6771 -0.4777
  264TMC3     H 3999   1.539   3.797  11.042 -2.2076 -0.0738 -1.4747
  264TMC3    H1 4000   1.577   3.388  10.988  2.8463 -2.0846 -1.5861
  264TMC3    H2 4001   1.714   3.655  10.684 -3.7896 -0.0575 -0.8491
  264TMC3    C7 4002   1.668   3.417  10.722  0.0239 -0.2904  0.6655
  264TMC3    C8 4003   1.756   3.848  10.876  0.3597 -0.0775 -0.3667
  264TMC3    O1 4004   1.745   3.443  10.631  0.0216 -0.0297  0.3479
  264TMC3    O2 4005   1.851   3.830  10.796 -0.2402 -0.0625 -0.3633
  265MPD2     C 4006   3.333   3.628  15.424 -0.0640 -0.2472  0.1845
  265MPD2    C1 4007   3.376   3.718  15.334  0.6276  0.1105 -0.1259
  265MPD2    C2 4008   3.427   3.678  15.208 -0.3598 -0.3487  0.3509
  265MPD2    C3 4009   3.451   3.547  15.185  0.0795  0.3818  0.4164
  265MPD2    C4 4010   3.405   3.449  15.277  0.1750 -0.4709 -0.0009
  265MPD2    C5 4011   3.341   3.492  15.390 -0.0342 -0.7372 -0.2805
  265MPD2     H 4012   3.466   3.755  15.142  2.5204  0.5420  3.1077
  265MPD2    H1 4013   3.410   3.343  15.253  2.0749 -1.1526  3.4251
  265MPD2    H2 4014   3.296   3.659  15.521 -1.1685 -1.5563  0.1775
  265MPD2    H3 4015   3.299   3.411  15.449 -3.3517 -0.6949 -2.5750
  265MPD2     N 4016   3.514   3.496  15.071  0.5327  0.8154  0.2506
  265MPD2    H5 4017   3.542   3.399  15.063  0.8833  0.7185  2.7347
  265MPD2    N1 4018   3.367   3.852  15.379  0.2274 -0.0181 -0.0756
  265MPD2    H7 4019   3.337   3.866  15.475  0.6107  0.1890  0.0135
  266TMC3    C1 4020   3.367   4.084  15.385  0.1676 -0.2271  0.0970
  266TMC3    C2 4021   3.327   4.080  15.522  0.1956  0.4554 -0.5647
  266TMC3    C3 4022   3.303   4.199  15.581  0.4558  0.3941  0.1283
  266TMC3    C4 4023   3.378   4.205  15.316  0.4497 -0.3268  0.0589
  266TMC3    C5 4024   3.335   4.320  15.381  0.0822 -0.3240  0.3118
  266TMC3    C6 4025   3.308   4.319  15.519  0.0492  0.2153  0.2362
  266TMC3     C 4026   3.392   3.961  15.303 -0.1770 -0.7739  0.0736
  266TMC3     O 4027   3.410   3.978  15.184 -0.1138 -0.0998 -0.4003
  266TMC3     H 4028   3.305   3.991  15.580 -2.7287  1.1702 -0.5715
  266TMC3    H1 4029   3.406   4.207  15.211 -1.2820  0.2200 -0.3873
  266TMC3    H2 4030   3.312   4.411  15.578  1.1356 -0.3492  1.0547
  266TMC3    C7 4031   3.353   4.445  15.317 -0.0944  0.1976  0.3925
  266TMC3    C8 4032   3.255   4.201  15.719 -0.7133 -0.5636 -0.6408
  266TMC3    O1 4033   3.449   4.439  15.245  0.7334  0.3621  0.2075
  266TMC3    O2 4034   3.170   4.121  15.739 -0.8718  0.1591 -0.4642
  267MPD2     C 4035   2.007   0.333  17.679  0.1553 -0.5606 -0.2458
  267MPD2    C1 4036   1.988   0.408  17.563  0.6876  0.5949 -0.2795
  267MPD2    C2 4037   1.893   0.364  17.467  0.6504 -0.8054  0.2791
  267MPD2    C3 4038   1.810   0.261  17.500  0.2289  0.3139 -0.1475
  267MPD2    C4 4039   1.831   0.193  17.620  0.0419 -0.2953 -0.3442
  267MPD2    C5 4040   1.934   0.222   0.020 -0.8530 -0.0742 -0.1877
  267MPD2     H 4041   1.887   0.421  17.375  0.2501 -1.2254  0.0433
  267MPD2    H1 4042   1.775   0.104  17.643 -2.7702  1.0911 -1.8473
  267MPD2    H2 4043   2.086   0.356   0.064 -2.7644  2.7338  1.9384
  267MPD2    H3 4044   1.962   0.164   0.107  0.9614  1.2719  0.1148
  267MPD2     N 4045   1.710   0.214  17.413 -0.4203 -0.2631 -0.8920
  267MPD2    H5 4046   1.639   0.158  17.458 -1.2017  1.0018 -0.5527
  267MPD2    N1 4047   2.072   0.520  17.550  0.3235 -0.0321 -0.4464
  267MPD2    H7 4048   2.137   0.548  17.623  0.4865 -2.1848  0.2431
  268TMC3    C1 4049   2.152   0.725  17.464 -0.4590  0.8684  0.1669
  268TMC3    C2 4050   2.182   0.806  17.358  0.5155  0.2573 -0.3852
  268TMC3    C3 4051   2.251   0.925  17.392  1.2030 -0.4047 -0.0772
  268TMC3    C4 4052   2.198   0.745  17.596  0.0893 -0.4598  0.0969
  268TMC3    C5 4053   2.271   0.856  17.627 -0.5949 -0.6815  0.9579
  268TMC3    C6 4054   2.290   0.949  17.523  0.0204 -0.4844  0.0644
  268TMC3     C 4055   2.067   0.612  17.449  0.6264 -0.5123  0.5697
  268TMC3     O 4056   1.999   0.613  17.347 -0.3480  0.3168 -0.4557
  268TMC3     H 4057   2.173   0.783  17.252  4.1109 -1.1647 -0.3562
  268TMC3    H1 4058   2.153   0.694  17.680  0.3502 -2.0203 -0.7093
  268TMC3    H2 4059   2.356   1.035  17.534 -0.6991 -0.1024  1.3707
  268TMC3    C7 4060   2.297   0.886   0.084 -0.4335  0.0902 -0.6805
  268TMC3    C8 4061   2.289   1.022  17.292  0.2756  0.8623 -0.4435
  268TMC3    O1 4062   2.205   0.844   0.151 -0.1872 -0.5791 -0.5468
  268TMC3    O2 4063   2.366   1.108  17.336 -1.1408 -0.0023 -0.4384
  269MPD2     C 4064   1.279   4.249  15.575  0.3308 -0.6993 -0.3714
  269MPD2    C1 4065   1.151   4.296  15.568 -1.5243  0.1508  0.0296
  269MPD2    C2 4066   1.141   4.422  15.532 -0.8090  0.3051 -0.3564
  269MPD2    C3 4067   1.249   4.505  15.490  0.5529  0.5933  0.7698
  269MPD2    C4 4068   1.372   4.447  15.489  0.6294 -0.1079 -0.0591
  269MPD2    C5 4069   1.385   4.319  15.532  0.0662 -0.5983  0.1347
  269MPD2     H 4070   1.040   4.461  15.537  0.4011  3.6184 -1.3626
  269MPD2    H1 4071   1.464   4.495  15.457 -0.5773  1.9156 -0.4556
  269MPD2    H2 4072   1.297   4.149  15.615 -1.3460 -0.7272  0.3074
  269MPD2    H3 4073   1.480   4.269  15.540  0.3222  0.2839  2.5015
  269MPD2     N 4074   1.233   4.637  15.444  0.5718  0.3413 -0.3795
  269MPD2    H5 4075   1.139   4.674  15.438  0.2250 -0.4875 -0.0694
  269MPD2    N1 4076   1.040   4.209  15.604 -0.5841 -0.6827  0.2624
  269MPD2    H7 4077   1.061   4.113  15.628 -0.4544 -0.5699  0.6053
  270TMC3    C1 4078   0.826   4.113  15.615 -0.3102  0.4700 -0.1848
  270TMC3    C2 4079   0.698   4.114  15.558  0.4206 -0.5876 -0.0106
  270TMC3    C3 4080   0.618   4.003  15.573 -0.1276 -0.0919  0.9761
  270TMC3    C4 4081   0.868   4.011  15.694 -0.6012  0.3632  0.2526
  270TMC3    C5 4082   0.783   3.903  15.715 -0.1588  0.2243 -0.7786
  270TMC3    C6 4083   0.665   3.893  15.645 -0.4308  0.1535  0.3800
  270TMC3     C 4084   0.908   4.233  15.587  0.0495  0.1555  0.2431
  270TMC3     O 4085   0.858   4.331  15.533 -0.0634 -0.1295 -0.1927
  270TMC3     H 4086   0.675   4.189  15.483 -0.3399 -0.5344  0.2718
  270TMC3    H1 4087   0.967   3.998  15.737 -0.0785  0.5332 -0.9120
  270TMC3    H2 4088   0.623   3.794  15.636 -1.7691  0.6024  1.6799
  270TMC3    C7 4089   0.847   3.773  15.752 -0.4346  0.6437  0.1652
  270TMC3    C8 4090   0.556   3.964  15.444  0.5157  0.4093  0.1341
  270TMC3    O1 4091   0.969   3.770  15.735 -0.6937  0.0502 -0.2205
  270TMC3    O2 4092   0.566   4.032  15.342  0.2399  0.1154  0.1010
  271MPD2     C 4093   0.057   4.050  13.869  0.0174  0.3430  0.0945
  271MPD2    C1 4094   0.025   4.036  14.006 -0.2968 -0.8885  0.0233
  271MPD2    C2 4095   4.623   4.083  14.049 -0.3794  0.5689  0.2660
  271MPD2    C3 4096   4.536   4.147  13.970  0.6792  0.7293  0.3801
  271MPD2    C4 4097   4.570   4.160  13.832 -0.9644  0.8591 -0.1413
  271MPD2    C5 4098   4.687   4.100  13.784 -0.4255  0.5225 -0.2203
  271MPD2     H 4099   4.593   4.068  14.152  2.7987 -0.7915  1.0107
  271MPD2    H1 4100   4.508   4.210  13.758 -1.0153 -2.9977 -2.7254
  271MPD2    H2 4101   0.153   4.022  13.826 -0.3858  1.9459 -1.8813
  271MPD2    H3 4102   4.716   4.113  13.681 -1.5565 -0.3678 -0.6525
  271MPD2     N 4103   4.406   4.189  14.012 -0.0889  0.6017  0.0683
  271MPD2    H5 4104   4.341   4.199  13.935 -0.9631  0.1641  0.7471
  271MPD2    N1 4105   0.113   3.972  14.095 -0.7619  0.9463 -0.6910
  271MPD2    H7 4106   0.084   3.974  14.192 -1.0362  3.2858 -0.8348
  272TMC3    C1 4107   0.291   3.836  14.180  0.4298 -0.0211 -0.0592
  272TMC3    C2 4108   0.357   3.719  14.170  0.1715  0.6019  0.0779
  272TMC3    C3 4109   0.385   3.652  14.287 -0.1677 -0.1125 -0.1654
  272TMC3    C4 4110   0.260   3.884  14.302 -0.0616 -0.1906  0.0775
  272TMC3    C5 4111   0.276   3.812  14.416  0.2491  0.5311  0.1805
  272TMC3    C6 4112   0.344   3.694  14.412  0.1105 -0.2794  0.0831
  272TMC3     C 4113   0.228   3.897  14.064 -0.4275  0.4461  0.1697
  272TMC3     O 4114   0.267   3.860  13.956 -0.2552 -0.5633 -0.3172
  272TMC3     H 4115   0.375   3.676  14.072 -1.3505 -0.1928  0.1499
  272TMC3    H1 4116   0.212   3.981  14.310  1.7941  0.6526  0.9146
  272TMC3    H2 4117   0.349   3.632  14.500  1.2618 -0.2898  0.0099
  272TMC3    C7 4118   0.250   3.868  14.545 -0.6629  0.1680 -0.1240
  272TMC3    C8 4119   0.465   3.534  14.269 -0.0193  0.4202  0.1812
  272TMC3    O1 4120   0.165   3.952  14.559  0.3757 -0.6077 -0.1099
  272TMC3    O2 4121   0.504   3.503  14.156  0.2277  0.8180 -0.2594
  273MPD2     C 4122   2.132   1.921  12.090 -0.5785  0.6694  0.2931
  273MPD2    C1 4123   2.203   1.975  11.990  0.0908  0.6173  0.0662
  273MPD2    C2 4124   2.174   1.934  11.863 -0.2500  0.2014  0.0385
  273MPD2    C3 4125   2.067   1.848  11.841  0.0439 -0.7538 -0.1320
  273MPD2    C4 4126   1.987   1.799  11.946 -0.4515  0.2334  0.6089
  273MPD2    C5 4127   2.020   1.846  12.069 -0.8307 -0.1499  0.3604
  273MPD2     H 4128   2.234   1.967  11.780  0.4786  2.3213  1.4075
  273MPD2    H1 4129   1.903   1.731  11.936  1.9540 -2.6622  0.1521
  273MPD2    H2 4130   2.150   1.948  12.194  1.5174  0.9133 -0.1287
  273MPD2    H3 4131   1.959   1.816  12.154 -1.3369 -0.5961 -0.1576
  273MPD2     N 4132   2.041   1.809  11.704 -0.1485  0.6635  0.3772
  273MPD2    H5 4133   2.110   1.843  11.638  0.3309 -1.2016 -0.0772
  273MPD2    N1 4134   2.299   2.074  12.026 -0.0057 -0.3333  0.3645
  273MPD2    H7 4135   2.307   2.093  12.125  0.1773 -1.7312  0.6225
  274TMC3    C1 4136   1.892   1.852  11.531  0.1779 -0.0675  0.6532
  274TMC3    C2 4137   1.795   1.823  11.447  0.2495 -0.1520 -0.5070
  274TMC3    C3 4138   1.764   1.913  11.349 -0.2243  0.4293  0.0364
  274TMC3    C4 4139   1.955   1.979  11.525 -0.6687 -0.0937 -0.0559
  274TMC3    C5 4140   1.906   2.067  11.431  0.5045 -0.2643 -0.1127
  274TMC3    C6 4141   1.803   2.043  11.346 -0.1717 -0.0553 -0.0478
  274TMC3     C 4142   1.914   1.773  11.651 -1.3773  0.0373 -0.4659
  274TMC3     O 4143   1.814   1.725  11.701 -0.2252  0.0109  0.4024
  274TMC3     H 4144   1.755   1.722  11.448  1.7329 -0.7537 -1.5731
  274TMC3    H1 4145   2.027   2.021  11.594  0.8476 -2.2354 -0.3468
  274TMC3    H2 4146   1.776   2.100  11.259 -3.4183  0.5859  1.3758
  274TMC3    C7 4147   1.947   2.205  11.448  0.0291  0.5823 -0.1449
  274TMC3    C8 4148   1.627   1.909  11.299 -0.3396 -0.2540 -0.2233
  274TMC3    O1 4149   2.060   2.214  11.488 -0.2798 -0.1693 -0.1890
  274TMC3    O2 4150   1.566   2.014  11.325  0.1380  0.0115  0.5106
  275MPD2     C 4151   1.705   0.267  14.244 -0.2073 -0.2610  0.6303
  275MPD2    C1 4152   1.693   0.156  14.332  0.7342 -0.7365  0.1631
  275MPD2    C2 4153   1.601   0.061  14.303  0.2501  0.1603  0.2609
  275MPD2    C3 4154   1.506   0.078  14.207  0.6726  0.3665  1.1653
  275MPD2    C4 4155   1.522   0.184  14.118  0.2128  0.6181  0.0204
  275MPD2    C5 4156   1.618   0.275  14.140  0.7988  0.3874  0.8445
  275MPD2     H 4157   1.589   4.713  14.386 -0.4348 -0.7331 -0.5819
  275MPD2    H1 4158   1.445   0.201  14.043 -0.6825  1.4303  1.1415
  275MPD2    H2 4159   1.770   0.352  14.260  1.8273 -1.0498 -3.5045
  275MPD2    H3 4160   1.630   0.363  14.078  0.3049 -0.3164 -0.2318
  275MPD2     N 4161   1.402   4.713  14.180  0.1409 -0.3042 -0.4575
  275MPD2    H5 4162   1.347   0.014  14.098  3.0487 -0.7233 -2.5041
  275MPD2    N1 4163   1.760   0.154  14.455 -0.5902 -0.0903 -0.7349
  275MPD2    H7 4164   1.731   0.080  14.518  0.5982 -0.8193 -1.0328
  276TMC3    C1 4165   1.904   0.224  14.636 -0.0020  0.1544 -0.0901
  276TMC3    C2 4166   1.809   0.189  14.727  0.4210  0.0723 -0.2716
  276TMC3    C3 4167   1.838   0.184  14.862 -0.0890  0.1730 -0.2000
  276TMC3    C4 4168   2.025   0.275  14.678  0.1463  0.1091  0.3786
  276TMC3    C5 4169   2.049   0.284  14.816  0.8749 -0.2049 -0.1799
  276TMC3    C6 4170   1.957   0.237  14.905  0.4212  0.7223  0.0322
  276TMC3     C 4171   1.863   0.238  14.488  0.0175  0.2066 -0.8099
  276TMC3     O 4172   1.936   0.317  14.425  0.5448  0.2381 -0.2765
  276TMC3     H 4173   1.711   0.166  14.687  0.4635 -1.6328  0.6166
  276TMC3    H1 4174   2.092   0.321  14.606 -1.1089  0.2833 -0.6974
  276TMC3    H2 4175   1.997   0.230  15.006  2.0327 -0.4690 -0.6918
  276TMC3    C7 4176   2.167   0.347  14.876 -0.4237 -0.0033 -0.8168
  276TMC3    C8 4177   1.728   0.149  14.945 -0.3518  0.9604 -0.2108
  276TMC3    O1 4178   2.185   0.369  14.994 -0.5378  0.1414  0.4092
  276TMC3    O2 4179   1.616   0.168  14.903  0.0821  0.3000 -0.2276
  277MPD2     C 4180   3.393   4.063  13.282  0.0910 -0.8242  0.5338
  277MPD2    C1 4181   3.265   4.097  13.322  0.3312 -0.2719 -0.0512
  277MPD2    C2 4182   3.213   4.013  13.424  0.1832  0.0739  0.4394
  277MPD2    C3 4183   3.283   3.902  13.479  0.3892 -0.3001  0.9037
  277MPD2    C4 4184   3.417   3.885  13.439 -0.1532 -0.6938 -0.0397
  277MPD2    C5 4185   3.468   3.962  13.344  0.0648  0.9663 -0.0922
  277MPD2     H 4186   3.113   4.027  13.462 -0.6945 -0.4715 -1.6755
  277MPD2    H1 4187   3.478   3.815  13.495  1.5206  0.6413 -0.1951
  277MPD2    H2 4188   3.452   4.122  13.213  0.1056 -1.6583 -0.1799
  277MPD2    H3 4189   3.567   3.938  13.306  0.6687  2.8354  0.2475
  277MPD2     N 4190   3.226   3.841  13.596  0.9123  0.5331  0.3728
  277MPD2    H5 4191   3.144   3.878  13.643 -0.5589 -3.4927  0.9563
  277MPD2    N1 4192   3.197   4.200  13.251  0.4420 -0.8371 -0.5868
  277MPD2    H7 4193   3.239   4.234  13.165  1.2221  1.4708  0.6970
  278TMC3    C1 4194   3.187   3.671  13.757  0.1870  0.0753 -0.4999
  278TMC3    C2 4195   3.169   3.531  13.753 -0.6188  0.6548 -0.2195
  278TMC3    C3 4196   3.083   3.474  13.838  0.3625 -0.5077  0.6194
  278TMC3    C4 4197   3.115   3.753  13.835 -0.0621 -0.9597 -0.1943
  278TMC3    C5 4198   3.036   3.684  13.924  0.3065  0.4356  0.6074
  278TMC3    C6 4199   3.013   3.551  13.941  0.1225 -0.1761 -0.4863
  278TMC3     C 4200   3.264   3.720  13.641  0.8866 -0.0789  0.4152
  278TMC3     O 4201   3.347   3.646  13.593  0.2467 -0.5561 -0.3977
  278TMC3     H 4202   3.229   3.472  13.685  1.1605  0.4210  1.5734
  278TMC3    H1 4203   3.122   3.862  13.837  1.7704 -1.1034  1.4486
  278TMC3    H2 4204   2.978   3.507  14.034  0.6445 -1.1984 -0.7752
  278TMC3    C7 4205   2.998   3.763  14.042 -0.0836 -0.5019  0.8142
  278TMC3    C8 4206   3.082   3.325  13.842  0.2310  0.4290 -0.1150
  278TMC3    O1 4207   3.072   3.846  14.088  0.2065 -0.4100  0.2315
  278TMC3    O2 4208   3.050   3.275  13.949  0.3069  0.3426  0.6876
  279MPD2     C 4209   2.852   4.244   0.834 -0.0567 -0.3184 -0.5154
  279MPD2    C1 4210   2.772   4.173   0.748 -0.7566 -0.3340  0.3958
  279MPD2    C2 4211   2.806   4.177   0.606 -0.5945  0.1832  0.1448
  279MPD2    C3 4212   2.908   4.255   0.559 -0.7634 -0.2004 -0.2261
  279MPD2    C4 4213   2.955   4.352   0.643 -0.1399 -0.6637  0.1187
  279MPD2    C5 4214   2.936   4.339   0.779 -0.4451  0.7987  0.0491
  279MPD2     H 4215   2.757   4.114   0.533  2.0658 -1.0675 -0.5378
  279MPD2    H1 4216   3.022   4.427   0.601  0.9887 -2.3304 -1.0619
  279MPD2    H2 4217   2.833   4.237   0.940 -1.0903  1.2690 -0.5995
  279MPD2    H3 4218   2.991   4.407   0.843  1.9635 -1.0152 -0.0856
  279MPD2     N 4219   2.942   4.262   0.422 -0.2715 -0.5083  0.3318
  279MPD2    H5 4220   2.981   4.352   0.397 -0.0540  0.0299  2.5529
  279MPD2    N1 4221   2.679   4.083   0.803  0.3654  0.3532  0.2808
  279MPD2    H7 4222   2.693   4.057   0.900  2.6834  4.3875  1.0200
  280TMC3    C1 4223   2.521   4.078   0.612 -0.2417  0.2842  0.4544
  280TMC3    C2 4224   2.492   3.994   0.513 -0.9829  0.2140 -0.0567
  280TMC3    C3 4225   2.458   4.048   0.394 -0.2824  0.4900  0.1332
  280TMC3    C4 4226   2.505   4.213   0.606 -0.3803 -0.2380 -0.3001
  280TMC3    C5 4227   2.461   4.259   0.487 -0.0324 -0.2952 -0.0003
  280TMC3    C6 4228   2.437   4.181   0.378  0.1665  0.4005  0.3966
  280TMC3     C 4229   2.580   4.015   0.733  0.0708 -0.2299  0.0924
  280TMC3     O 4230   2.529   3.910   0.773 -0.3930 -0.1346  0.0423
  280TMC3     H 4231   2.508   3.887   0.522  0.3875  0.3457 -0.9231
  280TMC3    H1 4232   2.536   4.275   0.689 -0.8389  0.4631 -0.6521
  280TMC3    H2 4233   2.411   4.213   0.278  3.5533 -0.9886 -0.9368
  280TMC3    C7 4234   2.500   4.396   0.454  0.5229 -0.7658  0.0765
  280TMC3    C8 4235   2.420   3.965   0.285  0.4438  0.6211  0.2932
  280TMC3    O1 4236   2.570   4.454   0.532  0.3690 -0.3481  0.5117
  280TMC3    O2 4237   2.373   4.017   0.183 -0.3757 -0.3502  0.2730
  281TMC3    C1 4238   1.212   4.047  13.056 -0.3330  0.3875 -0.2803
  281TMC3    C2 4239   1.224   4.123  12.943 -0.3300 -0.1189 -0.3596
  281TMC3    C3 4240   1.189   4.073  12.818  0.1338 -0.0124  0.6213
  281TMC3    C4 4241   1.172   3.924  13.050  0.3678  0.2689 -0.7167
  281TMC3    C5 4242   1.127   3.875  12.929  0.6885 -0.2320 -0.2890
  281TMC3    C6 4243   1.137   3.946  12.810 -0.5360 -0.1808 -0.4195
  281TMC3     C 4244   1.173   4.104  13.185  0.4434  0.2289 -0.2834
  281TMC3     O 4245   1.139   4.028  13.274  0.5805  0.1113 -0.4303
  281TMC3     H 4246   1.275   4.219  12.943  1.4115 -1.0332 -1.3573
  281TMC3    H1 4247   1.180   3.863  13.139  2.2333 -0.2284 -1.2194
  281TMC3    H2 4248   1.127   3.895  12.715  1.1004  1.8576 -1.7208
  281TMC3    C7 4249   1.044   3.750  12.931  0.5407  0.3684  0.5668
  281TMC3    C8 4250   1.151   4.180  12.724  0.2405 -0.3892 -0.2047
  281TMC3    O1 4251   1.033   3.681  12.827 -0.1150  0.4056  0.0645
  281TMC3    O2 4252   1.126   4.285  12.778  0.0432  0.2637  0.0949
  282MPD2     C 4253   3.530   0.871  14.894 -0.8747  0.3185  0.3922
  282MPD2    C1 4254   3.443   0.983  14.919  0.0171  0.0630  0.4674
  282MPD2    C2 4255   3.361   1.017  14.817 -0.0760 -0.6269  0.6305
  282MPD2    C3 4256   3.351   0.943  14.699  0.2387 -0.5152 -0.3811
  282MPD2    C4 4257   3.436   0.833  14.675  0.3399  0.5848 -0.1015
  282MPD2    C5 4258   3.524   0.796  14.771  0.0822  0.2281 -0.0688
  282MPD2     H 4259   3.290   1.093  14.846 -1.2384 -2.3764  2.3948
  282MPD2    H1 4260   3.433   0.770  14.587 -0.5254  0.3054  0.1321
  282MPD2    H2 4261   3.596   0.831  14.969  0.1123  1.2235 -0.0009
  282MPD2    H3 4262   3.587   0.708  14.760 -2.4349 -1.7482  1.4479
  282MPD2     N 4263   3.252   0.985  14.608 -0.5365  0.2532  0.3820
  282MPD2    H5 4264   3.210   1.077  14.618 -2.7308 -0.4984 -1.9551
  282MPD2    N1 4265   3.437   1.049  15.043 -0.1762  0.0791  0.2289
  282MPD2    H7 4266   3.356   1.106  15.062  0.4339  1.4440 -1.2853
  283TMC3    C1 4267   3.468   1.058  15.281 -0.7200  0.3868 -0.3561
  283TMC3    C2 4268   3.420   1.191  15.277 -0.3406  0.5912 -0.4082
  283TMC3    C3 4269   3.351   1.243  15.382 -0.2297 -0.1559 -0.1537
  283TMC3    C4 4270   3.445   0.976  15.392  0.7571  0.0496  0.2092
  283TMC3    C5 4271   3.373   1.036  15.491  0.0430  0.1767 -0.2570
  283TMC3    C6 4272   3.320   1.162  15.494 -0.1423  0.0688 -0.1235
  283TMC3     C 4273   3.498   0.993  15.155 -0.5237  0.3481  0.0324
  283TMC3     O 4274   3.588   0.910  15.162  0.4691  0.4303 -0.3448
  283TMC3     H 4275   3.444   1.259  15.196  0.1003  1.2088  0.2407
  283TMC3    H1 4276   3.494   0.880  15.405 -1.1658 -0.7062  1.9362
  283TMC3    H2 4277   3.264   1.198  15.580 -1.7005  0.6498 -1.3643
  283TMC3    C7 4278   3.312   0.961  15.599 -0.1108  0.1853  0.1211
  283TMC3    C8 4279   3.365   1.388  15.422 -0.4442 -0.2471  0.2523
  283TMC3    O1 4280   3.204   0.997  15.646  0.3563  0.4944 -0.4989
  283TMC3    O2 4281   3.356   1.400  15.544  0.1912 -0.1955  0.1291
  284MPD2     C 4282   1.950   0.696  11.353  0.5715  0.6370 -0.0328
  284MPD2    C1 4283   1.996   0.566  11.361  1.1649 -0.3044  0.4152
  284MPD2    C2 4284   1.908   0.473  11.416  0.0690  0.6690 -0.0296
  284MPD2    C3 4285   1.790   0.510  11.478 -0.3531 -0.1591 -0.6549
  284MPD2    C4 4286   1.755   0.642  11.473  0.4054 -0.0606 -0.1538
  284MPD2    C5 4287   1.838   0.738  11.416  0.7926 -0.9847  0.1689
  284MPD2     H 4288   1.958   0.378  11.433 -0.8029  0.5546  1.8903
  284MPD2    H1 4289   1.671   0.673  11.535 -0.4330 -0.0688 -1.2833
  284MPD2    H2 4290   2.016   0.770  11.310 -2.1662  1.6650 -2.4794
  284MPD2    H3 4291   1.812   0.842  11.432 -0.2415 -1.3258  0.6872
  284MPD2     N 4292   1.714   0.431  11.564  0.0497  0.0367  0.5910
  284MPD2    H5 4293   1.641   0.474  11.620 -0.5535 -0.2506  0.0257
  284MPD2    N1 4294   2.124   0.521  11.320  0.1581 -0.2614 -0.8063
  284MPD2    H7 4295   2.138   0.421  11.323  1.8217 -0.0026 -0.3211
  285TMC3    C1 4296   2.369   0.535  11.280  0.4069  0.2138 -0.7223
  285TMC3    C2 4297   2.374   0.411  11.219  0.2217  0.5926 -0.0375
  285TMC3    C3 4298   2.497   0.359  11.199 -0.8862  0.0949  0.4906
  285TMC3    C4 4299   2.477   0.618  11.307 -0.7700 -0.1743  0.3146
  285TMC3    C5 4300   2.603   0.562  11.275  0.1208  0.3389  0.8668
  285TMC3    C6 4301   2.611   0.432  11.225 -0.9035 -0.2351 -0.0525
  285TMC3     C 4302   2.235   0.599  11.291  0.1846  0.1508 -0.6504
  285TMC3     O 4303   2.243   0.721  11.296 -0.3537  0.5565  0.4931
  285TMC3     H 4304   2.280   0.380  11.173  0.0900  0.3455  0.3903
  285TMC3    H1 4305   2.461   0.713  11.357  1.4884  1.1447 -1.4398
  285TMC3    H2 4306   2.711   0.392  11.209 -0.9178 -0.5987  0.7756
  285TMC3    C7 4307   2.733   0.633  11.309 -0.0761 -0.1948  0.6877
  285TMC3    C8 4308   2.500   0.270  11.094  0.5686  0.2661 -0.0826
  285TMC3    O1 4309   2.824   0.557  11.342  0.4970  0.3321 -0.4433
  285TMC3    O2 4310   2.414   0.185  11.107 -0.2609 -0.4908  0.1731
  286MPD2     C 4311   1.734   3.997   1.439  0.0021  0.5950  0.1218
  286MPD2    C1 4312   1.791   3.988   1.313  1.1266  0.4620  0.6736
  286MPD2    C2 4313   1.891   3.895   1.295 -0.4058  0.3524 -0.1623
  286MPD2    C3 4314   1.942   3.818   1.399 -0.1652  0.3732  0.0114
  286MPD2    C4 4315   1.882   3.829   1.519 -0.0708  0.4418  0.3539
  286MPD2    C5 4316   1.779   3.915   1.540 -0.0564 -0.2340  0.2537
  286MPD2     H 4317   1.952   3.896   1.205 -1.1727  0.0872 -0.6882
  286MPD2    H1 4318   1.912   3.770   1.605 -0.1603 -1.2092 -0.7593
  286MPD2    H2 4319   1.652   4.066   1.456  0.1847  0.3612  2.0175
  286MPD2    H3 4320   1.740   3.921   1.641  0.2235  3.3296  0.1440
  286MPD2     N 4321   2.054   3.728   1.384 -0.2808 -0.1614 -0.0767
  286MPD2    H5 4322   2.104   3.709   1.470  0.3013  0.1618 -0.3400
  286MPD2    N1 4323   1.759   4.074   1.204 -0.3084 -0.3710 -0.4255
  286MPD2    H7 4324   1.806   4.059   1.115  0.6800 -0.4153  0.1015
  287TMC3    C1 4325   2.228   3.603   1.289  0.2034 -0.0408  0.5413
  287TMC3    C2 4326   2.267   3.523   1.186  0.8373  0.5463  0.9463
  287TMC3    C3 4327   2.368   3.435   1.210 -0.0011  0.2130 -0.2173
  287TMC3    C4 4328   2.286   3.595   1.409  0.3817  0.0058  0.2223
  287TMC3    C5 4329   2.389   3.506   1.424 -0.3435 -0.2699 -0.4381
  287TMC3    C6 4330   2.437   3.426   1.328  0.2845 -0.1773 -0.4680
  287TMC3     C 4331   2.112   3.696   1.266 -0.5066 -0.3642  0.5518
  287TMC3     O 4332   2.060   3.703   1.154  0.4562  0.3963 -0.8905
  287TMC3     H 4333   2.226   3.546   1.088  1.0367  0.3256  0.8126
  287TMC3    H1 4334   2.257   3.665   1.486 -1.7183  1.7194 -2.1416
  287TMC3    H2 4335   2.531   3.370   1.334  0.0832 -0.6388 -1.6093
  287TMC3    C7 4336   2.456   3.515   1.555 -0.0523  0.7154 -0.3515
  287TMC3    C8 4337   2.408   3.328   1.121  0.0231 -0.2383 -1.0348
  287TMC3    O1 4338   2.414   3.589   1.638  0.2739  0.3289  0.6112
  287TMC3    O2 4339   2.507   3.257   1.148 -0.1381  0.5017 -0.5543
  288TMC3    C1 4340   4.103   2.523  14.492 -0.1154 -0.1360  0.1162
  288TMC3    C2 4341   4.113   2.663  14.488 -0.6317  1.1701 -0.3217
  288TMC3    C3 4342   4.202   2.722  14.403 -0.8178  0.4048  0.4775
  288TMC3    C4 4343   4.188   2.440  14.427 -0.0228 -0.1485  0.2000
  288TMC3    C5 4344   4.285   2.504  14.353 -0.3234  0.5600 -0.1662
  288TMC3    C6 4345   4.292   2.642  14.330 -0.1392 -0.5739 -0.0753
  288TMC3     C 4346   3.989   2.466  14.557  0.5679 -0.4183 -0.1932
  288TMC3     O 4347   3.927   2.545  14.621  0.7129 -0.9235 -0.5159
  288TMC3     H 4348   4.057   2.721  14.561 -1.5825  0.1457 -0.2453
  288TMC3    H1 4349   4.187   2.332  14.438  0.2464 -0.2951 -1.2567
  288TMC3    H2 4350   4.362   2.687  14.260  1.7511  0.0550  2.2010
  288TMC3    C7 4351   4.359   2.429  14.250 -0.0016 -0.2361  0.2419
  288TMC3    C8 4352   4.192   2.862  14.361  1.0135 -0.1351 -0.2903
  288TMC3    O1 4353   4.306   2.325  14.217  0.4167  0.2123 -0.1683
  288TMC3    O2 4354   4.272   2.911  14.287 -0.6770  0.2123 -0.1086
  289MPD2     C 4355   3.938   2.571  14.164 -0.2197 -0.0850 -0.2069
  289MPD2    C1 4356   3.896   2.695  14.134  0.2650 -0.1315 -0.4005
  289MPD2    C2 4357   3.764   2.725  14.150  0.3237 -0.2492 -0.0024
  289MPD2    C3 4358   3.675   2.634  14.205 -0.4752 -0.4735 -0.2840
  289MPD2    C4 4359   3.717   2.510  14.250  0.2351 -0.4122  0.0906
  289MPD2    C5 4360   3.851   2.482  14.225  0.1245 -0.6271 -0.3003
  289MPD2     H 4361   3.730   2.821  14.113  1.5405  0.2021  0.0539
  289MPD2    H1 4362   3.656   2.432  14.294 -0.7808  0.2796 -0.0915
  289MPD2    H2 4363   4.043   2.546  14.154 -0.3711 -0.4491 -0.8453
  289MPD2    H3 4364   3.897   2.389  14.256  0.0256 -0.0525  1.5773
  289MPD2     N 4365   3.537   2.653  14.179  0.0925 -0.1860 -0.3149
  289MPD2    H5 4366   3.523   2.737  14.124  3.0938  0.7800  0.3903
  289MPD2    N1 4367   3.987   2.783  14.071  0.3366  0.2143  0.6108
  289MPD2    H7 4368   4.081   2.746  14.058 -1.1669 -2.9350 -0.9853
  290TMC3    C1 4369   3.373   2.561  14.044 -0.0479 -0.5872  0.5621
  290TMC3    C2 4370   3.403   2.664  13.955 -0.5207  0.0514 -0.3593
  290TMC3    C3 4371   3.340   2.658  13.837  0.1456 -0.4363 -0.1562
  290TMC3    C4 4372   3.283   2.460  14.020  0.0747  0.0504  0.3662
  290TMC3    C5 4373   3.240   2.447  13.895 -0.0390  0.0020 -0.3217
  290TMC3    C6 4374   3.272   2.545  13.802 -0.1785  0.1517  0.0060
  290TMC3     C 4375   3.448   2.551  14.166  0.8201 -0.1428 -0.4808
  290TMC3     O 4376   3.439   2.447  14.233  0.0756  0.0361 -0.4168
  290TMC3     H 4377   3.474   2.744  13.973  0.9058 -0.9512 -1.4597
  290TMC3    H1 4378   3.251   2.393  14.098  0.0875 -2.3956 -1.7308
  290TMC3    H2 4379   3.236   2.536  13.700  1.0391  2.1908 -0.6071
  290TMC3    C7 4380   3.153   2.339  13.850 -0.4371  0.0927  0.2345
  290TMC3    C8 4381   3.350   2.762  13.736  0.0569  0.4828  0.1512
  290TMC3    O1 4382   3.110   2.359  13.739 -0.1382 -0.4147 -0.4382
  290TMC3    O2 4383   3.307   2.739  13.627  0.1750  0.3574  0.4443
  291MPD2     C 4384   4.019   2.477   0.614  0.6515 -0.0262  0.2139
  291MPD2    C1 4385   3.918   2.543   0.547 -0.2496 -0.0714  0.5914
  291MPD2    C2 4386   3.942   2.655   0.472 -0.2650  0.7649  0.1798
  291MPD2    C3 4387   4.071   2.705   0.473 -0.1076 -0.2427 -0.0750
  291MPD2    C4 4388   4.165   2.648   0.559 -0.4425  0.0804  0.1765
  291MPD2    C5 4389   4.140   2.534   0.625  0.5342  0.2565 -0.7467
  291MPD2     H 4390   3.867   2.710   0.416  0.1685 -0.4489 -1.5766
  291MPD2    H1 4391   4.261   2.697   0.571 -0.7583  0.5754  0.7135
  291MPD2    H2 4392   3.993   2.388   0.671  0.6649  0.0182  0.2901
  291MPD2    H3 4393   4.215   2.477   0.679 -0.9747 -1.8418 -0.8797
  291MPD2     N 4394   4.111   2.820   0.395 -0.5320  0.1159  0.1369
  291MPD2    H5 4395   4.195   2.871   0.421  0.6461 -1.1189 -1.2758
  291MPD2    N1 4396   3.785   2.492   0.535  0.1569  0.2490 -0.5035
  291MPD2    H7 4397   3.720   2.551   0.484  0.6463  1.6062  0.4472
  292TMC3    C1 4398   3.610   2.342   0.524 -0.1171 -0.4679  0.0427
  292TMC3    C2 4399   3.529   2.431   0.593  0.1264 -0.6798  0.6488
  292TMC3    C3 4400   3.401   2.393   0.602 -0.7754 -0.4970  0.0963
  292TMC3    C4 4401   3.565   2.233   0.467 -0.6118  0.2762  0.1229
  292TMC3    C5 4402   3.436   2.199   0.470  0.0237 -0.4493  0.0360
  292TMC3    C6 4403   3.349   2.279   0.544  0.1667 -0.1650  0.6463
  292TMC3     C 4404   3.753   2.359   0.534 -0.1640 -0.3566 -0.4495
  292TMC3     O 4405   3.831   2.265   0.535 -0.3028  0.3511 -0.4059
  292TMC3     H 4406   3.582   2.503   0.654  1.2179 -0.2277 -0.8362
  292TMC3    H1 4407   3.636   2.170   0.415 -1.8162  0.3465 -1.6319
  292TMC3    H2 4408   3.248   2.251   0.570  0.6056 -1.3607  1.0626
  292TMC3    C7 4409   3.396   2.080   0.401  0.4296 -0.3185 -1.0584
  292TMC3    C8 4410   3.324   2.476   0.699 -0.0459  0.2836 -0.0390
  292TMC3    O1 4411   3.483   2.012   0.354  0.3068 -0.0903 -0.4980
  292TMC3    O2 4412   3.371   2.587   0.729 -0.2142 -0.1855  0.8488
  293MPD2     C 4413   4.424   4.235  12.304 -0.0759 -0.3318 -0.0497
  293MPD2    C1 4414   4.345   4.166  12.394 -0.6354  0.3027  0.5197
  293MPD2    C2 4415   4.388   4.153  12.526  0.6993  0.7163  0.0564
  293MPD2    C3 4416   4.516   4.201  12.568 -0.9527  0.1938 -0.0574
  293MPD2    C4 4417   4.603   4.253  12.469 -0.5660 -0.4853  0.4401
  293MPD2    C5 4418   4.546   4.278  12.345 -0.3132 -0.2525  0.0131
  293MPD2     H 4419   4.327   4.098  12.597  1.0186 -1.7768 -1.5901
  293MPD2    H1 4420   4.704   4.283  12.494 -0.9849  1.0202  0.3209
  293MPD2    H2 4421   4.390   4.267  12.206 -0.0382 -1.0441 -0.2961
  293MPD2    H3 4422   4.607   4.329  12.272 -0.3333 -0.4846 -0.1673
  293MPD2     N 4423   4.546   4.196  12.706  0.5206  0.1734 -0.1210
  293MPD2    H5 4424   4.475   4.156  12.766  0.4246 -0.3711 -0.6019
  293MPD2    N1 4425   4.217   4.132  12.346 -0.2725  0.2188 -0.2576
  293MPD2    H7 4426   4.185   4.163  12.255  1.0650 -1.0870 -1.1759
  294TMC3    C1 4427   3.995   4.073  12.336  0.0944  0.7012  0.1124
  294TMC3    C2 4428   3.876   4.047  12.396  0.6362  0.1696  0.5948
  294TMC3    C3 4429   3.770   4.002  12.318 -0.3212 -0.1568 -0.0763
  294TMC3    C4 4430   3.995   4.072  12.197  0.2083  0.5053 -0.5972
  294TMC3    C5 4431   3.889   4.038  12.124  0.3759 -0.1151 -0.0259
  294TMC3    C6 4432   3.770   4.003  12.182 -0.3776 -0.5302  0.2219
  294TMC3     C 4433   4.117   4.074  12.416  0.6590 -0.7410  0.1296
  294TMC3     O 4434   4.110   4.065  12.540  0.0510  0.4751 -0.0085
  294TMC3     H 4435   3.861   4.040  12.503 -1.1271 -1.3337  0.2575
  294TMC3    H1 4436   4.088   4.095  12.146 -1.5030  0.5466 -3.7144
  294TMC3    H2 4437   3.690   3.961  12.122 -0.3083  0.4712 -0.5609
  294TMC3    C7 4438   3.912   3.932  12.028  0.3395  0.6337  0.5388
  294TMC3    C8 4439   3.704   3.890  12.383  0.4154 -0.0110 -0.1088
  294TMC3    O1 4440   3.862   3.822  12.059 -0.1587 -0.2723  0.3731
  294TMC3    O2 4441   3.655   3.907  12.493 -0.3763  0.5361 -0.5128
  295MPD2     C 4442   0.521   1.850   0.516 -0.7070  0.5597  1.1083
  295MPD2    C1 4443   0.459   1.943   0.436 -0.6825 -0.1531 -0.0941
  295MPD2    C2 4444   0.383   2.042   0.506  0.1656 -0.4340 -1.1720
  295MPD2    C3 4445   0.387   2.061   0.643 -0.1274 -0.1784  0.8079
  295MPD2    C4 4446   0.442   1.957   0.718  1.0173  0.0071 -0.1252
  295MPD2    C5 4447   0.512   1.860   0.651  0.7757 -0.2516  0.3040
  295MPD2     H 4448   0.346   2.116   0.436 -1.2125  0.0240  0.0639
  295MPD2    H1 4449   0.431   1.941   0.825  0.3659 -1.1354 -0.3671
  295MPD2    H2 4450   0.569   1.760   0.479 -1.3911  0.5021  0.3565
  295MPD2    H3 4451   0.545   1.775   0.712  0.9094 -0.3706  0.0654
  295MPD2     N 4452   0.326   2.168   0.711  0.5951 -0.6847 -0.4978
  295MPD2    H5 4453   0.323   2.152   0.811 -0.8108  0.7827 -0.3129
  295MPD2    N1 4454   0.466   1.935   0.298 -0.7717  0.0679  0.5712
  295MPD2    H7 4455   0.432   2.017   0.248  0.7484 -0.0799 -0.7079
  296TMC3    C1 4456   0.218   2.375   0.747  1.0772 -0.4123 -0.2975
  296TMC3    C2 4457   0.227   2.510   0.716  0.1343  0.3699  0.6085
  296TMC3    C3 4458   0.190   2.600   0.817  0.1604 -0.3301 -0.3952
  296TMC3    C4 4459   0.166   2.336   0.865 -0.2455  0.1181 -0.4248
  296TMC3    C5 4460   0.139   2.426   0.957 -0.2310  1.3971 -0.6781
  296TMC3    C6 4461   0.150   2.559   0.938 -0.3191  0.5908  0.1884
  296TMC3     C 4462   0.281   2.281   0.652 -0.2473  0.3435 -0.9536
  296TMC3     O 4463   0.316   2.319   0.540  0.2022 -0.4037  0.1315
  296TMC3     H 4464   0.277   2.547   0.627 -0.1002 -0.4409  0.1428
  296TMC3    H1 4465   0.149   2.232   0.891  0.6770  0.3028  0.9264
  296TMC3    H2 4466   0.142   2.632   1.017 -0.2276  1.0531 -0.2331
  296TMC3    C7 4467   0.085   2.388   1.086 -1.1973  0.9418  0.0330
  296TMC3    C8 4468   0.252   2.734   0.811 -0.8301 -0.5383  0.2399
  296TMC3    O1 4469   0.007   2.468   1.142  0.1077  0.0118 -0.0355
  296TMC3    O2 4470   0.376   2.729   0.815  0.1338 -0.3318  0.5924
  297MPD2     C 4471   2.914   4.328  16.363 -0.1324 -0.1846 -0.3983
  297MPD2    C1 4472   2.892   4.403  16.247  0.7273  0.3417  0.0090
  297MPD2    C2 4473   2.951   4.526  16.237  0.2163 -0.1280  0.5720
  297MPD2    C3 4474   3.025   4.577  16.350 -0.1238  0.4184 -0.4459
  297MPD2    C4 4475   3.052   4.494  16.452  0.2390  0.5704  0.5304
  297MPD2    C5 4476   2.991   4.374  16.467 -0.1308  0.1959  0.1297
  297MPD2     H 4477   2.932   4.597  16.157  0.3338 -1.7227 -0.8791
  297MPD2    H1 4478   3.121   4.534  16.526  0.2925  1.5634 -0.0655
  297MPD2    H2 4479   2.870   4.229  16.371 -0.5710  0.1561  1.5506
  297MPD2    H3 4480   3.011   4.306  16.549 -0.3535  1.1283  0.9598
  297MPD2     N 4481   3.068   4.710  16.328 -0.2129  0.8548  0.0774
  297MPD2    H5 4482   3.048   0.030  16.238  2.1846 -1.8435 -1.6676
  297MPD2    N1 4483   2.806   4.362  16.139  0.0266 -0.6486 -0.4814
  297MPD2    H7 4484   2.784   4.432  16.069 -1.8912 -0.7162  0.0551
  298TMC3    C1 4485   2.642   4.226  16.025  0.3673  0.0024 -0.6173
  298TMC3    C2 4486   2.681   4.269  15.906  0.4508 -0.3320 -0.4783
  298TMC3    C3 4487   2.589   4.303  15.811 -0.0336  0.2229  0.7123
  298TMC3    C4 4488   2.510   4.194  16.057 -0.5082  0.2679 -0.3548
  298TMC3    C5 4489   2.414   4.227  15.962 -0.6679 -0.6181 -0.2747
  298TMC3    C6 4490   2.454   4.284  15.838 -0.2221  0.4510  1.0593
  298TMC3     C 4491   2.729   4.246  16.144  0.3388 -0.7169 -0.5748
  298TMC3     O 4492   2.731   4.163  16.231  0.2755 -0.2651  0.4015
  298TMC3     H 4493   2.786   4.295  15.901  0.4325  0.3933  2.5736
  298TMC3    H1 4494   2.474   4.169  16.156 -0.8094 -1.3710 -0.8775
  298TMC3    H2 4495   2.378   4.314  15.766  0.5015 -2.9429 -1.1128
  298TMC3    C7 4496   2.277   4.248  16.010  0.2600  0.0101 -0.1287
  298TMC3    C8 4497   2.636   4.345  15.678 -0.6248  0.5435  0.0659
  298TMC3    O1 4498   2.265   4.253  16.132 -0.4208  0.3185  1.0168
  298TMC3    O2 4499   2.548   4.403  15.610 -0.6256 -0.4186  0.0980
  299MPD2     C 4500   3.528   4.493  10.062 -0.7041  0.7329 -0.1678
  299MPD2    C1 4501   3.505   4.386  10.149  0.3546 -0.4992 -0.0640
  299MPD2    C2 4502   3.429   4.279  10.100 -0.3081  0.1786 -0.1335
  299MPD2    C3 4503   3.359   4.288   9.977 -0.4627  0.7047 -0.1014
  299MPD2    C4 4504   3.376   4.403   9.901 -0.5493  0.7029  0.0188
  299MPD2    C5 4505   3.465   4.497   9.939  0.0667 -0.4173  0.2327
  299MPD2     H 4506   3.426   4.192  10.164 -0.2108  1.3365  1.4506
  299MPD2    H1 4507   3.323   4.409   9.807 -0.4312 -1.6413 -0.1933
  299MPD2    H2 4508   3.582   4.580  10.098 -1.4909  1.0524  0.2478
  299MPD2    H3 4509   3.474   4.587   9.879 -1.2471 -1.0140 -0.8683
  299MPD2     N 4510   3.264   4.197   9.931  0.4792  0.7013  0.2377
  299MPD2    H5 4511   3.221   4.203   9.839 -0.3149 -0.8416  0.5109
  299MPD2    N1 4512   3.567   4.394  10.277 -0.0115 -0.2121 -0.1724
  299MPD2    H7 4513   3.620   4.481  10.286  0.5342 -0.4242 -1.3587
  300TMC3    C1 4514   3.114   4.025   9.942  0.5022 -0.2703  0.4655
  300TMC3    C2 4515   3.117   4.029   9.799  0.9186  0.0304  0.5149
  300TMC3    C3 4516   2.996   4.007   9.733  0.3706 -0.0593 -0.4583
  300TMC3    C4 4517   3.000   3.990  10.014 -0.0073 -0.1826  0.2056
  300TMC3    C5 4518   2.895   3.952   9.940 -0.2570 -0.1880  0.0980
  300TMC3    C6 4519   2.889   3.963   9.803  0.2292  0.5665 -0.1970
  300TMC3     C 4520   3.213   4.099  10.010  0.3837  1.0909 -0.2061
  300TMC3     O 4521   3.218   4.090  10.129  0.5164 -0.0613 -0.1465
  300TMC3     H 4522   3.207   4.049   9.742  2.3510 -0.2600  2.6898
  300TMC3    H1 4523   2.999   3.968  10.120  1.0609 -0.6007  0.1310
  300TMC3    H2 4524   2.797   3.928   9.758  0.3491  1.9011 -1.4744
  300TMC3    C7 4525   2.776   3.905  10.006  0.5430  0.0335  0.0484
  300TMC3    C8 4526   2.958   4.142   9.684  0.0172 -0.9647  0.0579
  300TMC3    O1 4527   2.700   3.833   9.941  0.4887 -0.0761  0.3722
  300TMC3    O2 4528   3.038   4.235   9.701 -0.4952  0.4662 -0.3990
  301MPD2     C 4529   0.841   0.623   1.201 -0.3348  0.5614  0.3280
  301MPD2    C1 4530   0.708   0.589   1.191  0.6717 -0.0703  0.7855
  301MPD2    C2 4531   0.671   0.522   1.077 -0.4282 -0.1574 -0.4017
  301MPD2    C3 4532   0.762   0.469   0.984 -0.4548  0.2671  0.0157
  301MPD2    C4 4533   0.893   0.498   1.006  0.4554 -0.4007 -0.4662
  301MPD2    C5 4534   0.933   0.572   1.114  0.7685 -0.3449 -0.2161
  301MPD2     H 4535   0.566   0.495   1.069 -1.1031  2.2257  0.3998
  301MPD2    H1 4536   0.971   0.477   0.935 -1.4405 -1.1650 -2.3266
  301MPD2    H2 4537   0.879   0.682   1.284  0.2457  2.1132 -1.0476
  301MPD2    H3 4538   1.039   0.591   1.127  0.8759 -1.3125  0.2981
  301MPD2     N 4539   0.729   0.405   0.865 -0.3706 -0.2491 -0.1086
  301MPD2    H5 4540   0.804   0.377   0.803 -0.7923  1.5387 -1.4460
  301MPD2    N1 4541   0.604   0.650   1.274  0.0835  0.1020 -0.2944
  301MPD2    H7 4542   0.518   0.598   1.260  0.7944 -1.3641  0.6600
  302TMC3    C1 4543   0.600   0.309   0.686  0.4502  0.3833  0.1814
  302TMC3    C2 4544   0.698   0.220   0.646  0.1627  0.1458  0.3538
  302TMC3    C3 4545   0.667   0.121   0.555 -0.0831 -0.0111 -0.5647
  302TMC3    C4 4546   0.478   0.292   0.628 -0.6623 -0.8770 -0.4131
  302TMC3    C5 4547   0.450   0.179   0.553 -0.3698  0.3526 -0.6879
  302TMC3    C6 4548   0.547   0.089   0.515  0.1198 -0.1283  0.4063
  302TMC3     C 4549   0.600   0.397   0.808 -0.0807  0.4157  0.1388
  302TMC3     O 4550   0.494   0.460   0.832 -0.0681 -0.3019  0.0559
  302TMC3     H 4551   0.793   0.207   0.697 -0.8600 -1.9621  1.7226
  302TMC3    H1 4552   0.403   0.368   0.648  0.3051 -0.0089 -0.0866
  302TMC3    H2 4553   0.520   0.018   0.438  0.1185 -1.8033  1.9512
  302TMC3    C7 4554   0.313   0.149   0.509  0.0761  0.1403  0.0616
  302TMC3    C8 4555   0.753   0.004   0.579 -0.0181  0.6320 -0.6750
  302TMC3    O1 4556   0.290   0.077   0.412  1.5034 -0.5602 -0.7238
  302TMC3    O2 4557   0.865   0.030   0.544  0.2741  0.1753  0.3777
  303MPD2     C 4558   1.025   3.619  10.453  0.5435 -0.0611  0.2659
  303MPD2    C1 4559   0.936   3.530  10.510 -0.0905  0.7025  0.1890
  303MPD2    C2 4560   0.889   3.436  10.419  0.0581  0.6229 -0.5159
  303MPD2    C3 4561   0.928   3.430  10.285  1.3115 -0.4087  0.2680
  303MPD2    C4 4562   1.026   3.522  10.241 -0.4783  0.3426 -0.1684
  303MPD2    C5 4563   1.081   3.609  10.325 -0.4242  0.4466  0.1703
  303MPD2     H 4564   0.812   3.367  10.453  1.8816 -0.0980  2.1575
  303MPD2    H1 4565   1.068   3.534  10.142 -0.4367 -4.0834 -0.7189
  303MPD2    H2 4566   1.072   3.691  10.518 -1.7691  1.8371 -0.1719
  303MPD2    H3 4567   1.153   3.679  10.283  0.2289  1.5141  3.0821
  303MPD2     N 4568   0.876   3.343  10.186  0.1909  0.0822 -0.3375
  303MPD2    H5 4569   0.909   3.367  10.093  0.1428 -2.0989 -0.9287
  303MPD2    N1 4570   0.902   3.549  10.651 -0.3529  0.5499 -0.2366
  303MPD2    H7 4571   0.926   3.639  10.690 -0.7797  1.1457 -1.3571
  304TMC3    C1 4572   0.827   3.482  10.864  0.1290 -0.0447  0.4693
  304TMC3    C2 4573   0.753   3.596  10.886  0.4765 -0.0859 -0.4774
  304TMC3    C3 4574   0.668   3.592  10.992 -0.1858 -0.3184  0.1168
  304TMC3    C4 4575   0.814   3.369  10.942 -0.2951  0.0993  0.4307
  304TMC3    C5 4576   0.729   3.372  11.040  0.2090  1.0845 -0.2660
  304TMC3    C6 4577   0.657   3.482  11.072  0.0735  0.5651  0.0553
  304TMC3     C 4578   0.849   3.448  10.727  0.1166  0.1243 -0.4053
  304TMC3     O 4579   0.826   3.334  10.690  0.2367  0.3738  0.7288
  304TMC3     H 4580   0.755   3.686  10.825 -2.2600 -0.1061 -0.5876
  304TMC3    H1 4581   0.878   3.283  10.925  0.5553  1.1215 -1.5073
  304TMC3    H2 4582   0.591   3.493  11.157  0.7739  1.9061  0.4219
  304TMC3    C7 4583   0.644   3.257  11.057  0.2129  0.2303  0.6511
  304TMC3    C8 4584   0.534   3.639  10.953 -0.1730 -0.1412 -0.3816
  304TMC3    O1 4585   0.527   3.293  11.067  0.0612 -0.7994 -0.3840
  304TMC3    O2 4586   0.528   3.753  10.909  0.1967 -0.0555  0.0243
  305MPD2     C 4587   3.739   0.877  13.945  0.5674  0.5480  0.0924
  305MPD2    C1 4588   3.624   0.946  13.972  0.6780 -0.1943 -0.1165
  305MPD2    C2 4589   3.540   0.995  13.875  0.3423  0.1117  0.0582
  305MPD2    C3 4590   3.562   0.972  13.750  0.1841 -0.7025 -0.4388
  305MPD2    C4 4591   3.689   0.916  13.717  0.5205  0.2733 -0.0139
  305MPD2    C5 4592   3.770   0.874  13.814  0.0319  0.0469 -0.1946
  305MPD2     H 4593   3.446   1.045  13.897  0.4862  0.3430  0.1489
  305MPD2    H1 4594   3.716   0.889  13.615  0.9640 -0.7087  0.3616
  305MPD2    H2 4595   3.809   0.850  14.024 -0.5100 -1.6922  0.2886
  305MPD2    H3 4596   3.861   0.825  13.784 -1.5540 -0.4174 -4.2202
  305MPD2     N 4597   3.468   1.006  13.652  0.9259  0.2996  0.5039
  305MPD2    H5 4598   3.381   1.047  13.685  1.0328  0.7663  0.2077
  305MPD2    N1 4599   3.599   0.949  14.111  0.0068 -0.3193  0.1016
  305MPD2    H7 4600   3.670   0.903  14.167  0.4308  1.6610  1.2146
  306TMC3    C1 4601   3.503   1.001  14.325  0.5052 -0.0042 -0.6547
  306TMC3    C2 4602   3.581   0.896  14.361 -0.5777 -0.0250  0.2660
  306TMC3    C3 4603   3.680   0.920  14.448  0.3885  0.6841 -0.1967
  306TMC3    C4 4604   3.507   1.120  14.387 -0.5494  0.4831 -1.2919
  306TMC3    C5 4605   3.591   1.138  14.496 -0.3907 -1.0692 -0.1690
  306TMC3    C6 4606   3.681   1.039  14.525  0.4768 -0.2875 -0.1634
  306TMC3     C 4607   3.492   1.011  14.177 -0.2302  0.1724  1.0801
  306TMC3     O 4608   3.403   1.079  14.126 -0.3547  0.0089 -0.1826
  306TMC3     H 4609   3.577   0.805  14.301  2.0488  1.4511 -2.1166
  306TMC3    H1 4610   3.452   1.205  14.348 -2.9057  0.3219  1.7013
  306TMC3    H2 4611   3.766   1.044  14.594  0.6413  0.0378 -0.3916
  306TMC3    C7 4612   3.578   1.262  14.581  0.5017 -0.2855  0.6809
  306TMC3    C8 4613   3.800   0.848  14.406 -0.3060 -0.3809 -0.3891
  306TMC3    O1 4614   3.501   1.348  14.542  0.7713 -0.0578  0.1546
  306TMC3    O2 4615   3.808   0.821  14.288 -0.2048 -0.0624  0.0049
  307MPD2     C 4616   1.924   3.566   0.138 -0.3799  0.7404 -0.1117
  307MPD2    C1 4617   1.796   3.549   0.098  0.6316  0.1015  0.2099
  307MPD2    C2 4618   1.692   3.589   0.179 -0.1438 -0.3074 -0.1202
  307MPD2    C3 4619   1.722   3.632   0.307 -0.0920  0.3266  0.1164
  307MPD2    C4 4620   1.853   3.654   0.353  1.0410  0.2148 -0.1255
  307MPD2    C5 4621   1.955   3.610   0.267  0.1711 -0.6590  0.1522
  307MPD2     H 4622   1.591   3.595   0.139 -0.0427  1.4331 -0.1279
  307MPD2    H1 4623   1.868   3.705   0.447  1.3931  0.1149 -0.1279
  307MPD2    H2 4624   2.007   3.531   0.078  0.4447 -1.2242  2.1948
  307MPD2    H3 4625   2.059   3.609   0.296  0.7511 -1.0920 -1.9512
  307MPD2     N 4626   1.621   3.679   0.394  0.4122 -0.0028 -0.1373
  307MPD2    H5 4627   1.656   3.726   0.477  2.0218  0.8402 -1.3038
  307MPD2    N1 4628   1.758   3.512  17.652  0.2206 -0.3110 -0.2934
  307MPD2    H7 4629   1.659   3.503  17.630 -0.6295  1.6907  2.7172
  308TMC3    C1 4630   1.194   3.797   0.522 -0.4160  0.5747  0.1410
  308TMC3    C2 4631   1.221   3.928   0.514 -0.2946  0.3676 -0.3763
  308TMC3    C3 4632   1.354   3.971   0.509  0.6954 -0.1079 -0.4801
  308TMC3    C4 4633   1.281   3.706   0.486  0.0155 -0.3726  0.1800
  308TMC3    C5 4634   1.409   3.751   0.469 -0.1008  0.1100 -0.8326
  308TMC3    C6 4635   1.449   3.881   0.492  0.1643  0.1581 -0.7988
  308TMC3     C 4636   1.058   3.744   0.542  0.4764 -0.5442 -0.5008
  308TMC3     O 4637   1.052   3.620   0.551 -0.2165  0.4661 -0.0609
  308TMC3     H 4638   1.147   4.006   0.530 -0.2399  0.0636  1.3790
  308TMC3    H1 4639   1.268   3.599   0.479 -2.5988 -0.0061 -0.6013
  308TMC3    H2 4640   1.552   3.916   0.485  0.3907 -0.2704  0.3606
  308TMC3    C7 4641   1.489   3.676   0.374 -0.2615 -0.2133 -0.2312
  308TMC3    C8 4642   1.378   4.096   0.445 -0.0795  0.5990 -0.8642
  308TMC3    O1 4643   1.422   3.599   0.307 -0.8617 -0.3662  0.0934
  308TMC3    O2 4644   1.480   4.156   0.472  0.6450  0.1301 -0.4908
  309MPD2     C 4645   0.469   3.872  16.574  0.8597 -0.5453  0.3015
  309MPD2    C1 4646   0.422   3.995  16.528 -0.2855 -0.1912 -0.3611
  309MPD2    C2 4647   0.354   4.086  16.611 -0.1866 -0.4837 -0.1671
  309MPD2    C3 4648   0.344   4.061  16.746  0.8304 -0.4984 -0.5397
  309MPD2    C4 4649   0.397   3.943  16.789  0.2418  0.0304 -0.5682
  309MPD2    C5 4650   0.452   3.849  16.709 -0.4708  0.4410  0.0337
  309MPD2     H 4651   0.304   4.170  16.565 -0.8468 -1.3471 -1.0174
  309MPD2    H1 4652   0.377   3.912  16.891  1.0481  0.2220 -0.3553
  309MPD2    H2 4653   0.513   3.798  16.509 -3.5921 -1.2660 -1.8513
  309MPD2    H3 4654   0.476   3.755  16.756 -0.2490  0.6373  0.3042
  309MPD2     N 4655   0.285   4.139  16.845  0.5347 -0.1995 -0.1968
  309MPD2    H5 4656   0.292   4.116  16.943  2.3563 -0.0451 -0.2978
  309MPD2    N1 4657   0.423   4.032  16.393  0.2545  0.4509  0.3015
  309MPD2    H7 4658   0.411   4.133  16.382  1.6607  0.5129 -0.6538
  310TMC3    C1 4659   0.563   4.093  16.223 -0.2180 -0.2227 -0.5099
  310TMC3    C2 4660   0.496   4.133  16.115  0.2536 -0.2671 -0.1927
  310TMC3    C3 4661   0.568   4.177  16.009  1.1132 -0.4442 -0.4324
  310TMC3    C4 4662   0.703   4.108  16.227  0.0908 -0.0741 -0.3281
  310TMC3    C5 4663   0.769   4.143  16.118  0.0866 -0.8600 -0.4137
  310TMC3    C6 4664   0.700   4.188  16.008  0.6277 -0.0783  0.5525
  310TMC3     C 4665   0.518   3.988  16.308 -0.4772 -1.3864  0.7187
  310TMC3     O 4666   0.583   3.888  16.316  0.3467 -0.6738 -0.1471
  310TMC3     H 4667   0.387   4.135  16.118  0.3473 -0.5663  2.5627
  310TMC3    H1 4668   0.760   4.050  16.299 -0.5559  1.4165  1.4000
  310TMC3    H2 4669   0.755   4.228  15.924 -1.1714  2.7879  0.7291
  310TMC3    C7 4670   0.876   4.062  16.080 -0.0213  0.2319  0.6406
  310TMC3    C8 4671   0.497   4.218  15.889 -1.0681 -0.1073 -0.5101
  310TMC3    O1 4672   0.889   3.954  16.130 -0.6420  0.1336  0.2964
  310TMC3    O2 4673   0.536   4.317  15.828 -0.1675 -0.9992  0.0187
  311MPD2     C 4674   2.550   0.778  12.890  0.5101 -0.4907  0.5297
  311MPD2    C1 4675   2.520   0.904  12.844 -0.5878 -0.7774 -1.1380
  311MPD2    C2 4676   2.391   0.946  12.850  0.0047 -0.4099  0.4387
  311MPD2    C3 4677   2.296   0.864  12.895  0.1355  0.0996 -0.2947
  311MPD2    C4 4678   2.326   0.729  12.923  0.8489 -0.1979 -1.4310
  311MPD2    C5 4679   2.455   0.684  12.921 -0.1408 -0.3790  0.2292
  311MPD2     H 4680   2.372   1.047  12.816  2.3664 -0.3784 -0.7838
  311MPD2    H1 4681   2.253   0.653  12.947  1.7114 -0.4347  0.4526
  311MPD2    H2 4682   2.650   0.738  12.889  0.2839 -1.0395 -0.7666
  311MPD2    H3 4683   2.480   0.583  12.953  2.9586  0.8157  1.6723
  311MPD2     N 4684   2.173   0.927  12.908  0.0060 -0.5255  0.0977
  311MPD2    H5 4685   2.162   1.028  12.900 -1.6280 -0.7562 -0.6258
  311MPD2    N1 4686   2.610   0.989  12.788  0.1645 -0.4795  0.4279
  311MPD2    H7 4687   2.568   1.075  12.753 -1.5032 -1.6600 -0.4591
  312TMC3    C1 4688   1.942   0.952  12.919 -0.3178 -0.4699 -0.5584
  312TMC3    C2 4689   1.846   0.931  12.813 -1.1093 -0.1260 -0.3139
  312TMC3    C3 4690   1.767   1.037  12.773 -0.3473  0.0607 -0.1723
  312TMC3    C4 4691   1.957   1.074  12.975 -0.0745 -0.4220 -0.2938
  312TMC3    C5 4692   1.881   1.173  12.929  0.4437  0.4142 -0.2505
  312TMC3    C6 4693   1.783   1.160  12.834  0.3351 -0.2875 -0.3268
  312TMC3     C 4694   2.056   0.854  12.931  0.7772  0.6634  0.5215
  312TMC3     O 4695   2.040   0.738  12.894  0.2490 -0.9025  0.6267
  312TMC3     H 4696   1.825   0.829  12.783 -1.6050  0.3166 -1.4753
  312TMC3    H1 4697   2.032   1.091  13.051 -0.5549  1.8265 -0.3153
  312TMC3    H2 4698   1.723   1.245  12.803  3.4362  2.2265  0.4995
  312TMC3    C7 4699   1.913   1.305  12.973 -0.3435 -0.3706 -0.6548
  312TMC3    C8 4700   1.641   1.002  12.704 -0.3017 -0.4969  0.7645
  312TMC3    O1 4701   1.906   1.395  12.893  0.2021  0.3643  0.3770
  312TMC3    O2 4702   1.632   0.890  12.656  0.1694  0.8425  0.4112
  313MPD2     C 4703   2.330   4.460  10.399 -0.1906 -0.1937 -0.1437
  313MPD2    C1 4704   2.211   4.412  10.450 -0.5517  0.1004  0.5414
  313MPD2    C2 4705   2.151   4.304  10.394 -0.2149 -0.7447  0.0620
  313MPD2    C3 4706   2.216   4.231  10.301 -0.5571 -0.2370 -0.0923
  313MPD2    C4 4707   2.341   4.270  10.251  0.0973  0.5576 -0.0701
  313MPD2    C5 4708   2.392   4.385  10.304 -0.0861  0.2553 -0.6428
  313MPD2     H 4709   2.055   4.272  10.433 -1.3904  1.8178 -0.7938
  313MPD2    H1 4710   2.400   4.218  10.177  0.7755  2.2409 -0.7198
  313MPD2    H2 4711   2.370   4.552  10.438 -1.3673  0.4622 -0.4732
  313MPD2    H3 4712   2.492   4.417  10.278  1.0438 -2.4286  0.3696
  313MPD2     N 4713   2.141   4.115  10.262 -0.5907  0.3000 -0.2315
  313MPD2    H5 4714   2.057   4.100  10.317  0.8040 -1.2800  1.4533
  313MPD2    N1 4715   2.127   4.475  10.547  0.4926 -0.1269  0.6090
  313MPD2    H7 4716   2.035   4.436  10.564  0.5079 -0.9987 -1.2830
  314TMC3    C1 4717   2.037   4.652  10.658  0.2189  0.2321  0.5235
  314TMC3    C2 4718   2.044   0.025  10.755 -0.1674 -0.1039  0.1735
  314TMC3    C3 4719   1.934   0.099  10.789 -0.4663  0.2847  0.8519
  314TMC3    C4 4720   1.919   4.627  10.590 -0.5635 -0.4953 -0.8544
  314TMC3    C5 4721   1.813   4.697  10.628 -1.1310  0.1802 -0.0672
  314TMC3    C6 4722   1.817   0.071  10.728  0.2047  0.0208  0.2848
  314TMC3     C 4723   2.151   4.606  10.595  0.2268  1.2032 -0.6687
  314TMC3     O 4724   2.234   4.691  10.563  0.2690 -0.0679  0.8495
  314TMC3     H 4725   2.140   0.067  10.781 -1.0691  0.4325  2.5377
  314TMC3    H1 4726   1.917   4.566  10.501 -1.0645 -1.9495  0.1566
  314TMC3    H2 4727   1.723   0.110  10.765  0.3742  2.4101 -1.7908
  314TMC3    C7 4728   1.726   0.006  10.519  0.4092  0.5643 -0.2133
  314TMC3    C8 4729   1.947   0.234  10.846  0.2604  0.1827 -0.2522
  314TMC3    O1 4730   1.609   0.009  10.548 -0.2290 -0.4267  0.9475
  314TMC3    O2 4731   2.059   0.254  10.888  0.6484 -0.4357  0.3929
  315MPD2     C 4732   1.569   4.383  17.443  0.0602 -0.7073 -0.3039
  315MPD2    C1 4733   1.661   4.373  17.552  0.1555  0.4338  0.9728
  315MPD2    C2 4734   1.781   4.446  17.544 -0.2249 -0.2306  0.0142
  315MPD2    C3 4735   1.812   4.521  17.436  0.6463  0.4134 -0.6801
  315MPD2    C4 4736   1.715   4.534  17.334  0.2898  0.8530  0.1100
  315MPD2    C5 4737   1.599   4.458  17.332  0.2885 -0.2231  0.5873
  315MPD2     H 4738   1.856   4.429  17.621  0.2073  0.3875 -0.2709
  315MPD2    H1 4739   1.732   4.600  17.250  0.1904  1.4121  0.5282
  315MPD2    H2 4740   1.481   4.321  17.434  0.6119 -1.1867 -2.4338
  315MPD2    H3 4741   1.520   4.477  17.260  0.9603 -1.9178 -0.5745
  315MPD2     N 4742   1.931   4.605  17.432  0.7635  0.0461  0.1604
  315MPD2    H5 4743   1.997   4.588  17.507 -0.8255 -0.1185  1.5305
  315MPD2    N1 4744   1.654   4.262  17.651  0.1805 -0.1505 -0.6338
  315MPD2    H7 4745   1.723   4.253   0.038  0.8167  0.0189 -1.2117
  316TMC3    C1 4746   2.090   0.045  17.348  0.2484 -0.2993 -0.0327
  316TMC3    C2 4747   2.145   0.050  17.472 -0.2543 -0.7447 -0.4004
  316TMC3    C3 4748   2.226   0.156  17.497 -0.6589 -0.3378  0.1955
  316TMC3    C4 4749   2.129   0.131  17.245  0.1083 -0.7452 -0.4333
  316TMC3    C5 4750   2.226   0.223  17.271  0.0818 -0.5541  0.6173
  316TMC3    C6 4751   2.268   0.249  17.401  0.1332 -0.5063 -0.7635
  316TMC3     C 4752   1.975   4.679  17.324  0.4175 -0.3951  0.1206
  316TMC3     O 4753   1.928   4.691  17.209  0.1621  0.6547 -0.1992
  316TMC3     H 4754   2.099   4.717  17.554  0.0185 -1.0653 -0.4545
  316TMC3    H1 4755   2.083   0.121  17.147 -1.5280 -2.6254  0.5246
  316TMC3    H2 4756   2.345   0.320  17.428 -0.7852 -1.1494  3.4294
  316TMC3    C7 4757   2.308   0.274  17.166 -0.5801 -0.7623  0.1464
  316TMC3    C8 4758   2.301   0.160  17.621 -0.1099  1.3298  0.1311
  316TMC3    O1 4759   2.399   0.349  17.202 -0.4957  0.3030  0.2327
  316TMC3    O2 4760   2.339   0.273  17.656 -0.2289 -0.1496  0.1457
  317MPD2     C 4761   3.453   2.637  13.002 -0.1011  0.2119 -0.3559
  317MPD2    C1 4762   3.458   2.645  12.866 -0.7274  0.3843  0.0915
  317MPD2    C2 4763   3.529   2.555  12.793  0.0366 -0.5938 -0.1784
  317MPD2    C3 4764   3.598   2.453  12.859  0.1168 -0.0909 -0.2400
  317MPD2    C4 4765   3.591   2.441  13.000  0.6116 -0.5222 -0.2458
  317MPD2    C5 4766   3.509   2.534  13.065  0.2121  0.0563 -0.1337
  317MPD2     H 4767   3.530   2.569  12.685 -3.6531 -0.0888 -0.1433
  317MPD2    H1 4768   3.639   2.360  13.052 -0.7467  0.5511  2.7217
  317MPD2    H2 4769   3.389   2.706  13.056  0.6221  1.1875 -0.7437
  317MPD2    H3 4770   3.498   2.533  13.172  0.7005  1.6798 -0.0698
  317MPD2     N 4771   3.670   2.366  12.774  0.3921 -0.6553 -0.1886
  317MPD2    H5 4772   3.663   2.382  12.674 -0.2347  2.1101  0.2893
  317MPD2    N1 4773   3.401   2.742  12.784 -0.4740  0.5761  0.4105
  317MPD2    H7 4774   3.427   2.737  12.686 -0.5896 -0.0521  0.4111
  318TMC3    C1 4775   3.803   2.197  12.695  0.3523 -0.0510  0.3116
  318TMC3    C2 4776   3.717   2.200  12.586  0.0108  0.3137 -0.0417
  318TMC3    C3 4777   3.774   2.192  12.457 -0.6808 -0.2787  0.1766
  318TMC3    C4 4778   3.940   2.201  12.676  0.1337 -0.2982  0.2512
  318TMC3    C5 4779   3.992   2.200  12.550 -0.1259  0.0530 -0.5168
  318TMC3    C6 4780   3.909   2.197  12.439  0.2555  0.6325  0.3362
  318TMC3     C 4781   3.757   2.267  12.814  0.0278 -0.4964 -0.0891
  318TMC3     O 4782   3.808   2.253  12.921  1.0325 -0.2508  0.0642
  318TMC3     H 4783   3.610   2.210  12.598  0.1015  0.6069  0.5185
  318TMC3    H1 4784   4.006   2.217  12.761  1.5483  1.4278 -1.1656
  318TMC3    H2 4785   3.951   2.197  12.339  0.8736  0.8270  0.5913
  318TMC3    C7 4786   4.126   2.243  12.520  0.1069 -0.1927 -0.3663
  318TMC3    C8 4787   3.682   2.176  12.342  0.3324 -0.0849 -0.6477
  318TMC3    O1 4788   4.142   2.293  12.411 -0.3237 -0.1303 -0.5807
  318TMC3    O2 4789   3.729   2.205  12.234  0.3604  0.6762  0.4729
  319MPD2     C 4790   0.072   3.840  16.588  0.0165 -0.6196 -0.1300
  319MPD2    C1 4791   4.698   3.758  16.642  0.2429  0.5079 -0.2671
  319MPD2    C2 4792   4.578   3.738  16.572  0.1759  0.2247  0.0555
  319MPD2    C3 4793   4.550   3.802  16.452  0.5414 -0.1325  0.2900
  319MPD2    C4 4794   4.648   3.882  16.403  0.0233  0.4691 -0.2557
  319MPD2    C5 4795   0.047   3.907  16.466  0.2375  0.2199  0.5687
  319MPD2     H 4796   4.513   3.657  16.601 -0.2038  0.2690 -0.6654
  319MPD2    H1 4797   4.610   3.946  16.325 -0.5306 -0.1926 -0.5253
  319MPD2    H2 4798   0.170   3.856  16.632 -0.1167  3.4378 -1.2623
  319MPD2    H3 4799   0.131   3.967  16.433 -0.1818  0.1933 -0.5465
  319MPD2     N 4800   4.423   3.806  16.393  0.3177  0.1812  0.4245
  319MPD2    H5 4801   4.409   3.855  16.306 -0.0573  1.4604  1.1982
  319MPD2    N1 4802   4.713   3.705  16.776 -0.6033  0.7611  0.0697
  319MPD2    H7 4803   4.652   3.630  16.806  0.7806 -0.0130  0.9760
  320TMC3    C1 4804   4.188   3.798  16.383  0.0123  0.2065 -0.1601
  320TMC3    C2 4805   4.191   3.898  16.303 -0.4284 -0.0174  0.1721
  320TMC3    C3 4806   4.074   3.910  16.235  0.2008  0.7303 -0.3142
  320TMC3    C4 4807   4.089   3.705  16.391  0.7734  0.2161  0.2662
  320TMC3    C5 4808   3.978   3.720  16.323  0.0705 -0.1339 -0.6278
  320TMC3    C6 4809   3.975   3.817  16.227  0.1671 -0.2847 -0.0108
  320TMC3     C 4810   4.311   3.766  16.460 -0.6076  0.0312  0.0056
  320TMC3     O 4811   4.289   3.713  16.569 -0.0058  0.3743  0.6059
  320TMC3     H 4812   4.256   3.982  16.325  2.0354 -1.2877 -2.1486
  320TMC3    H1 4813   4.111   3.628  16.464  0.3679  1.2185  1.4439
  320TMC3    H2 4814   3.878   3.837  16.184 -0.6147 -0.4728  1.6572
  320TMC3    C7 4815   3.908   3.592  16.305  0.0020  0.2977  0.1117
  320TMC3    C8 4816   4.079   4.007  16.133  0.3369 -0.2683  0.5135
  320TMC3    O1 4817   3.972   3.493  16.334 -1.0764  0.7900 -0.2943
  320TMC3    O2 4818   4.115   4.119  16.156  0.1977  0.0942 -0.2878
  321TMC3    C1 4819   0.068   3.723  17.010 -0.1387  0.2346  0.0377
  321TMC3    C2 4820   4.707   3.621  17.048 -0.3304 -0.1211 -0.2869
  321TMC3    C3 4821   4.680   3.612  17.186 -0.1470 -0.9332  0.2507
  321TMC3    C4 4822   0.121   3.816  17.093 -0.4212  0.1934  0.5778
  321TMC3    C5 4823   0.095   3.805  17.221  0.8142 -0.0314  0.0962
  321TMC3    C6 4824   0.008   3.710  17.268 -0.4737  0.7098  0.2882
  321TMC3     C 4825   0.062   3.775  16.872  0.2832 -0.6507  0.4359
  321TMC3     O 4826   0.108   3.888  16.859  0.5265  0.2725 -0.9906
  321TMC3     H 4827   4.680   3.539  16.982 -2.1765  1.5089 -1.5683
  321TMC3    H1 4828   0.188   3.893  17.057 -0.5254  2.0386  4.3436
  321TMC3    H2 4829   4.704   3.705  17.374 -1.8628 -0.4174 -0.0866
  321TMC3    C7 4830   0.223   3.809  17.292  0.0319 -0.0110 -0.2401
  321TMC3    C8 4831   4.692   3.483  17.249  0.4406  0.4724 -0.6291
  321TMC3    O1 4832   0.310   3.884  17.252  0.1447  0.3669  0.0169
  321TMC3    O2 4833   0.067   3.481  17.325 -0.2032 -0.1656  0.0401
  322MPD2     C 4834   2.686   0.092  14.017 -0.2366 -0.4715 -0.3308
  322MPD2    C1 4835   2.773   0.088  14.124 -0.4430  0.0925  0.5907
  322MPD2    C2 4836   2.808   4.674  14.161 -0.5294 -0.5095 -0.3412
  322MPD2    C3 4837   2.759   4.560  14.095  0.6856 -0.3473  0.3623
  322MPD2    C4 4838   2.689   4.580  13.978  0.0294  0.0738 -0.5057
  322MPD2    C5 4839   2.652   4.702  13.946  0.0529 -0.1151 -0.3712
  322MPD2     H 4840   2.874   4.661  14.246 -1.2264 -0.4125  0.2099
  322MPD2    H1 4841   2.641   4.506  13.915 -1.7007  1.4493 -0.8155
  322MPD2    H2 4842   2.645   0.187  13.981 -0.9060 -0.8569 -0.5952
  322MPD2    H3 4843   2.590   4.712  13.857 -0.2591  0.2753 -0.1065
  322MPD2     N 4844   2.783   4.436  14.159 -0.1746  0.0581 -0.7535
  322MPD2    H5 4845   2.840   4.438  14.243  0.9784  1.1658 -1.5732
  322MPD2    N1 4846   2.829   0.201  14.186 -0.3533  0.2287 -0.0088
  322MPD2    H7 4847   2.821   0.291  14.141 -0.0433  0.6983  0.8812
  323TMC3    C1 4848   2.959   0.328  14.312 -0.1851  0.2718  0.1585
  323TMC3    C2 4849   3.026   0.371  14.203  0.2324  0.1766 -0.2576
  323TMC3    C3 4850   3.121   0.471  14.220 -0.5057 -0.3848 -0.0957
  323TMC3    C4 4851   2.987   0.373  14.433 -0.1373 -0.1678 -0.3697
  323TMC3    C5 4852   3.089   0.465  14.452  0.0671 -0.1320  0.0392
  323TMC3    C6 4853   3.148   0.522  14.339  0.0482  0.2618 -0.0862
  323TMC3     C 4854   2.897   0.199  14.303  0.3286 -0.4964  0.4934
  323TMC3     O 4855   2.892   0.124  14.398  0.3982  0.0592 -0.1044
  323TMC3     H 4856   3.014   0.314  14.111  1.4132  0.3004 -0.5004
  323TMC3    H1 4857   2.938   0.324  14.516  0.4317 -0.9318 -0.4905
  323TMC3    H2 4858   3.227   0.596  14.342  0.2601  0.0724 -0.9313
  323TMC3    C7 4859   3.186   0.425  14.552  0.4597 -0.7049 -0.6029
  323TMC3    C8 4860   3.228   0.470  14.124 -0.6248  0.5665 -0.1397
  323TMC3    O1 4861   3.153   0.321  14.619 -0.2431  0.3410  0.3070
  323TMC3    O2 4862   3.346   0.477  14.168 -0.5611 -0.0863 -0.3672
  324MPD2     C 4863   0.497   0.925  14.405 -0.5378  0.2444  0.0823
  324MPD2    C1 4864   0.477   1.051  14.447  0.9856 -0.1361 -0.2790
  324MPD2    C2 4865   0.348   1.099  14.485 -0.1683 -0.1821  0.1511
  324MPD2    C3 4866   0.240   1.006  14.493  0.0585  0.3268 -0.8869
  324MPD2    C4 4867   0.270   0.874  14.457 -0.2469  0.1768  0.6799
  324MPD2    C5 4868   0.395   0.835  14.420  0.2625  0.1676 -0.2296
  324MPD2     H 4869   0.330   1.204  14.505 -0.7918 -0.2423 -0.0793
  324MPD2    H1 4870   0.193   0.798  14.452 -0.6397  0.6073  0.1439
  324MPD2    H2 4871   0.587   0.886  14.358 -1.3531 -0.9910 -0.4289
  324MPD2    H3 4872   0.415   0.731  14.396 -0.1735 -0.5068  2.4130
  324MPD2     N 4873   0.113   1.032  14.539 -0.5093 -0.2913  0.1916
  324MPD2    H5 4874   0.047   0.957  14.557  0.3606 -0.9443  0.6563
  324MPD2    N1 4875   0.576   1.152  14.435  0.0604 -0.3000  0.0431
  324MPD2    H7 4876   0.553   1.250  14.435 -0.9119 -0.5297  1.3680
  325TMC3    C1 4877   4.643   1.174  14.531  0.5921  0.5283 -0.4624
  325TMC3    C2 4878   4.550   1.068  14.529  0.6094 -0.9532 -0.1298
  325TMC3    C3 4879   4.423   1.086  14.478  0.0089 -0.6390  0.1721
  325TMC3    C4 4880   4.617   1.278  14.452  0.2879 -0.2475 -0.5815
  325TMC3    C5 4881   4.493   1.294  14.397 -0.2435 -0.2820 -0.0507
  325TMC3    C6 4882   4.387   1.207  14.427  0.5291 -0.6046 -0.5234
  325TMC3     C 4883   0.066   1.160  14.558 -0.0899  0.1625  0.1725
  325TMC3     O 4884   0.129   1.266  14.570  0.0456  0.0673 -0.5633
  325TMC3     H 4885   4.584   0.968  14.553  0.4325 -1.5275 -2.3074
  325TMC3    H1 4886   4.683   1.360  14.428 -0.6111  0.2859 -1.2441
  325TMC3    H2 4887   4.286   1.214  14.389 -0.6943 -0.0360  2.8072
  325TMC3    C7 4888   4.508   1.336  14.255  0.0299  0.0009 -0.2472
  325TMC3    C8 4889   4.386   0.985  14.384 -0.4581 -0.1488  0.2092
  325TMC3    O1 4890   4.616   1.372  14.209 -0.9515  0.3246  0.4784
  325TMC3    O2 4891   4.472   0.909  14.347  0.0586  0.4810 -0.6321
  326MPD2     C 4892   1.490   2.744  11.160  0.0265 -0.3903  0.6700
  326MPD2    C1 4893   1.511   2.610  11.119 -0.3611 -0.1217 -0.1915
  326MPD2    C2 4894   1.641   2.574  11.116 -0.1064 -0.8806  0.2632
  326MPD2    C3 4895   1.746   2.660  11.124  0.1816 -0.2156 -0.4732
  326MPD2    C4 4896   1.720   2.788  11.152 -0.2618 -0.5043 -0.7759
  326MPD2    C5 4897   1.597   2.833  11.176 -0.0855  0.4795  0.1690
  326MPD2     H 4898   1.667   2.470  11.098  1.3172 -0.4408 -0.1928
  326MPD2    H1 4899   1.806   2.853  11.166 -0.0118 -1.6775  3.1976
  326MPD2    H2 4900   1.392   2.788  11.169  0.1690 -0.0609  0.6143
  326MPD2    H3 4901   1.580   2.937  11.199 -0.8206  0.2803  0.5325
  326MPD2     N 4902   1.883   2.616  11.116 -0.0283 -0.2967  0.3265
  326MPD2    H5 4903   1.949   2.686  11.148  0.6694  1.0033 -3.8975
  326MPD2    N1 4904   1.399   2.528  11.084 -0.1500  0.4604 -0.4739
  326MPD2    H7 4905   1.420   2.437  11.046 -0.8167 -0.7904  2.1653
  327TMC3    C1 4906   1.183   2.473  10.998  0.1696 -0.3043  0.3661
  327TMC3    C2 4907   1.088   2.531  10.920  0.0435 -0.3284 -0.5689
  327TMC3    C3 4908   1.040   2.456  10.818 -0.1690 -0.8551  0.2097
  327TMC3    C4 4909   1.232   2.349  10.978 -0.5590 -0.3044 -0.0293
  327TMC3    C5 4910   1.187   2.279  10.871 -0.6324 -0.1576 -0.1281
  327TMC3    C6 4911   1.092   2.336  10.787  0.1144  0.9046  0.0375
  327TMC3     C 4912   1.269   2.569  11.065 -0.3778 -0.5836  0.5178
  327TMC3     O 4913   1.226   2.685  11.068 -0.4530  0.2016  0.3681
  327TMC3     H 4914   1.060   2.635  10.922  0.1565 -0.3292  1.2673
  327TMC3    H1 4915   1.305   2.311  11.048 -2.0515 -0.3734  1.5183
  327TMC3    H2 4916   1.044   2.288  10.703  1.8948 -0.1931 -0.3447
  327TMC3    C7 4917   1.222   2.139  10.846 -0.5945 -0.3191 -0.7288
  327TMC3    C8 4918   0.996   2.527  10.699 -0.1318 -0.2098  0.1321
  327TMC3    O1 4919   1.182   2.083  10.746 -0.3553 -0.7192 -0.0587
  327TMC3    O2 4920   1.063   2.511  10.604  0.4016  0.6717 -0.7955
  328MPD2     C 4921   4.062   1.661  17.105 -0.0271  0.1019 -0.1191
  328MPD2    C1 4922   3.942   1.729  17.117 -0.7377  0.2618  0.0076
  328MPD2    C2 4923   3.862   1.749  17.007  0.2939 -0.3660 -0.0213
  328MPD2    C3 4924   3.911   1.725  16.881 -0.6364  0.4830  0.0149
  328MPD2    C4 4925   4.044   1.685  16.862 -0.0063  0.4602  0.2047
  328MPD2    C5 4926   4.113   1.642  16.977 -0.2040  0.4978  0.6446
  328MPD2     H 4927   3.760   1.782  17.027  0.2950 -0.5625  0.3105
  328MPD2    H1 4928   4.079   1.674  16.759 -2.2609  1.3925 -0.6613
  328MPD2    H2 4929   4.119   1.649  17.197 -0.3466 -0.1680  0.0460
  328MPD2    H3 4930   4.211   1.596  16.970 -0.8112 -0.6728 -0.0998
  328MPD2     N 4931   3.835   1.774  16.770  0.2850  0.3232  0.1140
  328MPD2    H5 4932   3.887   1.785  16.683 -0.3521 -2.1899 -0.5831
  328MPD2    N1 4933   3.907   1.775  17.251  0.1777 -0.2403 -0.6018
  328MPD2    H7 4934   3.981   1.760  17.319 -0.1156  2.3435  0.2644
  329TMC3    C1 4935   3.813   1.927  17.401 -0.0919 -0.3485 -0.4769
  329TMC3    C2 4936   3.762   2.052  17.394  0.1753  0.2117  0.6347
  329TMC3    C3 4937   3.804   2.139  17.490 -1.1239 -0.2590 -0.0585
  329TMC3    C4 4938   3.916   1.884  17.489  0.4135  0.3446  0.4174
  329TMC3    C5 4939   3.952   1.979  17.581  0.6953  0.0864  0.2868
  329TMC3    C6 4940   3.900   2.110  17.582  0.2852 -0.2972  0.2865
  329TMC3     C 4941   3.800   1.850  17.282  0.1964  0.7606  0.1817
  329TMC3     O 4942   3.702   1.881  17.217  0.1075  0.0771  0.6011
  329TMC3     H 4943   3.682   2.087  17.329 -0.8136 -0.7084  1.3690
  329TMC3    H1 4944   3.952   1.782  17.497  1.8016  0.7671 -0.3567
  329TMC3    H2 4945   3.913   2.187  17.657  1.3319 -1.3287  1.1793
  329TMC3    C7 4946   4.032   1.929   0.002 -0.5346  0.4485 -0.5871
  329TMC3    C8 4947   3.763   2.272  17.463 -0.1251 -0.3629 -0.4204
  329TMC3    O1 4948   4.030   1.810   0.035  0.0828 -0.3793 -0.1893
  329TMC3    O2 4949   3.645   2.283  17.455 -0.1460  0.1746 -0.1206
  330TMC3    C1 4950   2.167   1.155   9.172 -0.1892 -0.1916 -0.0910
  330TMC3    C2 4951   2.277   1.111   9.101 -0.0736 -0.6270  0.4430
  330TMC3    C3 4952   2.404   1.158   9.139 -0.3116  0.2023  0.7144
  330TMC3    C4 4953   2.176   1.254   9.266  0.0241 -0.6375  0.0538
  330TMC3    C5 4954   2.304   1.307   9.283  0.4297 -0.1450 -0.0549
  330TMC3    C6 4955   2.426   1.261   9.225 -0.4305  0.0698 -0.0571
  330TMC3     C 4956   2.050   1.072   9.154 -0.1360  0.4967  0.2987
  330TMC3     O 4957   2.039   0.998   9.060 -0.1601 -0.4479 -1.3142
  330TMC3     H 4958   2.260   1.028   9.034 -0.1066  1.1499 -1.7637
  330TMC3    H1 4959   2.081   1.298   9.293  0.1103  0.0481 -0.7601
  330TMC3    H2 4960   2.522   1.298   9.257 -0.2827 -1.3861  1.2192
  330TMC3    C7 4961   2.308   1.415   9.383  0.1646 -0.5011 -0.2165
  330TMC3    C8 4962   2.514   1.081   9.089 -0.5063  0.1674 -0.4603
  330TMC3    O1 4963   2.199   1.449   9.424  0.2528  0.3046 -0.5442
  330TMC3    O2 4964   2.623   1.140   9.089 -0.6181  0.4427 -0.3918
  331MPD2     C 4965   4.081   0.771  12.359 -0.5750 -0.0540  0.2771
  331MPD2    C1 4966   4.185   0.808  12.275  0.0973 -1.2196  1.2016
  331MPD2    C2 4967   4.297   0.725  12.266  0.1537 -0.5580  0.5694
  331MPD2    C3 4968   4.310   0.618  12.341 -0.6893  0.5752 -0.6415
  331MPD2    C4 4969   4.207   0.579  12.425  0.3163  0.6565  0.1000
  331MPD2    C5 4970   4.090   0.656  12.429 -0.0587  0.2730  0.5754
  331MPD2     H 4971   4.381   0.762  12.209 -0.3996 -3.4302 -2.0946
  331MPD2    H1 4972   4.202   0.499  12.498 -0.7002 -0.1338 -0.8504
  331MPD2    H2 4973   4.008   0.845  12.390 -0.3221  0.0661  0.5938
  331MPD2    H3 4974   4.000   0.625  12.481  0.0653 -2.7882 -1.0612
  331MPD2     N 4975   4.443   0.568  12.347 -0.0283 -0.9252  0.4908
  331MPD2    H5 4976   4.510   0.618  12.290  1.2652 -1.2664  1.6985
  331MPD2    N1 4977   4.201   0.942  12.225 -0.1321 -0.3611  0.5685
  331MPD2    H7 4978   4.297   0.963  12.198  0.3277 -3.9824 -0.5053
  332TMC3    C1 4979   4.644   0.502  12.439 -0.8375 -0.0070 -0.0982
  332TMC3    C2 4980   4.703   0.578  12.334 -0.0462 -0.8166  0.4877
  332TMC3    C3 4981   0.117   0.570  12.336 -0.0336  0.4986 -0.3000
  332TMC3    C4 4982   4.716   0.434  12.535 -0.2042 -0.2065 -0.0076
  332TMC3    C5 4983   0.132   0.431  12.529  0.4216  0.5038 -0.0862
  332TMC3    C6 4984   0.193   0.501  12.427 -0.0826 -0.8598 -0.8693
  332TMC3     C 4985   4.498   0.505  12.458 -0.3157  0.2392  1.0219
  332TMC3     O 4986   4.446   0.479  12.562  0.2174 -0.8859  0.1735
  332TMC3     H 4987   4.645   0.621  12.253 -0.3738 -2.0277  0.0745
  332TMC3    H1 4988   4.670   0.356  12.595 -1.1499 -0.2288 -0.7639
  332TMC3    H2 4989   0.300   0.509  12.411 -0.3409  2.0062 -1.0111
  332TMC3    C7 4990   0.200   0.327  12.599 -0.8432 -0.1150  0.4908
  332TMC3    C8 4991   0.192   0.653  12.234  0.2765 -0.1869  0.4798
  332TMC3    O1 4992   0.136   0.237  12.652 -0.3426 -0.0435 -0.5787
  332TMC3    O2 4993   0.303   0.687  12.275 -0.0065 -0.3839 -0.5925
  333MPD2     C 4994   0.314   0.687  11.516  0.2542 -0.3193 -0.0796
  333MPD2    C1 4995   0.339   0.599  11.409  0.0718 -0.3148 -0.5040
  333MPD2    C2 4996   0.284   0.471  11.420  0.2814  0.1538 -0.4497
  333MPD2    C3 4997   0.221   0.425  11.536  0.6397  0.1169 -0.0841
  333MPD2    C4 4998   0.208   0.513  11.640 -0.0532 -0.4181  0.3202
  333MPD2    C5 4999   0.255   0.639  11.631 -0.0080  0.2065 -0.0002
  333MPD2     H 5000   0.302   0.391  11.350  0.3968  0.8276 -1.1922
  333MPD2    H1 5001   0.164   0.490  11.736 -2.6860 -1.3241 -1.1054
  333MPD2    H2 5002   0.341   0.790  11.493 -0.0004  0.0547  1.2758
  333MPD2    H3 5003   0.255   0.705  11.717  0.8662  0.8689 -0.5106
  333MPD2     N 5004   0.171   0.291  11.537 -0.2039 -0.1234  0.3000
  333MPD2    H5 5005   0.196   0.228  11.462 -0.4791  1.9750 -1.5853
  333MPD2    N1 5006   0.396   0.653  11.289 -0.5880 -0.3523  0.0558
  333MPD2    H7 5007   0.435   0.747  11.291  1.0585 -1.0299 -0.6496
  334TMC3    C1 5008   0.467   0.669  11.063  0.4877 -0.3691  0.3673
  334TMC3    C2 5009   0.517   0.597  10.949  0.6615 -0.0504 -0.4901
  334TMC3    C3 5010   0.579   0.665  10.850 -0.1947 -0.1357  0.0090
  334TMC3    C4 5011   0.475   0.804  11.080 -0.0302 -0.6005 -0.1485
  334TMC3    C5 5012   0.546   0.865  10.979 -0.0620  0.2431 -0.0458
  334TMC3    C6 5013   0.595   0.800  10.867  0.7615 -0.4638 -0.3808
  334TMC3     C 5014   0.421   0.587  11.169  0.1844 -0.0348 -0.0797
  334TMC3     O 5015   0.390   0.473  11.141  0.2917 -0.3072 -0.7514
  334TMC3     H 5016   0.513   0.489  10.950 -0.8217  0.0520  2.3570
  334TMC3    H1 5017   0.440   0.861  11.165 -1.1764 -1.9334  0.2597
  334TMC3    H2 5018   0.654   0.848  10.789  0.2769  0.3528 -0.2438
  334TMC3    C7 5019   0.566   0.999  10.985  0.5293 -0.0307  0.4245
  334TMC3    C8 5020   0.651   0.575  10.759  0.4676 -0.6995 -0.3221
  334TMC3    O1 5021   0.663   1.044  10.924 -0.1442 -0.2579 -0.1815
  334TMC3    O2 5022   0.589   0.473  10.728 -0.2503  0.5167 -0.3732
  335TMC3    C1 5023   4.671   2.530  17.375  0.2525  0.4870  0.1609
  335TMC3    C2 5024   4.585   2.454  17.312  0.1084  0.2408  0.2360
  335TMC3    C3 5025   4.579   2.463  17.175  0.3510 -0.3167 -0.6666
  335TMC3    C4 5026   0.046   2.610  17.311  0.0236 -0.3640 -0.2997
  335TMC3    C5 5027   0.036   2.613  17.175 -0.9387 -0.1116 -0.0052
  335TMC3    C6 5028   4.667   2.544  17.104 -0.3663 -0.1085 -0.2277
  335TMC3     C 5029   4.675   2.499  17.516 -0.2022  0.8965  0.0571
  335TMC3     O 5030   4.635   2.389  17.549 -0.3375  0.3046 -0.2193
  335TMC3     H 5031   4.508   2.402  17.368  0.4702  0.3206  0.8034
  335TMC3    H1 5032   0.126   2.649  17.373 -0.8776 -2.6461  2.2555
  335TMC3    H2 5033   4.667   2.551  16.996 -0.4154  0.3295 -0.1993
  335TMC3    C7 5034   0.151   2.659  17.099  0.3486  0.4654  0.2851
  335TMC3    C8 5035   4.513   2.367  17.095 -0.1060 -1.1114 -0.1204
  335TMC3    O1 5036   0.179   2.602  17.000 -0.4907  0.2534 -0.3291
  335TMC3    O2 5037   4.461   2.404  16.990 -0.0062 -0.0786 -0.7983
  336MPD2     C 5038   4.696   0.013  15.506  0.3773 -0.3054  0.1261
  336MPD2    C1 5039   4.569   4.675  15.483  0.6575  0.1701  0.2393
  336MPD2    C2 5040   4.533   4.568  15.562 -0.1653 -0.0683 -0.2039
  336MPD2    C3 5041   4.615   4.526  15.662  0.3918 -0.4608  0.5837
  336MPD2    C4 5042   0.020   4.579  15.677  0.0808 -0.2151 -0.1568
  336MPD2    C5 5043   0.058   4.688  15.603 -0.0863  0.2072 -0.1181
  336MPD2     H 5044   4.436   4.521  15.550 -0.4199  0.3245  0.3144
  336MPD2    H1 5045   0.084   4.539  15.756 -1.3558 -2.2702 -0.0357
  336MPD2    H2 5046   0.004   0.099  15.445 -0.5678 -2.4240 -3.3018
  336MPD2    H3 5047   0.155   0.013  15.618  0.9080 -1.3351 -1.8099
  336MPD2     N 5048   4.579   4.427  15.757 -0.5586 -0.6008 -0.1858
  336MPD2    H5 5049   4.634   4.423  15.842 -1.4906 -2.1658  0.3608
  336MPD2    N1 5050   4.481   0.006  15.391 -0.3991  0.2372  0.2252
  336MPD2    H7 5051   4.393   4.679  15.373  1.0275 -2.0433 -0.6706
  337TMC3    C1 5052   4.393   0.174  15.243  0.5808  0.0816  0.6178
  337TMC3    C2 5053   4.270   0.172  15.303 -0.0748  1.1521 -0.4843
  337TMC3    C3 5054   4.179   0.259  15.260 -0.2654  0.0987  0.4142
  337TMC3    C4 5055   4.425   0.252  15.132  0.3623  0.5290 -0.2483
  337TMC3    C5 5056   4.327   0.334  15.085  0.4276  0.1074  0.4502
  337TMC3    C6 5057   4.209   0.342  15.152 -0.1069 -0.4289  0.2853
  337TMC3     C 5058   4.505   0.116  15.308 -0.0156 -0.5013 -0.0292
  337TMC3     O 5059   4.608   0.163  15.264  0.6724 -0.0490 -0.1651
  337TMC3     H 5060   4.258   0.117  15.395  0.9164  0.7867 -0.5713
  337TMC3    H1 5061   4.524   0.257  15.088 -0.3345  2.6551 -1.5930
  337TMC3    H2 5062   4.135   0.414  15.119 -0.4908 -0.4439  1.1272
  337TMC3    C7 5063   4.334   0.400  14.959  0.8042 -0.5386 -0.1808
  337TMC3    C8 5064   4.056   0.283  15.338  0.3676  0.6165  0.3854
  337TMC3    O1 5065   4.255   0.491  14.940 -0.2694 -0.0329  0.6607
  337TMC3    O2 5066   4.054   0.253  15.455  0.3085  0.0880 -0.3673
  338MPD2     C 5067   0.117   4.620   0.820  0.0735 -0.1115 -0.2132
  338MPD2    C1 5068   0.103   4.585   0.686  0.0856  0.9415 -0.1244
  338MPD2    C2 5069   4.701   4.592   0.624 -0.1294  0.5169 -0.2718
  338MPD2    C3 5070   4.587   4.620   0.705  0.1636 -0.0835 -1.1107
  338MPD2    C4 5071   4.608   4.655   0.836  0.7292 -1.1298  0.3566
  338MPD2    C5 5072   0.009   4.656   0.893 -0.1384 -0.7696 -0.1663
  338MPD2     H 5073   4.675   4.571   0.521  0.6712  0.5447 -0.4813
  338MPD2    H1 5074   4.522   4.676   0.898  0.9687  0.6057  0.0945
  338MPD2    H2 5075   0.213   4.620   0.871 -0.0873 -3.6501  0.0857
  338MPD2    H3 5076   0.024   4.686   0.996 -2.7267 -2.2706  0.6630
  338MPD2     N 5077   4.460   4.627   0.639  0.1740  0.4873 -0.3052
  338MPD2    H5 5078   4.458   4.631   0.538  2.8430 -0.1207 -0.3778
  338MPD2    N1 5079   0.209   4.549   0.611  0.7173 -0.5538 -0.0268
  338MPD2    H7 5080   0.184   4.529   0.515 -0.9442  1.1348  0.0809
  339TMC3    C1 5081   4.230   4.620   0.602  0.0426 -0.9344 -0.0891
  339TMC3    C2 5082   4.146   4.512   0.620  0.2188 -0.0506  0.5925
  339TMC3    C3 5083   4.130   4.435   0.509  0.8103  0.3983 -0.2066
  339TMC3    C4 5084   4.285   4.652   0.485 -0.1019  0.6757  0.2323
  339TMC3    C5 5085   4.265   4.572   0.379  0.2260  0.3367 -0.2781
  339TMC3    C6 5086   4.192   4.453   0.386 -0.4947  0.1574  0.2705
  339TMC3     C 5087   4.338   4.638   0.701  0.0287  0.5510  0.0959
  339TMC3     O 5088   4.311   4.618   0.818  0.0418 -0.6193  0.0737
  339TMC3     H 5089   4.121   4.485   0.721 -1.0869 -0.0381  0.2789
  339TMC3    H1 5090   4.339   0.024   0.470 -1.7812  1.3777 -1.4884
  339TMC3    H2 5091   4.181   4.380   0.308  1.2672 -1.9559  2.0102
  339TMC3    C7 5092   4.357   4.590   0.275  1.1356  0.1188 -0.1070
  339TMC3    C8 5093   4.057   4.311   0.526  0.7789 -0.0585  0.0380
  339TMC3    O1 5094   4.434   4.684   0.287 -0.5510  0.0607 -0.4875
  339TMC3    O2 5095   4.105   4.213   0.470  0.0198 -0.8116  0.4300
  340MPD2     C 5096   4.646   1.828  10.184 -0.2147 -0.2143 -0.1353
  340MPD2    C1 5097   4.690   1.700  10.183 -0.3049  0.2648 -0.0898
  340MPD2    C2 5098   4.689   1.629  10.299 -0.4752  0.2709  0.5115
  340MPD2    C3 5099   4.643   1.690  10.415  0.4070 -0.0347 -0.5912
  340MPD2    C4 5100   4.619   1.826  10.415 -0.1993 -0.5569 -0.4576
  340MPD2    C5 5101   4.602   1.893  10.297  0.2038  0.7067  0.6537
  340MPD2     H 5102   4.719   1.525  10.297  0.4246  0.5355  0.3189
  340MPD2    H1 5103   4.589   1.882  10.503 -0.6414  0.2905 -1.1409
  340MPD2    H2 5104   4.641   1.885  10.092 -0.1540  1.8180  1.1250
  340MPD2    H3 5105   4.551   1.988  10.301 -1.7150 -0.1853 -2.5498
  340MPD2     N 5106   4.652   1.629  10.541  0.1681  0.0576 -0.2007
  340MPD2    H5 5107   4.641   1.688  10.622 -1.4990  1.2795 -1.3189
  340MPD2    N1 5108   0.008   1.653  10.057 -0.7853  0.1355 -0.1363
  340MPD2    H7 5109   0.005   1.720   9.981 -2.3977 -1.1724 -1.2433
  341TMC3    C1 5110   0.049   1.476   9.892  0.8470 -0.3707 -0.4591
  341TMC3    C2 5111   4.715   1.362   9.850  0.0467 -0.5006 -0.4015
  341TMC3    C3 5112   0.015   1.327   9.718 -0.1962  0.1594 -0.2821
  341TMC3    C4 5113   0.131   1.553   9.818 -0.3371 -1.0055  0.3885
  341TMC3    C5 5114   0.156   1.510   9.688 -0.0232  0.2191  0.1373
  341TMC3    C6 5115   0.100   1.399   9.630  0.4575 -0.5490  1.0258
  341TMC3     C 5116   0.018   1.519  10.035 -0.8094 -0.0875  0.3388
  341TMC3     O 5117   4.716   1.424  10.107 -0.0334  0.2130  0.3096
  341TMC3     H 5118   4.669   1.295   9.920  1.5028 -2.3482 -1.2141
  341TMC3    H1 5119   0.182   1.638   9.860  0.4667 -1.8374  1.0980
  341TMC3    H2 5120   0.125   1.375   9.527  1.8206 -0.1921  1.2752
  341TMC3    C7 5121   0.233   1.601   9.600 -0.2918 -0.3016 -0.0009
  341TMC3    C8 5122   4.675   1.199   9.668  0.1327  0.2893 -0.1063
  341TMC3    O1 5123   0.303   1.548   9.513  0.2249  0.3203  0.8021
  341TMC3    O2 5124   4.630   1.120   9.752  0.4134  0.1234 -0.3408
  342MPD2     C 5125   2.826   0.750   0.044 -0.8856  0.5267  0.4848
  342MPD2    C1 5126   2.927   0.747  17.630  0.2520  0.3078 -0.3998
  342MPD2    C2 5127   3.008   0.863  17.608  0.0208 -0.2604 -0.1001
  342MPD2    C3 5128   2.987   0.970   0.010 -0.1552  0.1167 -0.1868
  342MPD2    C4 5129   2.884   0.971   0.103 -0.4914 -0.3508  0.8873
  342MPD2    C5 5130   2.803   0.866   0.119  0.3071 -0.2423 -0.4748
  342MPD2     H 5131   3.074   0.861  17.522  1.8119  1.9103  1.2140
  342MPD2    H1 5132   2.872   1.061   0.162 -0.7553  0.0214  0.2702
  342MPD2    H2 5133   2.759   0.671   0.073 -0.4644  0.7261  1.9871
  342MPD2    H3 5134   2.730   0.860   0.198  0.5403 -3.7530 -0.5358
  342MPD2     N 5135   3.061   1.090  17.686  1.0734 -0.3608  0.1123
  342MPD2    H5 5136   3.021   1.165   0.056 -0.6303 -0.8695 -0.4182
  342MPD2    N1 5137   2.963   0.636  17.548  0.0943  0.2505 -0.2704
  342MPD2    H7 5138   3.044   0.652  17.489 -0.0804 -0.6420 -0.7587
  343TMC3    C1 5139   2.977   0.399  17.508 -0.0909  0.0963 -0.0925
  343TMC3    C2 5140   3.086   0.407  17.431 -0.1355 -0.0293 -0.1362
  343TMC3    C3 5141   3.140   0.293  17.372  1.8265  0.7899  0.0969
  343TMC3    C4 5142   2.907   0.282  17.530  0.2599 -0.3833  0.5219
  343TMC3    C5 5143   2.968   0.173  17.470  0.3179 -0.4331 -0.8532
  343TMC3    C6 5144   3.083   0.174  17.394  0.0529 -0.3931 -0.2271
  343TMC3     C 5145   2.911   0.508  17.567  0.0223  0.0359  0.1083
  343TMC3     O 5146   2.812   0.485  17.637 -0.2318  0.1069 -0.2210
  343TMC3     H 5147   3.133   0.503  17.414 -3.2738  1.0482 -2.6421
  343TMC3    H1 5148   2.813   0.272  17.583 -0.7657  0.1219 -1.2069
  343TMC3    H2 5149   3.130   0.078  17.376 -1.0721 -0.9172 -0.3548
  343TMC3    C7 5150   2.907   0.037  17.475  0.0399 -0.2617 -0.4396
  343TMC3    C8 5151   3.282   0.294  17.319 -0.7352  0.0113 -0.3397
  343TMC3    O1 5152   2.919   4.686  17.376 -0.2517  0.3394 -0.0583
  343TMC3    O2 5153   3.347   0.392  17.346 -0.2733  0.0200  0.2090
  344MPD2     C 5154   4.154   0.003  10.527  0.0889  0.4325  0.1959
  344MPD2    C1 5155   4.037   0.000  10.453  0.1793  0.7796  0.4035
  344MPD2    C2 5156   4.017   0.102  10.363 -0.6759 -0.0498 -0.3812
  344MPD2    C3 5157   4.100   0.208  10.360 -0.1603 -0.7036  0.3417
  344MPD2    C4 5158   4.219   0.207  10.437  0.1927  0.5215  0.3572
  344MPD2    C5 5159   4.239   0.107  10.526 -0.0014 -0.3156 -1.0345
  344MPD2     H 5160   3.926   0.108  10.305 -0.1535 -2.0295 -1.4315
  344MPD2    H1 5161   4.294   0.285  10.428  3.2476 -2.6930 -2.1264
  344MPD2    H2 5162   4.185   4.657  10.606  0.4439  0.0971 -0.2254
  344MPD2    H3 5163   4.330   0.115  10.585 -1.3108 -1.3348  1.0923
  344MPD2     N 5164   4.075   0.328  10.283 -0.1737 -0.0751 -0.3464
  344MPD2    H5 5165   4.142   0.402  10.301 -0.2464 -0.2259  0.5789
  344MPD2    N1 5166   3.929   4.629  10.475 -0.2936  0.2590  0.3640
  344MPD2    H7 5167   3.851   4.635  10.409 -1.1497 -0.5736  1.2933
  345TMC3    C1 5168   3.994   0.480  10.125 -0.7108  1.0228  0.3218
  345TMC3    C2 5169   4.009   0.588  10.211  0.8520 -0.1209 -0.7022
  345TMC3    C3 5170   4.014   0.713  10.160 -0.0703 -0.3317 -0.0891
  345TMC3    C4 5171   3.970   0.499   9.991 -0.3735 -0.2726  0.9668
  345TMC3    C5 5172   3.967   0.627   9.945 -0.0591 -0.2523  0.1776
  345TMC3    C6 5173   3.990   0.732  10.028 -1.0960 -0.6179  0.1497
  345TMC3     C 5174   3.987   0.345  10.177  0.4214 -0.5780  0.2429
  345TMC3     O 5175   3.929   0.254  10.116 -0.1817 -0.6833  0.6716
  345TMC3     H 5176   4.011   0.564  10.317  0.2711 -0.4198 -0.7579
  345TMC3    H1 5177   3.975   0.412   9.927  3.5918 -0.6383  1.7713
  345TMC3    H2 5178   3.999   0.833   9.988 -1.8155 -0.0133  1.5092
  345TMC3    C7 5179   3.978   0.659   9.808 -0.0812 -0.0390 -0.1612
  345TMC3    C8 5180   4.023   0.827  10.246  0.1611  0.2754  0.5578
  345TMC3    O1 5181   4.042   0.764   9.790 -0.1410  0.0246 -0.4427
  345TMC3    O2 5182   4.022   0.936  10.188 -0.1702  0.0969  0.4419
  346MPD2     C 5183   3.572   1.265  12.955 -0.1206 -0.6456  0.0961
  346MPD2    C1 5184   3.606   1.384  13.012 -0.0686 -0.2131  0.0470
  346MPD2    C2 5185   3.636   1.386  13.144  0.0812  0.3538  0.0956
  346MPD2    C3 5186   3.618   1.272  13.215  0.0192  0.0063  0.3212
  346MPD2    C4 5187   3.591   1.149  13.155  0.7341 -0.3556  1.0555
  346MPD2    C5 5188   3.566   1.148  13.026 -0.0071 -0.6704  0.3777
  346MPD2     H 5189   3.682   1.478  13.177  0.8547 -0.4693  1.3283
  346MPD2    H1 5190   3.574   1.054  13.204  2.6861 -0.4245  1.5842
  346MPD2    H2 5191   3.540   1.261  12.851  0.5474  0.5505 -0.1573
  346MPD2    H3 5192   3.524   1.061  12.977  1.4215  1.0997 -4.0081
  346MPD2     N 5193   3.657   1.280  13.345 -0.7323 -0.3719 -0.4102
  346MPD2    H5 5194   3.655   1.376  13.377  0.8144 -0.4142 -0.1947
  346MPD2    N1 5195   3.623   1.500  12.934 -0.0245  0.0331  0.2325
  346MPD2    H7 5196   3.647   1.588  12.977 -1.3963  0.7156 -0.4229
  347TMC3    C1 5197   3.729   1.220  13.561 -0.5695 -0.2775 -0.1981
  347TMC3    C2 5198   3.853   1.209  13.604  0.1450 -0.7544 -0.0174
  347TMC3    C3 5199   3.899   1.308  13.684  0.4060  0.5743  0.5905
  347TMC3    C4 5200   3.648   1.326  13.597  0.2815  0.3156 -1.0180
  347TMC3    C5 5201   3.694   1.413  13.690 -0.1412 -0.1363 -0.0681
  347TMC3    C6 5202   3.828   1.418  13.731  0.4401 -0.0319 -0.8942
  347TMC3     C 5203   3.713   1.177  13.424 -0.9138 -0.7992  0.5258
  347TMC3     O 5204   3.758   1.063  13.391 -0.0290 -0.3545  0.1759
  347TMC3     H 5205   3.924   1.129  13.583  0.5185 -0.2720 -0.5951
  347TMC3    H1 5206   3.547   1.329  13.559 -0.1781  0.7052  0.2277
  347TMC3    H2 5207   3.881   1.498  13.780 -1.0120 -0.2111  0.9433
  347TMC3    C7 5208   3.622   1.539  13.694 -0.1813 -0.5174 -0.2161
  347TMC3    C8 5209   4.043   1.320  13.701 -0.3500  0.5683 -0.5381
  347TMC3    O1 5210   3.561   1.562  13.592 -0.1514 -0.2877 -0.0374
  347TMC3    O2 5211   4.108   1.315  13.596 -0.4378 -0.9338  0.0943
  348MPD2     C 5212   1.924   1.422  11.805 -0.4325 -0.0439  0.2596
  348MPD2    C1 5213   2.056   1.442  11.790 -0.1398 -0.2908 -0.4161
  348MPD2    C2 5214   2.114   1.438  11.667 -0.0912  0.4725  0.3140
  348MPD2    C3 5215   2.047   1.410  11.552  0.4797  0.9591  0.6260
  348MPD2    C4 5216   1.906   1.387  11.566 -0.0046 -0.1459  0.0320
  348MPD2    C5 5217   1.847   1.399  11.688 -0.5662  0.3034  0.2555
  348MPD2     H 5218   2.222   1.444  11.663  0.0107 -0.9303  1.2804
  348MPD2    H1 5219   1.843   1.376  11.479 -1.5882  1.0506  1.0270
  348MPD2    H2 5220   1.876   1.435  11.902 -1.2516 -1.7071  0.0810
  348MPD2    H3 5221   1.741   1.376  11.698 -0.6458 -0.0327 -1.3924
  348MPD2     N 5222   2.111   1.403  11.425 -0.0175 -0.0038  0.5883
  348MPD2    H5 5223   2.210   1.387  11.433  0.5154  3.1024  0.1554
  348MPD2    N1 5224   2.139   1.452  11.906 -0.5090 -0.0545  0.5971
  348MPD2    H7 5225   2.227   1.502  11.901  0.3279 -1.4534  1.1507
  349TMC3    C1 5226   2.188   1.505  12.139  0.8417 -0.5373  0.2350
  349TMC3    C2 5227   2.248   1.401  12.209 -0.1720  0.7874 -0.5225
  349TMC3    C3 5228   2.384   1.403  12.210  0.0070 -0.2030 -0.4077
  349TMC3    C4 5229   2.256   1.609  12.086 -0.3196 -0.5885  0.0128
  349TMC3    C5 5230   2.395   1.603  12.086 -0.8745 -0.6463  0.4254
  349TMC3    C6 5231   2.462   1.495  12.144 -0.4839  0.2579 -0.0390
  349TMC3     C 5232   2.098   1.444  12.038 -0.5740 -0.6584 -0.2157
  349TMC3     O 5233   2.012   1.373  12.085 -0.4565  0.1848  0.1479
  349TMC3     H 5234   2.182   1.317  12.226  0.3040  0.6026  0.3609
  349TMC3    H1 5235   2.207   1.688  12.031 -1.5562 -0.0978  1.8163
  349TMC3    H2 5236   2.560   1.507  12.188 -0.0854 -2.1127 -0.2755
  349TMC3    C7 5237   2.448   1.636  11.963  0.4917  0.8179  0.1666
  349TMC3    C8 5238   2.444   1.275  12.234  0.8383  0.1914 -0.1265
  349TMC3    O1 5239   2.384   1.611  11.864 -0.0373  0.3021  0.1999
  349TMC3    O2 5240   2.375   1.193  12.299 -0.1432 -0.5290 -0.0902
  350MPD2     C 5241   1.502   3.507   9.795 -0.1427  0.5605  0.2013
  350MPD2    C1 5242   1.560   3.411   9.872 -0.3608 -0.0627 -0.6892
  350MPD2    C2 5243   1.686   3.435   9.922 -0.6766  0.7922 -0.3335
  350MPD2    C3 5244   1.763   3.545   9.900 -0.5102  0.0947  0.5528
  350MPD2    C4 5245   1.705   3.640   9.814 -0.2449  0.7929  0.0929
  350MPD2    C5 5246   1.574   3.620   9.771 -0.5477  0.2472  0.5576
  350MPD2     H 5247   1.716   3.372  10.005  0.3034  0.3530 -1.0182
  350MPD2    H1 5248   1.733   3.740   9.780 -1.4645  2.0773  2.8471
  350MPD2    H2 5249   1.405   3.501   9.747  0.1078 -2.0390  0.0163
  350MPD2    H3 5250   1.524   3.705   9.726 -0.5583 -1.1912 -2.1328
  350MPD2     N 5251   1.879   3.573   9.976 -0.5478 -0.3662  0.2428
  350MPD2    H5 5252   1.907   3.512  10.053 -2.4307  0.3317  1.4924
  350MPD2    N1 5253   1.491   3.295   9.897 -0.2448  0.1510 -0.0494
  350MPD2    H7 5254   1.541   3.214   9.934 -0.3800  0.0837 -0.0143
  351TMC3    C1 5255   1.323   3.136   9.909 -0.2280  0.0846  0.0120
  351TMC3    C2 5256   1.391   3.036   9.844  0.0533  0.1974 -0.2181
  351TMC3    C3 5257   1.343   2.910   9.849 -0.1987 -0.1728 -0.1711
  351TMC3    C4 5258   1.206   3.108   9.969 -0.0232  0.4226  0.1525
  351TMC3    C5 5259   1.159   2.978   9.970 -1.1531 -0.5317 -0.1236
  351TMC3    C6 5260   1.237   2.874   9.920 -0.3818 -0.1206  0.4251
  351TMC3     C 5261   1.353   3.273   9.891 -0.4578  0.4692 -0.0241
  351TMC3     O 5262   1.263   3.357   9.885  0.4807  0.0851 -0.1678
  351TMC3     H 5263   1.476   3.065   9.784 -0.2982  4.6307  1.4089
  351TMC3    H1 5264   1.156   3.188  10.021  2.8911  1.6781  0.9530
  351TMC3    H2 5265   1.207   2.774   9.949 -0.5903 -0.8569 -2.3138
  351TMC3    C7 5266   1.037   2.953  10.043 -0.4619 -0.2624 -0.3684
  351TMC3    C8 5267   1.435   2.815   9.782  0.5164 -0.4187 -0.3669
  351TMC3    O1 5268   1.003   3.042  10.118 -0.0789 -0.0014 -0.0649
  351TMC3    O2 5269   1.537   2.867   9.744 -0.4346  0.0512 -0.1944
  352MPD2     C 5270   0.484   1.614   1.285 -0.3970 -0.5357 -0.3235
  352MPD2    C1 5271   0.358   1.575   1.306  0.5470  0.1607  0.3359
  352MPD2    C2 5272   0.335   1.441   1.331  0.3621 -0.8263 -0.0119
  352MPD2    C3 5273   0.442   1.348   1.347  1.2950  0.2609 -0.5773
  352MPD2    C4 5274   0.570   1.394   1.336  0.3532 -0.0768  0.0793
  352MPD2    C5 5275   0.588   1.528   1.311  0.2167  0.7976 -0.1245
  352MPD2     H 5276   0.235   1.399   1.333 -0.6834  1.8067  2.5574
  352MPD2    H1 5277   0.651   1.323   1.349 -0.6158 -0.9715  1.2199
  352MPD2    H2 5278   0.516   1.709   1.243 -1.6550 -0.4229 -1.0105
  352MPD2    H3 5279   0.690   1.562   1.299  0.2957  0.8582  0.7526
  352MPD2     N 5280   0.435   1.209   1.357 -0.2649 -0.1929  0.0222
  352MPD2    H5 5281   0.518   1.154   1.374 -0.5733 -0.6030  0.2130
  352MPD2    N1 5282   0.255   1.670   1.291 -0.1813 -0.1986 -0.1717
  352MPD2    H7 5283   0.282   1.755   1.242  1.6551 -1.4563 -1.3150
  353TMC3    C1 5284   0.349   0.989   1.353  0.3759 -0.0909  0.8301
  353TMC3    C2 5285   0.474   0.939   1.363 -0.0569 -0.0042  0.1188
  353TMC3    C3 5286   0.491   0.806   1.393  0.0903 -0.8035  0.6792
  353TMC3    C4 5287   0.245   0.905   1.357 -0.0319  0.0960  0.1434
  353TMC3    C5 5288   0.265   0.772   1.384  0.6016 -0.5568  0.0641
  353TMC3    C6 5289   0.390   0.717   1.404 -0.3467 -0.5388  0.2469
  353TMC3     C 5290   0.322   1.135   1.350  0.0958  0.5070 -0.1522
  353TMC3     O 5291   0.202   1.167   1.356  0.3279 -0.3444  0.3885
  353TMC3     H 5292   0.565   0.998   1.358  0.5565 -1.2183 -2.9473
  353TMC3    H1 5293   0.142   0.936   1.343 -0.1875  0.4371  2.0294
  353TMC3    H2 5294   0.402   0.610   1.422 -0.5475 -0.6443 -0.2488
  353TMC3    C7 5295   0.151   0.685   1.384 -0.7677 -0.8215 -0.2733
  353TMC3    C8 5296   0.620   0.749   1.366 -0.0090 -0.0170 -0.4221
  353TMC3    O1 5297   0.046   0.718   1.332 -0.8020  0.2662 -0.2499
  353TMC3    O2 5298   0.715   0.816   1.400 -0.4556 -0.0434 -0.6852
  354TMC3    C1 5299   1.571   3.003  13.522 -0.0313 -0.4202 -0.5096
  354TMC3    C2 5300   1.516   3.062  13.408  0.0417  0.2371 -0.2407
  354TMC3    C3 5301   1.578   3.055  13.292 -0.0452  0.9043  0.0258
  354TMC3    C4 5302   1.691   2.933  13.515  0.5749 -0.7417  0.1710
  354TMC3    C5 5303   1.747   2.915  13.386 -0.9325 -0.8037 -0.9583
  354TMC3    C6 5304   1.695   2.988  13.278 -0.1317 -0.0058 -0.9367
  354TMC3     C 5305   1.478   2.927  13.601  0.2589 -0.4914  0.7920
  354TMC3     O 5306   1.369   2.910  13.552 -0.0248 -0.1392  0.0093
  354TMC3     H 5307   1.413   3.093  13.402 -0.7244 -2.4039 -0.9042
  354TMC3    H1 5308   1.712   2.854  13.586  3.4640  0.2078  0.3383
  354TMC3    H2 5309   1.732   2.975  13.177 -0.2695 -1.3474 -0.8217
  354TMC3    C7 5310   1.879   2.863  13.372 -0.2599 -0.4384 -0.6191
  354TMC3    C8 5311   1.533   3.125  13.177  0.5423  0.5334  0.3711
  354TMC3    O1 5312   1.922   2.794  13.465  0.2628  0.0883 -0.0542
  354TMC3    O2 5313   1.547   3.089  13.065  0.7266 -0.3607  0.2055
  355MPD2     C 5314   1.654   3.488  11.662 -0.4231  0.0161  0.6091
  355MPD2    C1 5315   1.738   3.473  11.558  0.7678  0.5157  0.0949
  355MPD2    C2 5316   1.880   3.508  11.577 -0.2696  0.2017  0.2028
  355MPD2    C3 5317   1.924   3.560  11.698  0.8336  0.1328  0.1607
  355MPD2    C4 5318   1.830   3.574  11.796 -0.3713 -1.1939 -0.7173
  355MPD2    C5 5319   1.700   3.541  11.783 -0.4271 -0.7899  0.3606
  355MPD2     H 5320   1.952   3.487  11.498 -0.3951 -0.1975  0.1936
  355MPD2    H1 5321   1.859   3.626  11.887  2.0587 -0.7607 -1.7396
  355MPD2    H2 5322   1.550   3.462  11.651 -0.9904  2.5638  0.0192
  355MPD2    H3 5323   1.632   3.543  11.867 -0.1461 -0.7739  0.5893
  355MPD2     N 5324   2.060   3.607  11.722  0.0464  0.8735 -0.0317
  355MPD2    H5 5325   2.079   3.658  11.808 -3.5282  1.3209  0.5011
  355MPD2    N1 5326   1.685   3.415  11.439  0.3579 -0.4251  0.8946
  355MPD2    H7 5327   1.589   3.383  11.443 -0.0816  0.7146 -0.4212
  356TMC3    C1 5328   2.241   3.719  11.632  0.9589  0.5065 -0.4650
  356TMC3    C2 5329   2.322   3.746  11.524 -0.0031  0.0134 -0.6117
  356TMC3    C3 5330   2.374   3.873  11.511 -0.4708 -0.1173 -0.1087
  356TMC3    C4 5331   2.197   3.823  11.716  0.4347  0.3429 -0.7393
  356TMC3    C5 5332   2.250   3.944  11.694 -0.1715  0.7641  0.4303
  356TMC3    C6 5333   2.335   3.973  11.591  0.5527 -0.1830 -0.4603
  356TMC3     C 5334   2.157   3.604  11.634  0.8004  0.4770 -0.4900
  356TMC3     O 5335   2.162   3.529  11.537 -0.1197 -0.4026  0.0399
  356TMC3     H 5336   2.352   3.669  11.453  1.1352 -0.5508  0.4762
  356TMC3    H1 5337   2.130   3.806  11.800  0.8406 -0.5180 -0.5927
  356TMC3    H2 5338   2.367   4.070  11.557  2.5908 -0.4598  0.6507
  356TMC3    C7 5339   2.187   4.052  11.770 -0.6470 -0.3772  0.1967
  356TMC3    C8 5340   2.417   3.905  11.382  0.2797 -0.0029  0.1855
  356TMC3    O1 5341   2.096   4.023  11.843 -0.0072  0.2726  0.2690
  356TMC3    O2 5342   2.368   3.840  11.292  0.3656 -0.3347 -0.2792
  357MPD2     C 5343   0.794   3.093   0.450  0.0579 -0.5853  0.0387
  357MPD2    C1 5344   0.851   3.172   0.549 -0.6058  0.5649 -0.0491
  357MPD2    C2 5345   0.758   3.243   0.625 -0.2731 -0.4840  0.5223
  357MPD2    C3 5346   0.621   3.236   0.610 -0.2806  0.1573  0.6373
  357MPD2    C4 5347   0.572   3.143   0.516  0.2653 -0.3192 -0.0339
  357MPD2    C5 5348   0.658   3.080   0.434  0.2062 -0.1778  0.3612
  357MPD2     H 5349   0.798   3.320   0.689  0.8418 -0.0978 -0.6400
  357MPD2    H1 5350   0.466   3.151   0.493  0.0503 -1.0985  0.6857
  357MPD2    H2 5351   0.858   3.057   0.369 -0.5275 -2.5708  0.4497
  357MPD2    H3 5352   0.609   3.037   0.348  0.2029 -1.5094  1.0315
  357MPD2     N 5353   0.530   3.307   0.693 -0.1867  0.6506  0.2257
  357MPD2    H5 5354   0.434   3.284   0.672 -0.2442 -0.7840  2.0785
  357MPD2    N1 5355   0.988   3.184   0.564 -0.7880  0.1175 -0.0381
  357MPD2    H7 5356   1.045   3.159   0.483 -0.6792 -0.2783  0.1616
  358TMC3    C1 5357   1.189   3.268   0.657  0.6049  0.5544  0.4960
  358TMC3    C2 5358   1.268   3.194   0.573  0.9306 -0.3603 -0.3829
  358TMC3    C3 5359   1.399   3.242   0.562  0.6727 -0.5535 -0.2532
  358TMC3    C4 5360   1.233   3.380   0.727 -0.0809  0.3568 -0.1081
  358TMC3    C5 5361   1.365   3.419   0.706 -0.4995  0.3161 -0.3915
  358TMC3    C6 5362   1.452   3.347   0.636  0.0556  0.3980  0.0209
  358TMC3     C 5363   1.051   3.238   0.674  0.3886  0.2544  0.1354
  358TMC3     O 5364   1.007   3.268   0.784 -0.1721  0.1444 -0.8668
  358TMC3     H 5365   1.237   3.103   0.522  3.7774  0.2495 -3.1988
  358TMC3    H1 5366   1.168   3.451   0.779 -0.1248  0.0267  0.2917
  358TMC3    H2 5367   1.536   3.396   0.589 -0.9971  1.8033 -0.4043
  358TMC3    C7 5368   1.423   3.531   0.780 -0.4795  0.5152 -0.0829
  358TMC3    C8 5369   1.476   3.176   0.454 -0.1772 -0.2249 -0.2104
  358TMC3    O1 5370   1.361   3.640   0.787 -0.3071  0.6260  0.5179
  358TMC3    O2 5371   1.424   3.082   0.396  0.4000 -0.0352  0.4768
  359MPD2     C 5372   2.235   2.681  12.397 -0.3531 -0.2521 -0.5393
  359MPD2    C1 5373   2.221   2.547  12.363 -0.8550 -0.3366  0.0401
  359MPD2    C2 5374   2.102   2.482  12.392  0.0098 -0.4915 -0.2048
  359MPD2    C3 5375   2.003   2.549  12.467  0.4471 -0.5908  0.1994
  359MPD2    C4 5376   2.014   2.678  12.491  0.4188 -0.0046  0.6878
  359MPD2    C5 5377   2.129   2.746  12.457 -0.7605  0.1697 -1.0802
  359MPD2     H 5378   2.093   2.375  12.379 -0.2873 -0.4750 -0.1425
  359MPD2    H1 5379   1.937   2.731  12.546  1.8228  0.5452  2.1179
  359MPD2    H2 5380   2.321   2.737  12.361  0.3517 -2.3435 -2.1317
  359MPD2    H3 5381   2.148   2.850  12.481  0.7916 -0.6115  1.0546
  359MPD2     N 5382   1.899   2.476  12.537 -0.9227 -0.4572  0.1885
  359MPD2    H5 5383   1.849   2.534  12.604  1.7247  2.4282 -0.3611
  359MPD2    N1 5384   2.313   2.462  12.297 -0.3592 -0.0585 -0.3479
  359MPD2    H7 5385   2.292   2.365  12.277 -0.5492  0.5884 -3.2202
  360TMC3    C1 5386   2.480   2.423  12.139 -0.2414  0.6524 -0.4290
  360TMC3    C2 5387   2.613   2.429  12.123  0.7540  0.3987  0.1437
  360TMC3    C3 5388   2.671   2.352  12.029  0.2961  0.1155  0.8006
  360TMC3    C4 5389   2.403   2.328  12.084  0.3141 -0.5630 -0.5134
  360TMC3    C5 5390   2.464   2.240  12.004 -0.2088 -0.9758  0.3802
  360TMC3    C6 5391   2.597   2.247  11.972  0.2885  0.0047  0.2994
  360TMC3     C 5392   2.411   2.517  12.221 -0.4553 -0.3665  0.1359
  360TMC3     O 5393   2.460   2.629  12.218  0.0349 -0.0025 -0.2240
  360TMC3     H 5394   2.679   2.508  12.159 -0.5224  0.7280  1.7423
  360TMC3    H1 5395   2.294   2.324  12.091  0.4715  2.4908  3.2295
  360TMC3    H2 5396   2.645   2.181  11.900  0.1600  0.0380  0.1812
  360TMC3    C7 5397   2.381   2.143  11.940 -0.8251  0.3572  0.4441
  360TMC3    C8 5398   2.813   2.369  12.009 -1.2114  0.1368  0.8444
  360TMC3    O1 5399   2.394   2.116  11.822 -1.1323 -0.3587  0.1669
  360TMC3    O2 5400   2.881   2.414  12.106  0.4938  0.0003  0.1305
  361MPD2     C 5401   4.221   1.236  16.707 -0.2702 -0.3038 -0.1691
  361MPD2    C1 5402   4.175   1.209  16.835  0.8087 -0.9421  0.3867
  361MPD2    C2 5403   4.259   1.138  16.918 -0.3994 -0.3401 -0.1937
  361MPD2    C3 5404   4.378   1.082  16.865  0.1986  0.3835  0.2053
  361MPD2    C4 5405   4.423   1.110  16.736  0.2189 -0.6726  0.1081
  361MPD2    C5 5406   4.342   1.180  16.659  0.0204 -0.5497 -0.3624
  361MPD2     H 5407   4.239   1.127  17.023  1.7305 -0.3414  0.2109
  361MPD2    H1 5408   4.513   1.067  16.694  1.0604  1.3235 -0.1262
  361MPD2    H2 5409   4.161   1.297  16.640 -1.5847 -2.1138 -0.6278
  361MPD2    H3 5410   4.381   1.189  16.558  0.8708  1.8837  0.1683
  361MPD2     N 5411   4.458   1.001  16.942  0.2310 -0.2902  0.2342
  361MPD2    H5 5412   4.527   0.947  16.891  0.6648  2.1922 -1.7522
  361MPD2    N1 5413   4.050   1.256  16.889  0.2287 -0.7452  0.5518
  361MPD2    H7 5414   4.032   1.227  16.984  2.0078 -1.4573  0.6683
  362TMC3    C1 5415   3.843   1.349  16.896 -0.5519  0.2924  0.0372
  362TMC3    C2 5416   3.854   1.336  17.030 -0.1744  0.2721 -0.4964
  362TMC3    C3 5417   3.743   1.362  17.100 -0.5843 -0.6600 -0.0567
  362TMC3    C4 5418   3.725   1.358  16.833 -0.3821 -0.2046  0.0900
  362TMC3    C5 5419   3.611   1.368  16.906  0.5686 -0.6959  0.2913
  362TMC3    C6 5420   3.616   1.375  17.043 -0.0167 -0.5950 -0.5201
  362TMC3     C 5421   3.963   1.334  16.821  0.4051  0.5149  0.1423
  362TMC3     O 5422   3.963   1.385  16.710  0.0821  0.4324  0.0174
  362TMC3     H 5423   3.953   1.340  17.074 -0.8885 -1.7745  1.3050
  362TMC3    H1 5424   3.727   1.354  16.725  0.4320 -0.6750  0.1258
  362TMC3    H2 5425   3.528   1.392  17.105  2.0095  1.3926  1.8366
  362TMC3    C7 5426   3.478   1.350  16.848 -0.0350 -0.3421 -0.0969
  362TMC3    C8 5427   3.768   1.368  17.240  0.3103  0.6119  0.3452
  362TMC3    O1 5428   3.385   1.407  16.908 -0.1895  0.4238  0.4938
  362TMC3    O2 5429   3.871   1.324  17.277 -0.1305  0.2275  0.1433
  363TMC3    C1 5430   2.429   3.311   9.410  0.1923 -0.2384 -0.5753
  363TMC3    C2 5431   2.365   3.218   9.483  0.3470  0.4297  0.0364
  363TMC3    C3 5432   2.237   3.181   9.454 -0.3442  0.0615 -0.6540
  363TMC3    C4 5433   2.356   3.379   9.311 -0.2385  0.0903  0.0254
  363TMC3    C5 5434   2.228   3.340   9.282  0.0665 -0.0782  0.4674
  363TMC3    C6 5435   2.168   3.235   9.348 -0.5976 -0.6964 -0.4056
  363TMC3     C 5436   2.567   3.352   9.432 -0.3901  0.2049  0.6730
  363TMC3     O 5437   2.606   3.437   9.350 -0.2025  0.0978 -0.0110
  363TMC3     H 5438   2.404   3.190   9.580 -0.2741  0.3307  0.2556
  363TMC3    H1 5439   2.405   3.459   9.257  0.4601 -0.5844 -0.3342
  363TMC3    H2 5440   2.066   3.204   9.329 -1.2266  0.6837  0.7486
  363TMC3    C7 5441   2.135   3.420   9.200  0.1132 -0.5019  0.1063
  363TMC3    C8 5442   2.199   3.041   9.494  0.3326  0.0623  0.5584
  363TMC3    O1 5443   2.022   3.425   9.241 -0.1260  0.2024 -0.0634
  363TMC3    O2 5444   2.086   3.001   9.463 -0.0117  0.3118 -0.0097
  364MPD2     C 5445   0.845   2.997  10.602  0.5669 -0.3011  0.2771
  364MPD2    C1 5446   0.943   2.921  10.539  0.0939 -0.6426  0.1496
  364MPD2    C2 5447   0.959   2.792  10.580  0.3605 -0.0869  0.2842
  364MPD2    C3 5448   0.876   2.734  10.675  0.8193 -0.1336 -0.2441
  364MPD2    C4 5449   0.769   2.807  10.727  0.6583 -0.6489 -0.1992
  364MPD2    C5 5450   0.756   2.939  10.689 -0.2079 -0.1956 -0.1794
  364MPD2     H 5451   1.046   2.732  10.557  0.7712  0.1786  1.1527
  364MPD2    H1 5452   0.706   2.764  10.804  0.6268 -1.7999 -0.8628
  364MPD2    H2 5453   0.829   3.103  10.584 -1.3840 -0.1567  2.7958
  364MPD2    H3 5454   0.691   3.004  10.746  1.1650  0.6303  0.4374
  364MPD2     N 5455   0.897   2.609  10.726 -0.0025 -0.1519  0.1644
  364MPD2    H5 5456   0.845   2.583  10.810 -0.5386  1.6783  0.4139
  364MPD2    N1 5457   1.036   2.985  10.458 -0.1146 -0.2757 -0.0439
  364MPD2    H7 5458   1.009   3.078  10.428  0.6521  0.2559  0.8954
  365TMC3    C1 5459   1.240   3.031  10.346 -0.3645 -0.0130 -0.7602
  365TMC3    C2 5460   1.340   2.987  10.270  0.0304 -0.5116  0.7989
  365TMC3    C3 5461   1.450   3.067  10.257  0.1890 -0.6230 -0.0765
  365TMC3    C4 5462   1.231   3.157  10.399 -0.1624 -0.3609  0.3744
  365TMC3    C5 5463   1.338   3.241  10.364 -0.6269  0.3111 -0.0285
  365TMC3    C6 5464   1.449   3.196  10.296  0.3420 -0.1062  0.4647
  365TMC3     C 5465   1.144   2.926  10.394  0.7360 -0.8812 -0.4196
  365TMC3     O 5466   1.164   2.807  10.369  0.1862  0.2571  0.0458
  365TMC3     H 5467   1.335   2.883  10.238  2.1924 -0.5452  0.6383
  365TMC3    H1 5468   1.145   3.198  10.450  1.1659  2.1496  0.6091
  365TMC3    H2 5469   1.520   3.268  10.257 -0.9157  1.0481  0.2709
  365TMC3    C7 5470   1.336   3.383  10.395  0.2001  0.2329  0.1672
  365TMC3    C8 5471   1.551   3.033  10.159  0.0275 -0.8056 -0.5255
  365TMC3    O1 5472   1.386   3.465  10.319  0.4521 -0.3790  0.3147
  365TMC3    O2 5473   1.615   3.126  10.121 -0.0484  0.6564 -0.2353
  366MPD2     C 5474   3.660   4.158  15.520 -0.3341 -0.1435 -0.6470
  366MPD2    C1 5475   3.724   4.149  15.400 -0.3121 -0.0429  0.7214
  366MPD2    C2 5476   3.752   4.024  15.348  0.2187  0.6549  0.4705
  366MPD2    C3 5477   3.720   3.912  15.411 -0.4995 -0.0803 -0.8856
  366MPD2    C4 5478   3.660   3.923  15.535  0.0269  0.0699  0.7987
  366MPD2    C5 5479   3.630   4.041  15.586  0.2278  0.4519  0.2392
  366MPD2     H 5480   3.807   4.021  15.254 -0.9643 -1.8701 -0.1442
  366MPD2    H1 5481   3.634   3.834  15.591 -0.3134 -1.1939 -1.3533
  366MPD2    H2 5482   3.650   4.252  15.574  3.2260 -0.4909  0.6313
  366MPD2    H3 5483   3.580   4.035  15.682  1.4244  0.3048  0.8564
  366MPD2     N 5484   3.757   3.790  15.350 -0.3472 -0.4962  0.5361
  366MPD2    H5 5485   3.811   3.796  15.265 -0.4766  1.2380  0.5679
  366MPD2    N1 5486   3.763   4.272  15.335  0.3597 -0.2406  0.4466
  366MPD2    H7 5487   3.723   4.354  15.381  2.3832  2.3806 -2.5132
  367TMC3    C1 5488   3.895   4.431  15.234 -0.2135  0.3159 -0.5105
  367TMC3    C2 5489   4.030   4.461  15.214  0.5792 -0.6845  0.0181
  367TMC3    C3 5490   4.063   4.566  15.137  0.9280  0.6705 -0.3191
  367TMC3    C4 5491   3.792   4.513  15.191 -0.3332 -0.7124 -0.1773
  367TMC3    C5 5492   3.829   4.614  15.110 -0.0653  0.1830 -0.1435
  367TMC3    C6 5493   3.963   4.641  15.081 -0.4229  0.5905  0.1513
  367TMC3     C 5494   3.870   4.287  15.252 -0.7468  0.0778 -0.5339
  367TMC3     O 5495   3.949   4.201  15.222  0.0011 -0.6308 -0.0126
  367TMC3     H 5496   4.105   4.395  15.257  1.9582  1.9577  1.6105
  367TMC3    H1 5497   3.691   4.479  15.214 -0.9993 -1.1282 -3.6160
  367TMC3    H2 5498   3.981   0.003  15.014  0.3274  1.8240  1.8543
  367TMC3    C7 5499   3.729   4.694  15.061 -0.5076  0.1315 -0.1740
  367TMC3    C8 5500   4.197   4.614  15.126 -0.1668 -0.5399  0.3161
  367TMC3    O1 5501   3.761   0.087  15.027 -0.5925 -0.7281 -0.1428
  367TMC3    O2 5502   4.277   4.576  15.211  0.4317 -0.3883 -0.1973
  368MPD2     C 5503   0.764   1.213  13.353 -0.0218  0.3535  0.6517
  368MPD2    C1 5504   0.805   1.271  13.239 -0.3643  0.3283 -0.3271
  368MPD2    C2 5505   0.943   1.310  13.217  0.2741 -0.4711  1.4088
  368MPD2    C3 5506   1.034   1.276  13.317 -0.4595 -0.5983 -0.4018
  368MPD2    C4 5507   0.985   1.218  13.430 -0.3536 -0.1683  0.0688
  368MPD2    C5 5508   0.853   1.190  13.447 -0.0719  0.4971  0.1044
  368MPD2     H 5509   0.963   1.358  13.122 -0.2821 -1.6413  0.6973
  368MPD2    H1 5510   1.058   1.189  13.505  2.1642  2.4241 -1.3763
  368MPD2    H2 5511   0.658   1.194  13.366 -0.8655  2.4775 -2.9649
  368MPD2    H3 5512   0.826   1.139  13.539  0.2413  1.1785  0.5828
  368MPD2     N 5513   1.167   1.315  13.303 -0.8907  0.0423 -0.0235
  368MPD2    H5 5514   1.231   1.321  13.382 -0.6424  0.4054 -0.2500
  368MPD2    N1 5515   0.707   1.288  13.149 -0.7226  0.2799  1.0081
  368MPD2    H7 5516   0.618   1.247  13.173 -0.0213 -0.9913  1.4299
  369TMC3    C1 5517   0.580   1.354  12.965  0.4621 -0.3947 -0.9643
  369TMC3    C2 5518   0.550   1.473  12.915  0.3804 -0.0599  0.3303
  369TMC3    C3 5519   0.420   1.505  12.877 -0.4735  0.1007  0.6526
  369TMC3    C4 5520   0.482   1.259  12.992 -0.4207 -0.0806 -0.1395
  369TMC3    C5 5521   0.359   1.286  12.934 -0.1638 -0.0914 -1.3404
  369TMC3    C6 5522   0.322   1.411  12.876 -0.7709  0.6952  0.9061
  369TMC3     C 5523   0.716   1.347  13.027 -0.8035 -0.0878  0.2468
  369TMC3     O 5524   0.807   1.406  12.975 -0.2958 -0.0078  0.2989
  369TMC3     H 5525   0.626   1.550  12.925  0.9357 -0.6689  0.8779
  369TMC3    H1 5526   0.508   1.162  13.033  0.4600  1.0369  1.9191
  369TMC3    H2 5527   0.233   1.428  12.817 -0.8213 -2.5768  0.0544
  369TMC3    C7 5528   0.262   1.184  12.961  0.3592 -0.2845  0.4079
  369TMC3    C8 5529   0.400   1.638  12.834 -0.1826 -0.3981 -0.1231
  369TMC3    O1 5530   0.298   1.096  13.044 -0.2462  0.4590 -0.0260
  369TMC3    O2 5531   0.498   1.704  12.810  0.0410 -0.2617 -0.6026
  370TMC3    C1 5532   4.669   1.944  16.235  0.7382 -0.4252 -0.1141
  370TMC3    C2 5533   4.700   1.882  16.352  0.3097  0.1240 -0.5821
  370TMC3    C3 5534   0.018   1.750  16.342  0.0520 -0.5368 -0.6439
  370TMC3    C4 5535   4.671   1.883  16.112 -0.0000 -0.7384  0.2965
  370TMC3    C5 5536   4.718   1.756  16.108 -0.0877 -0.0796  0.0445
  370TMC3    C6 5537   0.028   1.686  16.223  0.1454 -0.4667  0.3812
  370TMC3     C 5538   4.617   2.075  16.246  0.1830  0.7446  0.5937
  370TMC3     O 5539   4.592   2.119  16.355 -0.4999 -0.8427 -0.0102
  370TMC3     H 5540   4.672   1.929  16.446  1.6019  0.0887 -0.1878
  370TMC3    H1 5541   4.648   1.930  16.017  0.3483  1.4888  1.3077
  370TMC3    H2 5542   0.040   1.578  16.220  1.1288 -0.3893  1.4417
  370TMC3    C7 5543   0.041   1.717  15.973  0.0957 -0.4124  0.1368
  370TMC3    C8 5544   0.041   1.671  16.464  0.3618 -0.1606  0.8442
  370TMC3    O1 5545   0.001   1.772  15.869  0.8019 -0.3503 -0.5130
  370TMC3    O2 5546   0.053   1.550  16.457 -0.6525 -0.0285 -0.0436
  371TMC3    C1 5547   1.283   0.131  15.346  0.0567  0.1410 -0.4414
  371TMC3    C2 5548   1.151   0.175  15.371  0.3623  0.0439  1.3231
  371TMC3    C3 5549   1.121   0.306  15.366 -0.3509  0.0764 -0.0860
  371TMC3    C4 5550   1.377   0.220  15.297 -0.0352 -0.2641 -0.8592
  371TMC3    C5 5551   1.337   0.353  15.289  0.6059  0.1775 -0.0276
  371TMC3    C6 5552   1.209   0.399  15.325 -0.2897  0.6019  0.1105
  371TMC3     C 5553   1.335   4.720  15.403  0.0626 -0.1590 -0.1792
  371TMC3     O 5554   1.455   4.702  15.405 -0.1030  0.1864 -0.4283
  371TMC3     H 5555   1.073   0.106  15.404 -0.4340  0.4026  0.1894
  371TMC3    H1 5556   1.475   0.183  15.273  1.0333  1.4259  0.9122
  371TMC3    H2 5557   1.185   0.503  15.340 -1.0623 -0.0504  3.3612
  371TMC3    C7 5558   1.422   0.462  15.240 -0.4777  0.5223  0.1852
  371TMC3    C8 5559   0.986   0.341  15.413 -0.0722 -0.0835 -0.2693
  371TMC3    O1 5560   1.379   0.573  15.236  0.1908  0.1007  0.0839
  371TMC3    O2 5561   0.901   0.255  15.414 -0.4408  0.1682 -0.1304
  372MPD2     C 5562   0.304   1.435  13.244 -0.6389 -0.1135 -0.2311
  372MPD2    C1 5563   0.410   1.423  13.337  0.3232 -0.1527 -0.1530
  372MPD2    C2 5564   0.417   1.312  13.421 -0.4597  0.3898 -0.2383
  372MPD2    C3 5565   0.320   1.210  13.412  0.3352 -0.4739  0.0196
  372MPD2    C4 5566   0.210   1.231  13.326 -0.8866 -0.9581  0.1956
  372MPD2    C5 5567   0.207   1.340  13.237 -0.6432 -0.1013  0.0573
  372MPD2     H 5568   0.492   1.308  13.499 -0.9347 -1.6168  0.1069
  372MPD2    H1 5569   0.118   1.174  13.330 -0.9248 -0.9080  0.0511
  372MPD2    H2 5570   0.289   1.515  13.172  1.5483 -0.0639 -0.6106
  372MPD2    H3 5571   0.115   1.357  13.181  0.9200 -0.7937 -2.7170
  372MPD2     N 5572   0.325   1.094  13.499 -0.2741  0.0591  0.2862
  372MPD2    H5 5573   0.399   1.076  13.566  1.3425  2.0710 -0.9466
  372MPD2    N1 5574   0.518   1.514  13.330 -0.2599  0.9263  0.2109
  372MPD2    H7 5575   0.592   1.506  13.399  1.8117 -0.8767 -2.2398
  373TMC3    C1 5576   0.234   0.902  13.615  0.1981 -0.8091 -0.0771
  373TMC3    C2 5577   0.305   0.925  13.734  0.2639 -0.3557  0.7956
  373TMC3    C3 5578   0.327   0.818  13.820 -0.0961  0.2710  0.1028
  373TMC3    C4 5579   0.192   0.777  13.583  0.7339  0.1691  0.2850
  373TMC3    C5 5580   0.227   0.677  13.670  0.9138 -0.1555 -0.0704
  373TMC3    C6 5581   0.295   0.690  13.783  0.0478 -0.4087 -0.2138
  373TMC3     C 5582   0.222   1.000  13.505  1.4501  0.0674  0.2482
  373TMC3     O 5583   0.138   0.986  13.421 -0.7178 -0.1283  0.1679
  373TMC3     H 5584   0.338   1.025  13.759 -0.5713  0.0670  0.2017
  373TMC3    H1 5585   0.145   0.752  13.489  0.9994  1.2887 -0.1454
  373TMC3    H2 5586   0.309   0.602  13.844 -1.9630 -2.7636 -3.1083
  373TMC3    C7 5587   0.234   0.547  13.604  1.2049  0.4350  0.2875
  373TMC3    C8 5588   0.458   0.826  13.873 -1.3506  0.2012  0.1582
  373TMC3    O1 5589   0.166   0.453  13.645 -0.0124  0.3161 -0.9816
  373TMC3    O2 5590   0.497   0.938  13.897 -0.4616 -0.4586  0.4923
  374TMC3    C1 5591   1.942   0.600   9.435  0.2886 -1.0692  0.6657
  374TMC3    C2 5592   2.043   0.693   9.457  0.7719  0.5689 -0.3295
  374TMC3    C3 5593   2.102   0.726   9.340  0.5419 -0.3325  0.2630
  374TMC3    C4 5594   1.910   0.549   9.310  0.4030 -0.7482  0.1601
  374TMC3    C5 5595   1.977   0.589   9.207 -0.0973 -0.3221 -0.3401
  374TMC3    C6 5596   2.075   0.679   9.215 -0.1141 -0.1511  0.3961
  374TMC3     C 5597   1.876   0.529   9.549  0.1764 -0.7645 -0.0278
  374TMC3     O 5598   1.801   0.433   9.523  0.2716 -0.3486 -0.1974
  374TMC3     H 5599   2.077   0.731   9.553 -0.1424 -0.8166  0.5322
  374TMC3    H1 5600   1.841   0.467   9.295  0.7302 -1.1674  1.0189
  374TMC3    H2 5601   2.139   0.712   9.134  1.3938 -2.4867  0.6291
  374TMC3    C7 5602   1.922   0.559   9.078  0.1478 -0.5431 -0.4194
  374TMC3    C8 5603   2.212   0.819   9.346  0.4882 -0.1975 -0.5737
  374TMC3    O1 5604   1.807   0.516   9.070  0.5355  0.7169  0.0254
  374TMC3    O2 5605   2.293   0.830   9.255  0.2843  0.4705 -0.6794
  375MPD2     C 5606   1.454   2.377  16.700 -1.0937 -0.8784 -0.5873
  375MPD2    C1 5607   1.358   2.370  16.603 -0.3479 -0.7346  0.3258
  375MPD2    C2 5608   1.374   2.307  16.482 -0.1543 -0.7082 -0.6957
  375MPD2    C3 5609   1.497   2.247  16.460  0.2888 -0.7693  0.6317
  375MPD2    C4 5610   1.595   2.249  16.562 -0.7874  0.2442  0.8506
  375MPD2    C5 5611   1.575   2.311  16.680  0.1133  0.6113 -0.3204
  375MPD2     H 5612   1.305   2.323  16.400  0.1195 -0.7791 -0.9440
  375MPD2    H1 5613   1.692   2.202  16.553 -0.9889 -0.8012  4.1306
  375MPD2    H2 5614   1.438   2.428  16.794 -1.5738 -2.0047 -0.0502
  375MPD2    H3 5615   1.654   2.315  16.754 -2.4017  1.3400  2.2943
  375MPD2     N 5616   1.537   2.189  16.342  0.2083  0.8476  0.3907
  375MPD2    H5 5617   1.632   2.155  16.340 -0.0204  0.1449  1.1145
  375MPD2    N1 5618   1.227   2.421  16.626  0.3647 -0.1069 -0.7800
  375MPD2    H7 5619   1.154   2.406  16.557 -1.6427 -1.7309  1.7086
  376TMC3    C1 5620   1.514   2.090  16.125  0.2637 -0.5617 -0.2066
  376TMC3    C2 5621   1.645   2.093  16.107  0.5800 -0.3169 -0.2942
  376TMC3    C3 5622   1.698   2.060  15.985 -0.1081 -0.1022  0.1167
  376TMC3    C4 5623   1.427   2.064  16.026  0.0865  0.2448 -0.0184
  376TMC3    C5 5624   1.483   2.032  15.907 -0.4929  0.2891  0.1703
  376TMC3    C6 5625   1.619   2.034  15.886 -0.4081  0.5619  0.3956
  376TMC3     C 5626   1.454   2.168  16.231 -0.2537  0.3094 -0.4696
  376TMC3     O 5627   1.341   2.213  16.204 -0.4218 -0.1958  0.4874
  376TMC3     H 5628   1.708   2.113  16.193 -1.0412  0.2947  0.7681
  376TMC3    H1 5629   1.320   2.062  16.039 -0.0036 -0.1912 -0.8739
  376TMC3    H2 5630   1.655   2.023  15.785 -0.5126 -1.9392  0.6273
  376TMC3    C7 5631   1.393   2.006  15.806 -0.8767 -0.2500  0.4776
  376TMC3    C8 5632   1.838   2.091  15.946 -0.6928 -0.0665  0.9966
  376TMC3    O1 5633   1.271   2.000  15.823 -0.0927  0.3298  0.4493
  376TMC3    O2 5634   1.875   2.114  15.830  0.2908 -0.3139 -0.2451
  377MPD2     C 5635   3.560   1.602  11.766  0.8416 -0.1321  0.2017
  377MPD2    C1 5636   3.633   1.622  11.882 -0.4140  0.3309  0.1218
  377MPD2    C2 5637   3.569   1.625  12.001  0.4012  0.2595  0.5052
  377MPD2    C3 5638   3.436   1.610  12.009 -0.5810  0.0612 -0.5015
  377MPD2    C4 5639   3.370   1.568  11.897 -0.1684 -0.3139  1.2705
  377MPD2    C5 5640   3.428   1.572  11.775 -0.1272  0.2622 -0.3919
  377MPD2     H 5641   3.633   1.649  12.085 -0.1206 -0.5310  1.1297
  377MPD2    H1 5642   3.263   1.554  11.904 -0.2422  0.7090  2.3460
  377MPD2    H2 5643   3.605   1.609  11.668 -1.3107  0.6888 -0.7295
  377MPD2    H3 5644   3.375   1.544  11.685  0.7004 -0.1854 -0.7481
  377MPD2     N 5645   3.366   1.627  12.131 -0.0777 -0.1563 -0.3671
  377MPD2    H5 5646   3.267   1.604  12.130 -0.6704  2.4128  0.4875
  377MPD2    N1 5647   3.764   1.666  11.871 -0.6025 -0.2043  0.1893
  377MPD2    H7 5648   3.781   1.704  11.778  0.7112  0.0330  0.5196
  378TMC3    C1 5649   4.151   1.827  11.829  0.4181 -0.3368 -0.2997
  378TMC3    C2 5650   4.029   1.767  11.828 -0.5972 -0.2085  1.0177
  378TMC3    C3 5651   4.001   1.676  11.931 -0.2391 -0.1337 -0.4136
  378TMC3    C4 5652   4.250   1.797  11.923  0.4306 -0.2036 -0.1334
  378TMC3    C5 5653   4.215   1.703  12.021 -0.0568  0.6332  0.7517
  378TMC3    C6 5654   4.094   1.648  12.025 -0.3632  0.1591  0.3047
  378TMC3     C 5655   4.173   1.934  11.729  0.6844 -0.1338  0.3554
  378TMC3     O 5656   4.077   1.987  11.679  0.1796  0.2363  0.1579
  378TMC3     H 5657   3.958   1.793  11.751  0.3854 -3.3874 -0.9875
  378TMC3    H1 5658   4.338   1.859  11.926 -0.8735  1.5511  1.5044
  378TMC3    H2 5659   4.078   1.574  12.103  1.6651 -1.2486 -0.6075
  378TMC3    C7 5660   4.316   1.665  12.125  0.2931  0.5524 -0.1851
  378TMC3    C8 5661   3.860   1.639  11.969  0.0230 -0.1263 -0.0285
  378TMC3    O1 5662   4.279   1.583  12.207  0.2557  0.0126  0.4430
  378TMC3    O2 5663   3.842   1.564  12.065 -0.4352  0.1964  0.2605
  379MPD2     C 5664   0.188   4.121  15.508 -0.1750 -0.3527  0.0381
  379MPD2    C1 5665   0.258   4.240  15.539 -0.5006  0.4132 -0.3455
  379MPD2    C2 5666   0.335   4.232  15.655  0.0582 -0.5651 -0.3056
  379MPD2    C3 5667   0.335   4.119  15.734 -0.3481 -0.0670 -0.8453
  379MPD2    C4 5668   0.266   4.009  15.699 -0.0432 -0.3966  0.1016
  379MPD2    C5 5669   0.206   4.008  15.578 -0.6869 -0.0943 -0.2805
  379MPD2     H 5670   0.408   4.312  15.659  0.8106 -1.3346  1.3810
  379MPD2    H1 5671   0.269   3.914  15.751 -2.3287 -0.3192  0.3725
  379MPD2    H2 5672   0.127   4.113  15.418 -0.8945  0.0715  0.4850
  379MPD2    H3 5673   0.161   3.912  15.557  1.3726 -0.8481 -1.2386
  379MPD2     N 5674   0.411   4.119  15.858  0.9571 -0.3077 -0.1743
  379MPD2    H5 5675   0.422   4.032  15.909 -1.1072 -0.4351  0.0478
  379MPD2    N1 5676   0.262   4.358  15.465 -0.3481 -0.1108  0.6270
  379MPD2    H7 5677   0.313   4.434  15.508 -0.6656  0.3877  0.1322
  380TMC3    C1 5678   0.226   4.523  15.296 -0.0407 -0.0804  0.0311
  380TMC3    C2 5679   0.360   4.551  15.294 -0.2650  0.6463 -0.5680
  380TMC3    C3 5680   0.403   4.634  15.198 -0.0774 -0.4273 -0.0145
  380TMC3    C4 5681   0.142   4.570  15.207  0.2301  0.6949  0.0484
  380TMC3    C5 5682   0.188   4.653  15.109 -0.1076  0.2124 -0.9868
  380TMC3    C6 5683   0.319   4.684  15.099  0.4492 -0.3990  0.1515
  380TMC3     C 5684   0.194   4.389  15.347  1.0289  0.3436  0.0135
  380TMC3     O 5685   0.105   4.328  15.295  0.4419  0.0827 -0.0399
  380TMC3     H 5686   0.425   4.511  15.370 -0.8038 -0.2019 -0.5510
  380TMC3    H1 5687   0.041   4.531  15.205 -0.3155  2.0516  1.2878
  380TMC3    H2 5688   0.338   0.022  15.010  0.9711  0.1744  0.6423
  380TMC3    C7 5689   0.104   4.678  14.995 -0.3702  0.0307  0.4747
  380TMC3    C8 5690   0.522   4.711  15.222  0.1025 -0.4383  0.5562
  380TMC3    O1 5691   0.159   4.695  14.890  0.3654  0.1215  0.2425
  380TMC3    O2 5692   0.524   0.101  15.174  0.2036 -0.1696 -0.2241
  381TMC3    C1 5693   0.197   1.088  16.211  0.6639  0.3598 -0.9123
  381TMC3    C2 5694   0.203   1.222  16.206 -0.9449 -0.7814 -0.0106
  381TMC3    C3 5695   0.214   1.293  16.324 -0.3440  0.5076 -0.3998
  381TMC3    C4 5696   0.173   1.020  16.330  0.0474 -0.0739  0.2979
  381TMC3    C5 5697   0.173   1.098  16.441 -0.4428 -1.2673  0.6078
  381TMC3    C6 5698   0.197   1.230  16.443  0.1490  0.0283 -0.3710
  381TMC3     C 5699   0.160   1.019  16.096  0.4006  0.1444 -0.3775
  381TMC3     O 5700   0.198   0.904  16.080 -0.6308  0.1898  0.4730
  381TMC3     H 5701   0.227   1.272  16.113  0.3906 -1.9500 -0.2896
  381TMC3    H1 5702   0.173   0.912  16.338 -3.2672 -0.1211 -0.3628
  381TMC3    H2 5703   0.187   1.287  16.535 -1.2150  1.1481 -1.2021
  381TMC3    C7 5704   0.171   1.018  16.562 -0.0725 -0.5066  0.3795
  381TMC3    C8 5705   0.254   1.431  16.302  0.1457  0.1320 -0.3909
  381TMC3    O1 5706   0.194   0.896  16.559  0.0364 -0.4301  0.8972
  381TMC3    O2 5707   0.238   1.471  16.190  0.0283 -0.2643 -0.5848
  382MPD2     C 5708   4.528   3.217  16.824 -0.3690 -0.1263  0.5286
  382MPD2    C1 5709   4.404   3.241  16.877 -0.1262 -0.4544  0.2830
  382MPD2    C2 5710   4.338   3.133  16.933 -0.2177  0.2955 -0.8665
  382MPD2    C3 5711   4.383   3.004  16.941 -0.3591  0.0310 -0.5592
  382MPD2    C4 5712   4.505   2.984  16.884 -0.1142 -0.9218 -0.0220
  382MPD2    C5 5713   4.574   3.089  16.823 -0.3122 -0.1310 -0.0875
  382MPD2     H 5714   4.234   3.155  16.957 -0.9317 -2.0520 -1.8844
  382MPD2    H1 5715   4.548   2.885  16.881 -0.2196 -0.9808  0.3233
  382MPD2    H2 5716   4.587   3.295  16.778  0.3170 -1.0901 -0.2180
  382MPD2    H3 5717   4.673   3.067  16.784  0.5917  2.5992  0.7083
  382MPD2     N 5718   4.309   2.891  16.994 -0.4751  0.1341 -0.1347
  382MPD2    H5 5719   4.340   2.798  16.966 -0.4930 -0.1292  0.7310
  382MPD2    N1 5720   4.346   3.368  16.892  0.3460  0.0770  0.0061
  382MPD2    H7 5721   4.248   3.371  16.920  0.7717 -0.0030  1.4688
  383TMC3    C1 5722   4.117   2.792  17.086 -0.1748  0.7058  0.0636
  383TMC3    C2 5723   3.980   2.796  17.074  0.0266  0.4782 -0.1898
  383TMC3    C3 5724   3.912   2.679  17.101  0.6236  0.0661  0.0801
  383TMC3    C4 5725   4.178   2.678  17.122  0.4851  0.2541 -0.1663
  383TMC3    C5 5726   4.109   2.565  17.146  0.5315  0.2705 -0.6694
  383TMC3    C6 5727   3.973   2.563  17.134  0.0574 -0.0749 -0.3497
  383TMC3     C 5728   4.198   2.913  17.067  0.0035  0.4333 -0.4233
  383TMC3     O 5729   4.161   3.012  17.134  0.3776 -0.2336  0.3040
  383TMC3     H 5730   3.939   2.895  17.058 -1.4983  0.3819  3.0277
  383TMC3    H1 5731   4.286   2.683  17.126  0.3631  2.4613  0.3752
  383TMC3    H2 5732   3.916   2.472  17.147  1.1302 -0.5163  1.1654
  383TMC3    C7 5733   4.185   2.452  17.208  0.5329 -0.5546  0.3140
  383TMC3    C8 5734   3.768   2.684  17.069 -0.0482 -0.1609  0.2274
  383TMC3    O1 5735   4.291   2.477  17.268 -0.5024 -0.4616 -0.5746
  383TMC3    O2 5736   3.717   2.794  17.050 -0.3781  0.2426 -0.1897
  384MPD2     C 5737   0.819   0.407  11.888 -1.4346  0.4410  0.0960
  384MPD2    C1 5738   0.776   0.276  11.912 -0.2751  0.0175 -0.5239
  384MPD2    C2 5739   0.808   0.176  11.826  0.6504  0.6620 -0.7455
  384MPD2    C3 5740   0.886   0.203  11.713  0.5751  0.1999 -0.0599
  384MPD2    C4 5741   0.936   0.330  11.698 -0.8036  0.2568 -0.1402
  384MPD2    C5 5742   0.909   0.425  11.785  0.0549 -0.1701  0.0931
  384MPD2     H 5743   0.778   0.075  11.851  2.1266  0.4353  0.0835
  384MPD2    H1 5744   0.991   0.360  11.610 -1.4704  1.8663  0.0063
  384MPD2    H2 5745   0.782   0.484  11.954 -0.9241  1.9721 -1.4092
  384MPD2    H3 5746   0.962   0.519  11.769 -1.4021  0.9196  1.6211
  384MPD2     N 5747   0.917   0.093  11.631 -0.3242  0.4660 -0.4081
  384MPD2    H5 5748   0.877   0.003  11.654 -0.2809  1.0518  1.8788
  384MPD2    N1 5749   0.714   0.233  12.034  0.1803 -0.4854 -0.5306
  384MPD2    H7 5750   0.702   0.132  12.042 -0.7939 -0.2318  1.3713
  385TMC3    C1 5751   1.049   4.665  11.501  0.8226 -0.0380  0.6883
  385TMC3    C2 5752   1.171   4.634  11.551 -0.5287  0.3710 -0.4271
  385TMC3    C3 5753   1.189   4.522  11.623 -1.0847  0.5232  0.0762
  385TMC3    C4 5754   0.947   4.576  11.528  0.1883  0.5625 -0.3068
  385TMC3    C5 5755   0.965   4.463  11.599  0.3692  0.0193  0.5268
  385TMC3    C6 5756   1.084   4.440  11.652 -0.5993  0.4016 -0.2201
  385TMC3     C 5757   1.024   0.086  11.539  0.3123  0.3605  0.2701
  385TMC3     O 5758   1.095   0.181  11.510 -0.1254 -0.5815 -0.5320
  385TMC3     H 5759   1.257   4.695  11.526 -1.8200  1.1746 -2.9134
  385TMC3    H1 5760   0.851   4.601  11.483 -1.3003 -3.1485  0.7898
  385TMC3    H2 5761   1.097   4.361  11.725  1.5098 -0.1577 -1.2030
  385TMC3    C7 5762   0.858   4.451  11.694 -0.0270 -0.2742 -0.1124
  385TMC3    C8 5763   1.309   4.447  11.585 -0.9787 -0.5625 -0.5919
  385TMC3    O1 5764   0.808   4.559  11.709 -0.0418 -0.2599  0.3489
  385TMC3    O2 5765   1.414   4.508  11.570  0.0832  0.5084 -0.0562
  386TMC3    C1 5766   1.294   1.917  11.840 -0.2782 -0.0770  0.8006
  386TMC3    C2 5767   1.321   1.899  11.708  0.6328 -0.2744 -0.3506
  386TMC3    C3 5768   1.242   1.972  11.624 -0.1085 -0.2422 -0.0316
  386TMC3    C4 5769   1.202   1.998  11.893  0.1519 -0.3690 -0.5472
  386TMC3    C5 5770   1.124   2.065  11.807 -0.1174  0.0191  0.0504
  386TMC3    C6 5771   1.138   2.051  11.673 -0.1439 -0.3748  0.2280
  386TMC3     C 5772   1.388   1.882  11.937  0.3566  0.2290 -0.3243
  386TMC3     O 5773   1.415   1.969  12.017  0.3290 -0.2119 -0.6913
  386TMC3     H 5774   1.396   1.826  11.681  0.9377  0.3348 -1.1671
  386TMC3    H1 5775   1.184   2.012  11.999  4.2055  1.0117 -0.0495
  386TMC3    H2 5776   1.081   2.104  11.598  0.3694  1.8245  1.4154
  386TMC3    C7 5777   1.020   2.145  11.867  0.3399 -0.2734 -0.0065
  386TMC3    C8 5778   1.217   1.916  11.493 -0.0265  0.5541  0.9101
  386TMC3    O1 5779   1.037   2.184  11.981 -0.0387 -0.1275 -0.5722
  386TMC3    O2 5780   1.151   1.980  11.413  0.4756 -0.7379 -0.2950
  387MPD2     C 5781   3.407   1.934   9.580 -0.3413 -0.1362  0.2423
  387MPD2    C1 5782   3.540   1.967   9.581 -0.3664  0.2743  0.0310
  387MPD2    C2 5783   3.629   1.877   9.526  1.1039 -0.2202  0.1625
  387MPD2    C3 5784   3.592   1.753   9.467  0.6941  0.5746 -0.1630
  387MPD2    C4 5785   3.457   1.733   9.446  0.8080 -0.1256  0.4358
  387MPD2    C5 5786   3.371   1.819   9.508  0.3215  0.0995 -0.1174
  387MPD2     H 5787   3.730   1.915   9.533 -0.5137  3.9889  0.8159
  387MPD2    H1 5788   3.417   1.641   9.406  1.0609  0.8326 -2.0544
  387MPD2    H2 5789   3.330   1.999   9.621 -1.2747 -1.3200  0.3750
  387MPD2    H3 5790   3.265   1.795   9.504 -0.3140  2.8781 -0.2712
  387MPD2     N 5791   3.686   1.657   9.435  0.0952  0.8533 -0.1284
  387MPD2    H5 5792   3.781   1.682   9.460  1.0515 -1.9405 -0.9258
  387MPD2    N1 5793   3.593   2.075   9.652  0.2763  0.2377 -0.5802
  387MPD2    H7 5794   3.693   2.080   9.663 -0.0531  1.8555  1.7250
  388TMC3    C1 5795   3.592   2.214   9.835 -0.1002  0.1822 -0.0982
  388TMC3    C2 5796   3.603   2.348   9.866  0.1242  0.2694 -0.2244
  388TMC3    C3 5797   3.699   2.377   9.954  0.0650  0.1986 -0.8504
  388TMC3    C4 5798   3.671   2.119   9.884  0.1764 -0.3926  0.0566
  388TMC3    C5 5799   3.778   2.156   9.958  0.8921 -0.4218 -0.3907
  388TMC3    C6 5800   3.793   2.281   9.995 -0.0326 -0.5182 -0.6319
  388TMC3     C 5801   3.523   2.173   9.712  0.7824 -0.9225 -0.1879
  388TMC3     O 5802   3.422   2.228   9.667  0.0877 -0.3888  0.2051
  388TMC3     H 5803   3.533   2.421   9.825 -0.5395 -0.2122  0.0442
  388TMC3    H1 5804   3.651   2.013   9.873  0.1690 -0.5071  1.2470
  388TMC3    H2 5805   3.888   2.300  10.044 -0.6867 -0.4532  0.6344
  388TMC3    C7 5806   3.864   2.050  10.008  0.4646 -0.5544  0.5978
  388TMC3    C8 5807   3.716   2.515   9.998 -0.5246 -0.6135 -0.1799
  388TMC3    O1 5808   3.897   2.055  10.123  0.2365 -0.4374  0.1377
  388TMC3    O2 5809   3.828   2.544  10.047 -0.1211  0.5417  0.4383
  389MPD2     C 5810   3.067   0.095  10.756 -0.1806  0.1235  0.7206
  389MPD2    C1 5811   2.965   0.010  10.715 -0.2608  0.3862 -0.3264
  389MPD2    C2 5812   2.872   4.676  10.797 -0.6818 -0.4024 -0.1369
  389MPD2    C3 5813   2.889   4.705  10.932  0.2054 -0.8714 -0.0493
  389MPD2    C4 5814   2.985   0.068  10.971 -0.3319  0.2986  0.2289
  389MPD2    C5 5815   3.074   0.133  10.889 -0.6576  0.1131  0.7025
  389MPD2     H 5816   2.791   4.612  10.764 -1.5317 -0.0910  1.3309
  389MPD2    H1 5817   2.993   0.097  11.075 -1.0903  0.0644  0.3595
  389MPD2    H2 5818   3.119   0.150  10.678 -1.1595  0.6204  0.4106
  389MPD2    H3 5819   3.141   0.213  10.918  0.0627  0.0380 -0.7658
  389MPD2     N 5820   2.802   4.665  11.033 -0.6554  0.4753  0.1361
  389MPD2    H5 5821   2.814   4.707  11.124  0.0211 -0.8215  0.6529
  389MPD2    N1 5822   2.963   4.707  10.572  0.2967 -0.7276  0.4362
  389MPD2    H7 5823   3.036   0.031  10.517  0.1398  3.6066  3.7382
  390TMC3    C1 5824   2.614   4.563  11.132  0.2564  0.5385  0.0354
  390TMC3    C2 5825   2.523   4.456  11.141 -0.2943  0.2304 -0.0893
  390TMC3    C3 5826   2.428   4.464  11.247  0.6381 -0.0541  0.6140
  390TMC3    C4 5827   2.604   4.666  11.218  0.2567  0.3435 -0.0070
  390TMC3    C5 5828   2.515   4.664  11.319  0.7875 -0.1457  0.6188
  390TMC3    C6 5829   2.427   4.565  11.342  0.4494  0.2341  0.0778
  390TMC3     C 5830   2.705   4.565  11.018  0.1463 -0.3009  0.1842
  390TMC3     O 5831   2.690   4.488  10.920 -0.3388 -0.2064  0.0635
  390TMC3     H 5832   2.521   4.377  11.067 -3.2616 -0.5292  0.7827
  390TMC3    H1 5833   2.654   0.037  11.188  0.6011 -0.8389 -3.0219
  390TMC3    H2 5834   2.364   4.563  11.429  0.4423 -0.6761  0.0533
  390TMC3    C7 5835   2.512   0.062  11.403 -0.3358 -0.0012  0.0444
  390TMC3    C8 5836   2.345   4.349  11.269  0.3474  0.2532 -0.1505
  390TMC3    O1 5837   2.613   0.130  11.393  0.0864  0.1262 -0.4649
  390TMC3    O2 5838   2.335   4.271  11.172 -0.0349  0.3524  0.5392
  391MPD2     C 5839   1.881   1.124  10.717  0.5016 -0.8079 -0.2918
  391MPD2    C1 5840   2.017   1.163  10.723  0.0381 -1.1697  0.0393
  391MPD2    C2 5841   2.079   1.200  10.607  0.5785 -0.2339  0.2199
  391MPD2    C3 5842   2.003   1.197  10.486  0.3522  0.1211  0.0497
  391MPD2    C4 5843   1.874   1.150  10.487  0.1704  0.2889 -0.0322
  391MPD2    C5 5844   1.816   1.105  10.602 -0.1124  0.0800 -0.4120
  391MPD2     H 5845   2.182   1.235  10.608  0.5837 -0.2667  1.2526
  391MPD2    H1 5846   1.826   1.132  10.391  0.2296 -0.7926  0.1482
  391MPD2    H2 5847   1.838   1.094  10.811  2.6311  1.3176  1.3523
  391MPD2    H3 5848   1.720   1.053  10.601 -0.0248 -0.0773 -0.7974
  391MPD2     N 5849   2.064   1.247  10.369  0.5293 -0.0733  0.1952
  391MPD2    H5 5850   2.163   1.269  10.379  1.1480 -0.7977 -4.3613
  391MPD2    N1 5851   2.074   1.183  10.850 -0.2240  0.1015 -0.2203
  391MPD2    H7 5852   2.014   1.162  10.929 -0.2405 -1.0951 -0.5595
  392TMC3    C1 5853   2.113   1.331  10.164 -0.3304  0.5135  0.7148
  392TMC3    C2 5854   2.113   1.294  10.034  0.3472 -0.0598 -0.2682
  392TMC3    C3 5855   2.215   1.324   9.947  0.3334 -0.2604 -0.4922
  392TMC3    C4 5856   2.207   1.419  10.213  0.0036  0.0148 -0.2213
  392TMC3    C5 5857   2.307   1.452  10.123  0.5525 -0.5530  0.0087
  392TMC3    C6 5858   2.308   1.411   9.993  0.1954  0.1848  0.3575
  392TMC3     C 5859   2.014   1.271  10.247  0.1279 -0.0729  0.2071
  392TMC3     O 5860   1.895   1.262  10.207 -0.2454 -0.6730  0.1532
  392TMC3     H 5861   2.033   1.229  10.000 -1.5222  1.4074  1.3330
  392TMC3    H1 5862   2.223   1.428  10.320 -0.0439 -0.7664 -0.1503
  392TMC3    H2 5863   2.391   1.443   9.932 -0.7969 -1.1033 -1.6556
  392TMC3    C7 5864   2.405   1.553  10.178 -0.2189  1.2902  0.6301
  392TMC3    C8 5865   2.200   1.273   9.811 -0.7308 -0.0404  0.5892
  392TMC3    O1 5866   2.373   1.597  10.291 -0.4193  0.3562  0.7525
  392TMC3    O2 5867   2.096   1.221   9.777  0.1785  0.4041 -0.5794
  393TMC3    C1 5868   1.182   4.003   9.954 -0.3055 -0.2065  1.1114
  393TMC3    C2 5869   1.055   3.948   9.946  0.0845 -0.2176 -0.1936
  393TMC3    C3 5870   1.002   3.917  10.068 -0.6721  0.1274  0.0357
  393TMC3    C4 5871   1.251   4.010  10.078 -0.1743 -0.4531 -0.0351
  393TMC3    C5 5872   1.192   3.968  10.192 -0.2418 -0.9613 -0.5432
  393TMC3    C6 5873   1.065   3.919  10.190  0.3582  1.1531 -0.4744
  393TMC3     C 5874   1.240   4.065   9.832  0.2757 -0.1994  0.0086
  393TMC3     O 5875   1.175   4.132   9.752 -0.0234  0.2172 -0.5651
  393TMC3     H 5876   0.989   3.950   9.860 -0.9336  0.8728  0.6143
  393TMC3    H1 5877   1.346   4.063  10.081  1.1493 -2.7420 -1.1708
  393TMC3    H2 5878   1.027   3.883  10.286  2.0358 -0.9786 -0.6036
  393TMC3    C7 5879   1.259   3.970  10.320 -0.4057  0.1936  0.1469
  393TMC3    C8 5880   0.884   3.834  10.080  0.0376 -0.4873  0.0444
  393TMC3    O1 5881   1.200   4.001  10.421  0.0196 -0.8317 -0.0793
  393TMC3    O2 5882   0.810   3.829  10.182 -0.3304 -0.2314  0.1020
  394TMC3    C1 5883   2.888   4.656  10.347 -0.1740  0.1083 -0.0178
  394TMC3    C2 5884   2.779   4.623  10.265 -0.0800  0.0070  0.0100
  394TMC3    C3 5885   2.792   4.641  10.128  0.2813 -0.1403 -0.0373
  394TMC3    C4 5886   3.003   4.705  10.287  0.1319 -1.2086  0.1840
  394TMC3    C5 5887   3.006   4.715  10.156 -0.1624 -0.1050 -0.4351
  394TMC3    C6 5888   2.904   4.690  10.074  0.0387 -0.4612 -0.0956
  394TMC3     C 5889   2.872   4.640  10.494  0.6013 -0.0884  0.3178
  394TMC3     O 5890   2.778   4.562  10.524 -1.0197 -0.3328  0.4003
  394TMC3     H 5891   2.682   4.596  10.304  0.8997 -2.1778  0.9467
  394TMC3    H1 5892   3.085   0.023  10.345 -0.9017  0.0908  0.7607
  394TMC3    H2 5893   2.912   4.712   9.968 -1.0611  1.6606  0.2650
  394TMC3    C7 5894   3.108   0.079  10.104  0.4726 -0.2145  0.2441
  394TMC3    C8 5895   2.704   4.571  10.044  0.1370 -0.3066  0.5381
  394TMC3    O1 5896   3.081   0.145  10.005  0.1099 -0.1080  0.5003
  394TMC3    O2 5897   2.588   4.567  10.092 -0.0259  0.5489  0.3332
  395TMC3    C1 5898   2.383   2.488  14.396 -0.2554 -0.2426  0.6805
  395TMC3    C2 5899   2.302   2.542  14.303  0.5605 -0.0826 -0.0665
  395TMC3    C3 5900   2.330   2.677  14.271  0.2918 -0.3007 -0.1120
  395TMC3    C4 5901   2.507   2.544  14.430  0.0468  0.6773  0.4011
  395TMC3    C5 5902   2.532   2.664  14.376  0.3095 -0.3582  0.6074
  395TMC3    C6 5903   2.442   2.739  14.314 -0.8011  0.4989  0.3696
  395TMC3     C 5904   2.304   2.438  14.504  0.2492  0.4760 -0.3335
  395TMC3     O 5905   2.183   2.448  14.504  0.0454 -0.3268 -0.6665
  395TMC3     H 5906   2.222   2.476  14.273  0.3912  0.6292 -1.1737
  395TMC3    H1 5907   2.580   2.501  14.498 -0.7494 -2.0979 -0.5126
  395TMC3    H2 5908   2.460   2.835  14.267 -0.9855  0.7198  0.7565
  395TMC3    C7 5909   2.661   2.729  14.401  0.0694  0.8074  0.5530
  395TMC3    C8 5910   2.212   2.761  14.267 -0.1672  0.3052  0.0519
  395TMC3    O1 5911   2.668   2.851  14.392 -0.0877 -0.0758  0.3271
  395TMC3    O2 5912   2.225   2.886  14.282 -0.5291  0.4494  1.1507
  396MPD2     C 5913   2.646   2.798  17.541  0.1647  0.1449 -0.2014
  396MPD2    C1 5914   2.587   2.807  17.415  0.2904 -0.2336  0.0161
  396MPD2    C2 5915   2.613   2.916  17.337 -0.1665  0.2877  0.0647
  396MPD2    C3 5916   2.711   3.006  17.375 -0.0906  0.0560 -0.0078
  396MPD2    C4 5917   2.781   2.993  17.493 -0.1211  0.5769  0.0661
  396MPD2    C5 5918   2.749   2.885  17.573 -0.2974 -1.0644 -0.0686
  396MPD2     H 5919   2.557   2.929  17.245  1.1114  1.4274 -0.5561
  396MPD2    H1 5920   2.865   3.057  17.519  1.8830 -2.2487  0.5139
  396MPD2    H2 5921   2.639   2.713  17.607 -1.3645  0.1213 -0.3846
  396MPD2    H3 5922   2.805   2.869  17.665 -0.0770  0.5693  0.0728
  396MPD2     N 5923   2.739   3.112  17.278  0.0555  0.0090  0.3559
  396MPD2    H5 5924   2.681   3.110  17.195 -1.0564  2.5662  1.0804
  396MPD2    N1 5925   2.493   2.700  17.383 -0.0364  0.2555 -0.1889
  396MPD2    H7 5926   2.475   2.629  17.454  0.4482 -1.5432 -1.8548
  397TMC3    C1 5927   2.371   2.553  17.260 -0.4664  0.2198 -0.5003
  397TMC3    C2 5928   2.370   2.491  17.139  0.0926  0.1488  0.4472
  397TMC3    C3 5929   2.252   2.444  17.090  0.8889  0.4195  0.0028
  397TMC3    C4 5930   2.254   2.569  17.330 -0.0355  0.4949  0.2664
  397TMC3    C5 5931   2.135   2.523  17.274 -0.0171 -0.0728  0.2935
  397TMC3    C6 5932   2.131   2.458  17.156 -0.2190  0.0164  0.2898
  397TMC3     C 5933   2.440   2.682  17.258 -0.3591  0.1600  0.4026
  397TMC3     O 5934   2.476   2.737  17.155 -0.2022  0.0380 -0.2556
  397TMC3     H 5935   2.449   2.523  17.072  0.2572  0.4823  0.7954
  397TMC3    H1 5936   2.258   2.650  17.402  1.2272  0.3994  0.3121
  397TMC3    H2 5937   2.046   2.408  17.110 -0.5378  1.9798 -1.2962
  397TMC3    C7 5938   2.006   2.551  17.330  0.6849  0.4461  0.4552
  397TMC3    C8 5939   2.254   2.360  16.968  0.1889  0.2301 -0.4323
  397TMC3    O1 5940   1.910   2.526  17.259  0.1401 -0.1165  0.4287
  397TMC3    O2 5941   2.155   2.294  16.944  0.1517 -0.0647  0.4198
  398MPD2     C 5942   0.399   4.064  17.530 -0.5124 -0.3137 -0.2056
  398MPD2    C1 5943   0.520   4.014  17.579  0.0653  0.5745  0.9772
  398MPD2    C2 5944   0.637   4.057  17.531 -0.2507 -0.3481 -0.9705
  398MPD2    C3 5945   0.651   4.158  17.433  0.0628 -0.3569  0.6477
  398MPD2    C4 5946   0.534   4.210  17.389  0.1453  0.0331  0.1791
  398MPD2    C5 5947   0.412   4.160  17.431 -0.5291  0.1651  0.0505
  398MPD2     H 5948   0.721   3.996  17.566 -0.8544  0.2874  1.6155
  398MPD2    H1 5949   0.525   4.287  17.314  0.3616  1.3253  1.4823
  398MPD2    H2 5950   0.303   4.031  17.567 -0.1517 -2.8923 -1.5830
  398MPD2    H3 5951   0.319   4.204  17.398 -0.8346 -0.0800  0.5708
  398MPD2     N 5952   0.770   4.208  17.391 -0.0727 -0.7924  0.2458
  398MPD2    H5 5953   0.850   4.176  17.443  0.0430  0.9412  1.1381
  398MPD2    N1 5954   0.533   3.915  17.682  0.1327 -0.2060  0.0804
  398MPD2    H7 5955   0.631   3.893   0.008  0.3066  0.7050  0.2939
  399TMC3    C1 5956   0.466   3.746   0.142 -0.7948  0.2808 -1.1479
  399TMC3    C2 5957   0.599   3.722   0.165  0.2913  0.2266  0.3127
  399TMC3    C3 5958   0.625   3.590   0.199  0.6369 -1.3245  0.0887
  399TMC3    C4 5959   0.365   3.655   0.136  0.4064  0.4652  0.5892
  399TMC3    C5 5960   0.398   3.531   0.179 -0.1618  0.6011  0.0713
  399TMC3    C6 5961   0.529   3.500   0.191 -0.0399  0.0698 -0.1884
  399TMC3     C 5962   0.429   3.862   0.069 -0.3563  0.5080  0.5303
  399TMC3     O 5963   0.311   3.897   0.063 -0.1846  0.0572 -0.6485
  399TMC3     H 5964   0.677   3.795   0.147  1.1878 -0.6311  0.7033
  399TMC3    H1 5965   0.263   3.692   0.127  0.7688  1.0917 -0.8325
  399TMC3    H2 5966   0.547   3.398   0.225 -0.3033  1.0086  2.8316
  399TMC3    C7 5967   0.302   3.417   0.164 -0.0384  0.4460 -0.5170
  399TMC3    C8 5968   0.765   3.545   0.213 -0.2872  0.3565 -0.3001
  399TMC3    O1 5969   0.322   3.300   0.199  0.1817 -0.0512 -0.5446
  399TMC3    O2 5970   0.837   3.644   0.221  0.0937 -0.1590  0.4524
  400TMC3    C1 5971   3.694   1.943  16.691  0.0526 -0.0074  0.0067
  400TMC3    C2 5972   3.561   1.978  16.672  0.4566 -0.5195 -0.1142
  400TMC3    C3 5973   3.530   2.109  16.647  0.4929 -0.2113  0.0894
  400TMC3    C4 5974   3.786   2.039  16.705  0.6240 -0.4874  0.0757
  400TMC3    C5 5975   3.750   2.173  16.700 -0.3823 -0.1066 -1.2443
  400TMC3    C6 5976   3.621   2.208  16.660  0.8848  0.4710  0.4396
  400TMC3     C 5977   3.709   1.830  16.778 -0.3864 -0.0273  0.4735
  400TMC3     O 5978   3.617   1.813  16.860  0.1777 -0.1671 -0.8266
  400TMC3     H 5979   3.491   1.896  16.668 -0.7190  0.6534 -3.5617
  400TMC3    H1 5980   3.888   2.020  16.736  0.3579 -1.2706  0.4579
  400TMC3    H2 5981   3.590   2.312  16.655  1.3909  0.6658  1.4183
  400TMC3    C7 5982   3.861   2.276  16.706  0.0290  0.6086 -0.2617
  400TMC3    C8 5983   3.387   2.151  16.638 -0.3349  0.2137  0.0409
  400TMC3    O1 5984   3.972   2.230  16.736 -0.2013  0.4293 -0.0505
  400TMC3    O2 5985   3.360   2.272  16.647  0.0659  0.9598  0.4999
  401MPD2     C 5986   2.394   1.653   1.058 -0.0317  0.5202 -0.7302
  401MPD2    C1 5987   2.530   1.666   1.091  0.2201 -0.1145  0.6921
  401MPD2    C2 5988   2.604   1.554   1.118  0.3262 -0.2293  0.7353
  401MPD2    C3 5989   2.542   1.431   1.117 -0.1243  0.5961  0.1839
  401MPD2    C4 5990   2.410   1.424   1.078  0.0097  0.2694 -0.2063
  401MPD2    C5 5991   2.336   1.530   1.053 -0.7971  0.2875 -0.5222
  401MPD2     H 5992   2.701   1.558   1.165  0.3069 -0.1820  0.7717
  401MPD2    H1 5993   2.360   1.328   1.069 -0.2235  0.4808 -1.1230
  401MPD2    H2 5994   2.330   1.739   1.045 -1.5610 -0.6450 -0.7965
  401MPD2    H3 5995   2.233   1.506   1.031 -1.1769  0.2744  1.3143
  401MPD2     N 5996   2.621   1.318   1.148 -0.1797 -0.5385  0.3138
  401MPD2    H5 5997   2.720   1.322   1.126 -0.1046 -1.1014  0.5413
  401MPD2    N1 5998   2.592   1.790   1.121 -0.6687  0.2017  0.1571
  401MPD2    H7 5999   2.686   1.784   1.157 -0.8548 -3.8194 -0.0384
  402TMC3    C1 6000   2.644   1.075   1.153 -0.3174 -0.3209  0.0747
  402TMC3    C2 6001   2.618   0.954   1.208  0.4009  0.2800 -0.2932
  402TMC3    C3 6002   2.718   0.862   1.213 -0.4440 -0.1749  0.5345
  402TMC3    C4 6003   2.752   1.096   1.072 -0.4332 -0.5354  0.1349
  402TMC3    C5 6004   2.837   0.992   1.053 -0.7979  1.1951  0.1255
  402TMC3    C6 6005   2.822   0.877   1.129 -1.0252  0.2003 -0.0249
  402TMC3     C 6006   2.560   1.195   1.175  0.2260 -0.9801  0.0514
  402TMC3     O 6007   2.442   1.175   1.221  0.1759  0.2889 -0.0908
  402TMC3     H 6008   2.530   0.949   1.272  0.7242 -1.0855  0.0491
  402TMC3    H1 6009   2.765   1.184   1.010  1.2189 -0.1536  1.0066
  402TMC3    H2 6010   2.911   0.817   1.142 -1.7611 -1.0358 -0.6743
  402TMC3    C7 6011   2.946   0.995   0.954 -0.2474  0.2925  0.3523
  402TMC3    C8 6012   2.735   0.765   1.321 -0.2083  0.7119  0.4312
  402TMC3    O1 6013   2.992   0.892   0.909  0.3709  0.0159 -0.0948
  402TMC3    O2 6014   2.834   0.696   1.321  0.2435 -0.0063  0.2715
  403MPD2     C 6015   0.457   4.543  12.991 -1.1784  0.0608 -0.0600
  403MPD2    C1 6016   0.390   4.478  13.093 -0.3337  0.7969 -0.5749
  403MPD2    C2 6017   0.451   4.467  13.222  0.0126  0.4723 -0.3054
  403MPD2    C3 6018   0.556   4.547  13.255 -0.2541 -0.1101 -0.4796
  403MPD2    C4 6019   0.626   4.608  13.153  0.4582  0.7184 -0.8150
  403MPD2    C5 6020   0.574   4.611  13.025 -0.0223  0.7049  0.5674
  403MPD2     H 6021   0.399   4.408  13.296  2.1052  0.8953  1.5158
  403MPD2    H1 6022   0.717   4.665  13.167  0.0256  1.5838 -1.5796
  403MPD2    H2 6023   0.423   4.545  12.888 -0.5102  2.9040 -0.2300
  403MPD2    H3 6024   0.626   4.661  12.944 -0.6805 -1.0378 -0.9535
  403MPD2     N 6025   0.596   4.549  13.392 -0.3657  0.2345 -0.1305
  403MPD2    H5 6026   0.537   4.499  13.458  0.0207  0.9599  0.7657
  403MPD2    N1 6027   0.273   4.409  13.058 -0.4100  0.1097  0.5232
  403MPD2    H7 6028   0.248   4.405  12.960  2.8411  2.9211 -0.4070
  404TMC3    C1 6029   0.083   4.272  13.081  1.2980 -0.3242 -0.0983
  404TMC3    C2 6030   0.026   4.169  13.158 -0.2107  0.5291  0.1140
  404TMC3    C3 6031   4.643   4.095  13.097 -0.5526 -0.4768  0.7565
  404TMC3    C4 6032   0.054   4.297  12.953 -1.0471 -0.1944 -0.3620
  404TMC3    C5 6033   4.677   4.215  12.898 -0.5539  0.4875 -0.4907
  404TMC3    C6 6034   4.614   4.113  12.962 -0.1835 -0.2771  0.2408
  404TMC3     C 6035   0.193   4.341  13.146  0.3828 -0.2456  0.5208
  404TMC3     O 6036   0.211   4.316  13.263 -1.0156 -0.2860  0.3235
  404TMC3     H 6037   0.069   4.141  13.253 -0.3674 -1.5802 -0.4251
  404TMC3    H1 6038   0.095   4.370  12.884 -0.8404 -0.2280 -0.2729
  404TMC3    H2 6039   4.539   4.052  12.913 -1.6960  1.4935  0.3682
  404TMC3    C7 6040   4.670   4.227  12.755 -0.5059 -0.1201  0.0407
  404TMC3    C8 6041   4.605   3.966  13.144  0.1504 -0.3754 -0.2028
  404TMC3    O1 6042   0.059   4.250  12.700 -1.0975 -0.2090 -0.0477
  404TMC3    O2 6043   4.543   3.887  13.076  0.2210  0.1637 -0.2505
  405MPD2     C 6044   0.627   4.566  14.902  0.5274  0.0653  0.0791
  405MPD2    C1 6045   0.533   4.534  14.806 -0.4104 -1.0107 -0.5666
  405MPD2    C2 6046   0.543   4.587  14.673 -0.0767 -0.0988  0.3372
  405MPD2    C3 6047   0.637   4.675  14.641  0.2478 -0.7095  0.2438
  405MPD2    C4 6048   0.733   4.697  14.734 -0.6716 -0.8124 -0.7836
  405MPD2    C5 6049   0.734   4.643  14.861 -0.0361 -0.2602 -0.9224
  405MPD2     H 6050   0.467   4.565  14.599  0.9800  2.3158 -1.4861
  405MPD2    H1 6051   0.824   0.032  14.713 -0.8406 -0.5086 -0.7092
  405MPD2    H2 6052   0.606   4.538  15.005 -1.5500  3.0599  0.4783
  405MPD2    H3 6053   0.813   4.658  14.934 -0.0350 -0.9607 -0.7802
  405MPD2     N 6054   0.639   0.013  14.516  0.1933 -0.6710  0.1400
  405MPD2    H5 6055   0.577   4.697  14.444 -0.0587 -0.6247  0.3308
  405MPD2    N1 6056   0.421   4.453  14.824  0.6516 -0.1677  0.0267
  405MPD2    H7 6057   0.375   4.432  14.736 -0.7337 -1.4208  1.0373
  406TMC3    C1 6058   0.632   0.294  14.160  0.2065  0.0927 -0.0966
  406TMC3    C2 6059   0.572   0.193  14.095  0.4647  0.5280 -0.3144
  406TMC3    C3 6060   0.583   0.063  14.142  0.0044  0.1501 -0.2749
  406TMC3    C4 6061   0.677   0.272  14.289 -0.3467 -0.2488  0.2789
  406TMC3    C5 6062   0.695   0.141  14.335  0.0387  0.3720  0.0980
  406TMC3    C6 6063   0.652   0.034  14.256 -0.0806  0.3603  0.0884
  406TMC3     C 6064   0.559   0.425  14.152  0.0077  0.1501 -0.1782
  406TMC3     O 6065   0.597   0.510  14.235 -0.8426 -0.8632 -0.3227
  406TMC3     H 6066   0.526   0.200  13.997  1.1085  1.4468 -0.5524
  406TMC3    H1 6067   0.688   0.348  14.365  0.8896  0.0810 -0.2245
  406TMC3    H2 6068   0.681   4.652  14.277 -0.2983  0.0161 -1.3017
  406TMC3    C7 6069   0.708   0.123  14.475  0.6653  0.3409  0.0966
  406TMC3    C8 6070   0.473   4.700  14.090 -0.7235  0.0303 -0.2781
  406TMC3    O1 6071   0.762   0.215  14.536  0.6965  0.3421  0.5547
  406TMC3    O2 6072   0.406   0.019  13.997  0.4183  0.2176  0.1158
  407MPD2     C 6073   3.309   1.232   8.988  0.7997  0.0262  0.0326
  407MPD2    C1 6074   3.408   1.215   9.089 -0.0525  0.0063 -0.9669
  407MPD2    C2 6075   3.375   1.217   9.225 -0.1380  0.1213  0.1217
  407MPD2    C3 6076   3.242   1.248   9.260  0.4140 -0.2884  0.2713
  407MPD2    C4 6077   3.146   1.259   9.166  0.6353  0.5711 -0.6325
  407MPD2    C5 6078   3.174   1.251   9.031  0.0433 -0.2686 -0.8803
  407MPD2     H 6079   3.455   1.197   9.296  1.3646  0.6492 -1.4224
  407MPD2    H1 6080   3.043   1.283   9.192  0.1461  0.2243 -2.2420
  407MPD2    H2 6081   3.331   1.227   8.882  2.3160 -1.2505  0.4031
  407MPD2    H3 6082   3.089   1.260   8.965  0.9548  0.8568 -1.8993
  407MPD2     N 6083   3.209   1.266   9.399 -0.2156  1.1168  0.3629
  407MPD2    H5 6084   3.123   1.318   9.417 -0.7772  0.2686  0.1006
  407MPD2    N1 6085   3.543   1.204   9.057 -0.3489  0.1989  0.0199
  407MPD2    H7 6086   3.604   1.186   9.136 -0.1235  2.1382  0.2734
  408TMC3    C1 6087   3.730   1.183   8.916 -0.1108  0.1959 -1.1905
  408TMC3    C2 6088   3.796   1.104   9.010  0.6024 -0.8258  0.2849
  408TMC3    C3 6089   3.928   1.114   9.030  0.5029  0.2786 -0.1628
  408TMC3    C4 6090   3.814   1.259   8.843 -0.8807 -0.0869 -0.7495
  408TMC3    C5 6091   3.954   1.255   8.859 -0.2072  0.6078 -0.2391
  408TMC3    C6 6092   4.013   1.192   8.961  0.7752  0.0688 -0.9739
  408TMC3     C 6093   3.593   1.215   8.928 -0.2423 -0.1951  0.7471
  408TMC3     O 6094   3.545   1.257   8.823 -0.5164  0.3297  1.3278
  408TMC3     H 6095   3.738   1.046   9.081  2.3267 -2.1626  0.6099
  408TMC3    H1 6096   3.777   1.309   8.754 -1.1418  1.0368 -0.0114
  408TMC3    H2 6097   4.117   1.161   8.957  0.7595  0.1561 -1.8635
  408TMC3    C7 6098   4.031   1.319   8.754 -0.1945 -0.3663 -0.9627
  408TMC3    C8 6099   3.980   1.038   9.133  0.0872 -0.9714 -0.0995
  408TMC3    O1 6100   3.980   1.353   8.652  0.3952  0.1268 -0.7389
  408TMC3    O2 6101   3.910   0.937   9.162 -0.2463 -0.5880  0.1960
  409MPD2     C 6102   2.783   2.177  17.481  0.5963  0.3924  0.3814
  409MPD2    C1 6103   2.885   2.249  17.538  0.2201  0.1319 -0.1572
  409MPD2    C2 6104   2.900   2.383  17.498  0.0512  0.0371  0.5038
  409MPD2    C3 6105   2.807   2.441  17.410 -0.4506  0.2561  0.4969
  409MPD2    C4 6106   2.696   2.377  17.372  0.1481  0.9636 -0.5794
  409MPD2    C5 6107   2.684   2.242  17.409  0.2896  0.0536 -0.1390
  409MPD2     H 6108   2.993   2.432  17.526  0.8678 -1.2693  0.0738
  409MPD2    H1 6109   2.622   2.421  17.306  1.0924  2.8065 -0.4243
  409MPD2    H2 6110   2.771   2.069  17.478  0.2004  0.4744 -0.8254
  409MPD2    H3 6111   2.602   2.196  17.357 -1.0072  0.8258  1.2361
  409MPD2     N 6112   2.833   2.568  17.349  0.2604 -0.3254  0.2076
  409MPD2    H5 6113   2.781   2.597  17.267 -0.4795 -0.7674  0.5207
  409MPD2    N1 6114   2.985   2.190  17.614  0.6401  0.2531  0.1496
  409MPD2    H7 6115   3.059   2.250  17.649  2.1698 -1.7742  0.4109
  410TMC3    C1 6116   2.954   2.765  17.290 -0.4334 -0.2126  0.3119
  410TMC3    C2 6117   3.088   2.772  17.254 -1.4069 -0.5020  0.5030
  410TMC3    C3 6118   3.119   2.784  17.119  0.5200  0.2514 -0.3567
  410TMC3    C4 6119   2.860   2.773  17.191 -0.5576  0.4580  1.2324
  410TMC3    C5 6120   2.894   2.794  17.065  0.2109 -0.3327 -0.1928
  410TMC3    C6 6121   3.023   2.794  17.019  0.2554  0.1143 -0.0607
  410TMC3     C 6122   2.936   2.653  17.380 -0.1468  0.8090 -0.1227
  410TMC3     O 6123   3.017   2.649  17.470 -0.1054  0.2318 -0.0535
  410TMC3     H 6124   3.159   2.762  17.335 -1.0113  2.5288  0.5307
  410TMC3    H1 6125   2.754   2.762  17.211 -0.3172 -0.5416  1.9116
  410TMC3    H2 6126   3.061   2.812  16.919 -0.7864 -0.1740 -0.5099
  410TMC3    C7 6127   2.799   2.745  16.968 -0.2645 -0.1239 -0.2779
  410TMC3    C8 6128   3.257   2.761  17.079 -0.4436  0.5732 -0.2369
  410TMC3    O1 6129   2.719   2.659  17.005 -0.2335 -0.6322 -0.2238
  410TMC3    O2 6130   3.341   2.835  17.132 -0.7514  0.4667  0.4769
  411MPD2     C 6131   3.055   2.950  14.100 -0.3165 -0.0347 -0.1133
  411MPD2    C1 6132   2.920   2.977  14.100  0.4682  0.3611 -0.5975
  411MPD2    C2 6133   2.829   2.879  14.075 -0.5405 -0.3096 -0.3137
  411MPD2    C3 6134   2.872   2.752  14.045  0.1600  0.6602 -0.6019
  411MPD2    C4 6135   3.012   2.726  14.046  0.3983 -0.4003  0.6039
  411MPD2    C5 6136   3.096   2.827  14.071  0.1852 -0.0180 -0.4533
  411MPD2     H 6137   2.722   2.890  14.085 -0.1749  0.4557  2.7660
  411MPD2    H1 6138   3.056   2.636  14.004 -2.1397 -1.2722 -0.2049
  411MPD2    H2 6139   3.130   3.018  14.140  1.8870 -1.7092 -1.4059
  411MPD2    H3 6140   3.203   2.813  14.063  0.1428 -1.0329  0.7344
  411MPD2     N 6141   2.776   2.650  14.008  0.6362 -0.6440 -0.6126
  411MPD2    H5 6142   2.681   2.685  14.001  0.9058 -0.0386 -1.1854
  411MPD2    N1 6143   2.884   3.106  14.129  0.0328  0.1192 -0.2849
  411MPD2    H7 6144   2.964   3.168  14.123 -0.5567  0.8844 -0.2297
  412TMC3    C1 6145   2.695   2.443  13.932 -0.2561  0.2376 -0.7586
  412TMC3    C2 6146   2.581   2.444  14.014  0.4581  0.1754  0.2397
  412TMC3    C3 6147   2.471   2.371  13.979  0.0601  0.3687 -0.6417
  412TMC3    C4 6148   2.700   2.376  13.819  0.9714 -0.4832  0.6919
  412TMC3    C5 6149   2.576   2.333  13.766 -0.0047  0.1456 -0.0612
  412TMC3    C6 6150   2.476   2.314  13.853 -0.1484  1.1839  0.2125
  412TMC3     C 6151   2.813   2.525  13.964 -0.2742 -0.2092  0.4464
  412TMC3     O 6152   2.922   2.469  13.956  0.2490 -0.0243 -0.7828
  412TMC3     H 6153   2.588   2.506  14.103 -0.8175 -0.0486  0.4893
  412TMC3    H1 6154   2.799   2.371  13.774  0.0454  0.6368 -1.4590
  412TMC3    H2 6155   2.386   2.277  13.807 -0.2751 -1.0766  2.2636
  412TMC3    C7 6156   2.523   2.424  13.667 -0.0373  0.0563 -0.0150
  412TMC3    C8 6157   2.363   2.471  13.984 -0.3910  0.1643 -0.2788
  412TMC3    O1 6158   2.407   2.428  13.636  0.5296  0.3081  0.1426
  412TMC3    O2 6159   2.410   2.582  13.986  0.1885 -0.4653 -0.3994
  413MPD2     C 6160   4.492   1.483  15.462  0.8476 -0.5808 -0.4893
  413MPD2    C1 6161   4.424   1.365  15.434 -0.0531  0.3020 -0.2991
  413MPD2    C2 6162   4.496   1.255  15.391  0.8000 -0.1594  0.2224
  413MPD2    C3 6163   4.633   1.249  15.378 -0.1525  0.2477 -0.7758
  413MPD2    C4 6164   4.698   1.370  15.404 -0.3367 -0.2213 -0.2844
  413MPD2    C5 6165   4.627   1.478  15.446  0.1040  0.1244  0.3462
  413MPD2     H 6166   4.445   1.165  15.358  0.3505 -0.2750  1.2191
  413MPD2    H1 6167   0.085   1.368  15.393 -0.3737  2.7105 -1.0181
  413MPD2    H2 6168   4.447   1.577  15.491 -0.9716 -1.0398 -1.8778
  413MPD2    H3 6169   4.678   1.571  15.467 -1.4011  0.6574  1.6973
  413MPD2     N 6170   4.696   1.128  15.335 -0.1677 -0.0689 -0.1811
  413MPD2    H5 6171   4.640   1.049  15.306  0.7200 -0.9797  0.5859
  413MPD2    N1 6172   4.281   1.364  15.429 -0.7880 -0.1692 -0.1426
  413MPD2    H7 6173   4.234   1.452  15.448  0.1539  0.1769  0.5762
  414TMC3    C1 6174   0.146   0.978  15.274  0.0599  0.0709  0.4210
  414TMC3    C2 6175   0.273   0.923  15.311  0.9040  0.7512  0.7919
  414TMC3    C3 6176   0.290   0.792  15.287  0.0410 -0.4970  1.4854
  414TMC3    C4 6177   0.060   0.904  15.202 -0.5258 -0.4484  0.3931
  414TMC3    C5 6178   0.090   0.775  15.172  0.3293  0.4922  0.3854
  414TMC3    C6 6179   0.199   0.715  15.220 -0.1372  0.6266 -0.2783
  414TMC3     C 6180   0.112   1.111  15.321  0.1500 -0.2533 -0.1152
  414TMC3     O 6181   0.200   1.187  15.356  0.1566  0.2106  0.0171
  414TMC3     H 6182   0.329   0.969  15.392  0.1913  0.5817  1.3811
  414TMC3    H1 6183   4.693   0.955  15.164 -0.2901 -0.4504 -0.1543
  414TMC3    H2 6184   0.211   0.610  15.197  0.1449  0.7618 -0.7315
  414TMC3    C7 6185   4.716   0.714  15.078  0.7032 -0.3385 -0.5730
  414TMC3    C8 6186   0.426   0.740  15.297  0.3062  0.0274 -0.0272
  414TMC3    O1 6187   4.596   0.715  15.098 -0.1646 -0.2233  0.6173
  414TMC3    O2 6188   0.444   0.628  15.255 -0.3213 -0.6722  0.1217
  415TMC3    C1 6189   0.706   3.217  10.077 -0.4594 -0.5254  0.3054
  415TMC3    C2 6190   0.783   3.205   9.966 -0.0828 -0.4377  0.2678
  415TMC3    C3 6191   0.731   3.141   9.860  0.0288  0.4609 -0.9952
  415TMC3    C4 6192   0.583   3.150  10.083 -0.6367  0.2023  0.5400
  415TMC3    C5 6193   0.536   3.081   9.977  0.0172  0.3050 -0.2347
  415TMC3    C6 6194   0.606   3.088   9.861  0.4799  0.0288 -0.6007
  415TMC3     C 6195   0.771   3.255  10.205  0.2758  0.0609 -0.8415
  415TMC3     O 6196   0.710   3.225  10.306 -0.0146 -0.6743 -0.4203
  415TMC3     H 6197   0.884   3.242   9.970 -0.2069 -0.1744  1.0124
  415TMC3    H1 6198   0.517   3.172  10.166  0.4795 -2.9283  2.2893
  415TMC3    H2 6199   0.572   3.033   9.775 -1.2079 -1.1981  0.8542
  415TMC3    C7 6200   0.394   3.048   9.984  0.2053  0.2231 -0.0045
  415TMC3    C8 6201   0.808   3.101   9.752  0.0041 -0.0068  0.5741
  415TMC3    O1 6202   0.343   3.028   9.877  0.3998 -0.5911 -0.2346
  415TMC3    O2 6203   0.768   3.009   9.684  0.4064 -0.5312  0.4166
  416MPD2     C 6204   1.790   2.696  11.468  0.2860 -0.4832  0.3516
  416MPD2    C1 6205   1.676   2.615  11.477 -0.1279  0.1334 -0.4567
  416MPD2    C2 6206   1.698   2.477  11.480 -0.4955  0.4486 -0.5477
  416MPD2    C3 6207   1.823   2.423  11.470 -0.0798  0.1514  0.0257
  416MPD2    C4 6208   1.936   2.507  11.465 -1.2722  0.5400 -0.1105
  416MPD2    C5 6209   1.915   2.643  11.457  0.1762  0.1647  0.0837
  416MPD2     H 6210   1.617   2.406  11.477 -0.1910  0.1020 -0.5150
  416MPD2    H1 6211   2.034   2.465  11.451 -1.3505  0.3111  0.0268
  416MPD2    H2 6212   1.781   2.804  11.470  1.0654 -0.3779 -1.2564
  416MPD2    H3 6213   2.001   2.706  11.440 -0.3504  0.7534 -0.4294
  416MPD2     N 6214   1.835   2.278  11.462  1.0204  0.0912  0.0534
  416MPD2    H5 6215   1.747   2.228  11.463  0.7653  0.5426  0.2360
  416MPD2    N1 6216   1.551   2.671  11.495  0.8827  0.2400  0.0562
  416MPD2    H7 6217   1.540   2.770  11.475 -0.4506  0.1345  0.2490
  417TMC3    C1 6218   1.333   2.698  11.567 -0.4705  0.3357 -0.2780
  417TMC3    C2 6219   1.264   2.700  11.686 -0.1687 -0.6212  0.8276
  417TMC3    C3 6220   1.201   2.817  11.720 -0.3095 -0.1688 -0.5626
  417TMC3    C4 6221   1.320   2.800  11.474  0.0560 -0.7928 -0.4932
  417TMC3    C5 6222   1.233   2.902  11.506  0.2463  0.0444 -0.2549
  417TMC3    C6 6223   1.172   2.918  11.629 -0.3907  0.1462  0.9222
  417TMC3     C 6224   1.449   2.607  11.560  0.2455  0.0171 -0.4162
  417TMC3     O 6225   1.441   2.495  11.610 -0.9036 -0.3130  0.8384
  417TMC3     H 6226   1.305   2.629  11.757  0.0309 -0.6550  0.6785
  417TMC3    H1 6227   1.364   2.794  11.375  2.7350  0.2339  0.6303
  417TMC3    H2 6228   1.105   2.998  11.657  0.6211  1.7211 -1.1353
  417TMC3    C7 6229   1.249   3.018  11.419 -0.1009 -0.0943 -0.5876
  417TMC3    C8 6230   1.190   2.856  11.857 -0.5177  0.5080 -0.6404
  417TMC3    O1 6231   1.305   2.998  11.310 -0.5541  0.6443 -0.1182
  417TMC3    O2 6232   1.157   2.974  11.871  0.2666  0.1859 -0.0061
  418TMC3    C1 6233   1.041   4.042  17.174  0.4615  0.5934  0.4881
  418TMC3    C2 6234   0.961   4.148  17.137  0.5579  0.6400 -0.6782
  418TMC3    C3 6235   0.939   4.248  17.233  1.1716 -0.1051  0.5056
  418TMC3    C4 6236   1.102   4.046  17.293 -0.1119 -0.0259 -0.8461
  418TMC3    C5 6237   1.086   4.139  17.387 -0.0682  0.5183  0.6934
  418TMC3    C6 6238   1.005   4.241  17.354 -0.0969  0.2159 -0.5755
  418TMC3     C 6239   1.083   3.948  17.064  0.0536 -0.0674 -0.5557
  418TMC3     O 6240   1.062   3.995  16.958 -0.1848  0.1115 -0.1945
  418TMC3     H 6241   0.883   4.139  17.061 -1.0005 -2.3730  1.2728
  418TMC3    H1 6242   1.182   3.974  17.310  1.0818  1.5031  0.0169
  418TMC3    H2 6243   0.990   4.324  17.422  0.5593 -0.9764  1.0194
  418TMC3    C7 6244   1.142   4.125  17.518  0.1911 -0.0342  0.4729
  418TMC3    C8 6245   0.795   4.258  17.264 -0.5136  0.1321  0.0413
  418TMC3    O1 6246   1.154   4.017  17.568  0.4827  0.0842  0.7926
  418TMC3    O2 6247   0.722   4.291  17.174  0.2004 -0.2480  0.4828
  419MPD2     C 6248   3.998   2.651  12.357 -0.0304  0.1041 -0.1997
  419MPD2    C1 6249   3.907   2.761  12.373 -0.0681  0.6137  0.2270
  419MPD2    C2 6250   3.845   2.784  12.492 -0.0600 -0.2025 -0.1364
  419MPD2    C3 6251   3.882   2.712  12.602  0.0427  0.2661  0.1331
  419MPD2    C4 6252   3.976   2.618  12.589  0.0963 -0.6975  0.1383
  419MPD2    C5 6253   4.038   2.589  12.474  0.3037  0.5798 -0.2176
  419MPD2     H 6254   3.785   2.874  12.493 -1.4546 -1.1455  1.9101
  419MPD2    H1 6255   4.035   2.583  12.673  0.7631  1.7822  0.6781
  419MPD2    H2 6256   4.059   2.639  12.268 -2.9173 -0.6977 -2.0493
  419MPD2    H3 6257   4.121   2.519  12.463  0.4402  1.0044 -1.8806
  419MPD2     N 6258   3.827   2.767  12.726 -0.4090  0.4907  0.1514
  419MPD2    H5 6259   3.777   2.855  12.725 -2.0837 -0.4242  1.9572
  419MPD2    N1 6260   3.899   2.855  12.267 -0.2776  0.0809 -0.1325
  419MPD2    H7 6261   3.854   2.943  12.291  0.3511  0.9846 -2.3076
  420TMC3    C1 6262   3.798   2.806  12.952  0.2950 -0.1101 -0.1200
  420TMC3    C2 6263   3.724   2.919  12.914  0.3057  0.0866 -0.0901
  420TMC3    C3 6264   3.675   2.992  13.022  0.1834 -0.0662  0.1199
  420TMC3    C4 6265   3.823   2.776  13.080 -0.5413  0.2214 -0.3280
  420TMC3    C5 6266   3.770   2.847  13.176 -0.4834  0.4029 -0.3920
  420TMC3    C6 6267   3.683   2.954  13.151  0.2865  1.0359  0.2557
  420TMC3     C 6268   3.854   2.720  12.851  0.4940 -0.7497  0.0932
  420TMC3     O 6269   3.917   2.617  12.883  0.1765  0.5142 -0.5977
  420TMC3     H 6270   3.713   2.953  12.811 -0.7115  0.6595  0.2075
  420TMC3    H1 6271   3.873   2.681  13.097  2.0567  1.6312 -0.0264
  420TMC3    H2 6272   3.650   3.006  13.240  0.9922  1.7307  0.1147
  420TMC3    C7 6273   3.750   2.771  13.301 -0.3393 -0.6377 -0.5591
  420TMC3    C8 6274   3.610   3.116  12.989 -0.6799  0.1724 -0.6258
  420TMC3    O1 6275   3.732   2.649  13.287 -0.4207 -0.2455 -0.5193
  420TMC3    O2 6276   3.582   3.131  12.874  0.7029  0.1547 -0.2239
  421TMC3    C1 6277   0.723   4.602  13.580 -0.8309 -0.7980 -0.1675
  421TMC3    C2 6278   0.789   4.704  13.645  0.1696 -0.2198  0.0781
  421TMC3    C3 6279   0.815   4.685  13.777  0.0251 -0.5962  0.1546
  421TMC3    C4 6280   0.719   4.478  13.627 -0.7462  0.0094 -0.1692
  421TMC3    C5 6281   0.758   4.464  13.758 -0.0281  0.7098 -0.1041
  421TMC3    C6 6282   0.788   4.565  13.841  0.2487  0.6063  0.1354
  421TMC3     C 6283   0.697   4.631  13.444 -0.2914 -0.4107  0.2888
  421TMC3     O 6284   0.750   0.011  13.395  0.0398 -0.3950 -0.3406
  421TMC3     H 6285   0.811   0.079  13.600  0.9730 -0.0369  0.8724
  421TMC3    H1 6286   0.700   4.391  13.566  0.1072 -0.3735  0.1060
  421TMC3    H2 6287   0.826   4.554  13.942  0.0371 -3.0166 -0.1811
  421TMC3    C7 6288   0.812   4.339  13.804 -0.2155  0.3634  0.2633
  421TMC3    C8 6289   0.862   0.065  13.867 -0.1161 -0.4022 -0.6306
  421TMC3    O1 6290   0.873   4.348  13.907  0.3594 -0.1943  0.1701
  421TMC3    O2 6291   0.823   0.048  13.982 -0.8134 -0.5107 -0.3255
  422TMC3    C1 6292   2.982   1.085  12.534 -0.1192 -0.2406 -0.3908
  422TMC3    C2 6293   2.928   1.206  12.499  1.0087  0.3716 -0.3453
  422TMC3    C3 6294   2.821   1.255  12.563  0.1019 -0.4922  0.3267
  422TMC3    C4 6295   2.929   1.018  12.636 -0.8777  0.0605 -0.0165
  422TMC3    C5 6296   2.812   1.069  12.692 -0.2811  0.4139 -0.6539
  422TMC3    C6 6297   2.748   1.184  12.661 -0.7124  0.8273 -0.4872
  422TMC3     C 6298   3.094   1.048  12.449 -0.0770 -0.1459 -0.6896
  422TMC3     O 6299   3.136   1.143  12.386  1.0167  0.2419 -0.3995
  422TMC3     H 6300   2.976   1.270  12.426 -1.3738  0.7655 -1.5481
  422TMC3    H1 6301   2.970   0.924  12.672  0.1428 -0.6138 -2.9717
  422TMC3    H2 6302   2.664   1.233  12.709 -2.2763 -2.4240  0.0960
  422TMC3    C7 6303   2.745   0.966  12.765  0.2090 -0.4851 -0.1557
  422TMC3    C8 6304   2.766   1.384  12.528  0.1259 -0.3510  0.1998
  422TMC3    O1 6305   2.805   0.863  12.799  0.3313  0.1194  0.2897
  422TMC3    O2 6306   2.843   1.458  12.464 -0.1629  0.0964 -0.3754
  423MPD2     C 6307   0.005   2.035   0.720  0.7941 -0.2183 -0.2630
  423MPD2    C1 6308   0.055   1.927   0.782 -0.5340 -0.0888 -0.2908
  423MPD2    C2 6309   0.103   1.821   0.707  0.3082 -0.6692  0.7748
  423MPD2    C3 6310   0.114   1.840   0.571 -0.4222 -0.7272  0.1194
  423MPD2    C4 6311   0.065   1.950   0.511 -0.8191 -0.2423  0.5575
  423MPD2    C5 6312   0.006   2.051   0.582  0.3511 -0.6797 -0.2888
  423MPD2     H 6313   0.135   1.725   0.747  1.1342 -0.4654  0.5968
  423MPD2    H1 6314   0.072   1.953   0.403  0.0219  0.4836  0.6320
  423MPD2    H2 6315   4.693   2.124   0.774  1.4707  0.0110 -0.2232
  423MPD2    H3 6316   4.687   2.135   0.526  1.5303 -0.7081 -1.1650
  423MPD2     N 6317   0.177   1.750   0.480  0.5049 -0.0459 -0.0189
  423MPD2    H5 6318   0.189   1.776   0.383 -2.2605  2.0361  0.1867
  423MPD2    N1 6319   0.049   1.907   0.925  0.4266 -0.1806 -0.0558
  423MPD2    H7 6320   0.107   1.832   0.960  0.0977  0.3619  1.6645
  424TMC3    C1 6321   0.011   1.945   1.151 -0.1538 -0.0659  0.1408
  424TMC3    C2 6322   0.080   1.837   1.182 -0.4677  0.1118 -0.0753
  424TMC3    C3 6323   0.057   1.772   1.299  0.5411 -0.1731 -0.7687
  424TMC3    C4 6324   4.628   1.983   1.237  0.5764 -0.3598 -0.2237
  424TMC3    C5 6325   4.593   1.908   1.342  0.2811 -0.4076 -0.3491
  424TMC3    C6 6326   4.679   1.815   1.383  0.1910 -0.0472 -0.1145
  424TMC3     C 6327   4.710   1.986   1.015 -0.5469  0.1241 -1.1393
  424TMC3     O 6328   4.661   2.097   1.004 -0.3750 -0.4706 -0.5397
  424TMC3     H 6329   0.166   1.812   1.121 -0.7349 -1.9778  0.4105
  424TMC3    H1 6330   4.598   2.086   1.223 -0.2932 -1.0681 -3.4788
  424TMC3    H2 6331   4.640   1.751   1.462  0.6947 -2.4308 -1.7916
  424TMC3    C7 6332   4.508   1.967   1.437  0.5048  0.0471  0.7499
  424TMC3    C8 6333   0.132   1.655   1.334  0.0961 -0.1062 -0.0766
  424TMC3    O1 6334   4.519   1.931   1.558 -0.0540 -0.4616  0.0830
  424TMC3    O2 6335   0.078   1.566   1.399 -0.2496  0.2116  0.2114
  425MPD2     C 6336   3.966   1.020  17.635 -0.3054  0.0760  0.5838
  425MPD2    C1 6337   3.874   0.993  17.536  0.1696  0.3947  0.0231
  425MPD2    C2 6338   3.768   1.079  17.517  0.6136 -0.5143 -0.2154
  425MPD2    C3 6339   3.751   1.185  17.598 -0.3964  0.2833  0.1577
  425MPD2    C4 6340   3.849   1.224   0.002  0.5130 -0.4579 -0.6357
  425MPD2    C5 6341   3.963   1.144   0.012 -0.0485 -0.0137  0.5718
  425MPD2     H 6342   3.688   1.050  17.450  0.6021  1.9096 -1.2404
  425MPD2    H1 6343   3.832   1.312   0.062  1.5180 -0.2411 -0.6672
  425MPD2    H2 6344   4.058   0.964  17.644  0.5233  1.3969  0.2623
  425MPD2    H3 6345   4.041   1.173   0.082 -0.8894  2.9739  0.2577
  425MPD2     N 6346   3.626   1.246  17.591 -0.0174  0.1038 -0.2012
  425MPD2    H5 6347   3.551   1.209  17.535 -1.0483  0.0607  1.2111
  425MPD2    N1 6348   3.896   0.878  17.461  0.0895 -0.1066 -0.1247
  425MPD2    H7 6349   3.973   0.816  17.485 -1.0546 -0.3535  2.8778
  426TMC3    C1 6350   3.850   0.691  17.325  0.4355  0.8420 -0.4684
  426TMC3    C2 6351   3.823   0.639  17.197 -0.0416 -0.5591  0.1760
  426TMC3    C3 6352   3.830   0.499  17.185  0.4590  0.1814 -0.1010
  426TMC3    C4 6353   3.870   0.612  17.432  0.0148  0.3998  0.6317
  426TMC3    C5 6354   3.887   0.479  17.409 -0.7277 -0.6352 -0.5397
  426TMC3    C6 6355   3.882   0.427  17.288 -0.3774  0.0315 -0.4945
  426TMC3     C 6356   3.824   0.828  17.354 -0.3292  0.4543  0.3388
  426TMC3     O 6357   3.756   0.885  17.272  0.4084 -0.4235  0.4237
  426TMC3     H 6358   3.787   0.693  17.110 -0.5691  3.1097  2.6471
  426TMC3    H1 6359   3.875   0.643  17.536  2.5895  4.1441 -0.5938
  426TMC3    H2 6360   3.883   0.320  17.274  0.9640  0.2951 -2.4176
  426TMC3    C7 6361   3.862   0.385  17.519  0.1121  0.7696  0.5379
  426TMC3    C8 6362   3.775   0.435  17.066 -0.0217  0.0797 -0.0786
  426TMC3    O1 6363   3.787   0.292  17.493  0.1512  0.8345 -0.1914
  426TMC3    O2 6364   3.838   0.340  17.025  0.1832 -0.1954  0.5611
  427MPD2     C 6365   1.325   3.451  15.488  0.0722  0.0026  0.1911
  427MPD2    C1 6366   1.331   3.391  15.359  0.4464 -0.3881  0.2455
  427MPD2    C2 6367   1.214   3.398  15.280 -0.8499  0.3783  0.1126
  427MPD2    C3 6368   1.099   3.456  15.323 -0.3728  0.4417  0.4336
  427MPD2    C4 6369   1.090   3.506  15.458  0.5323  0.0107  0.4265
  427MPD2    C5 6370   1.205   3.506  15.534  0.2132  0.2826  0.3110
  427MPD2     H 6371   1.216   3.346  15.185 -0.1264 -0.1770  0.4324
  427MPD2    H1 6372   1.004   3.543  15.512  0.1059  1.0477 -0.9803
  427MPD2    H2 6373   1.410   3.470  15.552  1.3581 -1.5809 -1.0226
  427MPD2    H3 6374   1.202   3.548  15.634 -0.5801  0.8463  0.0447
  427MPD2     N 6375   0.975   3.443  15.253 -0.1881 -0.1787 -0.8888
  427MPD2    H5 6376   0.891   3.458  15.307  0.5792  0.0527  0.2400
  427MPD2    N1 6377   1.447   3.330  15.309 -0.4512 -0.4064  0.0952
  427MPD2    H7 6378   1.431   3.282  15.221 -0.0832  0.9821 -0.7315
  428TMC3    C1 6379   1.661   3.283  15.276 -0.6007  0.7381  0.1169
  428TMC3    C2 6380   1.614   3.172  15.206  0.1683 -0.3785 -0.2231
  428TMC3    C3 6381   1.698   3.098  15.124 -0.3786  0.1712  0.0118
  428TMC3    C4 6382   1.790   3.332  15.265 -0.4362 -0.2010  0.4785
  428TMC3    C5 6383   1.871   3.253  15.183  0.1878 -1.2338  0.0425
  428TMC3    C6 6384   1.833   3.140  15.117 -0.0840 -0.5738 -0.6998
  428TMC3     C 6385   1.568   3.350  15.364  0.2601  0.1064  0.0642
  428TMC3     O 6386   1.607   3.428  15.445 -0.7101  0.5713  0.5643
  428TMC3     H 6387   1.516   3.132  15.231  1.2010 -2.3967  0.6179
  428TMC3    H1 6388   1.822   3.416  15.325  2.1405  0.2184 -1.4859
  428TMC3    H2 6389   1.899   3.084  15.052  0.8362 -2.5757  1.9558
  428TMC3    C7 6390   2.002   3.306  15.148 -0.6397  0.0947 -0.2398
  428TMC3    C8 6391   1.659   2.969  15.069  0.4200 -0.0830  0.8348
  428TMC3    O1 6392   2.097   3.230  15.129 -0.3687  0.5152 -0.1515
  428TMC3    O2 6393   1.751   2.897  15.033 -0.1369  0.4622  0.4110
  429MPD2     C 6394   3.677   3.438  17.354  0.2615  0.4396  0.3243
  429MPD2    C1 6395   3.652   3.300  17.339  0.7648  0.8474  0.1534
  429MPD2    C2 6396   3.641   3.256  17.208 -0.2905  0.3174  0.4759
  429MPD2    C3 6397   3.651   3.334  17.097 -0.7517 -0.5320  0.2343
  429MPD2    C4 6398   3.680   3.463  17.113 -0.4812  0.6676  0.3945
  429MPD2    C5 6399   3.688   3.511  17.242  0.1842 -0.5449  0.1118
  429MPD2     H 6400   3.619   3.151  17.198  4.0940 -0.4736 -0.6786
  429MPD2    H1 6401   3.699   3.533  17.032 -0.2736 -0.0129 -0.1405
  429MPD2    H2 6402   3.694   3.489  17.448 -1.6559 -1.6390  1.8263
  429MPD2    H3 6403   3.718   3.615  17.257  1.6894 -0.5167 -3.0155
  429MPD2     N 6404   3.638   3.269  16.967  0.2203  0.3079  0.3010
  429MPD2    H5 6405   3.635   3.168  16.967 -1.1439  0.3498 -0.9180
  429MPD2    N1 6406   3.654   3.208  17.446  0.7019  0.0555 -0.4656
  429MPD2    H7 6407   3.646   3.110  17.421 -1.3955 -0.9437  4.1913
  430TMC3    C1 6408   3.636   3.246  16.740 -0.6066 -0.3328  0.3082
  430TMC3    C2 6409   3.570   3.296  16.628  1.0359 -0.4388  0.5598
  430TMC3    C3 6410   3.556   3.212  16.520  0.3049  0.1961 -0.0848
  430TMC3    C4 6411   3.683   3.118  16.750 -0.0760  0.4687  0.2195
  430TMC3    C5 6412   3.666   3.040  16.642 -0.0757  0.3480  0.2856
  430TMC3    C6 6413   3.611   3.087  16.523 -1.2405 -0.0648  0.6912
  430TMC3     C 6414   3.624   3.336  16.848  0.6820 -0.1041 -0.3184
  430TMC3     O 6415   3.609   3.455  16.827 -0.2155 -0.4579 -0.3124
  430TMC3     H 6416   3.543   3.400  16.625  0.6011 -0.6098 -1.2342
  430TMC3    H1 6417   3.729   3.083  16.842 -2.9274 -0.0512  1.4619
  430TMC3    H2 6418   3.610   3.026  16.433  0.7399  0.2180  0.4804
  430TMC3    C7 6419   3.712   2.903  16.647 -0.1731  0.5057  0.5118
  430TMC3    C8 6420   3.464   3.239  16.407 -0.4478 -0.4239 -0.7248
  430TMC3    O1 6421   3.653   2.820  16.578  0.0671 -0.2789  0.6862
  430TMC3    O2 6422   3.414   3.147  16.346  0.7562 -0.1900 -0.0629
  431MPD2     C 6423   3.593   3.623  12.447  0.4575 -0.6048  0.6069
  431MPD2    C1 6424   3.672   3.645  12.335  0.2072 -0.8698 -0.1796
  431MPD2    C2 6425   3.703   3.540  12.251  0.4796 -0.3202 -0.4397
  431MPD2    C3 6426   3.689   3.414  12.296 -0.3749  0.0143  0.3788
  431MPD2    C4 6427   3.635   3.384  12.420  0.8040 -0.0598 -0.5968
  431MPD2    C5 6428   3.575   3.490  12.489 -0.5150  0.9628  1.7160
  431MPD2     H 6429   3.749   3.569  12.157 -1.6026  2.7975 -0.4712
  431MPD2    H1 6430   3.629   3.281  12.452  0.4700 -0.2162 -1.1703
  431MPD2    H2 6431   3.557   3.707  12.505  1.1092  0.8254 -1.0580
  431MPD2    H3 6432   3.528   3.478  12.586 -1.3141  1.3039  1.3713
  431MPD2     N 6433   3.742   3.300  12.227  0.9759  0.1387  0.1252
  431MPD2    H5 6434   3.735   3.210  12.274 -0.9763  0.9920  1.4880
  431MPD2    N1 6435   3.708   3.775  12.304 -0.3032  0.5452  0.2101
  431MPD2    H7 6436   3.752   3.781  12.213 -1.5084  3.7650 -0.1673
  432TMC3    C1 6437   3.851   3.185  12.045  0.5165  0.1162 -0.3351
  432TMC3    C2 6438   3.868   3.190  11.909  0.2138 -0.1119  0.7195
  432TMC3    C3 6439   3.908   3.074  11.849 -0.7701 -0.1852  0.1637
  432TMC3    C4 6440   3.888   3.083  12.120  0.9995 -0.2101  0.2429
  432TMC3    C5 6441   3.925   2.966  12.056 -0.5710 -0.3095  0.6102
  432TMC3    C6 6442   3.931   2.958  11.917  0.4049 -0.2255  0.0541
  432TMC3     C 6443   3.797   3.305  12.099 -0.1896 -0.7592  0.0564
  432TMC3     O 6444   3.809   3.402  12.026  0.2290  0.1766 -0.5258
  432TMC3     H 6445   3.863   3.280  11.849  0.1920 -1.1045 -0.7567
  432TMC3    H1 6446   3.888   3.099  12.227  0.4253  0.5449  0.1347
  432TMC3    H2 6447   3.951   2.863  11.868 -1.2243 -0.6236  0.1378
  432TMC3    C7 6448   3.942   2.842  12.132 -0.5107 -0.5780 -0.3345
  432TMC3    C8 6449   3.983   3.070  11.724 -0.3160 -0.7866 -0.0757
  432TMC3    O1 6450   3.999   2.747  12.076  0.9489  0.0400  0.5577
  432TMC3    O2 6451   3.997   2.968  11.658 -0.5222  0.2587  0.3054
  433MPD2     C 6452   3.054   1.951  10.447 -0.9117  1.0664 -0.0812
  433MPD2    C1 6453   3.014   1.837  10.516 -0.6528 -0.4346  0.8674
  433MPD2    C2 6454   2.990   1.849  10.654 -0.0507  0.5210  0.4268
  433MPD2    C3 6455   3.000   1.967  10.721  0.0066 -0.4711 -0.4138
  433MPD2    C4 6456   3.022   2.081  10.645  0.3951 -0.5449  0.1215
  433MPD2    C5 6457   3.051   2.077  10.514  0.9642 -0.4291 -0.7092
  433MPD2     H 6458   2.964   1.759  10.708  2.3750 -0.1689  0.4195
  433MPD2    H1 6459   3.019   2.180  10.689  0.8275 -0.0671 -0.9318
  433MPD2    H2 6460   3.060   1.953  10.339 -1.0401 -1.9436 -0.1387
  433MPD2    H3 6461   3.069   2.163  10.450 -2.9019  1.2638  0.4871
  433MPD2     N 6462   2.984   1.961  10.862  0.0552 -0.2390  0.0197
  433MPD2    H5 6463   2.958   1.874  10.908 -0.1818  0.7752  1.8081
  433MPD2    N1 6464   2.984   1.717  10.441 -0.2356  0.5388  0.0845
  433MPD2    H7 6465   3.015   1.712  10.344  0.5879 -2.2261  0.5032
  434TMC3    C1 6466   2.934   1.492  10.414  0.4524  0.5304  0.2884
  434TMC3    C2 6467   2.936   1.381  10.500 -0.0047 -0.9247 -0.5296
  434TMC3    C3 6468   2.986   1.272  10.442 -0.2979 -0.8194 -0.0651
  434TMC3    C4 6469   2.978   1.494  10.284  0.0173  0.3013 -0.4201
  434TMC3    C5 6470   3.030   1.374  10.233 -0.4596 -0.1964  0.3179
  434TMC3    C6 6471   3.032   1.265  10.315 -0.1158 -0.0438 -0.1614
  434TMC3     C 6472   2.921   1.606  10.494 -0.6426 -0.4529 -0.1901
  434TMC3     O 6473   2.836   1.609  10.585  0.8148  0.0071 -0.7111
  434TMC3     H 6474   2.917   1.391  10.606 -2.4002  2.8759 -1.2917
  434TMC3    H1 6475   2.965   1.586  10.228  0.9357  1.4256  1.2235
  434TMC3    H2 6476   3.051   1.165  10.277 -0.5729 -0.5796  1.0010
  434TMC3    C7 6477   2.995   1.338  10.100 -0.3856  0.2673  0.4685
  434TMC3    C8 6478   3.053   1.188  10.539  0.2265 -0.1678 -0.1946
  434TMC3    O1 6479   2.939   1.433  10.042 -0.1989 -0.1817 -0.6988
  434TMC3    O2 6480   3.031   1.196  10.656 -0.4937 -0.1233  0.0540
  435MPD2     C 6481   4.704   1.815  15.304 -0.6642 -0.0290 -0.2403
  435MPD2    C1 6482   4.674   1.841  15.437  1.1053  0.1770 -0.2284
  435MPD2    C2 6483   0.059   1.838  15.533  0.2865  0.2860 -0.6774
  435MPD2    C3 6484   0.187   1.805  15.496  0.7329 -0.1006 -0.1092
  435MPD2    C4 6485   0.215   1.765  15.368 -0.0508  0.3016  0.3990
  435MPD2    C5 6486   0.114   1.779  15.274 -0.8756  0.1515 -0.8175
  435MPD2     H 6487   0.040   1.869  15.635 -1.0451 -1.2317 -0.4727
  435MPD2    H1 6488   0.312   1.735  15.330 -0.2253  0.0602  0.1432
  435MPD2    H2 6489   4.631   1.813  15.223 -2.0531  0.6987  0.9895
  435MPD2    H3 6490   0.143   1.750  15.174  0.2823  0.7363 -0.6476
  435MPD2     N 6491   0.286   1.817  15.593  0.9116  0.0260 -0.1064
  435MPD2    H5 6492   0.261   1.830  15.691  0.3147  0.8417 -0.3668
  435MPD2    N1 6493   4.550   1.890  15.484  0.2727 -0.7112  0.5253
  435MPD2    H7 6494   4.544   1.896  15.585 -0.1055  2.9000  0.2933
  436TMC3    C1 6495   4.242   2.019  15.688  0.3138  0.2249  0.2584
  436TMC3    C2 6496   4.334   1.945  15.617 -0.5810 -0.5785  0.0791
  436TMC3    C3 6497   4.337   1.968  15.482  0.5473  0.4244 -0.2575
  436TMC3    C4 6498   4.164   2.113  15.640 -0.6545 -0.1776 -0.7643
  436TMC3    C5 6499   4.165   2.128  15.503  0.1083  0.4302 -0.4220
  436TMC3    C6 6500   4.254   2.057  15.421 -0.5811  0.6667  0.7510
  436TMC3     C 6501   4.249   2.008  15.832 -0.2041 -0.8962 -0.1550
  436TMC3     O 6502   4.194   2.099  15.897  0.8801  0.0632  0.4423
  436TMC3     H 6503   4.393   1.868  15.666  1.9397  0.8079 -0.7644
  436TMC3    H1 6504   4.085   2.154  15.701  1.8724  1.3738  1.4534
  436TMC3    H2 6505   4.248   2.063  15.313  4.2986  0.6123  0.5156
  436TMC3    C7 6506   4.047   2.180  15.436  0.1455 -0.2093  0.0201
  436TMC3    C8 6507   4.446   1.921  15.407  0.1545  0.5205 -0.7297
  436TMC3    O1 6508   4.024   2.135  15.323 -0.3463  0.1639 -0.1226
  436TMC3    O2 6509   4.439   1.913  15.286 -0.4764 -0.1061  0.0296
  437TMC3    C1 6510   3.377   4.060  12.691 -0.5150 -0.1166  0.1261
  437TMC3    C2 6511   3.248   4.099  12.679  0.1467  0.2884  0.2503
  437TMC3    C3 6512   3.206   4.176  12.575  0.2124 -0.5924 -0.7156
  437TMC3    C4 6513   3.469   4.108  12.603 -0.8151 -0.8184  0.3140
  437TMC3    C5 6514   3.422   4.185  12.504  0.3498 -0.1105 -0.2423
  437TMC3    C6 6515   3.294   4.227  12.484  0.1054 -0.2986 -0.1970
  437TMC3     C 6516   3.412   3.970  12.792 -0.4643  0.2034  0.5242
  437TMC3     O 6517   3.333   3.958  12.888  0.0053 -0.5866 -0.2959
  437TMC3     H 6518   3.178   4.064  12.754 -1.8889  1.9140 -0.9008
  437TMC3    H1 6519   3.571   4.073  12.598 -0.5499  0.2332 -1.5044
  437TMC3    H2 6520   3.259   4.295  12.407  0.1353  0.0275  0.0816
  437TMC3    C7 6521   3.514   4.242  12.412  0.4371  0.4332 -0.2710
  437TMC3    C8 6522   3.073   4.232  12.596  0.1827  0.9023 -0.3592
  437TMC3    O1 6523   3.464   4.305  12.317 -0.8677  0.4027 -0.7629
  437TMC3    O2 6524   3.032   4.234  12.713  0.2594  0.5154  0.2047
  438MPD2     C 6525   1.649   4.276  15.896 -0.5872  0.1676  0.9056
  438MPD2    C1 6526   1.670   4.265  16.029 -0.3101  0.0069 -0.5590
  438MPD2    C2 6527   1.594   4.342  16.115 -0.1665 -0.3243 -0.8513
  438MPD2    C3 6528   1.503   4.435  16.067 -0.2825 -0.3316 -0.2641
  438MPD2    C4 6529   1.481   4.439  15.932 -1.4011  0.2872  0.2166
  438MPD2    C5 6530   1.556   4.365  15.844  0.0907  0.5299 -0.6963
  438MPD2     H 6531   1.600   4.336  16.223 -1.7938  0.3212 -0.7216
  438MPD2    H1 6532   1.408   4.506  15.889 -2.1682 -0.7859 -0.1721
  438MPD2    H2 6533   1.694   4.214  15.819  0.5646  1.5258  0.4993
  438MPD2    H3 6534   1.530   4.356  15.738  1.7312 -1.5423 -0.9205
  438MPD2     N 6535   1.416   4.512  16.142  0.1729 -0.5217  0.1533
  438MPD2    H5 6536   1.355   4.579  16.095  1.3697  1.8078  1.9741
  438MPD2    N1 6537   1.770   4.186  16.081 -0.2373 -0.0187  0.2369
  438MPD2    H7 6538   1.788   4.194  16.180 -2.0770 -0.7554  0.6150
  439TMC3    C1 6539   1.958   4.033  16.082 -0.4745  0.0899 -0.4944
  439TMC3    C2 6540   1.950   3.900  16.066 -0.4973  0.5821  0.1814
  439TMC3    C3 6541   1.992   3.817  16.169 -0.0763 -0.9049 -0.6720
  439TMC3    C4 6542   2.002   4.087  16.200 -0.3494  0.3248  1.0262
  439TMC3    C5 6543   2.039   4.000  16.301 -0.4250  0.2690  0.4196
  439TMC3    C6 6544   2.038   3.866  16.286  0.0017 -0.5497 -0.0428
  439TMC3     C 6545   1.855   4.099  16.008 -0.1377 -0.3262 -1.0159
  439TMC3     O 6546   1.850   4.070  15.889 -0.4277  0.0366 -0.2734
  439TMC3     H 6547   1.924   3.856  15.971  0.3281  0.5263 -0.0171
  439TMC3    H1 6548   2.011   4.193  16.218  1.9874 -0.1149  2.4386
  439TMC3    H2 6549   2.054   3.805  16.375 -2.6039 -1.5347 -0.2355
  439TMC3    C7 6550   2.148   4.035  16.391 -0.2352 -0.3783  0.5735
  439TMC3    C8 6551   2.002   3.676  16.152 -0.8780  0.0690 -0.6174
  439TMC3    O1 6552   2.156   3.974  16.498  0.0627 -0.4323 -0.4030
  439TMC3    O2 6553   2.083   3.619  16.228  0.8580  0.3395 -0.2022
  440MPD2     C 6554   0.241   0.244  14.841  0.3376 -0.1120  0.8793
  440MPD2    C1 6555   0.315   0.297  14.939  0.4543 -0.4722 -0.7245
  440MPD2    C2 6556   0.447   0.314  14.925 -0.3799  0.7747  0.6268
  440MPD2    C3 6557   0.510   0.291  14.810 -0.6887 -0.0045 -0.2010
  440MPD2    C4 6558   0.441   0.235  14.709 -0.1528 -0.1564  0.6246
  440MPD2    C5 6559   0.306   0.211  14.723  0.1949 -0.3533  0.6643
  440MPD2     H 6560   0.499   0.352  15.011  2.3478  0.5525 -0.9343
  440MPD2    H1 6561   0.479   0.208  14.611 -1.2285 -0.3263  0.2542
  440MPD2    H2 6562   0.138   0.213  14.831  0.0791  1.0918 -0.1554
  440MPD2    H3 6563   0.252   0.165  14.641 -1.4338 -0.2220  1.6609
  440MPD2     N 6564   0.649   0.308  14.793 -0.6209 -0.9870 -0.3913
  440MPD2    H5 6565   0.695   0.273  14.709  1.6006 -0.3522  0.5653
  440MPD2    N1 6566   0.256   0.316  15.063 -0.0358  0.3669  0.6938
  440MPD2    H7 6567   0.324   0.347  15.133 -2.7306  1.2907  2.9265
  441TMC3    C1 6568   0.863   0.417  14.816  0.3894 -0.3024  0.0637
  441TMC3    C2 6569   0.902   0.536  14.866  0.3269  0.1974  0.3423
  441TMC3    C3 6570   1.017   0.545  14.947 -0.0698 -0.0514  0.3281
  441TMC3    C4 6571   0.935   0.304  14.850  0.0481 -0.2616 -0.2274
  441TMC3    C5 6572   1.057   0.313  14.907 -0.5456  0.3124 -0.1457
  441TMC3    C6 6573   1.100   0.433  14.955 -0.2396 -0.1471 -0.3048
  441TMC3     C 6574   0.728   0.397  14.864  0.0919 -0.0450  0.2402
  441TMC3     O 6575   0.695   0.469  14.959  0.0553  0.1912  0.4828
  441TMC3     H 6576   0.862   0.627  14.822  0.7536 -0.0811 -0.6199
  441TMC3    H1 6577   0.893   0.206  14.833  0.7727 -0.8148  1.2179
  441TMC3    H2 6578   1.199   0.446  14.998  0.6617 -0.6135 -2.2519
  441TMC3    C7 6579   1.082   0.210  15.005  0.2042 -0.3505  0.5455
  441TMC3    C8 6580   1.007   0.627  15.059  0.0206 -1.0786 -0.2370
  441TMC3    O1 6581   1.192   0.176  15.048 -0.3685 -0.7729 -0.0175
  441TMC3    O2 6582   1.113   0.652  15.116 -0.4815  1.0692 -0.5953
  442MPD2     C 6583   3.540   0.778  16.933  0.5560  0.3325 -1.0896
  442MPD2    C1 6584   3.406   0.776  16.887  0.2044 -0.1946 -0.4932
  442MPD2    C2 6585   3.365   0.700  16.774  0.2602 -1.0450 -0.5157
  442MPD2    C3 6586   3.460   0.627  16.704 -0.4006 -0.1678 -0.1621
  442MPD2    C4 6587   3.593   0.632  16.749  0.2534  0.3106  0.3540
  442MPD2    C5 6588   3.630   0.712  16.854  0.1114 -0.0633 -0.7610
  442MPD2     H 6589   3.263   0.703  16.738  0.3323 -0.2754 -0.6500
  442MPD2    H1 6590   3.668   0.578  16.692  0.4442 -0.1530  1.0468
  442MPD2    H2 6591   3.576   0.837  17.016  0.3382  0.9274 -1.4118
  442MPD2    H3 6592   3.733   0.690  16.880  0.3782  1.9202 -0.1534
  442MPD2     N 6593   3.431   0.535  16.595 -0.1255  0.2789  0.3346
  442MPD2    H5 6594   3.512   0.484  16.562 -1.2284 -0.4501 -1.2274
  442MPD2    N1 6595   3.299   0.853  16.954  0.0890  0.8609  0.1936
  442MPD2    H7 6596   3.204   0.852  16.918 -0.0171  1.4742  0.4591
  443TMC3    C1 6597   3.218   1.016  17.073  0.6941 -0.1231  0.2931
  443TMC3    C2 6598   3.145   1.050  16.954 -0.8181 -0.6042  0.4154
  443TMC3    C3 6599   3.008   1.059  16.957  0.3374 -0.0883  1.0472
  443TMC3    C4 6600   3.152   0.996  17.196  0.6630 -0.1768  0.2662
  443TMC3    C5 6601   3.014   0.996  17.182  0.2561  0.0698  0.0165
  443TMC3    C6 6602   2.940   1.041  17.072 -0.3845  0.4673 -0.4411
  443TMC3     C 6603   3.328   0.931  17.060 -0.4994 -0.2575  0.5689
  443TMC3     O 6604   3.407   0.913  17.150  0.4581  0.0067  0.0615
  443TMC3     H 6605   3.203   1.050  16.862  0.5052  3.0191  1.2236
  443TMC3    H1 6606   3.212   0.961  17.279 -1.1476  0.8423  2.0033
  443TMC3    H2 6607   2.834   1.025  17.058 -0.5336 -0.1619  1.4894
  443TMC3    C7 6608   2.962   0.875  17.238 -0.5863 -0.3691  0.3405
  443TMC3    C8 6609   2.948   1.020  16.830  0.7045  0.6082  0.0448
  443TMC3    O1 6610   3.036   0.795  17.286 -0.4824 -0.3118 -0.4488
  443TMC3    O2 6611   3.011   0.937  16.763 -0.2384 -0.7004 -0.4477
  444MPD2     C 6612   3.536   0.183  17.251  0.2719 -0.6420  0.7823
  444MPD2    C1 6613   3.426   0.139  17.193  0.5011 -0.0376 -0.1811
  444MPD2    C2 6614   3.426   0.058  17.083  0.4763  0.3862  0.6756
  444MPD2    C3 6615   3.545   0.011  17.038 -0.1958 -0.0556 -0.5172
  444MPD2    C4 6616   3.653   0.046  17.109 -0.5038 -0.2000 -0.5521
  444MPD2    C5 6617   3.652   0.135  17.212 -0.5366 -0.0322 -0.7260
  444MPD2     H 6618   3.334   0.024  17.036 -0.1631  0.7748  1.6380
  444MPD2    H1 6619   3.745   4.710  17.094 -1.3707 -2.1817  1.6839
  444MPD2    H2 6620   3.540   0.243  17.341 -2.7727  0.9923 -0.1643
  444MPD2    H3 6621   3.742   0.161  17.267 -1.6142  0.8396  0.6231
  444MPD2     N 6622   3.547   4.637  16.938 -0.1961  0.5684  0.0126
  444MPD2    H5 6623   3.460   4.622  16.887  0.2766 -0.2671 -0.5569
  444MPD2    N1 6624   3.301   0.184  17.239  0.4035  0.3069  0.0233
  444MPD2    H7 6625   3.222   0.127  17.212 -1.1474  2.2701  0.4334
  445TMC3    C1 6626   3.640   4.460  16.794 -0.6866 -0.5678 -0.1734
  445TMC3    C2 6627   3.520   4.401  16.768 -0.4981 -0.1526 -0.2934
  445TMC3    C3 6628   3.515   4.303  16.670 -0.0871 -0.1598  0.4036
  445TMC3    C4 6629   3.761   4.416  16.742 -0.5287 -0.0251  0.0068
  445TMC3    C5 6630   3.751   4.310  16.652 -0.6006 -0.0984  0.2746
  445TMC3    C6 6631   3.632   4.253  16.616  0.6143  0.3744  0.8408
  445TMC3     C 6632   3.654   4.557  16.906 -0.1747 -0.3576 -0.0324
  445TMC3     O 6633   3.768   4.549  16.950  0.2545 -0.0819  0.7487
  445TMC3     H 6634   3.432   4.409  16.830 -0.8207  0.1272 -0.7875
  445TMC3    H1 6635   3.851   4.476  16.752  0.1982 -1.2106  0.5097
  445TMC3    H2 6636   3.624   4.181  16.535 -0.0728 -0.1401  1.3547
  445TMC3    C7 6637   3.864   4.272  16.568  0.2211  0.2433  0.5664
  445TMC3    C8 6638   3.387   4.231  16.650 -1.3210 -0.9111 -1.2172
  445TMC3    O1 6639   3.851   4.209  16.467  0.1541  0.0983 -0.6306
  445TMC3    O2 6640   3.310   4.221  16.742  0.2849  0.7439  0.3763
  446MPD2     C 6641   2.872   0.931  11.027 -0.7368  0.1650  0.6411
  446MPD2    C1 6642   2.794   1.022  10.953 -0.0952 -0.1939  0.3726
  446MPD2    C2 6643   2.847   1.145  10.924  0.2817  0.8066 -0.5409
  446MPD2    C3 6644   2.973   1.185  10.973 -0.1345  0.4702  0.0263
  446MPD2    C4 6645   3.047   1.096  11.052  0.0784  0.5206 -0.4006
  446MPD2    C5 6646   2.990   0.971  11.085  0.4323  0.9011 -0.0350
  446MPD2     H 6647   2.793   1.214  10.861 -0.4742  1.6011  0.9679
  446MPD2    H1 6648   3.128   1.130  11.117  0.7140 -1.3256 -0.2126
  446MPD2    H2 6649   2.843   0.831  11.058  1.8461 -0.8890 -0.2904
  446MPD2    H3 6650   3.035   0.907  11.161 -0.6369 -0.3590 -0.4595
  446MPD2     N 6651   3.031   1.311  10.940  0.2797  0.1932  0.2950
  446MPD2    H5 6652   2.975   1.370  10.878 -0.7260 -0.3601  0.6684
  446MPD2    N1 6653   2.666   0.995  10.912 -0.3984 -0.2209 -0.6832
  446MPD2    H7 6654   2.626   1.059  10.844 -0.1464 -0.2874 -0.8917
  447TMC3    C1 6655   3.190   1.474  10.881 -0.3473  0.2732 -0.6274
  447TMC3    C2 6656   3.202   1.465  10.748  0.0632 -0.5022 -0.2273
  447TMC3    C3 6657   3.313   1.527  10.691  0.0375 -0.5666 -0.2826
  447TMC3    C4 6658   3.286   1.535  10.962 -0.2376 -0.2314  0.0515
  447TMC3    C5 6659   3.400   1.585  10.902  0.1266  0.2613  0.1652
  447TMC3    C6 6660   3.413   1.580  10.768  0.4875  0.0670  0.2571
  447TMC3     C 6661   3.161   1.356  10.952  0.1899 -0.1225  0.0334
  447TMC3     O 6662   3.248   1.308  11.023 -0.3151 -0.0195  0.7588
  447TMC3     H 6663   3.130   1.419  10.681 -0.0122  2.1026 -1.9432
  447TMC3    H1 6664   3.271   1.521  11.068 -2.0073 -1.1103 -0.3104
  447TMC3    H2 6665   3.494   1.630  10.715 -0.7072  2.8124  1.0100
  447TMC3    C7 6666   3.521   1.594  10.986  0.0909  0.5575  0.1725
  447TMC3    C8 6667   3.339   1.501  10.551  0.1256  0.1510  1.0211
  447TMC3    O1 6668   3.628   1.624  10.930  0.1837 -0.4424 -0.8556
  447TMC3    O2 6669   3.248   1.514  10.468 -0.8032  0.0173  0.2640
  448TMC3    C1 6670   1.967   1.311  16.294 -0.6798 -1.0840 -0.5244
  448TMC3    C2 6671   1.894   1.201  16.259 -0.0597 -0.2402  0.0108
  448TMC3    C3 6672   1.890   1.104  16.367 -0.0747 -0.0813 -0.1522
  448TMC3    C4 6673   2.024   1.339  16.414  1.1623  0.2868 -0.0235
  448TMC3    C5 6674   2.010   1.245  16.516  0.3795  0.3701  0.0159
  448TMC3    C6 6675   1.946   1.123  16.491 -0.0479 -0.2389 -0.0414
  448TMC3     C 6676   1.948   1.421  16.200  0.6930 -0.5948  0.7893
  448TMC3     O 6677   1.850   1.419  16.126 -0.3213 -0.2106  0.4599
  448TMC3     H 6678   1.858   1.186  16.158  0.0200  1.6545 -0.2946
  448TMC3    H1 6679   2.070   1.436  16.429  0.6674  0.4211  0.6338
  448TMC3    H2 6680   1.931   1.047  16.567  0.5564  0.3370  0.6534
  448TMC3    C7 6681   2.109   1.260  16.620 -0.0855  0.4389  0.6836
  448TMC3    C8 6682   1.848   0.968  16.339  0.2809 -0.8248 -0.1939
  448TMC3    O1 6683   2.181   1.355  16.602 -0.3769 -0.7392 -0.1610
  448TMC3    O2 6684   1.871   0.885  16.424 -0.2312  0.4182  0.4528
  449MPD2     C 6685   1.576   4.130  13.541 -0.3793 -0.0134 -0.2968
  449MPD2    C1 6686   1.670   4.235  13.574 -0.2483 -0.4606  0.0619
  449MPD2    C2 6687   1.737   4.212  13.693  0.0194  0.1248  0.8563
  449MPD2    C3 6688   1.721   4.100  13.773  0.4385 -0.6476  0.1792
  449MPD2    C4 6689   1.637   3.999  13.739  0.0649 -0.3828  0.1634
  449MPD2    C5 6690   1.571   4.025  13.623 -0.1007  0.6666 -0.0510
  449MPD2     H 6691   1.810   4.287  13.724  0.0133  0.2792  0.4994
  449MPD2    H1 6692   1.605   3.914  13.799 -0.6445  1.4370  2.3470
  449MPD2    H2 6693   1.513   4.126  13.453 -2.5617  0.9301  1.2404
  449MPD2    H3 6694   1.510   3.952  13.571  0.9333 -0.5677  0.4501
  449MPD2     N 6695   1.797   4.092  13.888 -0.4204  0.4832  0.1601
  449MPD2    H5 6696   1.884   4.144  13.891  1.0876 -2.1011  1.3299
  449MPD2    N1 6697   1.691   4.352  13.499 -0.5506  0.2824 -0.0350
  449MPD2    H7 6698   1.748   4.420  13.548  0.6126 -1.1738  0.6162
  450TMC3    C1 6699   1.726   4.484  13.320  0.2340 -0.4958  0.1796
  450TMC3    C2 6700   1.819   4.449  13.223 -0.5827  1.0105  0.3564
  450TMC3    C3 6701   1.945   4.488  13.239 -0.6717 -0.4263 -0.2300
  450TMC3    C4 6702   1.756   4.576  13.412 -0.0694  0.1557 -0.2171
  450TMC3    C5 6703   1.890   4.613  13.430  0.2743 -0.2337  0.4338
  450TMC3    C6 6704   1.986   4.574  13.341  1.0487  0.4802  0.8284
  450TMC3     C 6705   1.660   4.370  13.367  0.4156 -0.0980 -0.0299
  450TMC3     O 6706   1.624   4.278  13.294  0.1007 -0.0233 -0.0771
  450TMC3     H 6707   1.797   4.391  13.135  2.3966  1.9810 -1.0124
  450TMC3    H1 6708   1.682   4.609  13.485 -1.2026 -2.1471 -0.3292
  450TMC3    H2 6709   2.087   4.611  13.348  1.3995 -0.6895  1.9267
  450TMC3    C7 6710   1.937   4.604  13.572 -0.3590 -0.8224  0.2130
  450TMC3    C8 6711   2.020   4.501  13.121 -0.2486 -0.6131  0.3158
  450TMC3    O1 6712   1.846   4.566  13.644  0.1133  0.0021  0.3594
  450TMC3    O2 6713   1.968   4.467  13.017 -0.6052  0.1142  0.5474
  451MPD2     C 6714   4.509   3.579   1.419 -0.4212 -0.4526 -0.3909
  451MPD2    C1 6715   4.427   3.507   1.334 -0.0152  0.3280 -0.0085
  451MPD2    C2 6716   4.459   3.373   1.305 -0.1706 -0.3714  0.0595
  451MPD2    C3 6717   4.576   3.319   1.356 -0.3507 -0.0550  0.3136
  451MPD2    C4 6718   4.651   3.392   1.446  0.0828  0.0020 -0.2582
  451MPD2    C5 6719   4.617   3.524   1.476  0.1230  0.4526 -0.4672
  451MPD2     H 6720   4.408   3.319   1.227 -0.8270  0.5911 -0.1696
  451MPD2    H1 6721   0.014   3.353   1.503  0.5723  1.4680  0.0442
  451MPD2    H2 6722   4.483   3.680   1.450 -2.7709 -1.5130  1.0931
  451MPD2    H3 6723   4.674   3.588   1.542  1.3432 -0.0655 -1.0131
  451MPD2     N 6724   4.624   3.189   1.326 -0.4249 -0.0286  0.5402
  451MPD2    H5 6725   4.712   3.162   1.368  0.2790  1.5405  0.0392
  451MPD2    N1 6726   4.312   3.573   1.290  0.1396 -0.2969 -0.0108
  451MPD2    H7 6727   4.295   3.666   1.327  0.9359 -0.7695  1.5165
  452TMC3    C1 6728   4.605   2.967   1.256  0.3223 -0.5115 -0.0254
  452TMC3    C2 6729   4.577   2.904   1.374 -0.1052 -0.3663  0.0887
  452TMC3    C3 6730   4.534   2.773   1.372  0.4455  0.2355  0.0815
  452TMC3    C4 6731   4.601   2.903   1.132 -0.9013  0.7707  0.1271
  452TMC3    C5 6732   4.557   2.771   1.133 -0.4333 -0.2783  0.3701
  452TMC3    C6 6733   4.522   2.709   1.246 -1.0715  0.9080  0.1234
  452TMC3     C 6734   4.555   3.099   1.244 -0.4652  0.3197  0.6530
  452TMC3     O 6735   4.452   3.110   1.177  0.2415 -0.6382  0.2825
  452TMC3     H 6736   4.577   2.966   1.463 -1.3020 -0.8745  0.4411
  452TMC3    H1 6737   4.611   2.956   1.037 -1.5891  0.1514 -0.2879
  452TMC3    H2 6738   4.480   2.609   1.245 -0.1318  0.5197 -0.4808
  452TMC3    C7 6739   4.560   2.705   1.002 -0.2290  0.1320 -0.6125
  452TMC3    C8 6740   4.434   2.748   1.467  0.4709 -0.6996 -0.2122
  452TMC3    O1 6741   4.609   2.766   0.908 -0.2771 -0.2619  0.0653
  452TMC3    O2 6742   4.387   2.844   1.525  0.2501 -0.3663  0.4991
  453TMC3    C1 6743   0.516   0.639  11.856  0.9355 -0.7893  0.0214
  453TMC3    C2 6744   0.445   0.545  11.921  0.1707 -0.0009  0.5114
  453TMC3    C3 6745   0.437   0.419  11.867  0.0280  0.5585 -0.3160
  453TMC3    C4 6746   0.567   0.610  11.725 -0.2320 -0.3220 -0.4434
  453TMC3    C5 6747   0.555   0.480  11.672 -0.0815  0.2812 -0.0244
  453TMC3    C6 6748   0.497   0.383  11.751  0.0840 -0.3369 -0.0206
  453TMC3     C 6749   0.573   0.764  11.913 -0.8395 -0.4673 -0.3305
  453TMC3     O 6750   0.609   0.853  11.838  0.2166 -0.8133 -0.0887
  453TMC3     H 6751   0.393   0.568  12.014  0.7614  0.5257  0.7091
  453TMC3    H1 6752   0.626   0.688  11.677 -1.7274  1.1220  0.1005
  453TMC3    H2 6753   0.494   0.284  11.707  1.9195 -0.3824 -0.0730
  453TMC3    C7 6754   0.615   0.444  11.549  0.7250 -0.1601 -0.0944
  453TMC3    C8 6755   0.358   0.318  11.933  0.3588 -0.1148  0.4112
  453TMC3    O1 6756   0.602   0.330  11.514 -0.0249 -0.5283  0.2658
  453TMC3    O2 6757   0.288   0.351  12.027  0.0540  0.3294 -0.3478
  454MPD2     C 6758   4.375   0.048  16.248 -0.1445  0.2113  0.2591
  454MPD2    C1 6759   4.287   4.701  16.163 -0.0625 -0.0281  0.0060
  454MPD2    C2 6760   4.174   4.632  16.216  0.7788  0.2294  0.3186
  454MPD2    C3 6761   4.153   4.631  16.360 -0.5748  0.2792 -0.3349
  454MPD2    C4 6762   4.251   4.684  16.443 -0.2832  0.2331 -0.2244
  454MPD2    C5 6763   4.354   0.032  16.381  0.0070 -0.3521 -0.4007
  454MPD2     H 6764   4.099   4.592  16.148 -0.6575  1.3547  1.2363
  454MPD2    H1 6765   4.239   4.685  16.551 -2.5164  3.7630 -0.4999
  454MPD2    H2 6766   4.465   0.091  16.207  0.6672 -2.1190 -0.3775
  454MPD2    H3 6767   4.416   0.098  16.440 -1.0761 -1.0253  1.4814
  454MPD2     N 6768   4.026   4.588  16.414 -0.4603 -0.0312  0.0281
  454MPD2    H5 6769   4.005   4.611  16.510  0.9043 -1.5930  0.6963
  454MPD2    N1 6770   4.293   0.005  16.018  0.7340 -1.0965 -0.1979
  454MPD2    H7 6771   4.321   0.095  15.980  2.8272 -1.4487  0.5133
  455TMC3    C1 6772   3.787   4.582  16.416  0.3085 -0.8378  0.3044
  455TMC3    C2 6773   3.784   4.681  16.514  0.4618 -0.2746 -0.2200
  455TMC3    C3 6774   3.664   0.012  16.541  0.4800 -0.1347 -0.1075
  455TMC3    C4 6775   3.683   4.567  16.333  0.4643 -0.5078 -0.1138
  455TMC3    C5 6776   3.561   4.619  16.369 -0.4989 -0.0080  0.1302
  455TMC3    C6 6777   3.548   4.695  16.476 -0.5570 -0.9551 -0.1082
  455TMC3     C 6778   3.914   4.549  16.346  0.5458 -0.2582 -0.4411
  455TMC3     O 6779   3.909   4.511  16.228  0.1540 -0.1784  0.3692
  455TMC3     H 6780   3.866   4.698  16.583  1.6356 -2.1252 -1.1356
  455TMC3    H1 6781   3.690   4.492  16.254  2.5505  2.3157 -2.6007
  455TMC3    H2 6782   3.453   0.014  16.507 -0.8110 -0.0767 -2.0416
  455TMC3    C7 6783   3.444   4.547  16.339 -0.5239 -0.6188  0.1556
  455TMC3    C8 6784   3.649   0.103  16.656  0.2575  0.1982 -0.1031
  455TMC3    O1 6785   3.366   4.521  16.430  0.1781 -1.0620 -0.2023
  455TMC3    O2 6786   3.751   0.126  16.715 -0.4538  0.1743 -0.1773
  456MPD2     C 6787   1.991   4.388  15.825  0.0780  0.4667  0.4230
  456MPD2    C1 6788   2.074   4.369  15.935  0.2867 -0.4748  0.2822
  456MPD2    C2 6789   2.042   4.431  16.054  0.6077 -0.0524 -0.1462
  456MPD2    C3 6790   1.936   4.517  16.071  0.1471 -0.4255 -0.3103
  456MPD2    C4 6791   1.851   4.529  15.960  0.0842  0.0836  0.5029
  456MPD2    C5 6792   1.882   4.469  15.844 -0.1679 -0.2742 -0.2122
  456MPD2     H 6793   2.127   4.461  16.115 -0.1974  0.9063  0.4942
  456MPD2    H1 6794   1.762   4.590  15.955 -0.7318 -1.0366  1.1894
  456MPD2    H2 6795   2.017   4.349  15.727  2.5043  0.8939  0.8981
  456MPD2    H3 6796   1.811   4.484  15.763  1.3033  1.6836 -1.1592
  456MPD2     N 6797   1.939   4.602  16.178 -0.6092 -0.2666  0.1743
  456MPD2    H5 6798   2.020   4.601  16.240 -2.8764  1.6173  3.1606
  456MPD2    N1 6799   2.186   4.285  15.915  0.4395 -0.1887  0.4560
  456MPD2    H7 6800   2.215   4.267  15.819 -0.8279 -1.6106  0.3423
  457TMC3    C1 6801   1.932   0.102  16.261 -0.6580  1.0276  0.2459
  457TMC3    C2 6802   1.906   0.236  16.232  0.5912 -0.0191 -0.5030
  457TMC3    C3 6803   1.986   0.324  16.291  0.4266 -0.2845 -0.1131
  457TMC3    C4 6804   2.030   0.066  16.352  0.7353  0.9415  0.1122
  457TMC3    C5 6805   2.104   0.164  16.408  0.5175  0.1757 -0.3783
  457TMC3    C6 6806   2.092   0.297  16.373 -0.0229 -0.3646  0.0655
  457TMC3     C 6807   1.873   0.000  16.180  0.0590  0.1964  0.2141
  457TMC3     O 6808   1.786   0.036  16.106  0.0056  0.2680  0.1138
  457TMC3     H 6809   1.816   0.248  16.172  1.7937  0.1839 -2.2776
  457TMC3    H1 6810   2.035   4.688  16.396  0.1233  1.1774  0.7182
  457TMC3    H2 6811   2.163   0.373  16.403  0.5424 -0.0968 -1.9456
  457TMC3    C7 6812   2.168   0.140  16.536  0.3905  0.2388  0.1349
  457TMC3    C8 6813   1.953   0.459  16.260  0.5096 -0.0065 -0.6295
  457TMC3    O1 6814   2.139   0.041  16.604 -1.0056  0.3044  0.1768
  457TMC3    O2 6815   2.026   0.548  16.307 -0.4260 -0.9567 -0.4130
  458MPD2     C 6816   3.947   4.454  12.254  0.0877 -0.1206 -0.1708
  458MPD2    C1 6817   3.958   4.430  12.389 -0.0605  0.2815  0.4059
  458MPD2    C2 6818   3.854   4.369  12.453  0.0910 -0.3543  0.6524
  458MPD2    C3 6819   3.740   4.325  12.387 -0.3755 -0.2970  0.2797
  458MPD2    C4 6820   3.741   4.329  12.247  0.4614  1.0937 -0.2458
  458MPD2    C5 6821   3.842   4.399  12.188 -0.7989 -0.1601 -0.1741
  458MPD2     H 6822   3.850   4.358  12.561  0.8338  0.4578  0.7658
  458MPD2    H1 6823   3.665   4.276  12.191  1.0565  0.3249 -0.3260
  458MPD2    H2 6824   4.026   4.504  12.199  0.2553 -0.2842 -0.0810
  458MPD2    H3 6825   3.851   4.404  12.080 -0.5487  0.7922 -0.1073
  458MPD2     N 6826   3.639   4.257  12.460  0.0620  0.2531  0.0130
  458MPD2    H5 6827   3.656   4.237  12.558  0.4286 -1.0358 -0.3114
  458MPD2    N1 6828   4.067   4.482  12.462  0.1167 -0.5575 -1.0253
  458MPD2    H7 6829   4.142   4.523  12.407  0.2509  0.8649  0.2403
  459TMC3    C1 6830   4.227   4.510  12.636  0.3946  0.0298  0.2962
  459TMC3    C2 6831   4.319   4.567  12.553  0.2977 -0.3119  0.4468
  459TMC3    C3 6832   4.436   4.586  12.610 -0.4064  1.1497 -0.3230
  459TMC3    C4 6833   4.248   4.477  12.763  0.4907 -0.0663 -0.3529
  459TMC3    C5 6834   4.366   4.509  12.822  0.1076  0.5908 -0.0026
  459TMC3    C6 6835   4.456   4.569  12.742 -0.3684 -0.0854 -0.0029
  459TMC3     C 6836   4.095   4.452  12.590 -0.0737 -0.7878  0.1323
  459TMC3     O 6837   4.048   4.365  12.666  0.5754 -0.3195 -0.1010
  459TMC3     H 6838   4.316   4.588  12.446  3.8657  1.9565  0.7746
  459TMC3    H1 6839   4.173   4.431  12.827 -0.2677  0.5714 -0.7795
  459TMC3    H2 6840   4.563   4.573  12.764  0.0156  1.5713 -2.2412
  459TMC3    C7 6841   4.399   4.415  12.923  0.1323  0.0417  0.0241
  459TMC3    C8 6842   4.539   4.668  12.544  0.0938  0.3155 -0.3612
  459TMC3    O1 6843   4.360   4.301  12.901  0.4660 -0.5784 -0.2980
  459TMC3    O2 6844   4.651   4.615  12.554 -0.5270  0.5317  0.2648
  460MPD2     C 6845   3.579   1.253  10.414 -0.4853  0.1414 -0.1561
  460MPD2    C1 6846   3.476   1.351  10.417 -0.0114 -0.1929  0.7027
  460MPD2    C2 6847   3.423   1.373  10.294  0.0817  0.8303  0.2241
  460MPD2    C3 6848   3.449   1.295  10.183 -0.2495  0.1952  0.2176
  460MPD2    C4 6849   3.553   1.210  10.184  0.0259 -0.2902  0.0376
  460MPD2    C5 6850   3.614   1.188  10.299  0.1611  0.1496  0.4683
  460MPD2     H 6851   3.348   1.449  10.277 -1.0576 -0.4731 -0.5137
  460MPD2    H1 6852   3.571   1.142  10.101  0.8965  1.2059 -0.9943
  460MPD2    H2 6853   3.630   1.217  10.503  0.3949 -0.6650 -0.9846
  460MPD2    H3 6854   3.704   1.129  10.292  0.0978 -0.2276  2.8998
  460MPD2     N 6855   3.380   1.327  10.072  0.3348  0.3250  0.1916
  460MPD2    H5 6856   3.316   1.406  10.077  1.7696  1.3717  1.9283
  460MPD2    N1 6857   3.447   1.424  10.539 -0.8345 -0.3980 -0.4875
  460MPD2    H7 6858   3.495   1.393  10.623 -1.4549 -1.0998 -0.3926
  461TMC3    C1 6859   3.275   1.306   9.854 -0.4216  0.3193 -0.0397
  461TMC3    C2 6860   3.282   1.224   9.744 -0.3370 -0.2953 -0.6735
  461TMC3    C3 6861   3.238   1.286   9.627  0.1137  0.5930 -1.0175
  461TMC3    C4 6862   3.228   1.436   9.854  0.5897  0.2085 -0.1660
  461TMC3    C5 6863   3.196   1.487   9.731 -0.3105  0.8795 -0.1784
  461TMC3    C6 6864   3.202   1.419   9.614 -0.5571  0.0966 -0.4386
  461TMC3     C 6865   3.348   1.246   9.964  0.5338 -0.0823 -0.5170
  461TMC3     O 6866   3.360   1.123   9.967 -0.2833 -0.0419  0.2368
  461TMC3     H 6867   3.294   1.116   9.749  2.7440  0.1407  1.6424
  461TMC3    H1 6868   3.200   1.483   9.948 -1.1003  0.4233 -0.7701
  461TMC3    H2 6869   3.178   1.473   9.523  1.1954  1.3905 -0.1356
  461TMC3    C7 6870   3.145   1.621   9.721 -0.2038  0.4274 -0.8467
  461TMC3    C8 6871   3.275   1.220   9.509  0.2886 -0.0794  0.4300
  461TMC3    O1 6872   3.081   1.648   9.620  0.0280 -0.4242  0.2078
  461TMC3    O2 6873   3.345   1.123   9.522  0.1843 -0.3172  0.6144
  462TMC3    C1 6874   4.059   3.181   0.140  0.3824  0.8202  0.6900
  462TMC3    C2 6875   4.075   3.142   0.009 -0.5241  0.1100  0.6760
  462TMC3    C3 6876   4.102   3.006  17.675  0.4572 -0.3145  0.1484
  462TMC3    C4 6877   4.074   3.100   0.248  0.7202  0.6150  0.1084
  462TMC3    C5 6878   4.115   2.972   0.222  0.2495 -0.0040 -0.0115
  462TMC3    C6 6879   4.129   2.927   0.096  0.2021 -0.4909  0.6384
  462TMC3     C 6880   3.996   3.309   0.159  0.0665  0.2021  0.1959
  462TMC3     O 6881   3.937   3.322   0.265 -0.0183 -0.2391 -0.4508
  462TMC3     H 6882   4.060   3.207  17.609 -0.0647 -2.0475 -1.0329
  462TMC3    H1 6883   4.046   3.129   0.348 -0.3583  0.3321 -0.1178
  462TMC3    H2 6884   4.127   2.819   0.090  1.6007 -0.5878  1.9277
  462TMC3    C7 6885   4.045   2.869   0.293 -0.6212 -0.3786  0.3632
  462TMC3    C8 6886   4.022   2.944  17.574 -0.7864 -0.4877 -0.3152
  462TMC3    O1 6887   3.947   2.821   0.238 -0.2341 -0.1276 -0.3516
  462TMC3    O2 6888   3.941   3.022  17.521 -0.3393 -0.6706  0.3131
  463MPD2     C 6889   0.564   0.964   1.683 -0.2088 -0.0108 -0.3178
  463MPD2    C1 6890   0.456   1.042   1.716 -0.1154 -0.3111 -0.4222
  463MPD2    C2 6891   0.460   1.181   1.703 -0.8080  0.1666 -0.6994
  463MPD2    C3 6892   0.575   1.246   1.669  0.1455 -0.7483  0.1792
  463MPD2    C4 6893   0.691   1.169   1.651 -0.8721 -0.0213 -0.6797
  463MPD2    C5 6894   0.683   1.034   1.646  0.5397  0.0184 -0.0744
  463MPD2     H 6895   0.367   1.235   1.716  0.8690  2.7740  0.4010
  463MPD2    H1 6896   0.787   1.218   1.638 -0.4530 -0.1637  1.8246
  463MPD2    H2 6897   0.556   0.856   1.677  1.1104 -0.0889 -0.8771
  463MPD2    H3 6898   0.773   0.984   1.613 -1.1232 -3.3214  0.4658
  463MPD2     N 6899   0.593   1.381   1.656  0.2051 -0.0513 -0.8843
  463MPD2    H5 6900   0.687   1.416   1.641  1.4285 -2.7964  0.3774
  463MPD2    N1 6901   0.327   0.991   1.744  0.3006  0.5500  0.3722
  463MPD2    H7 6902   0.252   1.055   1.769  1.2838  1.0307  2.0397
  464TMC3    C1 6903   0.147   0.828   1.750 -0.3392 -0.5945  0.4013
  464TMC3    C2 6904   0.060   0.913   1.689  0.3747 -0.1017 -0.4853
  464TMC3    C3 6905   4.648   0.872   1.677 -0.3138  0.3138 -0.1928
  464TMC3    C4 6906   0.117   0.696   1.763 -0.3438 -0.4908  0.2508
  464TMC3    C5 6907   4.712   0.651   1.740  0.1117 -0.8583 -0.5057
  464TMC3    C6 6908   4.617   0.740   1.699 -0.1044 -0.0148  0.2911
  464TMC3     C 6909   0.291   0.860   1.742 -0.4946  1.2359  0.8801
  464TMC3     O 6910   0.362   0.762   1.721  0.1074  0.3869  0.0775
  464TMC3     H 6911   0.083   1.019   1.685  1.0909 -0.2758 -0.9501
  464TMC3    H1 6912   0.194   0.630   1.799  1.9473  1.4344 -1.0825
  464TMC3    H2 6913   4.512   0.713   1.702 -0.1566 -0.2846 -3.7552
  464TMC3    C7 6914   4.669   0.528   1.810  0.4485  0.7744  0.3167
  464TMC3    C8 6915   4.550   0.978   1.670 -0.5278 -0.2231 -0.3118
  464TMC3    O1 6916   0.021   0.479   1.896  0.2939 -0.3222 -0.1409
  464TMC3    O2 6917   4.585   1.084   1.623  0.1777  0.2552 -0.8579
  465MPD2     C 6918   1.515   0.239  16.217  0.5872 -0.4501  0.0471
  465MPD2    C1 6919   1.444   0.342  16.275 -0.3723  0.2812 -0.2853
  465MPD2    C2 6920   1.306   0.357  16.244 -0.1871  0.3677  0.5908
  465MPD2    C3 6921   1.242   0.263  16.164 -0.0069  0.3125  0.0384
  465MPD2    C4 6922   1.319   0.171  16.109  0.5707  0.3188 -0.5393
  465MPD2    C5 6923   1.452   0.162  16.129 -0.1452 -0.7545  0.4628
  465MPD2     H 6924   1.242   0.434  16.286 -2.4681  0.0067 -2.2143
  465MPD2    H1 6925   1.267   0.101  16.045 -0.7089  1.7080 -1.0257
  465MPD2    H2 6926   1.622   0.232  16.235  0.0950 -0.1600  3.1117
  465MPD2    H3 6927   1.514   0.090  16.077  1.6521  0.3991  1.0002
  465MPD2     N 6928   1.100   0.271  16.143 -0.2305 -0.3362 -0.0353
  465MPD2    H5 6929   1.048   0.340  16.197  0.6508  0.6612 -0.4526
  465MPD2    N1 6930   1.504   0.434  16.364 -0.4495 -0.3461 -0.2901
  465MPD2    H7 6931   1.450   0.514  16.395 -0.9388 -1.5861  2.0645
  466TMC3    C1 6932   0.709   0.183  16.252  0.4214  0.1634 -0.0621
  466TMC3    C2 6933   0.672   0.316  16.254  0.4176  0.4112 -0.4039
  466TMC3    C3 6934   0.749   0.398  16.175  0.2091 -0.2283 -0.1266
  466TMC3    C4 6935   0.815   0.132  16.177  0.1108  0.5763 -0.0272
  466TMC3    C5 6936   0.881   0.222  16.099 -0.0267 -0.1695  0.1297
  466TMC3    C6 6937   0.843   0.351  16.092 -0.0471  0.3955  1.0439
  466TMC3     C 6938   0.649   0.113  16.359  0.0081 -0.2777  0.4418
  466TMC3     O 6939   0.559   0.166  16.423  0.6322  0.7500 -0.9463
  466TMC3     H 6940   0.601   0.368  16.318  1.6272  1.7001 -0.1075
  466TMC3    H1 6941   0.838   0.026  16.187 -0.2554  0.7904  3.0020
  466TMC3    H2 6942   0.906   0.416  16.032  1.8899  0.0205  2.6815
  466TMC3    C7 6943   1.019   0.187  16.078  0.2532  0.2890  0.8649
  466TMC3    C8 6944   0.715   0.537  16.156 -0.9572 -0.5668  0.0977
  466TMC3    O1 6945   1.039   0.080  16.019  0.1239 -0.3945  0.3989
  466TMC3    O2 6946   0.750   0.583  16.050 -0.2228 -0.1216 -0.2674
  467TMC3    C1 6947   1.155   3.583  13.830 -0.0218  0.4724 -0.2496
  467TMC3    C2 6948   1.100   3.632  13.719 -1.1634 -0.3422 -1.0307
  467TMC3    C3 6949   0.979   3.583  13.675 -0.3192  0.0636 -0.0560
  467TMC3    C4 6950   1.098   3.489  13.910 -0.0956  0.2990  0.3587
  467TMC3    C5 6951   0.971   3.450  13.866  0.2003  0.2420 -0.6994
  467TMC3    C6 6952   0.905   3.488  13.745  0.3840  0.1561  0.8356
  467TMC3     C 6953   1.300   3.614  13.853  0.0445 -0.2620  0.3955
  467TMC3     O 6954   1.340   3.580  13.965  0.2098 -0.1071  0.6036
  467TMC3     H 6955   1.146   3.702  13.650 -0.6156 -0.4010 -0.7265
  467TMC3    H1 6956   1.139   3.449  14.002 -0.3392 -1.4079 -0.2678
  467TMC3    H2 6957   0.816   3.446  13.700 -0.1462 -0.5175  2.5086
  467TMC3    C7 6958   0.918   3.336  13.932 -0.3051  0.2521  0.3464
  467TMC3    C8 6959   0.954   3.609  13.538  0.7089 -0.1841 -0.1988
  467TMC3    O1 6960   0.994   3.269  14.002 -0.3225  0.0383  0.7240
  467TMC3    O2 6961   0.953   3.731  13.514 -0.2551 -0.2353  0.0037
  468MPD2     C 6962   0.382   1.475  11.042 -0.4469  0.3970 -0.2019
  468MPD2    C1 6963   0.513   1.433  11.006  0.3939  0.9040  0.2066
  468MPD2    C2 6964   0.528   1.295  11.011  0.2071 -0.2251 -0.2376
  468MPD2    C3 6965   0.431   1.200  11.043 -0.3123 -0.4475 -0.3458
  468MPD2    C4 6966   0.312   1.250  11.080 -0.3335  0.2260 -0.3288
  468MPD2    C5 6967   0.286   1.381  11.079  0.8565 -0.1444  0.2081
  468MPD2     H 6968   0.627   1.259  10.986  0.4285  0.1260  0.1298
  468MPD2    H1 6969   0.228   1.184  11.099 -0.3616  1.1289  2.7737
  468MPD2    H2 6970   0.356   1.580  11.043  0.8076  0.6986  1.0183
  468MPD2    H3 6971   0.188   1.425  11.099  1.2923 -0.7935  3.6472
  468MPD2     N 6972   0.453   1.062  11.033  0.1571 -0.1128 -0.0145
  468MPD2    H5 6973   0.375   1.002  11.058  1.7183 -1.8146  0.7569
  468MPD2    N1 6974   0.611   1.515  10.946 -0.6668 -0.2063  0.3284
  468MPD2    H7 6975   0.695   1.464  10.920 -0.4353 -1.8905  4.3692
  469TMC3    C1 6976   0.726   1.726  10.875  0.4149  0.1820 -0.1235
  469TMC3    C2 6977   0.852   1.657  10.857  0.1191 -0.1940  0.5307
  469TMC3    C3 6978   0.966   1.725  10.849 -0.9584  0.8413  0.6617
  469TMC3    C4 6979   0.732   1.859  10.914  0.5774 -0.2484 -0.3823
  469TMC3    C5 6980   0.857   1.920  10.919 -0.9023 -0.2762 -0.8697
  469TMC3    C6 6981   0.973   1.855  10.885 -0.2477 -0.2042 -0.6333
  469TMC3     C 6982   0.610   1.656  10.940 -0.2007 -0.3781  0.3800
  469TMC3     O 6983   0.526   1.726  10.990 -0.1901 -0.1921 -0.5568
  469TMC3     H 6984   0.850   1.551  10.834  0.7646 -0.2985  0.9559
  469TMC3    H1 6985   0.638   1.913  10.904  1.5038  1.1549 -1.6151
  469TMC3    H2 6986   1.066   1.911  10.881 -0.7832  0.7750  0.7374
  469TMC3    C7 6987   0.876   2.029  11.012  0.4214 -0.3034 -0.0141
  469TMC3    C8 6988   1.073   1.647  10.907  0.0613 -0.0843  0.3908
  469TMC3    O1 6989   0.993   2.052  11.041  0.5288  0.3252  0.5719
  469TMC3    O2 6990   1.090   1.531  10.867  0.0971  0.0130 -0.5658
  470TMC3    C1 6991   2.354   2.788   0.954  0.3340 -0.1143 -0.0461
  470TMC3    C2 6992   2.478   2.773   1.018 -0.1452 -0.3464  0.1685
  470TMC3    C3 6993   2.492   2.854   1.126  1.0631  0.1443 -0.0984
  470TMC3    C4 6994   2.252   2.868   1.006 -0.0939  0.3900 -0.9365
  470TMC3    C5 6995   2.281   2.949   1.108 -0.1943  0.3452  0.3972
  470TMC3    C6 6996   2.405   2.945   1.174 -0.0661  0.6954 -0.1637
  470TMC3     C 6997   2.310   2.689   0.862 -0.0667  0.5243  0.1562
  470TMC3     O 6998   2.208   2.709   0.799  0.5456 -0.4193 -0.7839
  470TMC3     H 6999   2.551   2.704   0.977 -0.3240 -0.4932  0.0924
  470TMC3    H1 7000   2.153   2.861   0.962 -1.1682 -0.1101  1.5315
  470TMC3    H2 7001   2.436   3.003   1.260  1.8396 -0.7706  0.1418
  470TMC3    C7 7002   2.173   3.033   1.160  0.2694 -0.7189 -0.0951
  470TMC3    C8 7003   2.633   2.880   1.160 -0.0235  0.0531 -0.4854
  470TMC3    O1 7004   2.064   3.020   1.102  0.4074 -0.1598 -0.1250
  470TMC3    O2 7005   2.700   2.777   1.166  0.0403 -0.1474  0.3241
  471MPD2     C 7006   3.140   3.534  16.116  0.6357  0.3695  0.4698
  471MPD2    C1 7007   3.134   3.397  16.156 -0.0511  1.0588 -0.4825
  471MPD2    C2 7008   3.229   3.342  16.243  0.8452 -0.3060 -0.0394
  471MPD2    C3 7009   3.329   3.425  16.299 -0.5118 -0.6602  0.4389
  471MPD2    C4 7010   3.340   3.554  16.255  0.1906 -0.6752  0.0770
  471MPD2    C5 7011   3.250   3.602  16.164 -0.1828 -0.3591 -1.3082
  471MPD2     H 7012   3.215   3.242  16.282  1.5335  0.1669  1.4268
  471MPD2    H1 7013   3.426   3.611  16.290 -0.5386  0.2197  0.4283
  471MPD2    H2 7014   3.063   3.583  16.058  0.6686  2.8341  2.5095
  471MPD2    H3 7015   3.257   3.706  16.135 -1.8077 -0.2551 -1.3035
  471MPD2     N 7016   3.433   3.369  16.381  0.6039 -0.4041  0.8627
  471MPD2    H5 7017   3.487   3.441  16.429 -0.4268  0.0149  1.3891
  471MPD2    N1 7018   3.035   3.307  16.123  0.7641 -0.0051 -0.0376
  471MPD2    H7 7019   3.027   3.213  16.162 -0.5827  0.0850 -0.1086
  472TMC3    C1 7020   2.820   3.245  16.105  1.0512 -0.2989  0.0899
  472TMC3    C2 7021   2.712   3.225  16.028  0.5008  0.2824 -0.6539
  472TMC3    C3 7022   2.612   3.136  16.070  0.0339 -0.1542  0.5420
  472TMC3    C4 7023   2.832   3.170  16.220 -0.1097  0.0438  0.6688
  472TMC3    C5 7024   2.730   3.084  16.260 -0.2863 -1.1258 -0.0429
  472TMC3    C6 7025   2.610   3.074  16.189 -0.8760  0.6419  0.3279
  472TMC3     C 7026   2.921   3.338  16.060  0.3808 -0.1011  0.3808
  472TMC3     O 7027   2.885   3.429  15.986 -0.5295  0.1381 -0.2645
  472TMC3     H 7028   2.703   3.274  15.932 -0.0951  1.3340 -0.0605
  472TMC3    H1 7029   2.920   3.168  16.283  0.4246 -1.6470 -0.1238
  472TMC3    H2 7030   2.531   3.009  16.222 -0.8291  0.2093 -0.4025
  472TMC3    C7 7031   2.757   3.012  16.381 -0.1906 -0.5627  0.0438
  472TMC3    C8 7032   2.511   3.115  15.970  0.8942  0.4475  0.0493
  472TMC3    O1 7033   2.846   3.047  16.453  0.5409  0.0081  0.4528
  472TMC3    O2 7034   2.477   3.211  15.898 -0.4650 -0.0432 -0.1559
  473MPD2     C 7035   3.127   0.827  13.731  0.2276 -0.1754 -0.4407
  473MPD2    C1 7036   3.094   0.936  13.656 -0.6758 -0.0699 -1.0060
  473MPD2    C2 7037   3.131   1.066  13.708 -0.0444 -0.6409 -0.0609
  473MPD2    C3 7038   3.203   1.076  13.829  0.3922  0.8302 -0.4615
  473MPD2    C4 7039   3.215   0.963  13.901  0.8660  0.7719  0.4228
  473MPD2    C5 7040   3.188   0.838  13.851 -0.2849 -0.3232  0.2076
  473MPD2     H 7041   3.119   1.157  13.650 -1.7260 -1.3213 -0.7775
  473MPD2    H1 7042   3.251   0.960  14.003  0.4063 -1.2053  0.5235
  473MPD2    H2 7043   3.087   0.734  13.693 -0.8487  0.1948 -0.1957
  473MPD2    H3 7044   3.198   0.748  13.912 -0.5295 -1.0138 -0.7710
  473MPD2     N 7045   3.260   1.190  13.895 -0.2374  0.3049  0.0734
  473MPD2    H5 7046   3.293   1.177  13.990  0.8560  1.4675 -0.1505
  473MPD2    N1 7047   3.031   0.929  13.528  0.2877 -0.3920  0.5312
  473MPD2    H7 7048   2.980   1.010  13.495 -0.4621 -0.4834  1.4714
  474TMC3    C1 7049   3.318   1.412  13.926 -0.1340 -0.0694 -0.0238
  474TMC3    C2 7050   3.236   1.516  13.941 -0.6053 -0.2715  0.0841
  474TMC3    C3 7051   3.230   1.581  14.060  0.3712 -0.3851 -0.1683
  474TMC3    C4 7052   3.406   1.373  14.026  0.3394 -0.3160 -0.5251
  474TMC3    C5 7053   3.415   1.445  14.143 -0.5226  0.2329 -0.4441
  474TMC3    C6 7054   3.322   1.547  14.158  0.1817 -0.4263 -0.1913
  474TMC3     C 7055   3.261   1.311  13.834  0.4013  0.2937 -0.1828
  474TMC3     O 7056   3.220   1.344  13.726  0.3496  0.0626  0.3832
  474TMC3     H 7057   3.178   1.538  13.852  1.3774 -3.4136 -1.9987
  474TMC3    H1 7058   3.480   1.298  14.000  0.0999 -0.9899  0.7793
  474TMC3    H2 7059   3.312   1.601  14.252 -0.9149  1.1919 -1.2507
  474TMC3    C7 7060   3.546   1.449  14.212  0.4547  0.6490 -0.4233
  474TMC3    C8 7061   3.198   1.727  14.052 -0.5147 -0.2700  0.8962
  474TMC3    O1 7062   3.628   1.369  14.166  0.1904  0.2202  0.3183
  474TMC3    O2 7063   3.267   1.809  14.117 -0.1466  0.2084 -0.7314
  475MPD2     C 7064   1.702   4.000  10.561 -0.1005 -0.7684 -0.1607
  475MPD2    C1 7065   1.716   3.923  10.457  0.4023 -0.4475 -0.4404
  475MPD2    C2 7066   1.611   3.909  10.372  0.6222 -0.4580 -0.2991
  475MPD2    C3 7067   1.492   3.973  10.391  0.4899 -1.1953  0.0037
  475MPD2    C4 7068   1.477   4.057  10.497 -0.5277 -0.4445  0.0440
  475MPD2    C5 7069   1.581   4.065  10.589 -0.8522  0.4452 -0.1591
  475MPD2     H 7070   1.620   3.850  10.281 -1.3289 -1.4910  0.1759
  475MPD2    H1 7071   1.383   4.106  10.520 -0.0545 -0.2046  1.5068
  475MPD2    H2 7072   1.782   3.996  10.635  0.7876 -0.4752 -1.0991
  475MPD2    H3 7073   1.569   4.111  10.686  1.5221  1.0031 -0.1144
  475MPD2     N 7074   1.389   3.938  10.306 -0.6499 -0.4242 -0.2150
  475MPD2    H5 7075   1.415   3.899  10.216  0.8466 -1.4375  0.6631
  475MPD2    N1 7076   1.834   3.852  10.440  0.2910  0.5053  0.0342
  475MPD2    H7 7077   1.912   3.882  10.497 -0.4407  1.6747  0.4176
  476TMC3    C1 7078   1.988   3.737  10.293 -0.9997 -0.3668  0.9115
  476TMC3    C2 7079   1.990   3.653  10.182  0.3899  0.1243 -0.2302
  476TMC3    C3 7080   2.045   3.694  10.057 -0.0529  0.5911 -0.2409
  476TMC3    C4 7081   2.056   3.860  10.291 -0.3494 -0.7393 -0.5454
  476TMC3    C5 7082   2.107   3.901  10.170  0.2704 -0.4997  0.3060
  476TMC3    C6 7083   2.105   3.824  10.054  0.3422  0.4466 -0.0967
  476TMC3     C 7084   1.853   3.752  10.347 -0.1475  0.7397 -0.4080
  476TMC3     O 7085   1.765   3.668  10.311  0.1333 -0.2073  0.0297
  476TMC3     H 7086   1.934   3.562  10.200  1.1061 -0.6633 -1.9477
  476TMC3    H1 7087   2.062   3.914  10.384  0.7026 -0.2697 -0.8862
  476TMC3    H2 7088   2.125   3.869   9.957  0.8697 -1.1424 -0.7339
  476TMC3    C7 7089   2.184   4.021  10.178  0.2530  0.4103  0.1196
  476TMC3    C8 7090   1.965   3.673   9.943  0.1880 -0.5081 -0.0186
  476TMC3    O1 7091   2.261   4.031  10.087 -0.2842  0.1357  0.1607
  476TMC3    O2 7092   1.970   3.768   9.861 -0.0583  0.1313 -0.0638
  477MPD2     C 7093   3.986   0.988  11.608  0.0096 -0.4328  0.5433
  477MPD2    C1 7094   3.863   0.922  11.608  0.4033  0.1545  0.9278
  477MPD2    C2 7095   3.827   0.846  11.713 -0.4903  0.4529 -0.3895
  477MPD2    C3 7096   3.915   0.819  11.819  0.0775 -0.0520  0.3062
  477MPD2    C4 7097   4.028   0.890  11.824 -0.5386  0.4911  0.1446
  477MPD2    C5 7098   4.062   0.973  11.718 -0.1721 -0.4241 -0.3634
  477MPD2     H 7099   3.733   0.793  11.723 -0.4998  0.4753 -0.3578
  477MPD2    H1 7100   4.103   0.888  11.902 -0.2794  1.3816 -0.0810
  477MPD2    H2 7101   4.017   1.065  11.538  0.1771 -1.5108 -0.5728
  477MPD2    H3 7102   4.156   1.028  11.717 -0.2133 -0.3326  1.8178
  477MPD2     N 7103   3.878   0.743  11.937  0.1066 -0.7058  0.4189
  477MPD2    H5 7104   3.783   0.707  11.947 -0.1259 -0.4099 -0.7213
  477MPD2    N1 7105   3.763   0.949  11.509 -0.3117 -0.3296  1.1002
  477MPD2    H7 7106   3.670   0.915  11.527 -0.1394 -2.0257 -1.1881
  478TMC3    C1 7107   3.665   1.032  11.311 -0.9266  0.1040 -0.2242
  478TMC3    C2 7108   3.551   1.056  11.380 -0.4790 -1.2228  0.2359
  478TMC3    C3 7109   3.441   1.076  11.297 -0.6275 -0.4541 -0.6987
  478TMC3    C4 7110   3.675   1.035  11.177  0.4590  0.1882 -0.2289
  478TMC3    C5 7111   3.558   1.057  11.104 -0.3816  0.1756 -0.4753
  478TMC3    C6 7112   3.436   1.082  11.161 -0.5966  0.3546 -0.2176
  478TMC3     C 7113   3.785   1.003  11.386  0.4192  0.6630  0.4856
  478TMC3     O 7114   3.897   1.020  11.332 -0.0516  0.1553  0.1562
  478TMC3     H 7115   3.541   1.067  11.488  1.9113 -0.2266  0.3482
  478TMC3    H1 7116   3.765   1.015  11.121  1.9917  2.3977  1.4448
  478TMC3    H2 7117   3.340   1.074  11.112 -1.2366  2.5656  0.6793
  478TMC3    C7 7118   3.555   1.026  10.966 -0.8273 -0.7417  0.7789
  478TMC3    C8 7119   3.328   1.125  11.376  0.8806  0.4781  0.1623
  478TMC3    O1 7120   3.649   0.959  10.928  0.4332  0.1324  0.1435
  478TMC3    O2 7121   3.299   1.061  11.475 -0.3402  0.2604  0.4801
  479MPD2     C 7122   2.087   3.637  15.013  0.2395 -0.7552  0.1022
  479MPD2    C1 7123   2.101   3.520  15.087 -0.2874 -0.7926 -0.1132
  479MPD2    C2 7124   2.229   3.493  15.146 -0.5535  0.3663 -0.2393
  479MPD2    C3 7125   2.330   3.583  15.127  0.0013 -0.2105 -0.4716
  479MPD2    C4 7126   2.312   3.698  15.056  0.8469  0.3577  0.1275
  479MPD2    C5 7127   2.191   3.723  15.000 -0.2833  0.1289  0.2589
  479MPD2     H 7128   2.245   3.403  15.204 -1.5559  1.5805  1.9011
  479MPD2    H1 7129   2.384   3.778  15.041  0.1169  1.2705  1.4528
  479MPD2    H2 7130   1.989   3.673  14.983  1.4649  0.6923 -2.1841
  479MPD2    H3 7131   2.182   3.824  14.961  0.0842  0.1919  0.3411
  479MPD2     N 7132   2.463   3.569  15.188 -0.2453 -0.5574  0.1083
  479MPD2    H5 7133   2.531   3.639  15.159  1.2832 -1.0945  2.3697
  479MPD2    N1 7134   1.985   3.440  15.109  0.0127 -0.2398  0.5165
  479MPD2    H7 7135   1.896   3.490  15.106 -0.3148 -0.9339 -1.5076
  480TMC3    C1 7136   2.849   3.416  15.411  0.0686  0.2369 -0.1842
  480TMC3    C2 7137   2.930   3.474  15.321  0.6254  0.5996  0.3510
  480TMC3    C3 7138   2.869   3.491  15.198 -0.7776 -0.4339 -0.2658
  480TMC3    C4 7139   2.714   3.410  15.394  0.2092  0.0324 -0.1379
  480TMC3    C5 7140   2.655   3.467  15.283  0.0184 -0.3298 -0.6400
  480TMC3    C6 7141   2.734   3.509  15.181  0.7959  0.1858  0.5740
  480TMC3     C 7142   2.917   3.331  15.504  0.0135 -0.5276 -0.6785
  480TMC3     O 7143   3.033   3.349  15.529 -0.0600  0.4509 -0.2373
  480TMC3     H 7144   3.037   3.456  15.328  0.1797 -1.1196  2.8519
  480TMC3    H1 7145   2.650   3.352  15.460 -1.2647  1.6586 -0.1269
  480TMC3    H2 7146   2.682   3.528  15.088 -2.1725 -3.3508  1.5107
  480TMC3    C7 7147   2.506   3.466  15.269  0.7629 -0.1397  0.3413
  480TMC3    C8 7148   2.955   3.552  15.094  0.5855  0.1148 -0.0161
  480TMC3    O1 7149   2.451   3.370  15.316 -0.2447 -0.3953  0.9151
  480TMC3    O2 7150   3.064   3.584  15.134 -0.3213 -0.5121 -0.6606
  481MPD2     C 7151   4.213   2.018  13.582  0.0418 -0.0724 -0.1082
  481MPD2    C1 7152   4.137   2.025  13.696  1.2097 -0.1800 -0.4216
  481MPD2    C2 7153   4.187   2.009  13.821 -0.4661  0.2533  0.1513
  481MPD2    C3 7154   4.330   2.008  13.831  0.3743  0.0060 -0.6611
  481MPD2    C4 7155   4.406   2.005  13.717 -0.2924 -0.2094 -0.0084
  481MPD2    C5 7156   4.350   2.012  13.595  0.4531  0.3644 -0.5577
  481MPD2     H 7157   4.128   2.034  13.908  0.8564  0.9984  0.8326
  481MPD2    H1 7158   4.515   1.999  13.720 -0.2046  1.4355 -0.3014
  481MPD2    H2 7159   4.175   2.016  13.481  1.6609 -0.2685 -0.7184
  481MPD2    H3 7160   4.420   1.995  13.514  0.5206 -2.9686  0.2043
  481MPD2     N 7161   4.395   2.020  13.952 -0.4050 -0.1902  0.0455
  481MPD2    H5 7162   4.496   2.024  13.956 -0.2496 -3.4868 -0.7279
  481MPD2    N1 7163   4.001   2.045  13.672 -0.2844 -0.2854 -0.1910
  481MPD2    H7 7164   3.976   2.064  13.576  0.6441  1.6288 -0.0649
  482TMC3    C1 7165   3.779   2.084  13.720  0.2227  0.0393 -0.0006
  482TMC3    C2 7166   3.732   2.031  13.603 -0.2629  0.5451  0.5458
  482TMC3    C3 7167   3.624   2.100  13.551  0.1069  0.5725 -0.9474
  482TMC3    C4 7168   3.720   2.182  13.793  0.2952  0.2795 -0.5162
  482TMC3    C5 7169   3.614   2.239  13.736  0.0472 -0.1379  0.1881
  482TMC3    C6 7170   3.563   2.206  13.614  0.4973 -0.0680 -0.8915
  482TMC3     C 7171   3.902   2.041  13.772  0.1313 -0.4276  0.9560
  482TMC3     O 7172   3.907   2.025  13.891  0.6953 -0.0004 -0.1352
  482TMC3     H 7173   3.780   1.948  13.554  0.8905  1.1858  0.5912
  482TMC3    H1 7174   3.769   2.218  13.883 -2.3724 -0.9084  1.4025
  482TMC3    H2 7175   3.474   2.256  13.579 -0.4842 -0.0345  1.6725
  482TMC3    C7 7176   3.603   2.383  13.782  0.5431 -1.0890  0.1647
  482TMC3    C8 7177   3.597   2.076  13.414 -0.4990 -0.7037  0.0090
  482TMC3    O1 7178   3.627   2.400  13.903  0.1619  0.3690  0.2685
  482TMC3    O2 7179   3.664   1.987  13.367 -0.0227  0.3549 -0.0198
  483TMC3    C1 7180   2.639   2.017   1.156  0.0644 -0.1996  0.3516
  483TMC3    C2 7181   2.634   2.133   1.099  0.0205 -0.3083  0.2080
  483TMC3    C3 7182   2.722   2.229   1.145  0.0616  0.1841  0.5923
  483TMC3    C4 7183   2.702   1.994   1.269 -0.6106  0.1503  0.4274
  483TMC3    C5 7184   2.784   2.094   1.317  0.0241  0.3251  0.1739
  483TMC3    C6 7185   2.795   2.212   1.252 -0.0932 -0.1230 -0.0846
  483TMC3     C 7186   2.544   1.919   1.106 -0.8216  0.2124 -0.7367
  483TMC3     O 7187   2.446   1.954   1.039 -0.3420 -0.4119 -0.1150
  483TMC3     H 7188   2.589   2.151   1.002 -0.2392 -0.8812  0.2180
  483TMC3    H1 7189   2.703   1.896   1.316 -2.9713 -0.4549 -0.8047
  483TMC3    H2 7190   2.864   2.290   1.285 -1.3898  1.1107 -0.2921
  483TMC3    C7 7191   2.900   2.038   1.387 -0.2030 -0.5949  0.3975
  483TMC3    C8 7192   2.775   2.306   1.035  0.3789 -0.7937 -0.8461
  483TMC3    O1 7193   2.906   1.916   1.388 -0.5325  0.2173 -0.3212
  483TMC3    O2 7194   2.779   2.258   0.924 -0.0269  0.1287 -0.1554
  484MPD2     C 7195   4.486   0.202  12.277  0.7652  0.1743 -0.1246
  484MPD2    C1 7196   4.556   0.136  12.376  0.0520 -0.1699  0.3873
  484MPD2    C2 7197   4.687   0.142  12.367 -0.2956 -0.8682 -0.2756
  484MPD2    C3 7198   0.036   0.209  12.271 -0.3889 -0.0284  0.2693
  484MPD2    C4 7199   4.689   0.278  12.182  0.4307  0.1174  1.2316
  484MPD2    C5 7200   4.555   0.271  12.178  0.2535 -0.1561  0.0461
  484MPD2     H 7201   0.020   0.097  12.450  0.3003 -0.6379 -0.5396
  484MPD2    H1 7202   0.013   0.341  12.107 -1.6711  1.3076  0.9586
  484MPD2    H2 7203   4.379   0.201  12.259  0.5225  2.1513  1.2172
  484MPD2    H3 7204   4.491   0.323  12.108 -1.1611 -3.2459 -0.9686
  484MPD2     N 7205   0.184   0.216  12.265  0.2463  0.1500 -0.4095
  484MPD2    H5 7206   0.217   0.275  12.190  0.4541 -2.5894 -2.4816
  484MPD2    N1 7207   4.489   0.057  12.479  0.3817  0.6521  0.0602
  484MPD2    H7 7208   4.387   0.059  12.480  0.3776  0.6056 -0.3899
  485TMC3    C1 7209   0.406   0.121  12.276 -0.2568 -0.1899  0.9127
  485TMC3    C2 7210   0.468   0.001  12.276 -0.1622 -0.0312  0.3861
  485TMC3    C3 7211   0.599   4.707  12.258  0.1519 -0.0841 -0.1062
  485TMC3    C4 7212   0.475   0.236  12.256 -0.2375  0.1696  0.1560
  485TMC3    C5 7213   0.607   0.226  12.234 -0.2287 -0.4106 -0.4416
  485TMC3    C6 7214   0.672   0.108  12.243 -0.9279 -0.2528  0.1926
  485TMC3     C 7215   0.263   0.113  12.304 -0.0967 -0.2711  0.4994
  485TMC3     O 7216   0.219   0.012  12.357  0.1485 -0.3807  0.8016
  485TMC3     H 7217   0.416   4.629  12.293 -0.2452 -0.1810 -0.6416
  485TMC3    H1 7218   0.413   0.323  12.236 -2.4666 -1.8301 -1.7194
  485TMC3    H2 7219   0.779   0.096  12.233 -0.8804 -0.6717  1.2500
  485TMC3    C7 7220   0.662   0.309  12.132  0.5407 -0.2933  0.0362
  485TMC3    C8 7221   0.632   4.619  12.151 -0.3414 -0.4606 -0.0840
  485TMC3    O1 7222   0.649   0.431  12.138  0.7329 -0.1810 -0.1476
  485TMC3    O2 7223   0.686   4.674  12.056  0.2279  0.1055 -0.0324
  486MPD2     C 7224   1.792   3.376  12.763  0.0119  0.0384 -0.0084
  486MPD2    C1 7225   1.900   3.456  12.721  0.4695 -0.2991  0.1098
  486MPD2    C2 7226   1.867   3.585  12.680 -0.3298 -0.3626 -0.1067
  486MPD2    C3 7227   1.738   3.635  12.685 -0.3196 -0.0614 -0.3422
  486MPD2    C4 7228   1.629   3.556  12.720 -0.3819  0.1733  0.2800
  486MPD2    C5 7229   1.665   3.427  12.762 -0.3818  0.1074 -0.6964
  486MPD2     H 7230   1.948   3.652  12.652 -2.1632  2.0148  0.3389
  486MPD2    H1 7231   1.525   3.587  12.721 -0.7279 -1.0832  2.4464
  486MPD2    H2 7232   1.803   3.274  12.799  0.6329  0.6418  1.4954
  486MPD2    H3 7233   1.591   3.358  12.799 -1.4492  2.2896  1.2371
  486MPD2     N 7234   1.729   3.776  12.642  0.0908 -0.4155  0.2173
  486MPD2    H5 7235   1.800   3.826  12.590 -0.2744 -0.8775 -0.7283
  486MPD2    N1 7236   2.034   3.411  12.737 -0.2683 -0.3907 -0.4502
  486MPD2    H7 7237   2.054   3.321  12.780  0.4895 -1.0705 -2.2346
  487TMC3    C1 7238   2.263   3.399  12.729 -0.5433 -0.0726  1.3800
  487TMC3    C2 7239   2.253   3.261  12.743 -0.5034 -0.2928  0.3532
  487TMC3    C3 7240   2.343   3.204  12.829 -0.5220  0.0563 -0.3261
  487TMC3    C4 7241   2.339   3.477  12.811  0.3720 -0.1262 -0.5035
  487TMC3    C5 7242   2.422   3.414  12.899  0.7666 -0.3346  0.0385
  487TMC3    C6 7243   2.440   3.279  12.892 -0.6950  0.6348  0.2623
  487TMC3     C 7244   2.150   3.469  12.684  0.5708 -0.0752  0.5517
  487TMC3     O 7245   2.165   3.583  12.637 -0.6175 -0.1168 -0.1468
  487TMC3     H 7246   2.184   3.207  12.679  0.1457 -1.7814  0.9077
  487TMC3    H1 7247   2.328   3.585  12.805  0.3595 -0.1417 -0.7426
  487TMC3    H2 7248   2.515   3.236  12.956  0.0207  2.5393  0.7094
  487TMC3    C7 7249   2.390   3.441  13.037  0.4815 -0.1378 -0.5741
  487TMC3    C8 7250   2.262   3.148  12.929  0.8164  0.6916 -0.1038
  487TMC3    O1 7251   2.444   3.380  13.127 -0.8234  0.0355  0.3891
  487TMC3    O2 7252   2.142   3.169  12.920 -0.1481 -0.2319 -0.3168
  488MPD2     C 7253   2.723   0.103  16.312  0.2583 -0.7517  0.1561
  488MPD2    C1 7254   2.734   0.224  16.376 -0.0631  0.1167 -0.3488
  488MPD2    C2 7255   2.728   0.228  16.516  0.2693 -0.1378  0.0722
  488MPD2    C3 7256   2.720   0.118  16.592 -0.4432 -0.1503 -0.0414
  488MPD2    C4 7257   2.709   4.714  16.526 -0.1452  0.1214 -0.3110
  488MPD2    C5 7258   2.710   4.711  16.389 -0.2622  0.8569  0.5725
  488MPD2     H 7259   2.741   0.328  16.557  2.3061 -0.0290 -0.8387
  488MPD2    H1 7260   2.699   4.615  16.569 -2.6652  0.2365 -0.6705
  488MPD2    H2 7261   2.728   0.085  16.205 -0.1812 -0.3307  0.0640
  488MPD2    H3 7262   2.702   4.611  16.348  1.7987  1.4329 -1.1981
  488MPD2     N 7263   2.719   0.136  16.736  0.0125 -0.6426 -0.0897
  488MPD2    H5 7264   2.726   0.230  16.774 -0.7830 -0.0711 -1.3584
  488MPD2    N1 7265   2.747   0.339  16.309  0.0075 -0.1267 -0.2729
  488MPD2    H7 7266   2.780   0.415  16.369  1.6648 -0.0219 -1.3205
  489TMC3    C1 7267   2.691   0.074  16.965  0.4948 -0.5184 -0.6463
  489TMC3    C2 7268   2.743   0.200  17.006  0.3633 -0.1887  0.5952
  489TMC3    C3 7269   2.735   0.238  17.136 -0.4624 -0.0646 -0.3013
  489TMC3    C4 7270   2.621   4.719  17.052 -0.1290  0.4168 -0.2568
  489TMC3    C5 7271   2.596   0.051  17.181 -0.4958  0.9245 -0.1973
  489TMC3    C6 7272   2.654   0.167  17.222 -0.4244 -0.4223 -0.0155
  489TMC3     C 7273   2.703   0.033  16.825 -0.4887  0.3611 -0.4534
  489TMC3     O 7274   2.662   4.640  16.804  0.4765  0.2286  0.0000
  489TMC3     H 7275   2.796   0.259  16.932 -0.5161  0.6342  0.6257
  489TMC3    H1 7276   2.588   4.623  17.014 -0.0383 -0.3846  1.7427
  489TMC3    H2 7277   2.645   0.201  17.325  3.3471  1.1565 -0.2206
  489TMC3    C7 7278   2.519   4.699  17.273 -0.1544 -0.6930 -0.0969
  489TMC3    C8 7279   2.766   0.375  17.165 -1.0789 -0.1824 -0.3194
  489TMC3    O1 7280   2.500   0.031  17.381  0.5576  0.7208 -0.0624
  489TMC3    O2 7281   2.845   0.427  17.090  0.7297  0.1863  0.2869
  490MPD2     C 7282   3.278   0.054   0.003  0.5218 -0.2823  0.5401
  490MPD2    C1 7283   3.326   4.644  17.664 -0.0025 -0.4310 -0.2848
  490MPD2    C2 7284   3.443   4.626  17.593  0.0692 -0.2072  1.2478
  490MPD2    C3 7285   3.527   0.009  17.566 -0.1730  0.2027  0.8458
  490MPD2    C4 7286   3.483   0.134  17.595 -0.0044 -0.0254 -0.3265
  490MPD2    C5 7287   3.359   0.155  17.652  0.9642 -0.6574 -0.1514
  490MPD2     H 7288   3.479   4.527  17.571 -2.5453 -0.8586 -0.1681
  490MPD2    H1 7289   3.549   0.217  17.569 -1.9620  1.9129  0.9419
  490MPD2    H2 7290   3.186   0.078   0.055 -0.4488 -4.0680  0.5131
  490MPD2    H3 7291   3.321   0.256  17.665  1.3377 -0.6873  1.1903
  490MPD2     N 7292   3.659   0.002  17.510  0.3493  0.1395  0.2469
  490MPD2    H5 7293   3.725   0.079  17.513  0.6612 -0.0251 -2.1520
  490MPD2    N1 7294   3.247   4.531   0.008  0.0814  0.3786 -0.0036
  490MPD2    H7 7295   3.276   4.442  17.655 -2.1284 -0.7557  0.9143
  491TMC3    C1 7296   3.055   4.400   0.063  0.3234 -0.0429  0.5734
  491TMC3    C2 7297   2.981   4.369   0.179 -0.1873  0.2990 -0.5665
  491TMC3    C3 7298   2.942   4.241   0.191 -0.3634  0.0765  0.4977
  491TMC3    C4 7299   3.065   4.320  17.639  0.4712 -0.1807 -0.1044
  491TMC3    C5 7300   2.999   4.193  17.648  0.3215  0.2320 -0.2264
  491TMC3    C6 7301   2.940   4.155   0.079 -0.2128 -1.1687 -0.0370
  491TMC3     C 7302   3.122   4.527   0.071  0.2799  0.5921 -0.2056
  491TMC3     O 7303   3.074   4.606   0.150  0.1975 -0.6290  0.4685
  491TMC3     H 7304   2.973   4.445   0.256 -1.1620 -0.5445  0.1554
  491TMC3    H1 7305   3.122   4.344  17.550  0.1177  2.2605  0.3258
  491TMC3    H2 7306   2.897   4.058   0.104 -0.8111 -0.7928  0.3913
  491TMC3    C7 7307   2.978   4.108  17.534  0.1521 -0.4641  0.0863
  491TMC3    C8 7308   2.887   4.193   0.316  0.2817 -0.1405  0.4271
  491TMC3    O1 7309   2.942   3.999  17.562  0.4453  0.3123  0.0192
  491TMC3    O2 7310   2.804   4.102   0.316 -0.0990  0.3454  0.4056
  492MPD2     C 7311   3.709   4.422  11.187  0.2393 -0.0423  0.4267
  492MPD2    C1 7312   3.613   4.385  11.100 -0.7574 -0.2060 -0.9762
  492MPD2    C2 7313   3.489   4.346  11.147 -0.7135 -0.0816 -0.1234
  492MPD2    C3 7314   3.471   4.333  11.280  1.0181  0.0146  0.7734
  492MPD2    C4 7315   3.569   4.371  11.369  0.3096  0.6837  0.3299
  492MPD2    C5 7316   3.692   4.409  11.320  1.0190 -0.2076  0.2779
  492MPD2     H 7317   3.410   4.324  11.076  0.9732  0.5098 -2.1701
  492MPD2    H1 7318   3.555   4.354  11.475  0.1156 -1.0833  0.0114
  492MPD2    H2 7319   3.811   4.434  11.155 -0.6245  1.4787 -1.6927
  492MPD2    H3 7320   3.774   4.421  11.390  0.2390 -1.0863  1.3435
  492MPD2     N 7321   3.352   4.287  11.339 -0.5771 -0.1200  0.2148
  492MPD2    H5 7322   3.351   4.278  11.440  2.3768 -0.0177  0.2562
  492MPD2    N1 7323   3.652   4.396  10.962  0.0503  0.0913  0.5052
  492MPD2    H7 7324   3.742   4.437  10.939 -0.3776 -1.0841 -3.3096
  493TMC3    C1 7325   3.647   4.363  10.729  0.5315 -0.6414  0.0427
  493TMC3    C2 7326   3.740   4.465  10.711  1.0020  0.2609 -0.0885
  493TMC3    C3 7327   3.788   4.492  10.589 -0.0113  0.5584 -0.1474
  493TMC3    C4 7328   3.596   4.298  10.618 -0.0890  1.2744 -0.6289
  493TMC3    C5 7329   3.636   4.336  10.496  0.1664 -0.7622 -0.8106
  493TMC3    C6 7330   3.744   4.423  10.478  0.5931  0.4329  0.7778
  493TMC3     C 7331   3.575   4.351  10.854  0.7768 -0.2380  0.5646
  493TMC3     O 7332   3.472   4.280  10.851 -0.1442 -0.3359 -0.3234
  493TMC3     H 7333   3.783   4.524  10.792 -0.2038  1.4947 -0.3579
  493TMC3    H1 7334   3.521   4.221  10.632  2.1901 -1.2714 -2.3143
  493TMC3    H2 7335   3.785   4.433  10.378 -2.2435  1.7677 -0.2637
  493TMC3    C7 7336   3.553   4.307  10.383  0.4517 -0.4063 -0.2797
  493TMC3    C8 7337   3.918   4.555  10.584 -0.1789  0.2252 -0.1085
  493TMC3    O1 7338   3.475   4.217  10.394 -0.2278 -0.2728 -0.2825
  493TMC3    O2 7339   3.979   4.553  10.685 -0.0251  0.3768  0.1172
  494TMC3    C1 7340   4.584   1.459   0.841 -0.3682 -0.4399 -0.5407
  494TMC3    C2 7341   4.528   1.336   0.880  0.0874  0.4406 -0.2623
  494TMC3    C3 7342   4.499   1.244   0.792 -1.0283  0.2515 -0.4652
  494TMC3    C4 7343   4.598   1.492   0.714 -0.4755  0.2237  0.4438
  494TMC3    C5 7344   4.572   1.387   0.627  0.1903 -0.3308  0.8240
  494TMC3    C6 7345   4.533   1.258   0.661 -1.5010 -0.2657  0.2092
  494TMC3     C 7346   4.577   1.563   0.944  0.5166  0.3962  0.3388
  494TMC3     O 7347   4.593   1.525   1.057 -0.7651  0.1800 -0.0613
  494TMC3     H 7348   4.510   1.329   0.987  0.9850  0.9122 -0.0831
  494TMC3    H1 7349   4.655   1.581   0.688  0.3153 -0.8055 -1.3879
  494TMC3    H2 7350   4.522   1.181   0.586 -1.1480 -0.0837 -0.0302
  494TMC3    C7 7351   4.565   1.413   0.482  0.3748  0.5643  0.6728
  494TMC3    C8 7352   4.424   1.123   0.826  0.3185 -0.2676  0.2019
  494TMC3    O1 7353   4.572   1.321   0.405  0.2016 -0.2237  0.2733
  494TMC3    O2 7354   4.409   1.030   0.747  0.1953  0.2334 -0.2870
  495TMC3    C1 7355   2.753   3.293  14.154 -0.3759 -0.1995 -0.7997
  495TMC3    C2 7356   2.638   3.348  14.100 -0.5401  0.1164 -0.4969
  495TMC3    C3 7357   2.567   3.432  14.173 -1.0592 -0.4277 -0.5193
  495TMC3    C4 7358   2.797   3.343  14.275 -0.1775 -0.2106 -0.3598
  495TMC3    C5 7359   2.722   3.436  14.339  0.0763 -0.1308 -0.0958
  495TMC3    C6 7360   2.595   3.471  14.303 -0.8640 -0.2997  0.5785
  495TMC3     C 7361   2.752   3.147  14.137 -0.1555 -0.1944 -0.4038
  495TMC3     O 7362   2.642   3.089  14.132  0.5490 -0.1352  0.1815
  495TMC3     H 7363   2.616   3.324  13.996 -1.2125  0.2557 -0.3875
  495TMC3    H1 7364   2.875   3.283  14.320 -0.6049  0.7296  1.6318
  495TMC3    H2 7365   2.533   3.541  14.359  2.3028  1.5373  1.7648
  495TMC3    C7 7366   2.764   3.468  14.468 -0.0367  0.2025  0.1276
  495TMC3    C8 7367   2.435   3.465  14.126  0.1610 -0.4226 -0.5160
  495TMC3    O1 7368   2.672   3.473  14.548  0.0224  0.1828 -0.7493
  495TMC3    O2 7369   2.343   3.434  14.204  0.7096 -0.1704 -0.1794
  496MPD2     C 7370   3.844   3.169  15.190  0.3830  0.0434  0.2099
  496MPD2    C1 7371   3.935   3.104  15.261 -0.3711  0.6821 -0.6551
  496MPD2    C2 7372   3.927   3.117  15.397  0.0285 -0.0409  0.8247
  496MPD2    C3 7373   3.830   3.189  15.462 -0.1144  0.2417  0.1156
  496MPD2    C4 7374   3.738   3.248  15.389  0.3225  0.2960  0.3135
  496MPD2    C5 7375   3.750   3.240  15.254 -0.1939  0.4365  0.6150
  496MPD2     H 7376   4.007   3.070  15.452  0.4451 -0.9660 -0.5647
  496MPD2    H1 7377   3.652   3.299  15.430  0.6827  0.9719  0.2368
  496MPD2    H2 7378   3.840   3.168  15.082 -1.4140  1.7896  0.2557
  496MPD2    H3 7379   3.675   3.290  15.194  0.1886  0.4138  0.1259
  496MPD2     N 7380   3.834   3.229  15.597  0.2186  0.2803 -0.5176
  496MPD2    H5 7381   3.758   3.285  15.633 -0.2276 -1.0031  0.5342
  496MPD2    N1 7382   4.038   3.033  15.192  0.5440 -0.1906 -1.1815
  496MPD2    H7 7383   4.056   3.046  15.093  1.0676 -2.3907 -1.3789
  497TMC3    C1 7384   3.929   3.283  15.801 -0.6341 -0.9028 -0.6914
  497TMC3    C2 7385   3.891   3.412  15.781  0.5381 -0.5407 -0.4629
  497TMC3    C3 7386   3.929   3.505  15.876  0.5117 -0.3814 -0.2850
  497TMC3    C4 7387   3.990   3.240  15.911  0.1219  0.0979 -0.2616
  497TMC3    C5 7388   4.035   3.340  15.996  0.0864  0.2698  0.1163
  497TMC3    C6 7389   4.000   3.470  15.983 -0.0658  0.2353  0.1514
  497TMC3     C 7390   3.922   3.187  15.691 -0.0712  0.1266 -0.3847
  497TMC3     O 7391   4.003   3.095  15.682 -0.8300  0.3321 -0.4556
  497TMC3     H 7392   3.864   3.449  15.683  1.5170 -0.5893 -0.7491
  497TMC3    H1 7393   4.002   3.136  15.939  0.4618  0.5797  1.4059
  497TMC3    H2 7394   4.030   3.539  16.061  0.2789 -1.0614  1.1574
  497TMC3    C7 7395   4.112   3.303  16.113 -0.0274  0.8129  0.6058
  497TMC3    C8 7396   3.857   3.629  15.879 -0.5036 -0.2771  0.2300
  497TMC3    O1 7397   4.092   3.194  16.166  0.2089  0.6848  0.0037
  497TMC3    O2 7398   3.915   3.714  15.947  0.2152  0.3126 -0.1144
  498MPD2     C 7399   1.270   3.054   9.513 -0.5606 -0.5026 -0.5525
  498MPD2    C1 7400   1.255   3.182   9.562 -1.1003 -0.0211  0.7953
  498MPD2    C2 7401   1.139   3.215   9.630 -0.9135 -0.1270 -0.0788
  498MPD2    C3 7402   1.034   3.130   9.642 -0.0079 -0.0057  0.4740
  498MPD2    C4 7403   1.042   3.002   9.588 -0.3213 -0.3007  0.0162
  498MPD2    C5 7404   1.161   2.969   9.526  0.1680 -0.3722 -0.3564
  498MPD2     H 7405   1.139   3.314   9.674 -0.4791 -1.1703  2.2400
  498MPD2    H1 7406   0.957   2.936   9.578 -1.4722  1.4220 -1.6220
  498MPD2    H2 7407   1.363   3.018   9.469 -0.9206  0.5188 -2.1255
  498MPD2    H3 7408   1.166   2.871   9.480 -0.6079  0.0954 -1.4249
  498MPD2     N 7409   0.932   3.161   9.734 -0.7470  0.4056 -0.5816
  498MPD2    H5 7410   0.942   3.243   9.793 -1.1326  0.7418 -0.9806
  498MPD2    N1 7411   1.360   3.280   9.539 -0.0891 -1.4283 -0.0589
  498MPD2    H7 7412   1.343   3.380   9.541 -0.3370 -1.4580 -0.6246
  499TMC3    C1 7413   1.584   3.349   9.519  0.8191  1.2510 -0.1573
  499TMC3    C2 7414   1.701   3.318   9.585  0.0320  0.0658  0.7529
  499TMC3    C3 7415   1.808   3.401   9.558 -0.5402 -0.3968  0.1792
  499TMC3    C4 7416   1.571   3.447   9.424 -0.1153 -0.0869 -0.4141
  499TMC3    C5 7417   1.682   3.527   9.396  0.7156 -0.4301 -0.0455
  499TMC3    C6 7418   1.801   3.499   9.460  0.1210 -0.5457 -0.3010
  499TMC3     C 7419   1.494   3.237   9.519  0.3313 -0.3736  0.8393
  499TMC3     O 7420   1.544   3.130   9.540 -0.4826 -0.1004 -0.0783
  499TMC3     H 7421   1.709   3.234   9.654 -0.8034 -0.6356 -0.0023
  499TMC3    H1 7422   1.482   3.455   9.363  1.4681  0.9352 -2.5825
  499TMC3    H2 7423   1.877   3.574   9.445  0.8260 -1.1615  0.2116
  499TMC3    C7 7424   1.667   3.661   9.338  0.1108 -0.3770  0.3870
  499TMC3    C8 7425   1.935   3.384   9.631  0.6563  0.6070 -0.0827
  499TMC3    O1 7426   1.766   3.718   9.303 -0.1320 -0.0589  0.6674
  499TMC3    O2 7427   2.017   3.474   9.621 -0.4412  0.4407 -0.5663
  500MPD2     C 7428   2.415   0.610  10.201  0.4723 -0.2224  0.6719
  500MPD2    C1 7429   2.464   0.597  10.067  0.3989 -0.2066 -0.6744
  500MPD2    C2 7430   2.378   0.544   9.968  0.6762 -0.2591 -0.0452
  500MPD2    C3 7431   2.254   0.487  10.005  0.1615  0.2502 -0.0628
  500MPD2    C4 7432   2.216   0.489  10.140 -0.3102 -0.5098  0.0330
  500MPD2    C5 7433   2.289   0.561  10.230 -0.4055 -0.3925 -0.3686
  500MPD2     H 7434   2.414   0.545   9.866  0.3280  0.5550 -0.1644
  500MPD2    H1 7435   2.122   0.446  10.172 -1.0460  0.6620 -0.5411
  500MPD2    H2 7436   2.471   0.646  10.287  2.8935  0.6744 -1.2883
  500MPD2    H3 7437   2.258   0.569  10.334 -1.0307  1.7205 -0.7162
  500MPD2     N 7438   2.181   0.413   9.919  0.0599 -0.2368  0.2382
  500MPD2    H5 7439   2.123   0.340   9.959 -1.5564  0.2896 -1.1779
  500MPD2    N1 7440   2.589   0.625  10.017  0.2879  0.0749 -0.2627
  500MPD2    H7 7441   2.604   0.602   9.919 -1.3443  1.1581 -0.7648
  501TMC3    C1 7442   2.819   0.607  10.038  0.0733  0.3133 -0.1053
  501TMC3    C2 7443   2.838   0.647   9.908  0.0207 -1.0776 -0.6071
  501TMC3    C3 7444   2.959   0.623   9.849  0.5361 -0.0309 -0.1036
  501TMC3    C4 7445   2.912   0.539  10.109 -0.0018  0.3925  0.2446
  501TMC3    C5 7446   3.032   0.523  10.044  0.3406  0.5523  0.1749
  501TMC3    C6 7447   3.051   0.543   9.911 -0.0737 -0.8165  0.2692
  501TMC3     C 7448   2.694   0.637  10.104 -0.2030 -0.9086  0.1725
  501TMC3     O 7449   2.693   0.622  10.225  0.0252  0.4962  0.0036
  501TMC3     H 7450   2.765   0.706   9.852 -0.6485 -0.0715  1.3191
  501TMC3    H1 7451   2.899   0.533  10.217 -0.3378  2.4809  0.3192
  501TMC3    H2 7452   3.141   0.511   9.858 -0.4271  1.6273 -1.8071
  501TMC3    C7 7453   3.141   0.540  10.138  0.1551  0.0472 -0.9898
  501TMC3    C8 7454   3.024   0.757   9.831  0.1297 -0.2231  0.4558
  501TMC3    O1 7455   3.123   0.486  10.241  0.6455  0.1710 -0.5856
  501TMC3    O2 7456   3.125   0.774   9.900  0.5464  0.5462 -0.3262
  502TMC3    C1 7457   2.021   4.101  15.558 -0.3225  0.3510 -0.6150
  502TMC3    C2 7458   2.007   4.200  15.469  0.2523 -0.4631 -1.0582
  502TMC3    C3 7459   1.880   4.216  15.417 -0.2512  0.6785 -0.1737
  502TMC3    C4 7460   1.916   4.010  15.582  0.4976 -0.2612  0.0652
  502TMC3    C5 7461   1.799   4.022  15.518  0.0470  0.1542 -0.2778
  502TMC3    C6 7462   1.774   4.131  15.441 -0.1489 -0.7551 -0.1405
  502TMC3     C 7463   2.146   4.102  15.638 -0.1804 -0.0240 -0.0649
  502TMC3     O 7464   2.220   4.200  15.635 -0.3320 -0.2649 -0.5057
  502TMC3     H 7465   2.086   4.266  15.436 -0.4194  0.9954  0.2737
  502TMC3    H1 7466   1.934   3.928  15.651 -2.3318 -0.9287 -0.0121
  502TMC3    H2 7467   1.675   4.152  15.404 -1.0214 -2.3963  1.2339
  502TMC3    C7 7468   1.685   3.938  15.549 -0.1698 -0.0311  0.1996
  502TMC3    C8 7469   1.856   4.346  15.346  0.3002  0.1842  0.6756
  502TMC3    O1 7470   1.689   3.859  15.640  0.0890 -0.0724 -0.5464
  502TMC3    O2 7471   1.934   4.440  15.356  0.3310 -0.6592 -0.1848
  503MPD2     C 7472   0.145   0.424  16.856 -1.1800 -0.3485 -0.5004
  503MPD2    C1 7473   0.059   0.364  16.951 -0.2618  0.0738 -0.5198
  503MPD2    C2 7474   0.065   0.233  16.985  0.6164 -0.1452 -0.4355
  503MPD2    C3 7475   0.155   0.148  16.912  0.1573  0.0026  0.1126
  503MPD2    C4 7476   0.227   0.194  16.805  0.5673 -0.3302 -0.2901
  503MPD2    C5 7477   0.225   0.330  16.779 -0.2101 -0.1390 -0.1955
  503MPD2     H 7478   0.001   0.193  17.062  0.0261  1.6097 -0.0076
  503MPD2    H1 7479   0.299   0.133  16.753 -0.4109 -1.9004  0.1781
  503MPD2    H2 7480   0.141   0.527  16.825 -0.1591  0.5992  2.4893
  503MPD2    H3 7481   0.290   0.375  16.704  0.1315 -0.3815 -0.0454
  503MPD2     N 7482   0.168   0.010  16.936  0.5121 -0.1458 -0.0778
  503MPD2    H5 7483   0.229   4.685  16.869  0.8676  1.0401 -0.5597
  503MPD2    N1 7484   4.692   0.445  17.034  0.1354 -0.0903 -0.0766
  503MPD2    H7 7485   4.639   0.397  17.106 -1.1458 -2.8111 -2.8325
  504TMC3    C1 7486   0.137   4.525  17.057 -0.0773  0.2992 -0.4692
  504TMC3    C2 7487   0.106   4.449  17.167 -0.3758 -0.0509  0.5430
  504TMC3    C3 7488   0.101   4.316  17.163  0.0625  0.1741  0.0656
  504TMC3    C4 7489   0.165   4.459  16.938 -0.1939  0.0967 -0.1341
  504TMC3    C5 7490   0.167   4.323  16.935 -0.0816 -0.6344 -0.0571
  504TMC3    C6 7491   0.131   4.249  17.048  0.3412  0.1457 -0.1964
  504TMC3     C 7492   0.113   4.666  17.046 -0.1731 -0.1533 -0.5559
  504TMC3     O 7493   0.065   4.713  17.147 -0.5574 -0.1972 -0.0262
  504TMC3     H 7494   0.082   4.504  17.257  0.9367  0.0036  0.8523
  504TMC3    H1 7495   0.184   4.510  16.844  0.9019 -0.0931 -0.0236
  504TMC3    H2 7496   0.126   4.141  17.048 -1.8629  0.2523  1.8995
  504TMC3    C7 7497   0.239   4.264  16.823  0.2609 -0.6360  0.1122
  504TMC3    C8 7498   0.063   4.230  17.273 -0.2294  0.2433 -0.4758
  504TMC3    O1 7499   0.239   4.328  16.720 -0.0807  0.2180  0.2269
  504TMC3    O2 7500   0.025   4.117  17.248  0.1270 -0.3618  0.5007
  505MPD2     C 7501   0.042   3.503  10.899  0.1952 -0.2731 -0.8522
  505MPD2    C1 7502   0.119   3.395  10.916 -0.5461 -0.2774 -0.1934
  505MPD2    C2 7503   0.256   3.418  10.938 -0.3531 -0.3776 -0.1538
  505MPD2    C3 7504   0.312   3.543  10.935  0.2951 -0.2404 -0.2335
  505MPD2    C4 7505   0.235   3.651  10.910 -0.5646  0.8602 -0.2886
  505MPD2    C5 7506   0.098   3.630  10.894 -0.0227  0.1854  0.1392
  505MPD2     H 7507   0.325   3.336  10.956 -0.9219 -0.8075  0.0739
  505MPD2    H1 7508   0.265   3.754  10.897  0.2809  0.6295 -0.1631
  505MPD2    H2 7509   4.655   3.499  10.885  0.1050 -1.9194  0.3088
  505MPD2    H3 7510   0.033   3.715  10.882 -1.9932 -1.3655 -0.1400
  505MPD2     N 7511   0.443   3.540  10.974  0.1114  0.1145 -0.4398
  505MPD2    H5 7512   0.488   3.456  11.009  0.0914  0.6237  0.8305
  505MPD2    N1 7513   0.079   3.258  10.904 -0.9633  0.3801 -0.4641
  505MPD2    H7 7514   0.153   3.189  10.897 -0.3608  1.0294 -0.5135
  506TMC3    C1 7515   4.683   3.070  10.852  0.5431 -0.6888  0.2800
  506TMC3    C2 7516   4.622   3.034  10.737  0.3478  0.3383  0.6291
  506TMC3    C3 7517   4.660   2.920  10.665 -0.4614  0.2169  0.0635
  506TMC3    C4 7518   0.066   2.995  10.900  0.4702 -0.5577 -0.4934
  506TMC3    C5 7519   0.106   2.888  10.822  0.2692  0.1328  0.3981
  506TMC3    C6 7520   0.047   2.849  10.702 -0.4169 -0.6677 -0.3794
  506TMC3     C 7521   4.678   3.213  10.872  0.1007  0.4244  0.1205
  506TMC3     O 7522   4.579   3.271  10.827  0.1698  0.2654  0.2018
  506TMC3     H 7523   4.544   3.093  10.691 -0.6272 -0.7146  0.9453
  506TMC3    H1 7524   0.108   3.016  10.998  1.4826 -1.9371 -0.6248
  506TMC3    H2 7525   0.095   2.772  10.642 -0.8636 -0.8683 -0.4788
  506TMC3    C7 7526   0.219   2.821  10.868 -0.5140  0.0867  0.3147
  506TMC3    C8 7527   4.639   2.938  10.517 -0.0401 -0.2739 -0.3100
  506TMC3    O1 7528   0.233   2.700  10.848  0.0050  0.0723  0.2582
  506TMC3    O2 7529   4.522   2.949  10.480 -0.1644  0.0973 -0.2084
  507TMC3    C1 7530   0.081   4.288  14.839  0.6208  0.9117  0.4688
  507TMC3    C2 7531   0.108   4.258  14.708 -1.1518  0.7781  0.0786
  507TMC3    C3 7532   0.238   4.237  14.677 -0.1977 -0.8597  0.0906
  507TMC3    C4 7533   0.176   4.302  14.936 -1.2792  0.1586 -0.6076
  507TMC3    C5 7534   0.305   4.280  14.898  0.0445 -0.0887  0.0514
  507TMC3    C6 7535   0.335   4.256  14.767  0.0832  0.4362  0.1018
  507TMC3     C 7536   4.670   4.301  14.887 -0.1425 -0.1075  0.5028
  507TMC3     O 7537   4.654   4.280  15.009 -0.1859  0.0031 -0.2774
  507TMC3     H 7538   0.033   4.228  14.635  2.9229 -0.2507 -3.6657
  507TMC3    H1 7539   0.158   4.319  15.041  1.1106 -1.0295  0.0151
  507TMC3    H2 7540   0.436   4.217  14.756 -0.6694 -0.7622 -2.5248
  507TMC3    C7 7541   0.396   4.380  14.938 -0.5350  0.7689 -0.4572
  507TMC3    C8 7542   0.280   4.270  14.540  0.0474  0.1147  0.4541
  507TMC3    O1 7543   0.443   4.379  15.052  0.4107 -0.6726  0.0152
  507TMC3    O2 7544   0.399   4.291  14.523  0.1142 -0.4709  0.3398
  508MPD2     C 7545   1.467   1.914  15.462 -0.4276  0.3215  0.4013
  508MPD2    C1 7546   1.397   1.978  15.562  0.3502 -0.0182 -0.2462
  508MPD2    C2 7547   1.286   2.047  15.524 -0.1701 -0.2235  0.1040
  508MPD2    C3 7548   1.238   2.051  15.393 -0.0755  0.0186 -0.0788
  508MPD2    C4 7549   1.306   1.984  15.298  0.0469  0.9700  0.2507
  508MPD2    C5 7550   1.421   1.915  15.334 -0.5695  0.2406  0.4276
  508MPD2     H 7551   1.232   2.101  15.601  1.2144  1.7140 -0.2995
  508MPD2    H1 7552   1.280   1.964  15.195 -3.2374  0.8531  1.1057
  508MPD2    H2 7553   1.553   1.850  15.481  0.9145  1.6020 -1.3544
  508MPD2    H3 7554   1.472   1.848  15.266 -1.5233 -0.5533  0.4998
  508MPD2     N 7555   1.118   2.115  15.368 -0.0763 -0.0442  0.2226
  508MPD2    H5 7556   1.087   2.166  15.450 -1.0991 -0.4068  0.0662
  508MPD2    N1 7557   1.454   1.975  15.689  0.2091  0.4667 -0.0713
  508MPD2    H7 7558   1.549   1.938  15.695  1.3028  3.2528 -0.1057
  509TMC3    C1 7559   0.780   2.348  15.360 -0.0212 -0.2895 -0.3956
  509TMC3    C2 7560   0.729   2.375  15.236 -0.3501 -0.6425 -0.1642
  509TMC3    C3 7561   0.771   2.313  15.125  0.0796 -0.3753 -0.1679
  509TMC3    C4 7562   0.875   2.252  15.380 -0.3011  0.4687 -0.2663
  509TMC3    C5 7563   0.923   2.188  15.265 -0.2895 -0.2323  0.2133
  509TMC3    C6 7564   0.870   2.217  15.145 -0.6449  0.2074 -0.0417
  509TMC3     C 7565   0.784   2.458  15.450  0.0966 -0.1579  0.7700
  509TMC3     O 7566   0.840   2.432  15.559  0.1442 -0.9369  0.0840
  509TMC3     H 7567   0.658   2.454  15.215 -0.8723 -1.5848 -1.9347
  509TMC3    H1 7568   0.919   2.250  15.479 -0.5709 -0.4585 -0.1630
  509TMC3    H2 7569   0.897   2.172  15.050 -1.7483  3.2579 -1.8110
  509TMC3    C7 7570   1.043   2.112  15.256  0.2534 -0.0378 -0.4344
  509TMC3    C8 7571   0.796   2.414  15.028 -0.5429 -0.2977 -0.0629
  509TMC3    O1 7572   1.067   2.072  15.144  0.2134 -0.0041  0.4700
  509TMC3    O2 7573   0.722   2.420  14.928 -0.2800  0.2784 -0.5336
  510MPD2     C 7574   3.832   3.875  14.407 -0.3009 -0.4422  0.8835
  510MPD2    C1 7575   3.914   3.776  14.467  0.3154  0.5209 -0.1566
  510MPD2    C2 7576   4.038   3.748  14.409 -0.1013 -0.1902  0.1810
  510MPD2    C3 7577   4.084   3.814  14.295 -0.1663 -0.5387 -0.6352
  510MPD2    C4 7578   4.003   3.905  14.235  0.1831 -0.6275  0.4818
  510MPD2    C5 7579   3.877   3.929  14.293  0.5599 -0.0924 -0.0568
  510MPD2     H 7580   4.095   3.665  14.450 -0.0216 -1.1053 -1.7596
  510MPD2    H1 7581   4.030   3.963  14.147 -1.0745  0.1626  0.6092
  510MPD2    H2 7582   3.741   3.901  14.460 -0.4784  0.2704  0.2305
  510MPD2    H3 7583   3.812   4.004  14.250 -0.0968 -1.3406 -1.2602
  510MPD2     N 7584   4.208   3.773  14.241 -0.2671 -0.4634  0.4177
  510MPD2    H5 7585   4.259   3.707  14.299 -0.0180 -0.8366 -0.2318
  510MPD2    N1 7586   3.858   3.709  14.580 -0.2078 -0.2518  0.5579
  510MPD2    H7 7587   3.776   3.753  14.619 -0.5286  0.2773 -0.7250
  511TMC3    C1 7588   3.825   3.527  14.728 -1.2869 -0.0294 -0.6249
  511TMC3    C2 7589   3.715   3.589  14.793  0.7857  0.1016 -0.8349
  511TMC3    C3 7590   3.644   3.508  14.876 -0.4218 -0.3094  0.0010
  511TMC3    C4 7591   3.859   3.397  14.740 -0.4521 -0.1896  1.0368
  511TMC3    C5 7592   3.778   3.324  14.820  0.2525  0.6347  0.3685
  511TMC3    C6 7593   3.671   3.373  14.886  0.0818 -0.5050 -1.0030
  511TMC3     C 7594   3.919   3.601  14.644  0.2570  0.5688  0.1336
  511TMC3     O 7595   4.029   3.553  14.623  0.5343  0.7715 -0.5073
  511TMC3     H 7596   3.698   3.696  14.791  1.0306  0.1757  0.7073
  511TMC3    H1 7597   3.943   3.355  14.685 -0.8058 -0.1557  0.4687
  511TMC3    H2 7598   3.614   3.304  14.948 -1.9257  1.8961 -0.1383
  511TMC3    C7 7599   3.794   3.183  14.788  0.1472 -0.2027  0.0122
  511TMC3    C8 7600   3.548   3.573  14.960  0.0409 -0.4572 -0.3268
  511TMC3    O1 7601   3.901   3.149  14.732 -0.3663 -0.3916 -0.6153
  511TMC3    O2 7602   3.524   3.690  14.936 -0.2929  0.7022  0.2656
  512TMC3    C1 7603   2.880   3.212  12.996 -0.2940  0.1866 -0.2368
  512TMC3    C2 7604   2.932   3.148  13.102 -0.2821 -0.2000 -0.0546
  512TMC3    C3 7605   2.935   3.011  13.116 -0.2668 -0.0904  0.4749
  512TMC3    C4 7606   2.799   3.139  12.920  0.2457 -0.0181  0.4509
  512TMC3    C5 7607   2.795   3.001  12.930  0.1813  0.8359  0.1781
  512TMC3    C6 7608   2.871   2.933  13.025  0.4370  0.1955  0.1468
  512TMC3     C 7609   2.860   3.356  13.008 -0.6015  0.2443  0.0965
  512TMC3     O 7610   2.849   3.397  13.125  0.5147 -0.7394  0.4980
  512TMC3     H 7611   2.986   3.217  13.167 -0.4046 -0.0734 -0.0866
  512TMC3    H1 7612   2.735   3.182  12.844  0.1727 -1.9786 -0.5777
  512TMC3    H2 7613   2.855   2.829  13.049  1.0333 -0.5180 -2.4906
  512TMC3    C7 7614   2.669   2.935  12.887 -0.3919 -0.5213  0.1273
  512TMC3    C8 7615   2.985   2.940  13.238  0.2998 -0.3731  0.1123
  512TMC3    O1 7616   2.577   3.011  12.862 -0.3067 -0.2626  0.4630
  512TMC3    O2 7617   2.967   2.819  13.237 -0.0624 -0.7652  0.5334
  513MPD2     C 7618   4.045   3.137  12.979  0.4785  0.4584  0.3686
  513MPD2    C1 7619   4.145   3.098  12.894  0.2960  0.3972  0.5860
  513MPD2    C2 7620   4.269   3.119  12.929  0.5816  0.3670  0.1418
  513MPD2    C3 7621   4.308   3.183  13.052  0.5173 -0.0687 -0.2449
  513MPD2    C4 7622   4.213   3.215  13.145 -0.1601  0.4937 -0.0012
  513MPD2    C5 7623   4.079   3.193  13.102 -0.1200 -0.1346 -0.4030
  513MPD2     H 7624   4.339   3.101  12.847 -1.6310 -1.6574 -1.2944
  513MPD2    H1 7625   4.235   3.272  13.234  2.6757  0.1571 -0.4867
  513MPD2    H2 7626   3.943   3.134  12.941  0.0732 -2.3917  1.6752
  513MPD2    H3 7627   3.995   3.221  13.164  0.3606 -0.1748  0.2648
  513MPD2     N 7628   4.445   3.214  13.065  0.2640  0.1733  0.1910
  513MPD2    H5 7629   4.503   3.213  12.982  1.3654 -0.4202  0.9592
  513MPD2    N1 7630   4.127   3.042  12.764 -0.0839 -0.0327  0.0536
  513MPD2    H7 7631   4.216   3.016  12.724 -0.7868  0.1695 -1.6295
  514TMC3    C1 7632   4.042   3.036  12.549 -0.0885  0.2111  0.2255
  514TMC3    C2 7633   4.025   3.148  12.471  0.1327  0.9824  0.2629
  514TMC3    C3 7634   4.114   3.184  12.372 -0.5366 -0.5133  0.6957
  514TMC3    C4 7635   4.156   2.963  12.528 -0.0736  0.2447  0.1935
  514TMC3    C5 7636   4.247   2.999  12.436  0.4134 -0.4342  0.9198
  514TMC3    C6 7637   4.224   3.107  12.353  0.0320  0.2589  0.0955
  514TMC3     C 7638   4.007   3.041  12.689 -0.1519  0.1636  0.5099
  514TMC3     O 7639   3.896   3.079  12.716 -0.0735  0.1058 -0.1458
  514TMC3     H 7640   3.962   3.221  12.519 -0.3081  1.0852 -0.4762
  514TMC3    H1 7641   4.171   2.881  12.598 -0.2246  0.3013  0.2914
  514TMC3    H2 7642   4.312   3.142  12.300 -0.3363  0.2482 -0.5243
  514TMC3    C7 7643   4.381   2.997  12.492 -0.1029 -0.4887 -0.3026
  514TMC3    C8 7644   4.109   3.327  12.337  0.6650 -0.0868  0.0988
  514TMC3    O1 7645   4.386   2.983  12.612 -0.2764 -0.0786 -0.2495
  514TMC3    O2 7646   4.025   3.390  12.400  0.2332 -1.0251 -0.2408
  515MPD2     C 7647   2.730   0.156  15.379  0.3618 -0.4200  0.6753
  515MPD2    C1 7648   2.724   0.174  15.240  0.2688  0.5228  0.1334
  515MPD2    C2 7649   2.801   0.271  15.172 -0.1301 -0.2751 -0.5727
  515MPD2    C3 7650   2.885   0.352  15.256  0.8408  0.5510  0.4222
  515MPD2    C4 7651   2.876   0.341  15.395  0.5303  0.5417 -0.4777
  515MPD2    C5 7652   2.800   0.248  15.458  0.4033 -0.0510 -0.1343
  515MPD2     H 7653   2.802   0.275  15.064  2.1943  1.2304 -0.5065
  515MPD2    H1 7654   2.934   0.409  15.457 -0.4290 -0.3705  1.4410
  515MPD2    H2 7655   2.659   0.099  15.438  0.3196 -0.6231  0.4309
  515MPD2    H3 7656   2.791   0.255  15.566  0.1859  2.2695 -0.3037
  515MPD2     N 7657   2.975   0.444  15.202  0.0801  0.0553  0.0471
  515MPD2    H5 7658   3.025   0.506  15.266 -0.7655  0.0572  0.6954
  515MPD2    N1 7659   2.646   0.087  15.158  0.1728  0.3383  0.2425
  515MPD2    H7 7660   2.649   0.096  15.057 -0.8401  0.8140  0.2568
  516TMC3    C1 7661   2.516   4.621  15.099 -0.4968  0.1877 -0.4496
  516TMC3    C2 7662   2.455   4.678  14.993 -0.3698 -0.6921  0.3823
  516TMC3    C3 7663   2.365   4.608  14.914 -0.0508 -0.5632  0.1440
  516TMC3    C4 7664   2.492   4.488  15.127 -0.5653  0.2541  0.0348
  516TMC3    C5 7665   2.408   4.415  15.046  0.5348  0.1857 -0.1019
  516TMC3    C6 7666   2.335   4.475  14.942  0.3823  0.1428  0.0930
  516TMC3     C 7667   2.577   4.700  15.205  0.2337  0.3032  1.1703
  516TMC3     O 7668   2.577   4.655  15.317  0.2125  0.1187 -0.1853
  516TMC3     H 7669   2.469   0.064  14.980 -0.2947 -0.9614 -1.6643
  516TMC3    H1 7670   2.531   4.448  15.220 -1.8142  2.2230  1.3912
  516TMC3    H2 7671   2.267   4.419  14.879  2.1679 -2.8854  0.8710
  516TMC3    C7 7672   2.364   4.292  15.107 -0.4361  0.4977 -0.9372
  516TMC3    C8 7673   2.334   4.638  14.779  0.1947  0.5385  0.1465
  516TMC3    O1 7674   2.446   4.222  15.161 -0.4351  0.6787  0.2645
  516TMC3    O2 7675   2.234   4.585  14.732  0.4970  0.1607 -0.2416
  517MPD2     C 7676   3.023   1.769   0.225  0.3995  0.6631  0.1395
  517MPD2    C1 7677   3.162   1.755   0.226 -0.8011  0.2973 -0.0950
  517MPD2    C2 7678   3.239   1.853   0.282 -0.3083  0.1300  0.0072
  517MPD2    C3 7679   3.184   1.967   0.337 -0.2956 -0.0082  0.9086
  517MPD2    C4 7680   3.043   1.971   0.341 -0.2088 -1.3382  0.4767
  517MPD2    C5 7681   2.966   1.881   0.280 -0.3257 -0.6340  0.0886
  517MPD2     H 7682   3.341   1.824   0.305 -0.4421 -0.8268 -0.6315
  517MPD2    H1 7683   2.982   2.050   0.384 -0.0737  0.6766 -3.0747
  517MPD2    H2 7684   2.955   1.694   0.187  0.1725  2.0852 -2.2336
  517MPD2    H3 7685   2.859   1.885   0.298  0.4552  0.7307  4.3533
  517MPD2     N 7686   3.263   2.069   0.400  0.0296  0.6754 -0.0105
  517MPD2    H5 7687   3.213   2.154   0.425 -1.9432 -0.1200 -1.2359
  517MPD2    N1 7688   3.227   1.638   0.182 -0.1311 -0.2226 -0.0462
  517MPD2    H7 7689   3.324   1.626   0.210 -0.0258  0.6912 -0.0245
  518TMC3    C1 7690   3.243   1.426   0.089  0.6087 -0.0178  0.2619
  518TMC3    C2 7691   3.168   1.317   0.039 -0.0363  0.5324  0.2841
  518TMC3    C3 7692   3.230   1.244  17.633  0.0949 -0.1933 -0.2629
  518TMC3    C4 7693   3.377   1.444   0.052  0.1214  0.2782  0.4969
  518TMC3    C5 7694   3.433   1.359  17.644 -0.1437  1.1820  0.5425
  518TMC3    C6 7695   3.361   1.256  17.587  0.4551  0.6481  0.0387
  518TMC3     C 7696   3.160   1.539   0.118  0.2978 -0.9224 -0.5451
  518TMC3     O 7697   3.046   1.532   0.076 -0.3793  0.6104 -0.0914
  518TMC3     H 7698   3.065   1.312   0.071  0.5785 -1.7160  1.9009
  518TMC3    H1 7699   3.431   1.532   0.086  0.5552  1.2554 -2.7607
  518TMC3    H2 7700   3.400   1.172  17.530 -2.1773 -1.8249  1.8947
  518TMC3    C7 7701   3.576   1.339  17.681  0.2361  0.3873  0.3728
  518TMC3    C8 7702   3.170   1.115  17.613 -0.8077  0.1735  0.5454
  518TMC3    O1 7703   3.624   1.385   0.100  0.2402 -0.1548 -0.0657
  518TMC3    O2 7704   3.229   1.037  17.537  0.5518 -0.4380 -0.0759
  519MPD2     C 7705   3.849   0.265  14.232  0.6117 -0.9336 -0.0116
  519MPD2    C1 7706   3.837   0.194  14.113 -0.4769 -0.6965 -1.0478
  519MPD2    C2 7707   3.885   0.065  14.101 -0.3450  0.0249 -0.4108
  519MPD2    C3 7708   3.943   0.002  14.209  0.5211  0.2772 -0.5259
  519MPD2    C4 7709   3.952   0.076  14.332  0.1026 -0.3211 -0.3123
  519MPD2    C5 7710   3.911   0.204  14.339  0.3143 -0.4596 -1.1078
  519MPD2     H 7711   3.876   0.010  14.008 -2.0217  1.5418 -1.1388
  519MPD2    H1 7712   4.007   0.051  14.422 -2.0331 -0.7789  0.8825
  519MPD2    H2 7713   3.800   0.357  14.261  0.8929 -0.4732 -0.9851
  519MPD2    H3 7714   3.925   0.259  14.431 -2.6766 -0.4199 -0.6816
  519MPD2     N 7715   3.967   4.584  14.201 -0.2295  0.0165 -0.3450
  519MPD2    H5 7716   3.947   4.535  14.114  0.3837 -3.1780  1.3452
  519MPD2    N1 7717   3.754   0.252  14.010 -0.2318  0.0413  0.1428
  519MPD2    H7 7718   3.687   0.319  14.046 -0.9236 -0.6748  0.1920
  520TMC3    C1 7719   4.050   4.374  14.242 -0.1929  0.0550  0.4275
  520TMC3    C2 7720   3.957   4.331  14.148  0.1278  0.3633 -0.0281
  520TMC3    C3 7721   3.996   4.236  14.059  0.2956  0.4104  0.7163
  520TMC3    C4 7722   4.184   4.331  14.238  0.1078  0.4785 -0.2603
  520TMC3    C5 7723   4.218   4.240  14.145  0.4786 -0.9394 -0.0386
  520TMC3    C6 7724   4.130   4.196  14.052  0.4167 -0.3930 -0.6182
  520TMC3     C 7725   4.028   4.509  14.299  0.4046 -0.2156 -0.1511
  520TMC3     O 7726   4.095   4.561  14.383  0.0268  0.3140 -0.6252
  520TMC3     H 7727   3.855   4.367  14.152  0.8830  2.2758  2.3767
  520TMC3    H1 7728   4.249   4.371  14.315 -0.7857  0.3446  0.5641
  520TMC3    H2 7729   4.159   4.109  13.994 -0.2225 -0.2611 -1.1323
  520TMC3    C7 7730   4.362   4.196  14.141  0.1231 -0.2665  0.3964
  520TMC3    C8 7731   3.898   4.171  13.968 -0.3625 -0.5873  1.2240
  520TMC3    O1 7732   4.419   4.200  14.250  0.4036  0.4000  0.2987
  520TMC3    O2 7733   3.936   4.098  13.875 -0.0502 -0.2122  0.1935
  521MPD2     C 7734   0.415   2.894  17.189  0.0484 -0.5013  0.0658
  521MPD2    C1 7735   0.370   2.778  17.144 -0.9335 -0.2336 -0.0146
  521MPD2    C2 7736   0.446   2.700  17.059  0.4640 -0.2829  0.2596
  521MPD2    C3 7737   0.579   2.733  17.036 -0.9825  0.1304 -0.5282
  521MPD2    C4 7738   0.623   2.859  17.084 -0.0955  0.0148 -1.0268
  521MPD2    C5 7739   0.530   2.945  17.146  0.9397  1.2378  0.4936
  521MPD2     H 7740   0.416   2.608  17.010  0.5661 -1.0083  1.5805
  521MPD2    H1 7741   0.726   2.891  17.073 -0.0292  0.5524  1.0801
  521MPD2    H2 7742   0.352   2.954  17.255 -2.9925 -0.3983 -2.9207
  521MPD2    H3 7743   0.572   3.035  17.191  0.6318  2.2382 -1.2416
  521MPD2     N 7744   0.657   2.650  16.951  0.2556 -0.2659 -0.0939
  521MPD2    H5 7745   0.607   2.576  16.903 -2.6736  0.0106  2.5050
  521MPD2    N1 7746   0.228   2.751  17.169 -0.1299  0.0406  0.2608
  521MPD2    H7 7747   0.179   2.813  17.232 -1.0414  0.4018 -0.7929
  522TMC3    C1 7748   0.853   2.612  16.810 -0.7968 -0.0605  0.0698
  522TMC3    C2 7749   0.984   2.598  16.809  0.3510  0.7081 -0.5059
  522TMC3    C3 7750   1.047   2.530  16.706  0.3191  0.2839 -0.2873
  522TMC3    C4 7751   0.774   2.565  16.707  0.0027  0.2226  0.1567
  522TMC3    C5 7752   0.834   2.507  16.599 -0.1242  0.1263  0.0523
  522TMC3    C6 7753   0.973   2.491  16.599  0.2698 -0.2571  0.5992
  522TMC3     C 7754   0.790   2.677  16.924 -0.0580  0.5521 -0.3388
  522TMC3     O 7755   0.869   2.755  16.984 -0.7369  0.2360  0.1473
  522TMC3     H 7756   1.040   2.633  16.896  0.5257  1.3460 -0.8802
  522TMC3    H1 7757   0.669   2.592  16.710 -0.6518 -1.8059 -3.6175
  522TMC3    H2 7758   1.015   2.437  16.515 -0.1324  0.7559 -0.2587
  522TMC3    C7 7759   0.765   2.412  16.515 -0.0098  0.6004  0.2842
  522TMC3    C8 7760   1.182   2.497  16.730 -0.7583  0.0264 -0.0587
  522TMC3    O1 7761   0.831   2.349  16.429 -0.0131  0.0298  0.4435
  522TMC3    O2 7762   1.244   2.550  16.821  1.0583 -0.3558 -0.4177
  523MPD2     C 7763   3.150   1.910   9.947 -0.3020 -0.0579  0.1185
  523MPD2    C1 7764   3.112   1.839   9.833  0.3273 -0.2527  0.6272
  523MPD2    C2 7765   3.028   1.899   9.750 -0.6514  0.1960 -0.8738
  523MPD2    C3 7766   2.968   2.026   9.774 -0.2638 -0.1279 -0.5155
  523MPD2    C4 7767   3.006   2.086   9.887 -0.8453 -0.1483 -0.0738
  523MPD2    C5 7768   3.098   2.032   9.970  0.5540 -0.5427 -0.8159
  523MPD2     H 7769   2.995   1.844   9.662 -2.1850 -0.8183  0.3380
  523MPD2    H1 7770   2.979   2.184   9.926 -0.8150 -0.4385  0.6694
  523MPD2    H2 7771   3.220   1.866  10.017 -0.7985  1.5937  1.6463
  523MPD2    H3 7772   3.139   2.096  10.048 -0.5617 -2.4624  1.3698
  523MPD2     N 7773   2.893   2.098   9.673  0.5474  0.1766  0.1719
  523MPD2    H5 7774   2.882   2.196   9.697  2.0993  0.6196 -0.9513
  523MPD2    N1 7775   3.170   1.711   9.820 -0.4064  0.1061 -0.1757
  523MPD2    H7 7776   3.238   1.686   9.892  1.6414  3.4785 -0.9626
  524TMC3    C1 7777   2.770   2.153   9.479 -0.0594 -0.1402  0.6449
  524TMC3    C2 7778   2.734   2.137   9.350  0.3542  0.0304 -0.7291
  524TMC3    C3 7779   2.667   2.236   9.291  0.0964 -0.3183 -0.1402
  524TMC3    C4 7780   2.703   2.243   9.560 -0.1258 -0.1379  0.4333
  524TMC3    C5 7781   2.624   2.333   9.502  0.0394  0.1064 -0.3749
  524TMC3    C6 7782   2.601   2.334   9.367 -0.3306 -0.0626 -0.3565
  524TMC3     C 7783   2.860   2.064   9.542  0.6725 -0.1997 -0.0560
  524TMC3     O 7784   2.901   1.965   9.480  0.0631  0.4284 -0.2547
  524TMC3     H 7785   2.806   2.083   9.290 -1.4328 -1.5218 -1.4795
  524TMC3    H1 7786   2.715   2.250   9.668  1.0557  3.6340  0.0522
  524TMC3    H2 7787   2.543   2.413   9.323  0.3730  0.7290  0.1306
  524TMC3    C7 7788   2.545   2.418   9.585 -0.0773 -0.1358 -0.4092
  524TMC3    C8 7789   2.665   2.229   9.143 -0.2688 -1.4463  0.5143
  524TMC3    O1 7790   2.521   2.376   9.696  0.4470 -0.1270  0.1729
  524TMC3    O2 7791   2.752   2.168   9.085  0.2183 -0.1444 -0.2340
  525MPD2     C 7792   0.655   3.932  14.317 -0.8158  0.5863  0.1436
  525MPD2    C1 7793   0.785   3.927  14.367  0.0544  1.0434 -0.2375
  525MPD2    C2 7794   0.877   4.019  14.307 -0.3066 -0.6912 -0.1954
  525MPD2    C3 7795   0.844   4.117  14.215 -0.3667  0.4471 -0.4837
  525MPD2    C4 7796   0.721   4.108  14.155 -0.3273  0.3385 -0.0365
  525MPD2    C5 7797   0.635   4.006  14.197  0.4897 -0.0261 -0.6783
  525MPD2     H 7798   0.974   4.027  14.354 -0.8843 -1.2790  1.0943
  525MPD2    H1 7799   0.689   4.170  14.072 -1.1493  0.2162  0.1898
  525MPD2    H2 7800   0.576   3.863  14.343  1.8293 -2.2364  0.5528
  525MPD2    H3 7801   0.533   4.008  14.160 -0.7908  1.9544  2.9610
  525MPD2     N 7802   0.922   4.226  14.166  0.2127  0.5504 -0.0579
  525MPD2    H5 7803   0.882   4.281  14.091 -0.2946 -3.2098 -2.5067
  525MPD2    N1 7804   0.828   3.842  14.473 -0.2291  0.0571 -0.2669
  525MPD2    H7 7805   0.927   3.847  14.491 -0.3913  3.2691 -0.2937
  526TMC3    C1 7806   0.800   3.705  14.670  0.0868 -0.5103  0.2715
  526TMC3    C2 7807   0.729   3.695  14.786  1.1300  0.0696 -0.0528
  526TMC3    C3 7808   0.813   3.671  14.895 -0.1655 -0.3381 -0.3360
  526TMC3    C4 7809   0.933   3.669  14.657  0.6029 -0.0594  0.0371
  526TMC3    C5 7810   1.005   3.669  14.771 -0.0984  0.0902 -0.9187
  526TMC3    C6 7811   0.949   3.673  14.893  0.0110 -0.0404  0.1955
  526TMC3     C 7812   0.737   3.767  14.548 -0.0485  0.6382  0.2070
  526TMC3     O 7813   0.614   3.777  14.559 -0.5338  0.1392 -0.6574
  526TMC3     H 7814   0.621   3.698  14.781  1.1101 -0.5479 -0.0105
  526TMC3    H1 7815   0.987   3.670  14.562 -0.2004 -1.0339 -0.4256
  526TMC3    H2 7816   1.004   3.654  14.984 -2.5060 -0.8960  1.5336
  526TMC3    C7 7817   1.154   3.673  14.776  0.0011 -0.0722  0.4683
  526TMC3    C8 7818   0.751   3.697  15.022 -0.0083  0.6991 -1.2626
  526TMC3    O1 7819   1.201   3.743  14.863  0.3466  0.2576  0.5021
  526TMC3    O2 7820   0.828   3.718  15.112  0.1008  0.3091  0.2898
  527MPD2     C 7821   4.098   2.252   1.534  0.3369  0.2083  0.5066
  527MPD2    C1 7822   4.111   2.241   1.398  0.8740  0.5473  0.5167
  527MPD2    C2 7823   4.225   2.183   1.344 -0.3226  0.3989  0.1702
  527MPD2    C3 7824   4.315   2.120   1.429 -0.0832 -1.0357  0.3737
  527MPD2    C4 7825   4.291   2.121   1.561 -0.2141  0.4731 -0.4438
  527MPD2    C5 7826   4.186   2.186   1.612 -0.7337  0.4802 -1.3047
  527MPD2     H 7827   4.250   2.176   1.239 -0.7403  0.9261  0.0384
  527MPD2    H1 7828   4.359   2.090   1.640  0.8382  3.3134 -0.2154
  527MPD2    H2 7829   4.013   2.300   1.582  1.3729  1.8396  0.7171
  527MPD2    H3 7830   4.184   2.200   1.719 -1.0424  0.6695 -1.3330
  527MPD2     N 7831   4.420   2.049   1.373  0.6204 -0.3658  0.1011
  527MPD2    H5 7832   4.425   2.059   1.272 -1.8328  1.0557  0.1120
  527MPD2    N1 7833   4.003   2.285   1.316 -1.0717  0.5377  0.1486
  527MPD2    H7 7834   3.919   2.316   1.364 -0.2932  0.3185  1.6453
  528TMC3    C1 7835   3.871   2.327   1.138  0.2423  0.3611  0.1791
  528TMC3    C2 7836   3.850   2.464   1.157  0.5773 -0.2960 -0.0356
  528TMC3    C3 7837   3.742   2.524   1.093 -1.1516  0.1396  0.2779
  528TMC3    C4 7838   3.790   2.252   1.062 -1.1208 -1.4136 -0.3581
  528TMC3    C5 7839   3.676   2.312   1.012 -0.2719 -0.4335  0.9195
  528TMC3    C6 7840   3.653   2.445   1.027  0.2348  0.0183 -0.1263
  528TMC3     C 7841   4.000   2.280   1.182 -0.2594 -0.1307  0.0646
  528TMC3     O 7842   4.082   2.236   1.103  0.8136 -0.3137 -0.0234
  528TMC3     H 7843   3.928   2.522   1.205 -1.1294  0.4891  1.7867
  528TMC3    H1 7844   3.799   2.145   1.047  1.1480 -1.4624  1.5280
  528TMC3    H2 7845   3.567   2.483   0.973 -0.6680  1.9048  2.6899
  528TMC3    C7 7846   3.577   2.234   0.937  0.2792  0.3389  0.2204
  528TMC3    C8 7847   3.690   2.646   1.163 -0.5174  0.1357 -0.5203
  528TMC3    O1 7848   3.464   2.276   0.946  0.5045 -0.1387 -0.1053
  528TMC3    O2 7849   3.776   2.730   1.204 -0.1449 -0.1687  0.2916
  529MPD2     C 7850   2.571   1.010   0.492  0.5537  0.2813 -0.1160
  529MPD2    C1 7851   2.490   0.902   0.464 -0.2568  0.7268  0.9591
  529MPD2    C2 7852   2.426   0.902   0.345  0.5306 -0.4037  0.2597
  529MPD2    C3 7853   2.458   0.994   0.240 -0.1163 -0.6640  0.6113
  529MPD2    C4 7854   2.548   1.097   0.267  0.6546 -0.1689  0.4508
  529MPD2    C5 7855   2.607   1.097   0.394  0.2907 -0.1373  0.4735
  529MPD2     H 7856   2.352   0.826   0.324  3.0915 -3.2259  1.4275
  529MPD2    H1 7857   2.582   1.161   0.186  2.4015 -1.4824  0.1398
  529MPD2    H2 7858   2.626   1.010   0.585 -1.5525  2.6134  1.1259
  529MPD2    H3 7859   2.681   1.173   0.414  1.1136 -0.4875 -1.2438
  529MPD2     N 7860   2.406   0.969   0.112  0.9975  0.3714 -0.5927
  529MPD2    H5 7861   2.454   1.017   0.036  1.4298  0.3724 -0.3199
  529MPD2    N1 7862   2.466   0.791   0.551  0.3711  0.3740  0.3744
  529MPD2    H7 7863   2.403   0.720   0.516  0.9797  0.2279 -0.4296
  530TMC3    C1 7864   2.426   0.673   0.748 -0.2928  0.5362 -0.4564
  530TMC3    C2 7865   2.444   0.654   0.883  0.2984 -0.2588 -0.8530
  530TMC3    C3 7866   2.386   0.540   0.934 -0.8035 -0.2393  0.1603
  530TMC3    C4 7867   2.326   0.612   0.681 -0.1274 -0.8785  0.0747
  530TMC3    C5 7868   2.259   0.507   0.743 -0.2212  0.5109 -0.2053
  530TMC3    C6 7869   2.300   0.464   0.863  0.5570 -0.9417 -0.1075
  530TMC3     C 7870   2.509   0.773   0.682 -0.6823 -0.7296 -0.8953
  530TMC3     O 7871   2.590   0.839   0.757 -0.1212 -0.0553  0.4468
  530TMC3     H 7872   2.515   0.710   0.944 -0.6006 -1.0826  0.9409
  530TMC3    H1 7873   2.281   0.652   0.591 -0.1966 -0.9150  0.0926
  530TMC3    H2 7874   2.249   0.381   0.912  0.7744 -0.8192  0.3276
  530TMC3    C7 7875   2.158   0.436   0.667  0.5228 -0.0074 -0.0211
  530TMC3    C8 7876   2.408   0.510   1.074 -0.0486  0.1242  0.0214
  530TMC3    O1 7877   2.159   0.444   0.543  0.1549  0.5115 -0.3956
  530TMC3    O2 7878   2.470   0.590   1.144 -0.0820  0.2214 -0.6476
  531MPD2     C 7879   0.148   3.108  12.516 -0.2152 -0.0777  0.6723
  531MPD2    C1 7880   0.040   3.143  12.593  0.2348 -0.5179  0.3198
  531MPD2    C2 7881   4.630   3.114  12.553 -0.5333 -0.3846  0.4431
  531MPD2    C3 7882   4.611   3.036  12.444 -0.1969  0.4522 -0.4044
  531MPD2    C4 7883   0.002   3.004  12.366 -0.8114  0.0148 -0.3537
  531MPD2    C5 7884   0.131   3.039  12.400 -0.0015  0.1950 -0.0315
  531MPD2     H 7885   4.549   3.151  12.614 -1.2610 -0.7261 -0.3126
  531MPD2    H1 7886   4.708   2.941  12.279 -0.8588 -1.3643  0.6486
  531MPD2    H2 7887   0.248   3.127  12.553 -0.2893  1.1037  0.2397
  531MPD2    H3 7888   0.212   3.014  12.332 -0.9401  0.7179 -1.3370
  531MPD2     N 7889   4.482   2.991  12.404 -0.3238  0.0025 -0.2867
  531MPD2    H5 7890   4.473   2.983  12.303  1.3633  2.5529 -0.6335
  531MPD2    N1 7891   0.068   3.215  12.710 -1.3191  0.3080  0.0064
  531MPD2    H7 7892   0.157   3.264  12.717 -1.6837  1.1757 -1.3989
  532TMC3    C1 7893   0.029   3.316  12.918  0.0712  0.3517 -0.6611
  532TMC3    C2 7894   4.638   3.356  12.986  0.7656  0.7616 -0.1626
  532TMC3    C3 7895   4.631   3.341  13.121 -0.2567  0.1279 -0.1603
  532TMC3    C4 7896   0.138   3.260  12.988  0.5202  0.5979  0.0457
  532TMC3    C5 7897   0.124   3.257  13.132 -0.1367  0.3452 -0.1622
  532TMC3    C6 7898   0.015   3.300  13.198 -0.7844 -0.9773 -0.4749
  532TMC3     C 7899   4.700   3.225  12.815  0.4053  0.1422 -0.5534
  532TMC3     O 7900   4.599   3.158  12.840  0.8480 -0.0256  0.0767
  532TMC3     H 7901   4.570   3.413  12.925 -2.7881 -0.6423  2.5101
  532TMC3    H1 7902   0.219   3.209  12.937  0.3358  2.6325 -2.2728
  532TMC3    H2 7903   0.011   3.286  13.305 -1.7543  2.0889 -0.1209
  532TMC3    C7 7904   0.232   3.239  13.218 -0.1040  1.0179 -0.3155
  532TMC3    C8 7905   4.505   3.287  13.163  0.0878  0.7297  0.4497
  532TMC3    O1 7906   0.225   3.298  13.321  0.0559 -0.8186  0.6215
  532TMC3    O2 7907   4.477   3.292  13.284 -0.3806  0.1047 -0.0473
  533TMC3    C1 7908   1.073   4.400  14.183 -0.2924 -0.5395 -0.0654
  533TMC3    C2 7909   1.204   4.432  14.207  0.1826 -0.2023 -0.2879
  533TMC3    C3 7910   1.233   4.566  14.230  0.3466 -0.2438  0.4243
  533TMC3    C4 7911   0.977   4.496  14.206 -0.1164  0.0277  0.4769
  533TMC3    C5 7912   1.012   4.619  14.246  0.1023 -0.8349  0.0574
  533TMC3    C6 7913   1.142   4.661  14.238  0.0735  0.3483 -0.4762
  533TMC3     C 7914   1.043   4.266  14.214 -0.5580  0.0796  0.0025
  533TMC3     O 7915   1.131   4.207  14.270 -0.0010  0.1166  0.5642
  533TMC3     H 7916   1.281   4.357  14.189 -1.0893 -1.7626  0.7680
  533TMC3    H1 7917   0.874   4.461  14.209 -0.4913  0.9192 -2.2323
  533TMC3    H2 7918   1.171   0.043  14.254 -0.1954  0.2138  0.8900
  533TMC3    C7 7919   0.982   4.631  14.390  0.1972  0.3083  0.3229
  533TMC3    C8 7920   1.367   4.605  14.260  0.5138 -0.5361  0.0591
  533TMC3    O1 7921   0.885   4.566  14.420 -0.0600 -0.2494  0.8173
  533TMC3    O2 7922   1.424   4.545  14.348  0.0150  1.0167  0.0889
  534MPD2     C 7923   4.507   0.301   1.907 -0.2831  0.2331 -0.0278
  534MPD2    C1 7924   4.485   0.367   1.785  0.1518 -0.5314 -0.3941
  534MPD2    C2 7925   4.384   0.325   1.707  0.2383 -0.4710  0.2693
  534MPD2    C3 7926   4.294   0.221   1.758  0.4054  0.0383 -0.2284
  534MPD2    C4 7927   4.308   0.174   1.886  0.3814  0.5284  0.2464
  534MPD2    C5 7928   4.417   0.215   1.956 -0.4524 -0.6281  0.9141
  534MPD2     H 7929   4.365   0.381   1.616  1.8698  0.0822  0.2609
  534MPD2    H1 7930   4.243   0.096   1.924  0.5230  1.1834  1.8345
  534MPD2    H2 7931   4.588   0.319   1.976 -1.3151 -0.2059  1.2884
  534MPD2    H3 7932   4.434   0.178   2.057  1.0534  1.3704  1.3834
  534MPD2     N 7933   4.188   0.172   1.685  0.1490 -0.2214  0.0351
  534MPD2    H5 7934   4.119   0.119   1.738 -0.1993  0.1673 -0.0276
  534MPD2    N1 7935   4.568   0.470   1.738  0.3165 -0.3706 -0.0694
  534MPD2    H7 7936   4.545   0.505   1.645  0.0314 -1.3050 -0.3507
  535TMC3    C1 7937   4.046   0.146   1.486 -0.3874 -0.0141 -0.4403
  535TMC3    C2 7938   3.937   0.135   1.563  0.1313  0.8585 -0.3226
  535TMC3    C3 7939   3.818   0.170   1.502  0.0255 -0.6180 -0.4490
  535TMC3    C4 7940   4.036   0.174   1.350 -0.4694 -0.3025  0.3895
  535TMC3    C5 7941   3.918   0.203   1.302  0.0735 -0.5932  0.0804
  535TMC3    C6 7942   3.809   0.228   1.378 -0.1254  0.6282 -0.1655
  535TMC3     C 7943   4.169   0.178   1.550  0.4316 -0.9882 -0.1928
  535TMC3     O 7944   4.248   0.226   1.474  0.4327 -0.2292  0.0356
  535TMC3     H 7945   3.939   0.111   1.669  1.1637  1.0477 -0.3021
  535TMC3    H1 7946   4.125   0.172   1.287 -2.2427 -1.3126 -2.0647
  535TMC3    H2 7947   3.710   0.237   1.335 -1.0858 -0.4905  1.8180
  535TMC3    C7 7948   3.908   0.247   1.172  0.4600 -1.4209  0.1877
  535TMC3    C8 7949   3.696   0.193   1.573 -0.0535  0.2904 -0.5886
  535TMC3    O1 7950   3.957   0.180   1.082 -0.0073 -0.0637  0.3886
  535TMC3    O2 7951   3.607   0.258   1.528  0.2354  0.4574  0.1470
  536MPD2     C 7952   2.933   3.591  16.576  0.8351 -1.1140 -0.4897
  536MPD2    C1 7953   2.836   3.516  16.635 -0.5390 -0.1921  0.2084
  536MPD2    C2 7954   2.741   3.452  16.559 -0.9485  0.1265  0.0701
  536MPD2    C3 7955   2.735   3.466  16.419  0.1776 -0.0704 -0.0688
  536MPD2    C4 7956   2.838   3.538  16.362  0.0898 -0.1027  0.6749
  536MPD2    C5 7957   2.932   3.606  16.441 -0.1016  0.1984  0.2697
  536MPD2     H 7958   2.665   3.390  16.606 -0.9134 -1.4120 -1.8970
  536MPD2    H1 7959   2.846   3.550  16.255 -1.2280 -0.7207  0.5075
  536MPD2    H2 7960   2.996   3.650  16.642  1.1805 -1.5522 -0.4268
  536MPD2    H3 7961   3.014   3.665  16.400  0.0338 -0.7939 -0.8930
  536MPD2     N 7962   2.620   3.435  16.336 -0.2917 -0.1352  0.5880
  536MPD2    H5 7963   2.611   3.478  16.245 -0.8566 -0.8679  0.2940
  536MPD2    N1 7964   2.849   3.485  16.774 -0.6145  0.3016  0.4196
  536MPD2    H7 7965   2.904   3.546  16.833 -0.8818 -1.3607  2.4055
  537TMC3    C1 7966   2.791   3.410  16.990 -0.7428  0.0400 -1.0274
  537TMC3    C2 7967   2.806   3.542  17.040 -0.2871 -0.4331  0.3179
  537TMC3    C3 7968   2.820   3.553  17.175 -0.0788 -0.2480  0.5833
  537TMC3    C4 7969   2.803   3.295  17.068 -0.1469 -0.1505 -0.2856
  537TMC3    C5 7970   2.819   3.323  17.204 -0.2375 -0.2759 -0.3362
  537TMC3    C6 7971   2.810   3.451  17.258  0.0483 -0.4481 -0.8581
  537TMC3     C 7972   2.784   3.387  16.849  0.3115  0.2134 -0.2698
  537TMC3     O 7973   2.750   3.275  16.813  0.0352  0.1521 -0.2981
  537TMC3     H 7974   2.792   3.626  16.974 -0.6842  0.3697  1.4313
  537TMC3    H1 7975   2.793   3.195  17.026  0.2339 -0.8680  1.3365
  537TMC3    H2 7976   2.825   3.467  17.365  0.0848  1.0659 -1.0956
  537TMC3    C7 7977   2.832   3.216  17.295 -0.0572 -0.1505  1.0884
  537TMC3    C8 7978   2.851   3.681  17.236 -0.4892 -0.9030  0.0704
  537TMC3    O1 7979   2.914   3.238  17.387 -0.3058  0.3184 -0.0713
  537TMC3    O2 7980   2.842   3.692  17.360  0.5733  0.2494  0.3333
  538TMC3    C1 7981   3.380   2.856  10.628  0.1678 -0.4897  0.9539
  538TMC3    C2 7982   3.447   2.788  10.533 -0.4861 -0.0611 -0.7752
  538TMC3    C3 7983   3.398   2.770  10.409 -0.4642 -0.1039  0.2281
  538TMC3    C4 7984   3.255   2.923  10.596  0.6752 -0.3884 -0.1488
  538TMC3    C5 7985   3.198   2.875  10.478  0.3343 -0.0047 -0.2577
  538TMC3    C6 7986   3.270   2.801  10.385 -0.1829 -0.8421 -0.7680
  538TMC3     C 7987   3.377   2.794  10.758 -0.2727 -0.2288 -0.3178
  538TMC3     O 7988   3.270   2.799  10.816  0.0822 -0.4502 -0.1342
  538TMC3     H 7989   3.535   2.734  10.566  0.2371 -0.2008 -2.9303
  538TMC3    H1 7990   3.186   2.969  10.666 -0.6190  1.2394 -2.4886
  538TMC3    H2 7991   3.225   2.770  10.291  1.7509 -2.6545 -1.0983
  538TMC3    C7 7992   3.059   2.846  10.470  0.0605  0.4727 -0.2791
  538TMC3    C8 7993   3.422   2.632  10.352 -0.4866  0.2685 -0.6647
  538TMC3    O1 7994   3.019   2.766  10.386  0.1255 -0.1637 -0.1486
  538TMC3    O2 7995   3.326   2.554  10.334 -0.1966  0.1671 -0.0882
  539MPD2     C 7996   3.201   1.339  11.550 -0.5246 -0.1245 -0.3264
  539MPD2    C1 7997   3.222   1.350  11.414 -0.4723 -0.1892 -0.1915
  539MPD2    C2 7998   3.187   1.469  11.355  0.0465  0.8774 -0.4040
  539MPD2    C3 7999   3.137   1.575  11.430 -0.8346 -0.5823  0.4235
  539MPD2    C4 8000   3.097   1.550  11.558  0.6105 -0.4725  0.4341
  539MPD2    C5 8001   3.139   1.437  11.623 -0.0643 -0.5709  0.1954
  539MPD2     H 8002   3.211   1.483  11.250 -0.4003 -0.6544 -0.7050
  539MPD2    H1 8003   3.051   1.628  11.617 -1.5210 -0.4225 -1.2683
  539MPD2    H2 8004   3.229   1.246  11.597  0.4452  1.4562  2.2102
  539MPD2    H3 8005   3.113   1.433  11.728 -0.1852 -0.8244  0.1552
  539MPD2     N 8006   3.131   1.708  11.385 -0.1863  0.4360 -0.2980
  539MPD2    H5 8007   3.069   1.769  11.438  1.2228  0.5835  1.1874
  539MPD2    N1 8008   3.293   1.251  11.336 -0.0178 -0.4090 -0.2327
  539MPD2    H7 8009   3.324   1.269  11.241  0.8575  2.4014  0.5758
  540TMC3    C1 8010   3.131   1.887  11.245  0.5866  0.0590 -0.5780
  540TMC3    C2 8011   3.091   1.903  11.122  0.1551  0.0417  0.1996
  540TMC3    C3 8012   3.046   2.028  11.085 -0.1756  0.0390 -0.1563
  540TMC3    C4 8013   3.097   1.969  11.349  0.0879 -0.0120  0.7366
  540TMC3    C5 8014   3.053   2.096  11.308  0.3860 -0.2441 -0.0824
  540TMC3    C6 8015   3.026   2.126  11.178  0.7598  0.2203  0.6462
  540TMC3     C 8016   3.179   1.758  11.268 -0.5846  0.3231 -0.1531
  540TMC3     O 8017   3.261   1.711  11.195  0.2801 -0.2772  0.1418
  540TMC3     H 8018   3.114   1.826  11.050  0.2691 -1.4913  1.8891
  540TMC3    H1 8019   3.113   1.945  11.453 -1.5168 -1.4677  0.6434
  540TMC3    H2 8020   2.994   2.228  11.156 -3.0415 -0.9473  0.7600
  540TMC3    C7 8021   3.027   2.195  11.411  0.2482  0.1404 -0.4362
  540TMC3    C8 8022   3.015   2.064  10.948 -0.7346 -0.0985 -0.0298
  540TMC3    O1 8023   2.922   2.252  11.398 -0.0586 -0.2786 -0.1178
  540TMC3    O2 8024   3.059   2.174  10.920 -0.2648 -1.0439 -0.0718
  541MPD2     C 8025   1.481   3.487  13.182 -0.1426 -0.3101  0.4818
  541MPD2    C1 8026   1.470   3.362  13.137  1.2341  0.8025 -0.7495
  541MPD2    C2 8027   1.406   3.341  13.014 -0.0879 -0.5058 -0.4729
  541MPD2    C3 8028   1.374   3.447  12.933  0.0421 -0.1101 -0.6724
  541MPD2    C4 8029   1.410   3.576  12.974  0.3006  0.1458  0.2718
  541MPD2    C5 8030   1.462   3.590  13.103 -0.1757 -0.4858  0.5860
  541MPD2     H 8031   1.396   3.240  12.975 -3.2997 -0.3601  0.0118
  541MPD2    H1 8032   1.380   3.667  12.922 -1.0796 -0.3038  0.2791
  541MPD2    H2 8033   1.523   3.498  13.282  1.2264  2.7804 -0.4191
  541MPD2    H3 8034   1.483   3.688  13.145 -1.5573  0.5031 -1.0402
  541MPD2     N 8035   1.316   3.436  12.799  0.3554 -0.0513  0.0926
  541MPD2    H5 8036   1.301   3.518  12.742  0.5917 -0.8454 -1.0989
  541MPD2    N1 8037   1.524   3.259  13.211 -0.7861  0.1314  0.6499
  541MPD2    H7 8038   1.568   3.274  13.301  0.5206 -0.3799  0.0964
  542TMC3    C1 8039   1.227   3.346  12.613 -0.1778  0.1664  0.2913
  542TMC3    C2 8040   1.239   3.251  12.518 -0.0868  0.3622  0.3965
  542TMC3    C3 8041   1.148   3.256  12.417  0.6080  0.1497  0.0576
  542TMC3    C4 8042   1.127   3.444  12.617  0.0492 -0.2188  0.5388
  542TMC3    C5 8043   1.051   3.453  12.506 -0.1908 -0.1561 -0.3918
  542TMC3    C6 8044   1.061   3.363  12.404  0.8129 -0.2189 -0.1980
  542TMC3     C 8045   1.305   3.315  12.730 -0.1541 -0.7599 -0.3672
  542TMC3     O 8046   1.342   3.197  12.747  0.0697 -0.3119 -0.0370
  542TMC3     H 8047   1.308   3.168  12.522 -1.2419 -0.7047 -1.7457
  542TMC3    H1 8048   1.118   3.524  12.689  2.1794 -1.1773  1.8823
  542TMC3    H2 8049   1.006   3.369  12.310 -1.6729 -0.8729  1.2297
  542TMC3    C7 8050   0.918   3.488  12.532  0.4919  0.7784 -0.4029
  542TMC3    C8 8051   1.149   3.150  12.316 -0.2371 -0.0227  0.8717
  542TMC3    O1 8052   0.886   3.479  12.652 -0.4372  0.8655  0.1572
  542TMC3    O2 8053   1.114   3.178  12.202  0.0964  0.6983  0.1616
  543TMC3    C1 8054   1.316   4.611  16.332 -0.1937 -0.3207  0.3150
  543TMC3    C2 8055   1.184   4.584  16.291 -0.4233 -0.3809 -0.5120
  543TMC3    C3 8056   1.080   4.648  16.356 -0.5032  0.2810  0.3879
  543TMC3    C4 8057   1.351   4.692  16.433  0.2765  0.1719  0.2417
  543TMC3    C5 8058   1.249   0.052  16.472 -0.4828 -0.3454  0.9092
  543TMC3    C6 8059   1.117   0.033  16.443 -0.2257  0.5033 -0.5005
  543TMC3     C 8060   1.423   4.525  16.279  0.3505  0.5964 -0.2239
  543TMC3     O 8061   1.507   4.487  16.366  0.1492 -0.1275  0.3430
  543TMC3     H 8062   1.166   4.498  16.228  1.3817 -0.8676 -0.3704
  543TMC3    H1 8063   1.454   4.710  16.463  0.7931 -1.1806 -0.7477
  543TMC3    H2 8064   1.041   0.100  16.482 -2.2674 -1.7942 -0.5813
  543TMC3    C7 8065   1.273   0.166  16.546 -0.4895  0.1465  0.7637
  543TMC3    C8 8066   0.993   4.545  16.417 -0.6466 -0.5391  0.3141
  543TMC3    O1 8067   1.190   0.248  16.538  0.1384  0.2255  0.3672
  543TMC3    O2 8068   0.970   4.454  16.343  0.3175  0.3887  0.6389
  544MPD2     C 8069   0.817   4.250  16.799  0.1583 -0.1451 -0.4860
  544MPD2    C1 8070   0.842   4.216  16.667 -0.4126 -0.1490 -0.5368
  544MPD2    C2 8071   0.895   4.316  16.585  0.0471 -0.4756  0.4145
  544MPD2    C3 8072   0.914   4.446  16.628 -0.8295 -0.2193  0.3385
  544MPD2    C4 8073   0.865   4.479  16.751 -0.4630 -0.6247 -0.0321
  544MPD2    C5 8074   0.820   4.385  16.832  0.7948 -0.5305  0.1647
  544MPD2     H 8075   0.927   4.290  16.485 -0.3129  0.5257  0.0411
  544MPD2    H1 8076   0.864   4.580  16.791  0.0959  0.4613 -2.7770
  544MPD2    H2 8077   0.787   4.177  16.874 -0.9268 -0.8874 -1.6509
  544MPD2    H3 8078   0.805   4.410  16.936 -0.3887  1.2141 -0.4370
  544MPD2     N 8079   0.966   4.557  16.553 -0.5501 -0.4877 -0.5985
  544MPD2    H5 8080   0.967   4.640  16.610 -0.1203 -1.8744  1.4041
  544MPD2    N1 8081   0.844   4.077  16.644 -0.3449  0.0027 -0.5752
  544MPD2    H7 8082   0.814   4.019  16.721  0.2427  0.7228  0.2015
  545TMC3    C1 8083   0.925   3.871  16.568  0.0287  0.4700 -0.1262
  545TMC3    C2 8084   0.990   3.806  16.468 -0.2564 -0.4345  0.1987
  545TMC3    C3 8085   1.049   3.691  16.504 -0.6429 -0.6402  0.7985
  545TMC3    C4 8086   0.901   3.821  16.693  0.2171  0.6971 -0.8620
  545TMC3    C5 8087   0.951   3.693  16.717  0.8600 -0.1063 -0.3259
  545TMC3    C6 8088   1.032   3.631  16.624  0.1143  0.0778 -0.2631
  545TMC3     C 8089   0.912   4.013  16.546 -0.0223  1.1663 -0.6235
  545TMC3     O 8090   0.981   4.055  16.455 -0.1160  0.1240 -0.0524
  545TMC3     H 8091   0.991   3.846  16.368 -0.5989  3.8643  1.9343
  545TMC3    H1 8092   0.868   3.887  16.772  0.8611  0.6245 -0.5262
  545TMC3    H2 8093   1.080   3.535  16.642 -1.1029 -0.6620 -0.9054
  545TMC3    C7 8094   0.922   3.640  16.849  0.3897 -0.3892 -0.1875
  545TMC3    C8 8095   1.174   3.672  16.444 -0.3370  0.0808 -0.0963
  545TMC3    O1 8096   0.847   3.704  16.915  0.0834 -0.3722  0.8901
  545TMC3    O2 8097   1.226   3.572  16.485  0.1955  0.1057  0.4822
  546MPD2     C 8098   2.639   4.381  17.676 -0.1157  0.6960 -0.7016
  546MPD2    C1 8099   2.667   4.410  17.549  0.1039 -0.1614 -0.1582
  546MPD2    C2 8100   2.731   4.522  17.523 -0.4204 -0.7422  0.1609
  546MPD2    C3 8101   2.779   4.607  17.619 -0.1223 -0.0829 -0.3042
  546MPD2    C4 8102   2.750   4.581   0.065 -0.1103 -0.4211  0.5382
  546MPD2    C5 8103   2.678   4.466   0.085 -0.4486 -0.3968 -0.3376
  546MPD2     H 8104   2.751   4.550  17.420 -1.7447 -2.9559 -0.6936
  546MPD2    H1 8105   2.775   4.643   0.150 -2.0847 -2.0845  2.3251
  546MPD2    H2 8106   2.588   4.288   0.013  0.2362  0.4736 -0.8243
  546MPD2    H3 8107   2.650   4.444   0.187  1.9968  1.8453  0.7967
  546MPD2     N 8108   2.845   0.009  17.586  0.5612 -0.3286  0.4330
  546MPD2    H5 8109   2.856   0.080  17.658 -1.2966 -1.6301  2.0354
  546MPD2    N1 8110   2.623   4.321  17.456  0.0838 -0.1247  0.9895
  546MPD2    H7 8111   2.557   4.251  17.488  0.6012 -0.2573  1.7688
  547TMC3    C1 8112   2.593   4.229  17.247  0.3158 -0.3250 -0.3073
  547TMC3    C2 8113   2.626   4.228  17.116  0.2513  0.4775 -0.0903
  547TMC3    C3 8114   2.534   4.168  17.032  0.6146 -0.8516 -0.2221
  547TMC3    C4 8115   2.482   4.159  17.305  0.2369  0.2349  0.6761
  547TMC3    C5 8116   2.397   4.102  17.216  0.1203 -0.1488 -0.4127
  547TMC3    C6 8117   2.419   4.108  17.077  0.8479  1.0744 -0.0437
  547TMC3     C 8118   2.668   4.322  17.320  0.2305  0.2159 -0.1562
  547TMC3     O 8119   2.731   4.405  17.258 -0.4250 -0.3585  0.0784
  547TMC3     H 8120   2.713   4.287  17.088 -0.1494  1.0945 -0.0296
  547TMC3    H1 8121   2.442   4.179  17.404 -1.6548 -2.7275  0.4971
  547TMC3    H2 8122   2.353   4.047  17.018  0.9760  0.3811  0.5296
  547TMC3    C7 8123   2.285   4.025  17.270 -0.1991  0.8951 -0.4619
  547TMC3    C8 8124   2.555   4.209  16.891 -0.0706 -0.1599  1.1839
  547TMC3    O1 8125   2.297   3.987  17.388 -0.0850  0.3144  0.8060
  547TMC3    O2 8126   2.659   4.266  16.865 -0.1404  0.0619 -0.0473
  548MPD2     C 8127   2.190   0.666  12.273 -0.0343  0.8022 -0.1776
  548MPD2    C1 8128   2.116   0.553  12.260  0.5939  0.8547 -0.2925
  548MPD2    C2 8129   2.173   0.438  12.212  0.1288 -0.1566  0.2481
  548MPD2    C3 8130   2.307   0.446  12.167  0.8702  0.3681 -0.1424
  548MPD2    C4 8131   2.375   0.566  12.158 -0.5495  0.1654 -0.6080
  548MPD2    C5 8132   2.317   0.672  12.218 -0.1077  0.7653  0.6891
  548MPD2     H 8133   2.119   0.344  12.203 -1.1771  0.4753  1.5656
  548MPD2    H1 8134   2.481   0.576  12.138 -0.8556  2.3343 -1.1412
  548MPD2    H2 8135   2.157   0.753  12.328  2.4164  1.4043  0.3476
  548MPD2    H3 8136   2.376   0.763  12.222 -0.4885  1.0007  1.0918
  548MPD2     N 8137   2.373   0.328  12.115  0.7716 -0.0433  0.4180
  548MPD2    H5 8138   2.320   0.244  12.093 -0.1772  0.8477 -0.6574
  548MPD2    N1 8139   1.980   0.548  12.313 -0.0478 -0.3880 -0.0730
  548MPD2    H7 8140   1.958   0.638  12.354  2.6652  0.1336  0.2735
  549TMC3    C1 8141   1.779   0.472  12.376 -0.0408 -0.0074 -0.2981
  549TMC3    C2 8142   1.730   0.604  12.339 -0.2439 -0.1713  0.5451
  549TMC3    C3 8143   1.598   0.633  12.369  0.9168  0.8327  0.5076
  549TMC3    C4 8144   1.701   0.371  12.429  0.4044 -0.0680 -0.8316
  549TMC3    C5 8145   1.570   0.406  12.447  1.3009 -0.0563  0.3214
  549TMC3    C6 8146   1.515   0.531  12.414 -0.2306 -0.4486 -0.1390
  549TMC3     C 8147   1.893   0.442  12.300 -0.0474 -0.7378 -0.3516
  549TMC3     O 8148   1.902   0.327  12.254 -0.7346  0.4784 -0.1198
  549TMC3     H 8149   1.794   0.665  12.276 -1.1638  0.9603  0.7132
  549TMC3    H1 8150   1.754   0.281  12.458  0.1401  0.4634  1.2721
  549TMC3    H2 8151   1.409   0.547  12.431  0.0927  0.9623  0.5789
  549TMC3    C7 8152   1.486   0.321  12.533  0.8415  0.0378 -0.0006
  549TMC3    C8 8153   1.538   0.754  12.328 -0.5902  0.7934  1.1130
  549TMC3    O1 8154   1.391   0.373  12.586  0.0729 -0.0060 -0.0372
  549TMC3    O2 8155   1.421   0.755  12.298 -0.1040 -0.4775  0.5207
  550TMC3    C1 8156   0.706   3.099  12.457 -0.2151 -0.4506 -0.0178
  550TMC3    C2 8157   0.658   3.134  12.577 -0.0275 -0.0247  0.0747
  550TMC3    C3 8158   0.544   3.213  12.579  0.2012 -0.3942  0.8349
  550TMC3    C4 8159   0.649   3.153  12.341  0.4648 -0.1390 -0.0696
  550TMC3    C5 8160   0.538   3.230  12.349 -0.2227 -0.3200 -0.3241
  550TMC3    C6 8161   0.478   3.258  12.469 -0.3308  0.1455 -0.4604
  550TMC3     C 8162   0.791   2.979  12.448 -0.1055 -0.7245  0.3145
  550TMC3     O 8163   0.852   2.955  12.548  0.0344  0.9546 -0.1296
  550TMC3     H 8164   0.700   3.085  12.664 -0.4524  0.3920  0.5180
  550TMC3    H1 8165   0.677   3.117  12.243 -0.0214 -1.7106  0.3710
  550TMC3    H2 8166   0.404   3.337  12.475  1.3226  1.5385  1.8875
  550TMC3    C7 8167   0.494   3.301  12.234 -0.0885 -0.3286 -0.1096
  550TMC3    C8 8168   0.490   3.271  12.699  0.2548 -0.5525  0.4899
  550TMC3    O1 8169   0.371   3.317  12.230 -0.7187  0.2886  0.1855
  550TMC3    O2 8170   0.371   3.301  12.697 -0.6187 -0.2682  0.4636
  551TMC3    C1 8171   3.289   0.953  13.224 -0.1496 -0.3026  0.9022
  551TMC3    C2 8172   3.271   1.087  13.206  0.0697  0.3075 -0.1600
  551TMC3    C3 8173   3.304   1.175  13.313 -0.3261  0.3944 -0.6996
  551TMC3    C4 8174   3.324   0.902  13.345  0.0964  0.5993  0.1182
  551TMC3    C5 8175   3.353   0.983  13.444 -1.1000 -0.7615 -1.0929
  551TMC3    C6 8176   3.340   1.118  13.431  0.3033  0.4688 -0.2762
  551TMC3     C 8177   3.221   0.867  13.128 -0.1401 -0.2433 -0.0089
  551TMC3     O 8178   3.149   0.923  13.047  0.0535 -0.0731 -0.3351
  551TMC3     H 8179   3.229   1.121  13.112 -0.0389 -0.8619 -0.5218
  551TMC3    H1 8180   3.347   0.797  13.356 -0.2492  0.5553  0.3922
  551TMC3    H2 8181   3.389   1.188  13.497 -2.5950  0.7297  1.6018
  551TMC3    C7 8182   3.457   0.936  13.534  0.3175  0.3666  0.2019
  551TMC3    C8 8183   3.273   1.318  13.308  0.2800 -0.3697  0.1655
  551TMC3    O1 8184   3.522   0.840  13.496 -0.1260  0.0894 -0.5086
  551TMC3    O2 8185   3.270   1.374  13.416  0.0005 -0.0074 -0.1717
  552MPD2     C 8186   0.209   3.010  13.548 -0.1227 -0.3871 -0.0775
  552MPD2    C1 8187   0.245   2.890  13.507 -0.3443 -0.2127  0.7854
  552MPD2    C2 8188   0.354   2.834  13.578 -0.4060  0.2297 -1.1719
  552MPD2    C3 8189   0.418   2.894  13.686  0.4972 -0.0508  0.1555
  552MPD2    C4 8190   0.378   3.020  13.717  1.0506  0.1323  0.3438
  552MPD2    C5 8191   0.275   3.083  13.653 -0.1460 -0.2270  0.3376
  552MPD2     H 8192   0.401   2.747  13.534  2.7042  0.2788  2.0356
  552MPD2    H1 8193   0.436   3.082  13.785  0.5824  0.1975  0.6785
  552MPD2    H2 8194   0.131   3.067  13.499  0.2717  0.0040 -0.2545
  552MPD2    H3 8195   0.240   3.182  13.679 -0.6155  0.0069 -1.2239
  552MPD2     N 8196   0.536   2.848  13.744  0.4048  0.1449  0.0706
  552MPD2    H5 8197   0.589   2.912  13.803  0.1640  0.9401 -0.5664
  552MPD2    N1 8198   0.191   2.827  13.388  0.1683 -0.4483  0.5566
  552MPD2    H7 8199   0.244   2.746  13.357 -0.8212 -1.5962  1.8277
  553TMC3    C1 8200   0.085   2.797  13.183 -0.0688  0.0152  0.5376
  553TMC3    C2 8201   0.065   2.861  13.064  0.4839  0.5162  0.0952
  553TMC3    C3 8202   0.073   2.801  12.943  0.8731  0.2271 -0.2966
  553TMC3    C4 8203   0.118   2.669  13.180 -0.1326  0.0408 -0.2415
  553TMC3    C5 8204   0.123   2.605  13.059 -0.8980 -1.0502  0.5928
  553TMC3    C6 8205   0.093   2.666  12.942 -0.2701 -0.0730  0.6035
  553TMC3     C 8206   0.095   2.877  13.299  0.5007 -0.6808  0.1697
  553TMC3     O 8207   0.028   2.981  13.311  0.5004 -0.1331 -0.4513
  553TMC3     H 8208   0.035   2.965  13.065 -0.9006  0.1194  0.8543
  553TMC3    H1 8209   0.127   2.620  13.276  0.4898  0.1759 -0.2332
  553TMC3    H2 8210   0.113   2.611  12.850 -0.2624  1.3378 -0.2328
  553TMC3    C7 8211   0.175   2.468  13.061 -0.4577  0.2127 -0.0901
  553TMC3    C8 8212   0.178   2.875  12.866 -0.3437 -0.1072 -0.0537
  553TMC3    O1 8213   0.103   2.390  12.995 -0.2001  0.0307 -0.5434
  553TMC3    O2 8214   0.246   2.956  12.930 -1.2342  0.4932 -0.4719
  554TMC3    C1 8215   2.153   1.354  11.205 -0.0872 -0.6867  0.1691
  554TMC3    C2 8216   2.132   1.271  11.101 -0.1362  0.0795 -0.3537
  554TMC3    C3 8217   2.234   1.260  11.007 -0.1391  0.1596 -0.8969
  554TMC3    C4 8218   2.272   1.423  11.217  0.4259  0.2985  0.7838
  554TMC3    C5 8219   2.371   1.412  11.124 -0.0001 -0.3864  0.2968
  554TMC3    C6 8220   2.352   1.324  11.022 -0.3126 -0.6050  0.4072
  554TMC3     C 8221   2.058   1.349  11.312  0.3122 -0.1541 -0.8178
  554TMC3     O 8222   1.943   1.322  11.281  0.6346  0.4931  0.5908
  554TMC3     H 8223   2.035   1.223  11.103  0.0812 -0.3608 -0.5882
  554TMC3    H1 8224   2.271   1.506  11.286  1.6661  0.1227  1.0076
  554TMC3    H2 8225   2.419   1.324  10.937  1.1865  1.1528  1.6045
  554TMC3    C7 8226   2.427   1.537  11.077  0.4435 -0.2731  0.8341
  554TMC3    C8 8227   2.213   1.208  10.873 -0.8809 -0.1067  0.5662
  554TMC3    O1 8228   2.459   1.552  10.959  0.0260 -0.5367 -0.1815
  554TMC3    O2 8229   2.302   1.213  10.792  0.4961  0.1500 -0.3484
  555TMC3    C1 8230   1.617   1.286  15.098  0.0739  0.0225 -0.3547
  555TMC3    C2 8231   1.711   1.344  15.174 -0.0665  0.4504 -0.1957
  555TMC3    C3 8232   1.803   1.260  15.238  0.2724  0.4653  0.2141
  555TMC3    C4 8233   1.615   1.154  15.068  0.1679 -0.3644  0.9066
  555TMC3    C5 8234   1.709   1.077  15.131  1.0718  0.7559 -0.1070
  555TMC3    C6 8235   1.795   1.123  15.222  0.0114  0.4761  0.4808
  555TMC3     C 8236   1.495   1.353  15.093  0.0149 -0.2803  0.2416
  555TMC3     O 8237   1.473   1.432  15.184  0.2144 -0.6845  0.2110
  555TMC3     H 8238   1.696   1.450  15.189  2.1461  0.6806  0.3919
  555TMC3    H1 8239   1.533   1.116  15.007  0.3284 -1.3080  1.2754
  555TMC3    H2 8240   1.863   1.060  15.278  0.9307 -2.0751 -3.4968
  555TMC3    C7 8241   1.679   0.936  15.130 -0.1138 -0.6061 -0.5110
  555TMC3    C8 8242   1.905   1.318  15.320 -0.4883 -0.1803  0.0712
  555TMC3    O1 8243   1.575   0.912  15.071 -0.8981  0.0245  0.0671
  555TMC3    O2 8244   1.980   1.243  15.385 -0.2851  0.0472 -0.3302
  556MPD2     C 8245   4.473   2.839  10.979 -0.0425 -0.1051  0.7623
  556MPD2    C1 8246   4.365   2.860  10.902  0.2690 -0.5428  0.8186
  556MPD2    C2 8247   4.326   2.764  10.814  0.0750  0.1909  0.1920
  556MPD2    C3 8248   4.390   2.642  10.816  0.1144  0.0672  0.1970
  556MPD2    C4 8249   4.499   2.618  10.897 -0.0486 -0.0809  0.4430
  556MPD2    C5 8250   4.544   2.719  10.977  0.1342  0.1740  0.4949
  556MPD2     H 8251   4.246   2.782  10.743 -0.1837 -1.1218  0.1534
  556MPD2    H1 8252   4.559   2.527  10.894  0.0795  0.0379 -0.8262
  556MPD2    H2 8253   4.510   2.913  11.048 -1.0548  2.1066 -1.0503
  556MPD2    H3 8254   4.621   2.710  11.053 -0.0183  0.7858  0.7273
  556MPD2     N 8255   4.330   2.534  10.745 -0.3386 -0.9140  0.5486
  556MPD2    H5 8256   4.245   2.553  10.692  0.9256  2.7083 -0.1587
  556MPD2    N1 8257   4.283   2.972  10.922 -0.1140  0.0345  0.2784
  556MPD2    H7 8258   4.314   3.037  10.993  0.6867 -2.2068  1.9775
  557TMC3    C1 8259   4.263   2.307  10.697 -0.3731 -0.4005  0.1680
  557TMC3    C2 8260   4.311   2.182  10.663  0.3210 -0.3532 -0.8085
  557TMC3    C3 8261   4.250   2.106  10.562  0.5306 -0.5712  0.6786
  557TMC3    C4 8262   4.162   2.358  10.624  0.8149 -0.3979  0.2209
  557TMC3    C5 8263   4.104   2.282  10.528 -0.5835  0.0010  0.9530
  557TMC3    C6 8264   4.142   2.155  10.495  0.2103 -0.7443 -0.3476
  557TMC3     C 8265   4.356   2.397  10.764  0.0461 -0.1822 -0.3613
  557TMC3     O 8266   4.450   2.348  10.827 -0.3577  0.1267  0.1138
  557TMC3     H 8267   4.398   2.140  10.712 -0.4625  1.1470  1.8704
  557TMC3    H1 8268   4.129   2.459  10.647 -3.0965 -1.6678  0.3054
  557TMC3    H2 8269   4.105   2.100  10.409  1.5126 -0.6045 -1.0020
  557TMC3    C7 8270   4.000   2.356  10.453 -0.1840 -0.7254  0.0005
  557TMC3    C8 8271   4.281   1.964  10.552 -0.3261 -0.1418 -0.1746
  557TMC3    O1 8272   3.996   2.480  10.458 -0.2155 -0.6097  0.2820
  557TMC3    O2 8273   4.329   1.907  10.651  0.0910  0.5311  0.2611
  558TMC3    C1 8274   2.110   0.319   9.719 -0.2330  0.2014 -0.4451
  558TMC3    C2 8275   2.008   0.252   9.782  0.3753  0.7026  0.6337
  558TMC3    C3 8276   1.942   0.149   9.712  1.1433  0.2805 -0.4172
  558TMC3    C4 8277   2.149   0.281   9.593  0.2879  0.1758  0.8305
  558TMC3    C5 8278   2.077   0.182   9.527 -0.1328  0.2785 -0.2779
  558TMC3    C6 8279   1.981   0.102   9.588  0.5393  0.6994 -0.0255
  558TMC3     C 8280   2.189   0.427   9.783  0.3045  0.0417  0.7568
  558TMC3     O 8281   2.261   0.494   9.707  0.0290  0.2730 -0.1315
  558TMC3     H 8282   1.969   0.294   9.874  0.5703  1.2921  0.4501
  558TMC3    H1 8283   2.226   0.338   9.541  0.2182  0.5268  1.1107
  558TMC3    H2 8284   1.945   0.004   9.558 -1.0171  1.1339  0.4542
  558TMC3    C7 8285   2.145   0.110   9.424 -0.0547 -0.7672  0.3790
  558TMC3    C8 8286   1.847   0.063   9.786  0.3118  0.0335 -0.5462
  558TMC3    O1 8287   2.258   0.149   9.411 -0.4029  0.1694  0.2165
  558TMC3    O2 8288   1.786   4.691   9.740 -0.1609 -0.5107  0.1389
  559MPD2     C 8289   2.021   0.914  10.137 -0.0328 -0.3770 -0.0216
  559MPD2    C1 8290   1.940   0.878  10.242 -0.2624  0.0056 -0.3202
  559MPD2    C2 8291   1.997   0.847  10.364 -0.0050  0.2073 -0.2653
  559MPD2    C3 8292   2.130   0.863  10.391 -0.7070  0.3618 -0.2053
  559MPD2    C4 8293   2.207   0.895  10.288 -0.1518  0.1656 -0.2523
  559MPD2    C5 8294   2.154   0.915  10.160  0.0340 -0.8078  0.1958
  559MPD2     H 8295   1.937   0.812  10.447 -1.2551 -0.8723 -1.6290
  559MPD2    H1 8296   2.315   0.892  10.301 -0.2605  0.6626  0.7705
  559MPD2    H2 8297   1.988   0.946  10.039 -0.0179  1.3670  0.5545
  559MPD2    H3 8298   2.212   0.948  10.075 -1.8956  0.2518 -0.7098
  559MPD2     N 8299   2.178   0.842  10.524  0.2021 -0.0274  0.2470
  559MPD2    H5 8300   2.102   0.823  10.589  0.3639 -0.1610  0.3959
  559MPD2    N1 8301   1.793   0.873  10.225 -0.2425  0.2226  0.2549
  559MPD2    H7 8302   1.752   0.925  10.148  0.0298 -0.7712 -0.5635
  560TMC3    C1 8303   2.306   0.890  10.714  0.3905 -0.0169 -1.0330
  560TMC3    C2 8304   2.202   0.857  10.792 -0.4237 -0.0738 -0.4160
  560TMC3    C3 8305   2.228   0.840  10.920  0.4211 -0.2130  0.6628
  560TMC3    C4 8306   2.440   0.901  10.766  0.1171  0.4562  0.4010
  560TMC3    C5 8307   2.460   0.885  10.893  0.1264 -0.0108  0.1087
  560TMC3    C6 8308   2.355   0.853  10.972 -0.4663 -0.5539  0.2784
  560TMC3     C 8309   2.302   0.871  10.570  0.5486  0.1746 -0.4071
  560TMC3     O 8310   2.408   0.883  10.507  0.4288 -0.2086 -0.2913
  560TMC3     H 8311   2.101   0.835  10.759  0.6042 -2.4545 -1.9316
  560TMC3    H1 8312   2.518   0.928  10.696  0.1271  1.1836  0.6881
  560TMC3    H2 8313   2.371   0.813  11.071 -0.6892 -1.1199  0.0888
  560TMC3    C7 8314   2.588   0.895  10.964 -0.2166  0.3480  0.3511
  560TMC3    C8 8315   2.156   0.724  10.961  0.8378  0.2152  0.1140
  560TMC3    O1 8316   2.604   0.817  11.057  0.4542  0.1043 -0.3096
  560TMC3    O2 8317   2.219   0.619  10.953 -0.0936 -0.0588 -0.7913
  561TMC3    C1 8318   0.136   4.594  11.607  0.5045 -0.0914  0.4268
  561TMC3    C2 8319   0.023   4.555  11.669 -0.0728 -0.5150  0.1175
  561TMC3    C3 8320   4.649   4.646  11.703  0.0915 -1.1437  0.2940
  561TMC3    C4 8321   0.158   0.008  11.580 -0.1001  0.6100 -0.4562
  561TMC3    C5 8322   0.064   0.096  11.624 -0.8731 -0.0513  0.1373
  561TMC3    C6 8323   4.668   0.058  11.681  0.2010  0.1791  1.4620
  561TMC3     C 8324   0.237   4.495  11.562  0.2113 -0.1718  0.2949
  561TMC3     O 8325   0.214   4.382  11.590 -0.1851 -0.3831  0.2239
  561TMC3     H 8326   0.002   4.449  11.675 -1.2464 -0.3189 -0.5384
  561TMC3    H1 8327   0.256   0.038  11.544 -0.5278  2.3533 -0.1845
  561TMC3    H2 8328   4.593   0.134  11.701 -0.0849 -0.0279  1.1990
  561TMC3    C7 8329   0.092   0.233  11.635 -0.2956 -0.4043 -0.5682
  561TMC3    C8 8330   4.548   4.601  11.801 -0.4071  0.0922 -0.9321
  561TMC3    O1 8331   0.017   0.295  11.712  0.1824 -0.0828 -0.1933
  561TMC3    O2 8332   4.540   4.482  11.831  0.4654  0.2797  0.0710
  562TMC3    C1 8333   1.408   1.526  15.686 -0.1916 -0.3065 -0.1333
  562TMC3    C2 8334   1.340   1.626  15.621 -0.6162  0.7592 -0.1026
  562TMC3    C3 8335   1.289   1.594  15.494 -0.9132  0.6598  0.3022
  562TMC3    C4 8336   1.441   1.408  15.629  0.1939  0.3392 -0.5405
  562TMC3    C5 8337   1.386   1.374  15.512  0.0375 -0.2366 -0.1819
  562TMC3    C6 8338   1.309   1.465  15.446 -0.2678 -0.1445  0.7336
  562TMC3     C 8339   1.485   1.562  15.803  0.6954 -0.3497  0.0015
  562TMC3     O 8340   1.602   1.525  15.798 -0.2257 -0.2541  0.0779
  562TMC3     H 8341   1.312   1.719  15.670 -1.8656  0.4040 -0.1370
  562TMC3    H1 8342   1.498   1.344  15.696 -0.8759 -1.0682 -0.9816
  562TMC3    H2 8343   1.267   1.437  15.351 -1.2193 -1.0816  1.4311
  562TMC3    C7 8344   1.418   1.242  15.452  0.1560  0.0960  0.3883
  562TMC3    C8 8345   1.162   1.658  15.452  0.2252 -0.1194  0.1868
  562TMC3    O1 8346   1.337   1.208  15.362  0.2715 -0.0609 -0.1375
  562TMC3    O2 8347   1.093   1.702  15.543  0.2420 -0.2913  0.2717
  563MPD2     C 8348   3.195   2.173  16.187 -0.2895 -0.3052  0.2607
  563MPD2    C1 8349   3.293   2.172  16.088 -0.0198 -0.1784 -0.4067
  563MPD2    C2 8350   3.387   2.270  16.079 -0.1086  0.1876  0.2316
  563MPD2    C3 8351   3.385   2.375  16.166 -0.9642  0.4752 -0.3867
  563MPD2    C4 8352   3.279   2.386  16.254 -0.3210 -0.4377  0.2709
  563MPD2    C5 8353   3.192   2.281  16.272  0.1842  0.8398 -0.3672
  563MPD2     H 8354   3.463   2.259  16.002 -0.5360 -1.5404  0.0553
  563MPD2    H1 8355   3.277   2.456  16.337 -0.1830 -1.8537  1.4585
  563MPD2    H2 8356   3.131   2.089  16.215  0.5335 -0.9645  0.1573
  563MPD2    H3 8357   3.130   2.286  16.361  0.2057  0.4314 -0.3323
  563MPD2     N 8358   3.478   2.478  16.149  0.1071 -0.0318  0.3531
  563MPD2    H5 8359   3.559   2.447  16.095  0.1851  1.8568 -0.6067
  563MPD2    N1 8360   3.290   2.053  16.006 -0.9019 -0.2877  0.6210
  563MPD2    H7 8361   3.220   1.983  16.028  0.7922 -1.7938  1.2196
  564TMC3    C1 8362   3.351   1.896  15.845  0.0976 -0.4272  0.5102
  564TMC3    C2 8363   3.219   1.847  15.842 -0.5951  0.0804 -1.0229
  564TMC3    C3 8364   3.198   1.714  15.814 -0.9090  0.7244  0.0358
  564TMC3    C4 8365   3.457   1.817  15.802  0.2130 -0.8115 -0.6802
  564TMC3    C5 8366   3.441   1.685  15.784  0.1763  0.1913 -0.0677
  564TMC3    C6 8367   3.310   1.632  15.801  0.3939  0.1591 -1.2371
  564TMC3     C 8368   3.370   2.028  15.898  0.6008 -0.5745 -0.0159
  564TMC3     O 8369   3.448   2.101  15.836 -0.7072  0.1198  0.1576
  564TMC3     H 8370   3.133   1.913  15.850 -0.0662  0.8282 -1.4630
  564TMC3    H1 8371   3.556   1.858  15.815 -1.4476  3.4798 -1.6654
  564TMC3    H2 8372   3.291   1.526  15.817  1.0026  0.0850 -0.9759
  564TMC3    C7 8373   3.551   1.612  15.812 -0.2157 -0.1251 -0.6046
  564TMC3    C8 8374   3.071   1.658  15.864 -0.6228  0.5630 -0.4843
  564TMC3    O1 8375   3.642   1.662  15.882 -0.0843  0.2807 -0.7480
  564TMC3    O2 8376   3.079   1.550  15.921 -0.0128 -0.2740  0.0017
  565TMC3    C1 8377   3.823   4.540   9.516  0.3727  0.5928  0.0039
  565TMC3    C2 8378   3.827   4.415   9.579  0.0840 -0.2116 -0.5229
  565TMC3    C3 8379   3.710   4.350   9.605 -0.0297  0.4861  0.2296
  565TMC3    C4 8380   3.701   4.587   9.462  0.1834 -0.6016 -0.0272
  565TMC3    C5 8381   3.591   4.511   9.499 -0.2454  0.2143 -0.0008
  565TMC3    C6 8382   3.592   4.394   9.560 -0.5876 -0.3744  0.1416
  565TMC3     C 8383   3.945   4.621   9.481 -0.1272  0.5530  0.2851
  565TMC3     O 8384   3.940   4.696   9.387  0.4800 -0.5600  0.0213
  565TMC3     H 8385   3.920   4.374   9.616  0.3659  1.7707  0.9533
  565TMC3    H1 8386   3.698   4.683   9.413  0.2075 -0.9623 -0.7332
  565TMC3    H2 8387   3.498   4.355   9.599  1.6229 -1.6636  4.1538
  565TMC3    C7 8388   3.454   4.557   9.472 -0.3799 -0.2518 -0.0877
  565TMC3    C8 8389   3.706   4.259   9.712  0.6201 -0.4533  0.1226
  565TMC3    O1 8390   3.349   4.513   9.517  0.0816 -0.0467 -0.1813
  565TMC3    O2 8391   3.807   4.259   9.785  0.5967  0.4102  0.0137
  566MPD2     C 8392   0.911   0.614  13.974 -0.1105  0.5777 -0.0491
  566MPD2    C1 8393   0.862   0.740  13.991  1.0907  0.1539  0.3725
  566MPD2    C2 8394   0.730   0.778  13.958  0.6812 -0.1057  0.8927
  566MPD2    C3 8395   0.650   0.674  13.902 -0.3126  0.0938  0.2708
  566MPD2    C4 8396   0.699   0.546  13.882  0.1887  0.2178  0.0412
  566MPD2    C5 8397   0.831   0.518  13.923 -0.5192 -0.2269 -0.3823
  566MPD2     H 8398   0.688   0.876  13.976  0.4482 -0.2278  1.0063
  566MPD2    H1 8399   0.627   0.471  13.852 -1.5092  1.5455  0.7836
  566MPD2    H2 8400   1.017   0.601  13.996 -0.8897 -2.6125  1.7600
  566MPD2    H3 8401   0.864   0.415  13.922  2.3915  0.6938 -0.0397
  566MPD2     N 8402   0.521   0.704  13.858  0.2811  0.0728  0.4614
  566MPD2    H5 8403   0.472   0.620  13.828  0.8919 -0.8948  2.1486
  566MPD2    N1 8404   0.944   0.832  14.056  0.1739  0.0509 -0.1376
  566MPD2    H7 8405   1.028   0.794  14.099  1.2361 -0.6609 -2.7938
  567TMC3    C1 8406   1.045   1.040  14.105  0.3493 -0.2102  0.8828
  567TMC3    C2 8407   1.088   1.141  14.027  0.1464 -0.4550 -0.5407
  567TMC3    C3 8408   1.209   1.199  14.058 -0.2943  0.7023  0.3071
  567TMC3    C4 8409   1.107   0.992  14.223 -0.0208 -0.5901 -0.2748
  567TMC3    C5 8410   1.228   1.045  14.241 -0.0231  0.3479  0.0631
  567TMC3    C6 8411   1.283   1.140  14.161  0.5425  0.1538 -0.3747
  567TMC3     C 8412   0.930   0.969  14.053 -0.1032 -0.1209  0.4237
  567TMC3     O 8413   0.841   1.040  14.004  0.3035 -0.3205 -0.1590
  567TMC3     H 8414   1.028   1.172  13.943 -2.0959  1.1626  1.6580
  567TMC3    H1 8415   1.083   0.901  14.277  1.7319 -0.0820  1.3344
  567TMC3    H2 8416   1.388   1.165  14.165  0.4872  0.4442 -0.6997
  567TMC3    C7 8417   1.308   1.012  14.363  0.3497 -0.9961 -0.1645
  567TMC3    C8 8418   1.257   1.307  13.970  0.0515 -0.1497 -0.4908
  567TMC3    O1 8419   1.428   1.023  14.357 -1.0237 -0.0621  0.1491
  567TMC3    O2 8420   1.365   1.355  13.999 -0.1690  0.3180  0.1452
  568MPD2     C 8421   3.375   1.090  16.611  0.6723 -0.5856 -0.5658
  568MPD2    C1 8422   3.368   1.208  16.686  0.3848  0.0379 -0.4463
  568MPD2    C2 8423   3.254   1.288  16.673  0.4411 -0.3512 -0.5334
  568MPD2    C3 8424   3.143   1.250  16.602  0.8690  0.3127  0.5414
  568MPD2    C4 8425   3.160   1.143  16.518  0.2226  0.4810 -0.6112
  568MPD2    C5 8426   3.276   1.066  16.524 -0.1172  0.6766  0.4287
  568MPD2     H 8427   3.243   1.379  16.731  1.1404 -0.6989  0.1344
  568MPD2    H1 8428   3.085   1.102  16.451  0.6696 -2.2766  0.5841
  568MPD2    H2 8429   3.465   1.030  16.616 -0.2339 -2.0310 -1.5110
  568MPD2    H3 8430   3.279   0.994  16.443 -1.4919 -0.6145  1.5368
  568MPD2     N 8431   3.029   1.334  16.593  0.5200 -0.4346 -0.1083
  568MPD2    H5 8432   3.026   1.416  16.653 -3.0284  0.4284 -1.4506
  568MPD2    N1 8433   3.479   1.249  16.759  0.4614 -0.5563  0.7351
  568MPD2    H7 8434   3.560   1.191  16.742 -0.7668 -1.6177 -1.5756
  569TMC3    C1 8435   2.833   1.433  16.519 -0.4249  0.5733 -0.2316
  569TMC3    C2 8436   2.841   1.537  16.612 -0.7397  0.4201 -0.2029
  569TMC3    C3 8437   2.732   1.627  16.618  0.4295  0.6122  0.8602
  569TMC3    C4 8438   2.727   1.425  16.433 -0.5013  0.1681  0.1460
  569TMC3    C5 8439   2.635   1.527  16.428  0.1060  0.3266  0.1181
  569TMC3    C6 8440   2.629   1.618  16.523 -0.1002 -0.6762  0.0705
  569TMC3     C 8441   2.927   1.320  16.505  0.5011 -0.2893 -0.0800
  569TMC3     O 8442   2.922   1.241  16.408 -0.1122 -0.2062  0.0980
  569TMC3     H 8443   2.915   1.531  16.691 -1.1055 -0.4622  0.0706
  569TMC3    H1 8444   2.736   1.349  16.356 -2.0164  0.8286 -0.6755
  569TMC3    H2 8445   2.555   1.696  16.514 -1.3997 -2.0185 -0.9662
  569TMC3    C7 8446   2.588   1.577  16.303 -0.3885 -1.2152  0.3081
  569TMC3    C8 8447   2.757   1.765  16.656  1.2290  0.5814 -0.2005
  569TMC3    O1 8448   2.499   1.658  16.304  0.3931  0.1858 -0.2050
  569TMC3    O2 8449   2.664   1.839  16.652  0.3234 -0.3271  0.0391
  570TMC3    C1 8450   2.764   0.510  16.153 -0.1220 -0.1296 -0.0515
  570TMC3    C2 8451   2.860   0.546  16.062  0.0756 -0.1007  0.2584
  570TMC3    C3 8452   2.895   0.675  16.076 -0.5438 -0.7006 -0.0630
  570TMC3    C4 8453   2.725   0.590  16.253  0.1890  0.5659 -0.3400
  570TMC3    C5 8454   2.752   0.722  16.238  0.4323 -0.8161  0.0542
  570TMC3    C6 8455   2.832   0.771  16.145  0.4572  0.7617  0.6761
  570TMC3     C 8456   2.739   0.365  16.173  1.0659 -0.4737 -0.4914
  570TMC3     O 8457   2.723   0.295  16.077  0.0637 -0.4293 -0.4803
  570TMC3     H 8458   2.898   0.468  15.996  0.8590  1.0660 -0.6792
  570TMC3    H1 8459   2.650   0.567  16.328  1.2398  1.4483  0.9813
  570TMC3    H2 8460   2.870   0.873  16.147  1.4811  0.3478  2.1323
  570TMC3    C7 8461   2.762   0.791  16.367  0.7287 -0.6500  1.3562
  570TMC3    C8 8462   3.002   0.723  15.988 -0.1788  0.1908 -0.9457
  570TMC3    O1 8463   2.792   0.718  16.459 -0.4938  0.6979 -0.6278
  570TMC3    O2 8464   2.984   0.837  15.944 -0.5372  0.0102 -0.3364
  571MPD2     C 8465   1.115   1.595  17.158  0.2504  0.7176  0.5677
  571MPD2    C1 8466   1.018   1.515  17.214  0.1370  0.6140 -0.0033
  571MPD2    C2 8467   0.933   1.578  17.304 -0.3240 -0.0295  0.0010
  571MPD2    C3 8468   0.934   1.720  17.324  0.5044 -0.5256  0.0331
  571MPD2    C4 8469   1.022   1.792  17.249 -0.0090 -0.0675 -0.2133
  571MPD2    C5 8470   1.116   1.732  17.166  0.0603 -0.0871 -0.6141
  571MPD2     H 8471   0.866   1.518  17.364  0.8755 -1.1003  0.2698
  571MPD2    H1 8472   1.022   1.900  17.262  0.8930  0.0546 -1.2481
  571MPD2    H2 8473   1.189   1.556  17.089 -0.7596  1.4396 -0.9203
  571MPD2    H3 8474   1.197   1.792  17.125 -0.0475  0.3945 -0.1267
  571MPD2     N 8475   0.840   1.791  17.403  0.1329  0.0089 -0.3470
  571MPD2    H5 8476   0.850   1.892  17.415 -2.4775  0.4790 -2.0935
  571MPD2    N1 8477   1.035   1.377  17.197  0.3813 -0.5180 -0.7069
  571MPD2    H7 8478   1.118   1.341  17.152  2.6994  0.3032  2.8638
  572TMC3    C1 8479   0.656   1.822  17.552  0.6535 -0.0645 -0.0386
  572TMC3    C2 8480   0.638   1.794   0.000  0.2308  0.2761 -0.1989
  572TMC3    C3 8481   0.565   1.887   0.079  0.5681 -0.1594  0.7465
  572TMC3    C4 8482   0.622   1.937  17.495  0.3907  0.3269  0.1769
  572TMC3    C5 8483   0.557   2.025  17.583  0.1278  0.1668 -0.8722
  572TMC3    C6 8484   0.522   2.002   0.020 -0.4063 -0.3144 -0.6359
  572TMC3     C 8485   0.742   1.736  17.478  0.3097 -0.5215  0.8682
  572TMC3     O 8486   0.733   1.620  17.508 -0.2076 -0.2751 -0.1970
  572TMC3     H 8487   0.643   1.693   0.039 -2.1028  0.2769  0.1143
  572TMC3    H1 8488   0.632   1.954  17.388  2.5757 -1.8770  0.0210
  572TMC3    H2 8489   0.477   2.081   0.080  2.1273 -0.1387  1.0593
  572TMC3    C7 8490   0.546   2.166  17.537 -0.3215  0.7861  0.8221
  572TMC3    C8 8491   0.547   1.848   0.223 -0.5842 -0.4120 -0.4295
  572TMC3    O1 8492   0.453   2.239  17.577  0.2733  1.1091  0.0901
  572TMC3    O2 8493   0.621   1.756   0.263 -0.3433  0.9580  0.2550
  573MPD2     C 8494   1.819   3.229   0.368  0.5121  0.0753  0.6922
  573MPD2    C1 8495   1.690   3.204   0.344 -0.1076 -0.3005 -0.2376
  573MPD2    C2 8496   1.644   3.161   0.223 -0.0105 -0.0048 -0.0939
  573MPD2    C3 8497   1.731   3.158   0.118 -0.2273  0.0023 -0.0150
  573MPD2    C4 8498   1.867   3.164   0.142 -0.0648 -0.0817  0.2831
  573MPD2    C5 8499   1.908   3.209   0.269 -0.3575 -0.6370 -0.9041
  573MPD2     H 8500   1.538   3.138   0.215 -0.4857  1.1660  2.6677
  573MPD2    H1 8501   1.946   3.142   0.072 -0.5167  1.5813 -0.7635
  573MPD2    H2 8502   1.856   3.263   0.464  1.3065 -2.2537  1.2034
  573MPD2    H3 8503   2.015   3.207   0.287 -0.3393  3.7395 -0.3194
  573MPD2     N 8504   1.693   3.126  17.671 -0.4875 -0.0056 -0.4315
  573MPD2    H5 8505   1.770   3.109  17.607  1.3873 -0.2494  1.8942
  573MPD2    N1 8506   1.603   3.226   0.451 -0.5203  0.3148 -0.8422
  573MPD2    H7 8507   1.642   3.268   0.535 -0.9836  0.7007 -0.8213
  574TMC3    C1 8508   1.545   3.090  17.491  0.0651  0.2172 -0.3021
  574TMC3    C2 8509   1.425   3.132  17.447  0.3447 -0.0851  0.0741
  574TMC3    C3 8510   1.402   3.134  17.319 -0.2782  0.3816 -0.1201
  574TMC3    C4 8511   1.643   3.051  17.403  0.3037 -0.5683  0.1961
  574TMC3    C5 8512   1.608   3.046  17.272 -0.0382 -0.2287  0.1647
  574TMC3    C6 8513   1.486   3.082  17.224 -0.4497  0.0326  0.8708
  574TMC3     C 8514   1.563   3.135  17.627  0.4595  0.2043  0.2561
  574TMC3     O 8515   1.467   3.184  17.684 -0.1669 -0.6340 -0.4458
  574TMC3     H 8516   1.340   3.141  17.515  0.9387  0.3116  0.7569
  574TMC3    H1 8517   1.740   3.019  17.439  0.0717  0.6369  1.9154
  574TMC3    H2 8518   1.456   3.075  17.120  0.4367  3.2535  0.4082
  574TMC3    C7 8519   1.690   2.977  17.179  0.1666  0.6427  0.0420
  574TMC3    C8 8520   1.260   3.165  17.281 -0.4144 -0.4410 -0.1479
  574TMC3    O1 8521   1.636   2.903  17.097  0.0733 -0.6016 -0.7605
  574TMC3    O2 8522   1.171   3.132  17.361 -0.2996  0.5041  0.4171
  575TMC3    C1 8523   3.884   4.092  10.535  1.3449  0.1569  0.3134
  575TMC3    C2 8524   3.803   4.019  10.621  0.5613  0.4482 -0.0285
  575TMC3    C3 8525   3.724   3.926  10.562 -0.0377  0.7407  0.2171
  575TMC3    C4 8526   3.849   4.111  10.406 -0.0902 -1.1328 -0.1689
  575TMC3    C5 8527   3.751   4.029  10.352  0.4245  0.8496  0.5263
  575TMC3    C6 8528   3.694   3.931  10.429 -0.3575  0.2724  0.1004
  575TMC3     C 8529   3.991   4.175  10.599  0.1696 -0.4756 -0.2901
  575TMC3     O 8530   3.965   4.198  10.716  0.0128  0.2499  0.0847
  575TMC3     H 8531   3.835   4.010  10.725 -1.9889 -0.7044  0.6513
  575TMC3    H1 8532   3.897   4.178  10.337  0.8763  0.0715  1.6659
  575TMC3    H2 8533   3.631   3.854  10.386  0.3390 -0.0137 -0.4108
  575TMC3    C7 8534   3.721   4.060  10.210 -0.0861  0.3919 -0.5653
  575TMC3    C8 8535   3.691   3.807  10.630 -0.2878  0.2511  0.7546
  575TMC3    O1 8536   3.760   4.166  10.165 -0.1991 -0.3736  0.3413
  575TMC3    O2 8537   3.660   3.708  10.562 -0.1895 -0.4787 -0.7024
  576MPD2     C 8538   3.556   0.563  12.620  0.8374 -0.4728  0.2058
  576MPD2    C1 8539   3.651   0.635  12.556  0.1200 -0.2629  0.0992
  576MPD2    C2 8540   3.709   0.738  12.616 -0.7459  0.1815 -0.7828
  576MPD2    C3 8541   3.695   0.762  12.754  0.5409 -0.2382  0.7270
  576MPD2    C4 8542   3.608   0.675  12.822  0.0957 -0.3740  1.4125
  576MPD2    C5 8543   3.534   0.584  12.751 -0.4940  0.2495 -0.0626
  576MPD2     H 8544   3.778   0.791  12.552  0.9481 -0.4600  0.5048
  576MPD2    H1 8545   3.590   0.684  12.928  0.6577 -0.3619  1.5062
  576MPD2    H2 8546   3.497   0.482  12.579 -2.4211  2.3022 -0.5899
  576MPD2    H3 8547   3.454   0.525  12.794 -1.0974  1.6304  0.6954
  576MPD2     N 8548   3.782   0.855  12.815 -0.1749  0.0331 -0.4152
  576MPD2    H5 8549   3.840   0.905  12.748  0.0030  1.2798  0.6560
  576MPD2    N1 8550   3.686   0.613  12.423 -0.2826  0.3131  0.1741
  576MPD2    H7 8551   3.734   0.682  12.367 -1.5026  0.1646 -1.0636
  577TMC3    C1 8552   3.758   0.474  12.238  0.7756 -0.4321  0.3183
  577TMC3    C2 8553   3.825   0.357  12.228 -0.3747 -0.2901  0.1875
  577TMC3    C3 8554   3.948   0.347  12.173  0.0282  0.1967 -0.1777
  577TMC3    C4 8555   3.805   0.592  12.167  0.7212  0.2971 -0.0305
  577TMC3    C5 8556   3.920   0.571  12.091  0.0262  0.3210  0.5930
  577TMC3    C6 8557   3.998   0.456  12.099  0.6368  0.0143  0.4203
  577TMC3     C 8558   3.683   0.487  12.364  0.2911  0.4575  0.1370
  577TMC3     O 8559   3.647   0.383  12.414 -0.2464  0.9416  0.0898
  577TMC3     H 8560   3.794   0.269  12.282 -2.4504  0.5909  0.4464
  577TMC3    H1 8561   3.748   0.684  12.162  2.5880  1.4267 -0.2520
  577TMC3    H2 8562   4.099   0.454  12.059  1.2022  0.9484  1.7705
  577TMC3    C7 8563   3.972   0.678  12.009  0.5921 -0.2223 -0.5651
  577TMC3    C8 8564   4.024   0.223  12.189  0.5142  0.2937  0.3666
  577TMC3    O1 8565   4.091   0.665  11.988  0.0385 -0.0161 -0.4459
  577TMC3    O2 8566   3.988   0.143  12.272  0.2738 -0.5923  0.2989
  578MPD2     C 8567   2.511   0.736   1.607 -0.1440 -0.1984 -0.0034
  578MPD2    C1 8568   2.612   0.698   1.518 -0.5975  0.7596 -0.6513
  578MPD2    C2 8569   2.676   0.579   1.537 -0.7850 -0.4797 -0.5387
  578MPD2    C3 8570   2.650   0.507   1.655 -0.3847  0.1445  0.2102
  578MPD2    C4 8571   2.561   0.548   1.743  0.0650  0.6353 -0.2085
  578MPD2    C5 8572   2.487   0.659   1.714 -0.1575  0.3428  0.3912
  578MPD2     H 8573   2.739   0.537   1.459 -0.5628 -2.1730  0.5346
  578MPD2    H1 8574   2.539   0.491   1.833  1.1758  0.2089 -0.2074
  578MPD2    H2 8575   2.447   0.823   1.592  1.2424  1.3813  3.4882
  578MPD2    H3 8576   2.412   0.689   1.787  0.2994  1.6017  0.3515
  578MPD2     N 8577   2.719   0.384   1.674 -0.4978  0.1628  0.5491
  578MPD2    H5 8578   2.795   0.372   1.608  1.3022 -2.5515  3.1638
  578MPD2    N1 8579   2.632   0.772   1.405  0.0029 -0.1797 -0.3109
  578MPD2    H7 8580   2.571   0.852   1.393 -2.9339 -2.2218  0.8151
  579TMC3    C1 8581   2.797   0.190   1.761 -0.0388  0.3349 -0.4355
  579TMC3    C2 8582   2.885   0.176   1.862 -0.3376 -0.4493 -0.0127
  579TMC3    C3 8583   2.995   0.098   1.826  0.0959  0.2379  0.0925
  579TMC3    C4 8584   2.798   0.118   1.643  0.2563 -0.2186 -0.0893
  579TMC3    C5 8585   2.908   0.042   1.617 -0.1053  0.1949  0.6482
  579TMC3    C6 8586   3.008   0.034   1.704 -0.4255 -0.0252  0.6306
  579TMC3     C 8587   2.700   0.291   1.777  1.2763 -0.2624 -0.2807
  579TMC3     O 8588   2.634   0.298   1.883  0.0399  0.3235 -0.0067
  579TMC3     H 8589   2.884   0.237   1.952 -3.5342 -3.7059  2.1124
  579TMC3    H1 8590   2.711   0.126   1.580 -0.4540 -0.6256  0.8426
  579TMC3    H2 8591   3.095   4.697   1.679 -0.2747 -0.5794  2.3973
  579TMC3    C7 8592   2.908   4.664   1.517  0.0166 -0.0049  1.0496
  579TMC3    C8 8593   3.118   0.123   1.903 -0.7638 -0.3732  0.6297
  579TMC3    O1 8594   2.999   4.585   1.511 -0.5204  0.1446 -0.1673
  579TMC3    O2 8595   3.097   0.149   2.018 -0.0907 -0.2379  0.4593
  580TMC3    C1 8596   1.722   0.273  11.731  0.7049 -0.5763 -0.1177
  580TMC3    C2 8597   1.797   0.367  11.809  0.6700  0.2309  1.1443
  580TMC3    C3 8598   1.887   0.315  11.896 -0.2554 -0.0248  0.1191
  580TMC3    C4 8599   1.723   0.137  11.761 -0.0182  0.4865 -0.5348
  580TMC3    C5 8600   1.796   0.098  11.869  0.5883 -0.0582  0.1592
  580TMC3    C6 8601   1.887   0.181  11.933 -0.4413 -0.6501  0.1704
  580TMC3     C 8602   1.744   0.301  11.588 -0.0302 -0.3102  0.9132
  580TMC3     O 8603   1.815   0.214  11.533  0.6538  0.2798  0.3877
  580TMC3     H 8604   1.820   0.470  11.783  0.2005 -0.2898 -1.3160
  580TMC3    H1 8605   1.661   0.067  11.707  0.6093 -1.0261  0.7179
  580TMC3    H2 8606   1.961   0.149  12.005  1.3914  0.7290 -1.0943
  580TMC3    C7 8607   1.775   4.690  11.938 -0.3440 -0.3475  0.6163
  580TMC3    C8 8608   2.018   0.372  11.871  1.1172 -0.1670  0.5992
  580TMC3    O1 8609   1.828   4.683  12.051 -0.2919  0.1355 -0.3865
  580TMC3    O2 8610   2.035   0.492  11.852  0.3432  0.1790  0.1485
  581MPD2     C 8611   4.145   3.865  14.747 -0.0858  0.6319 -0.1365
  581MPD2    C1 8612   4.056   3.884  14.854  0.9951  0.4692 -0.8204
  581MPD2    C2 8613   3.967   3.993  14.840  0.3844 -0.6189 -0.6363
  581MPD2    C3 8614   3.973   4.080  14.732  0.3403 -0.0498  0.3225
  581MPD2    C4 8615   4.069   4.062  14.634  0.1487  0.3275  0.4945
  581MPD2    C5 8616   4.139   3.952  14.637 -0.1109  0.4225  0.0722
  581MPD2     H 8617   3.892   4.013  14.915  0.7086  0.9342 -0.7340
  581MPD2    H1 8618   4.065   4.115  14.539 -0.0877 -0.4312  0.0799
  581MPD2    H2 8619   4.207   3.776  14.753 -0.5384  0.2369 -1.1834
  581MPD2    H3 8620   4.193   3.932  14.545  0.7266  3.3760 -0.0682
  581MPD2     N 8621   3.874   4.185  14.740  0.0601 -0.2427 -0.2801
  581MPD2    H5 8622   3.815   4.193  14.822  1.3016 -3.4218  0.9315
  581MPD2    N1 8623   4.047   3.785  14.954 -0.3417  0.8297 -0.0602
  581MPD2    H7 8624   4.117   3.711  14.960 -1.1290  0.1330  0.6294
  582TMC3    C1 8625   3.945   3.656  15.124  0.2134  0.4072  1.3516
  582TMC3    C2 8626   4.062   3.635  15.194 -0.5240  0.4524  0.4317
  582TMC3    C3 8627   4.046   3.577  15.312 -0.3956  0.0080 -0.0715
  582TMC3    C4 8628   3.826   3.623  15.188 -0.2326  0.1121  0.6303
  582TMC3    C5 8629   3.815   3.565  15.310  0.0310  0.5263  0.0191
  582TMC3    C6 8630   3.929   3.535  15.373 -0.2387 -0.1646  0.6657
  582TMC3     C 8631   3.948   3.780  15.046  0.0369 -0.4854  0.9406
  582TMC3     O 8632   3.866   3.862  15.078  0.2354  0.1652  0.2139
  582TMC3     H 8633   4.154   3.687  15.171 -1.3497  1.6760 -0.0947
  582TMC3    H1 8634   3.733   3.658  15.145 -0.4083 -1.6159 -0.3984
  582TMC3    H2 8635   3.921   3.480  15.466  0.8764 -0.4265  0.6127
  582TMC3    C7 8636   3.749   3.658  15.398 -0.5243 -0.1297  0.4155
  582TMC3    C8 8637   4.143   3.630  15.409  0.4972 -0.0373  0.0211
  582TMC3    O1 8638   3.709   3.618  15.509  0.1588 -0.2739  0.2624
  582TMC3    O2 8639   4.210   3.727  15.380 -0.3471  0.1642 -0.4450
  583MPD2     C 8640   0.173   0.942  16.857 -0.7350  0.2616  0.1705
  583MPD2    C1 8641   0.147   1.065  16.807 -0.5554 -0.5773  0.3150
  583MPD2    C2 8642   0.089   1.156  16.892  0.0170 -0.5723 -0.6819
  583MPD2    C3 8643   0.076   1.128  17.029  0.2442  0.1051 -0.1661
  583MPD2    C4 8644   0.113   1.002  17.080  0.1971 -0.1228 -0.0698
  583MPD2    C5 8645   0.152   0.907  16.988  0.2073 -0.1697  0.7570
  583MPD2     H 8646   0.048   1.247  16.851 -2.9515 -1.6206 -0.0273
  583MPD2    H1 8647   0.101   0.980  17.185  0.9401 -0.6835 -0.1034
  583MPD2    H2 8648   0.213   0.865  16.792 -0.5518  0.7205 -0.2635
  583MPD2    H3 8649   0.172   0.804  17.015  2.3779  0.2938  0.9261
  583MPD2     N 8650   0.032   1.238  17.114 -0.5861 -0.0030 -0.7671
  583MPD2    H5 8651   0.026   1.331  17.074  0.8334  0.0506 -0.8391
  583MPD2    N1 8652   0.149   1.105  16.673  0.4014 -0.0893  0.3758
  583MPD2    H7 8653   0.110   1.195  16.647 -0.1603  0.1659  2.1589
  584TMC3    C1 8654   4.678   1.357  17.292 -0.3058  0.3377  0.1653
  584TMC3    C2 8655   4.615   1.441  17.203 -0.4158 -0.5674  0.5155
  584TMC3    C3 8656   4.568   1.554  17.264  0.3927 -0.0561  0.1466
  584TMC3    C4 8657   4.709   1.389  17.424  0.2716  0.3121 -0.2609
  584TMC3    C5 8658   4.662   1.503  17.477 -0.1730 -0.0113  0.1048
  584TMC3    C6 8659   4.589   1.589  17.398 -0.1259  0.3319  0.3930
  584TMC3     C 8660   0.010   1.225  17.246  0.0044  0.6661  0.0031
  584TMC3     O 8661   0.034   1.140  17.335  0.2296 -0.4090 -0.3788
  584TMC3     H 8662   4.579   1.404  17.107 -0.8961 -0.2398  0.5692
  584TMC3    H1 8663   0.048   1.321  17.484 -2.1722 -0.3541  1.4651
  584TMC3    H2 8664   4.543   1.679  17.437 -2.4393 -0.5387 -0.3278
  584TMC3    C7 8665   4.679   1.519  17.620  0.1547 -0.0434  0.3962
  584TMC3    C8 8666   4.517   1.650  17.176  0.0033 -0.2449 -0.3131
  584TMC3    O1 8667   0.012   1.424  17.673 -0.2000 -0.0926 -0.1954
  584TMC3    O2 8668   4.493   1.600  17.065 -0.1474 -0.4443 -0.1811
  585MPD2     C 8669   3.980   0.044   0.405  0.7315 -0.2462  0.1650
  585MPD2    C1 8670   4.044   0.133   0.335 -0.6792 -0.1089 -0.0257
  585MPD2    C2 8671   4.053   0.108   0.195  0.7288  0.0191  0.3612
  585MPD2    C3 8672   4.013   4.703   0.142  0.1113  0.4667  0.8170
  585MPD2    C4 8673   3.942   4.615   0.225 -0.5813  0.3424 -0.3667
  585MPD2    C5 8674   3.932   4.648   0.356  0.6697 -0.2831  1.1378
  585MPD2     H 8675   4.085   0.181   0.122  2.2164  0.5272  1.5017
  585MPD2    H1 8676   3.912   4.516   0.192 -1.8321  0.8000 -0.5907
  585MPD2    H2 8677   3.972   0.057   0.512 -0.1071 -1.6137  0.2630
  585MPD2    H3 8678   3.888   4.574   0.421  0.5885 -1.4383 -0.2223
  585MPD2     N 8679   4.024   4.664   0.008  1.0641 -0.3925 -0.2875
  585MPD2    H5 8680   3.981   4.580  17.659 -2.2247  1.7854 -1.4402
  585MPD2    N1 8681   4.091   0.254   0.395 -0.2382  0.6500 -1.0090
  585MPD2    H7 8682   4.061   0.271   0.490  1.8122 -0.0520 -0.2456
  586TMC3    C1 8683   4.057   4.709  17.468  0.1428  0.1039  0.4761
  586TMC3    C2 8684   4.121   4.620  17.378 -0.0366  0.3963 -0.0108
  586TMC3    C3 8685   4.033   4.532  17.318 -0.0178 -0.2667 -0.0156
  586TMC3    C4 8686   3.922   4.708  17.484  0.0571  0.3179 -0.2063
  586TMC3    C5 8687   3.843   4.631  17.403 -0.8436  0.5047  0.8865
  586TMC3    C6 8688   3.898   4.543  17.315  0.2636  0.1711 -0.0270
  586TMC3     C 8689   4.111   0.004  17.604 -0.1082 -0.6165 -0.1345
  586TMC3     O 8690   4.209   0.078  17.629 -0.1081  0.0513 -0.2730
  586TMC3     H 8691   4.228   4.607  17.390  0.0656  0.8343 -0.4407
  586TMC3    H1 8692   3.875   0.069  17.537 -1.5709 -0.4394 -0.4766
  586TMC3    H2 8693   3.841   4.468  17.260  2.3030 -1.4558  0.0858
  586TMC3    C7 8694   3.698   4.616  17.431 -0.3259  0.2786  0.2860
  586TMC3    C8 8695   4.091   4.440  17.225 -0.3840  0.3454  0.0205
  586TMC3    O1 8696   3.644   4.520  17.385 -0.7619  0.0763 -0.3655
  586TMC3    O2 8697   4.029   4.334  17.204  0.1916  0.0625 -0.2245
  587TMC3    C1 8698   1.229   3.369  16.149  0.1863  0.3427 -0.3037
  587TMC3    C2 8699   1.260   3.497  16.121  0.0188  0.2960 -0.4130
  587TMC3    C3 8700   1.346   3.522  16.013  0.0542  0.1709  0.3962
  587TMC3    C4 8701   1.289   3.268  16.078 -0.1244  0.3670 -0.4761
  587TMC3    C5 8702   1.366   3.293  15.969  0.4403  0.0850 -0.1122
  587TMC3    C6 8703   1.404   3.424  15.943 -0.0547  0.3607  0.4390
  587TMC3     C 8704   1.166   3.338  16.275  0.1632  0.4248 -0.8932
  587TMC3     O 8705   1.208   3.243  16.344  0.5787  0.6283 -0.0692
  587TMC3     H 8706   1.224   3.575  16.187 -1.8986 -0.4123 -0.6347
  587TMC3    H1 8707   1.258   3.165  16.096 -0.6600  0.4771 -0.7486
  587TMC3    H2 8708   1.477   3.444  15.866 -0.0849 -1.3152 -0.0313
  587TMC3    C7 8709   1.465   3.193  15.922 -0.2502 -0.5562 -0.1797
  587TMC3    C8 8710   1.366   3.658  15.961 -0.7844 -0.2897  0.3446
  587TMC3    O1 8711   1.494   3.191  15.800  0.4402 -1.2306  0.1303
  587TMC3    O2 8712   1.458   3.694  15.887 -0.3835 -0.5576 -0.0336
  588TMC3    C1 8713   3.772   1.440   9.373 -0.3895  0.3904  0.4053
  588TMC3    C2 8714   3.731   1.315   9.352  0.1300  0.0474  0.4750
  588TMC3    C3 8715   3.792   1.216   9.426 -0.5050  0.6444 -0.3905
  588TMC3    C4 8716   3.882   1.469   9.453 -1.0938  0.4436 -0.0524
  588TMC3    C5 8717   3.935   1.373   9.532  0.4892  0.6818 -0.1880
  588TMC3    C6 8718   3.886   1.245   9.523 -0.3498 -0.4238  0.4001
  588TMC3     C 8719   3.661   1.537   9.369  0.0636  0.4882  0.8267
  588TMC3     O 8720   3.555   1.489   9.328 -0.1257  0.3315  1.2473
  588TMC3     H 8721   3.654   1.289   9.280 -1.5086  0.8615  1.9493
  588TMC3    H1 8722   3.932   1.564   9.438  0.7392 -0.3645  0.9770
  588TMC3    H2 8723   3.922   1.171   9.594 -1.3597 -0.5952  0.7393
  588TMC3    C7 8724   3.977   1.413   9.667 -0.3203  0.0944  0.3126
  588TMC3    C8 8725   3.734   1.086   9.415 -0.4576  0.0602 -0.3247
  588TMC3    O1 8726   4.013   1.328   9.746 -0.4101  0.1458  0.1025
  588TMC3    O2 8727   3.656   1.070   9.326 -0.3966  0.1748 -0.3465
  589TMC3    C1 8728   2.814   3.775   1.511  0.8331  0.1655  0.2491
  589TMC3    C2 8729   2.928   3.806   1.579  0.2897  0.1955 -0.5029
  589TMC3    C3 8730   3.039   3.726   1.551 -0.5346 -0.3852 -1.0453
  589TMC3    C4 8731   2.805   3.679   1.418  0.2616 -0.2157 -0.8531
  589TMC3    C5 8732   2.920   3.595   1.403 -0.8333  0.3858  0.1811
  589TMC3    C6 8733   3.036   3.611   1.469  0.4695  0.5454  0.1856
  589TMC3     C 8734   2.689   3.861   1.529  0.6792  0.2316  0.1882
  589TMC3     O 8735   2.620   3.883   1.432  0.4437 -0.4840  0.1648
  589TMC3     H 8736   2.941   3.880   1.657  0.2300 -1.2503  0.8726
  589TMC3    H1 8737   2.708   3.673   1.368 -1.0962  0.3973  1.7305
  589TMC3    H2 8738   3.119   3.542   1.468 -1.4019 -1.7064  1.0465
  589TMC3    C7 8739   2.884   3.471   1.345  0.6486 -0.2193  0.6020
  589TMC3    C8 8740   3.161   3.753   1.627  0.3148  1.1063 -0.3895
  589TMC3    O1 8741   2.776   3.468   1.296  0.4208 -0.2828  0.3055
  589TMC3    O2 8742   3.139   3.776   1.745 -0.2310  0.1550 -0.0686
  590MPD2     C 8743   2.132   2.064  16.174 -0.1294 -0.4196  0.1804
  590MPD2    C1 8744   2.055   2.107  16.067  0.4500 -0.5079  0.4609
  590MPD2    C2 8745   2.134   2.172  15.973 -0.5843  0.0987 -0.3430
  590MPD2    C3 8746   2.264   2.203  15.981 -0.1847  0.1462 -0.2330
  590MPD2    C4 8747   2.338   2.147  16.086 -0.6516 -0.1882  0.3199
  590MPD2    C5 8748   2.271   2.070  16.175 -0.3966 -0.7593  0.0869
  590MPD2     H 8749   2.081   2.198  15.881  1.1866  1.7759 -0.8842
  590MPD2    H1 8750   2.446   2.149  16.092 -0.6393  1.5390 -0.6326
  590MPD2    H2 8751   2.088   2.007  16.255 -0.8303  0.1494  0.2030
  590MPD2    H3 8752   2.327   2.032  16.259 -0.5174 -0.7577  0.1686
  590MPD2     N 8753   2.316   2.290  15.881  0.0780 -0.1668 -0.3801
  590MPD2    H5 8754   2.251   2.320  15.810 -0.2859 -1.8596 -0.7563
  590MPD2    N1 8755   1.919   2.082  16.055 -0.1220 -0.0835 -0.3851
  590MPD2    H7 8756   1.881   2.024  16.128 -0.2385  0.3874 -0.0714
  591TMC3    C1 8757   2.476   2.439  15.780  0.3234 -0.1858  0.0500
  591TMC3    C2 8758   2.507   2.388  15.658 -0.0148 -0.2364  0.1746
  591TMC3    C3 8759   2.602   2.453  15.583  0.1715 -0.1890  0.4602
  591TMC3    C4 8760   2.548   2.536  15.833  0.2371 -0.2851 -1.1169
  591TMC3    C5 8761   2.644   2.601  15.761  0.1155  0.3975  0.0685
  591TMC3    C6 8762   2.669   2.561  15.634  0.0300  0.4527  0.1582
  591TMC3     C 8763   2.445   2.348  15.884 -0.5442  0.0789  0.0572
  591TMC3     O 8764   2.546   2.339  15.954 -0.0737  0.3859  0.3375
  591TMC3     H 8765   2.450   2.304  15.621  0.7359 -0.9947  0.7324
  591TMC3    H1 8766   2.524   2.573  15.932 -0.5264 -2.6177 -0.4443
  591TMC3    H2 8767   2.750   2.609  15.579 -0.3994  1.0676  0.0609
  591TMC3    C7 8768   2.723   2.706  15.821  0.0779 -0.1031 -0.0220
  591TMC3    C8 8769   2.667   2.379  15.466 -0.1183  0.1655 -0.0154
  591TMC3    O1 8770   2.738   2.707  15.939 -0.3807 -0.1495 -0.2895
  591TMC3    O2 8771   2.623   2.266  15.458 -0.4362 -0.1963  0.0281
  592MPD2     C 8772   2.728   4.157  11.045 -0.1685 -0.7061  0.1959
  592MPD2    C1 8773   2.748   4.205  11.172  0.5999 -0.3052  0.1352
  592MPD2    C2 8774   2.670   4.157  11.277 -0.1963  0.0508  0.4679
  592MPD2    C3 8775   2.584   4.050  11.260  0.2100  0.7980 -0.4167
  592MPD2    C4 8776   2.568   3.998  11.136 -0.4392 -0.2708  0.2409
  592MPD2    C5 8777   2.632   4.062  11.031  0.1668 -0.1499 -0.4613
  592MPD2     H 8778   2.686   4.196  11.377 -0.0068 -3.0425  1.6297
  592MPD2    H1 8779   2.505   3.913  11.110  0.3761 -0.4504 -1.2002
  592MPD2    H2 8780   2.781   4.205  10.964 -0.8672 -1.4036 -0.6657
  592MPD2    H3 8781   2.615   4.030  10.928 -0.5763  1.4641 -0.8414
  592MPD2     N 8782   2.512   4.008  11.376  0.1610  0.0842  0.3042
  592MPD2    H5 8783   2.547   4.037  11.467  2.2340 -0.4343 -0.3335
  592MPD2    N1 8784   2.841   4.302  11.181 -0.4186  0.5727 -0.5821
  592MPD2    H7 8785   2.907   4.315  11.104 -1.0282  1.0016 -1.0299
  593TMC3    C1 8786   2.966   4.473  11.289 -0.0978  1.0993 -0.2505
  593TMC3    C2 8787   2.991   4.549  11.405 -0.2464 -0.1707 -0.4388
  593TMC3    C3 8788   3.110   4.621  11.407  0.0109 -0.3656  0.3240
  593TMC3    C4 8789   3.045   4.496  11.180  0.3937 -0.5387  0.9019
  593TMC3    C5 8790   3.165   4.566  11.192  0.5732  0.4042  0.4280
  593TMC3    C6 8791   3.204   4.622  11.304 -0.2884  0.1621 -0.6020
  593TMC3     C 8792   2.852   4.387  11.295  0.0677 -0.5337  0.1285
  593TMC3     O 8793   2.798   4.391  11.404 -0.0398  0.3165  0.0654
  593TMC3     H 8794   2.921   4.550  11.488 -0.1665  1.6254 -0.3927
  593TMC3    H1 8795   3.028   4.446  11.086  0.5148  1.3503 -0.1147
  593TMC3    H2 8796   3.298   4.674  11.319  1.0807 -2.2494 -0.8520
  593TMC3    C7 8797   3.251   4.601  11.078 -0.2146  0.0652  0.0742
  593TMC3    C8 8798   3.123   0.009  11.507  0.1271 -0.4977 -0.8213
  593TMC3    O1 8799   3.337   4.682  11.101  0.4502 -0.0121 -0.8155
  593TMC3    O2 8800   3.235   0.055  11.524  0.2853 -1.0925  0.2428
  594MPD2     C 8801   1.078   3.108  13.565  0.6300  0.3413 -0.2156
  594MPD2    C1 8802   1.080   3.068  13.694  0.5943 -0.4327 -0.6065
  594MPD2    C2 8803   1.160   3.124  13.789  0.0836  0.1799  0.1795
  594MPD2    C3 8804   1.264   3.206  13.752  0.1898  1.0340 -0.2405
  594MPD2    C4 8805   1.276   3.228  13.614 -0.0446 -0.2007 -0.1022
  594MPD2    C5 8806   1.180   3.186  13.528  0.1440  0.0555 -0.1070
  594MPD2     H 8807   1.153   3.091  13.892 -1.1719  1.6471  0.5714
  594MPD2    H1 8808   1.364   3.282  13.580  0.1081  0.7654  1.7941
  594MPD2    H2 8809   1.016   3.059  13.490  0.0529 -0.2595  0.6549
  594MPD2    H3 8810   1.194   3.202  13.422 -0.4627 -1.3485 -0.4022
  594MPD2     N 8811   1.357   3.246  13.843 -0.4601 -0.3985  0.0718
  594MPD2    H5 8812   1.328   3.227  13.938  2.3286 -4.4389  0.1013
  594MPD2    N1 8813   0.994   2.959  13.723  0.0743 -0.8742  0.3217
  594MPD2    H7 8814   0.936   2.918  13.650  1.0495  0.0846 -0.9905
  595TMC3    C1 8815   1.773   3.301  14.056  0.5946  0.1205 -0.3583
  595TMC3    C2 8816   1.693   3.277  13.944  0.1184  0.2344 -0.0480
  595TMC3    C3 8817   1.562   3.304  13.948 -0.2871 -0.2277  0.0641
  595TMC3    C4 8818   1.718   3.340  14.177  1.0746  0.1370  0.1258
  595TMC3    C5 8819   1.578   3.340  14.181 -0.4654  0.1896  0.4736
  595TMC3    C6 8820   1.499   3.322  14.067 -0.1120 -0.2710 -0.4185
  595TMC3     C 8821   1.913   3.338  14.040  0.2769  0.3703  0.4451
  595TMC3     O 8822   1.987   3.316  14.138  0.4622 -0.0418  0.0114
  595TMC3     H 8823   1.730   3.232  13.852  0.6636 -3.0049  1.7335
  595TMC3    H1 8824   1.775   3.342  14.269  1.9520 -0.0420 -0.4025
  595TMC3    H2 8825   1.391   3.325  14.078 -0.2007 -2.3318 -0.5635
  595TMC3    C7 8826   1.505   3.365  14.303  0.2821 -0.3522 -0.4791
  595TMC3    C8 8827   1.487   3.289  13.824 -0.1132 -0.1899 -0.3812
  595TMC3    O1 8828   1.383   3.350  14.293  0.2280  0.0587  0.3525
  595TMC3    O2 8829   1.545   3.304  13.717  0.9465  0.2656  0.2896
  596MPD2     C 8830   0.921   1.061  16.650  0.0513 -0.4597  0.2982
  596MPD2    C1 8831   0.879   1.180  16.589 -0.2515  0.4853 -0.1655
  596MPD2    C2 8832   0.884   1.190  16.452 -0.3062 -0.2673  0.2884
  596MPD2    C3 8833   0.922   1.083  16.371  0.8292 -0.1777 -0.1056
  596MPD2    C4 8834   0.962   0.966  16.434 -0.0321  0.2262 -0.1462
  596MPD2    C5 8835   0.963   0.961  16.572  0.4313  0.2440 -0.2935
  596MPD2     H 8836   0.853   1.281  16.401  0.4649  1.0067  2.0890
  596MPD2    H1 8837   1.001   0.884  16.376 -1.0121 -0.3273 -0.0166
  596MPD2    H2 8838   0.933   1.053  16.757 -1.3668  0.7028  0.5329
  596MPD2    H3 8839   1.009   0.874  16.618  0.6454 -0.4807 -1.9003
  596MPD2     N 8840   0.905   1.089  16.227  0.0175 -0.1283  0.7309
  596MPD2    H5 8841   0.950   1.008  16.186  1.7690  1.2147 -0.0191
  596MPD2    N1 8842   0.840   1.294  16.671  0.2007  0.2239 -0.4018
  596MPD2    H7 8843   0.823   1.384  16.629 -0.8886 -0.0272 -0.5005
  597TMC3    C1 8844   0.791   1.414  16.884 -0.1587  0.0785 -0.1586
  597TMC3    C2 8845   0.847   1.522  16.825 -0.0755  0.8662  0.6105
  597TMC3    C3 8846   0.820   1.641  16.889  0.3936  0.6587 -0.5857
  597TMC3    C4 8847   0.716   1.414  16.994  0.4917  0.0604 -0.5121
  597TMC3    C5 8848   0.690   1.537  17.046 -0.5424 -0.2820  0.2469
  597TMC3    C6 8849   0.733   1.659  16.991  0.0547 -0.3683 -1.0864
  597TMC3     C 8850   0.812   1.284  16.813 -0.3433 -0.1946  0.0895
  597TMC3     O 8851   0.812   1.186  16.889  0.4089 -0.5725 -0.1409
  597TMC3     H 8852   0.920   1.525  16.744 -0.2744 -1.0172  0.3622
  597TMC3    H1 8853   0.666   1.325  17.029  3.3796 -1.3416  0.0020
  597TMC3    H2 8854   0.707   1.748  17.048 -0.2376 -1.5593  0.6585
  597TMC3    C7 8855   0.604   1.532  17.160 -0.2048  0.9067  0.4267
  597TMC3    C8 8856   0.910   1.752  16.877 -0.6125 -0.1296 -0.9767
  597TMC3    O1 8857   0.601   1.443  17.244  0.2870  0.1241 -0.6798
  597TMC3    O2 8858   1.019   1.726  16.834 -0.1542  1.0501  0.1072
  598TMC3    C1 8859   3.020   2.515  14.715  0.2149  0.8102  0.1157
  598TMC3    C2 8860   2.902   2.574  14.756 -0.3375  0.9329 -0.5945
  598TMC3    C3 8861   2.893   2.706  14.791  0.1043 -1.0129 -0.1546
  598TMC3    C4 8862   3.137   2.592  14.719  1.0353  0.6839 -0.3276
  598TMC3    C5 8863   3.130   2.727  14.759 -0.4807 -0.6418 -0.6564
  598TMC3    C6 8864   3.005   2.783  14.793  0.0494  0.4252  0.2337
  598TMC3     C 8865   3.016   2.381  14.666  0.6936 -0.4920  0.7075
  598TMC3     O 8866   2.918   2.303  14.688 -0.0720 -0.1355 -0.1173
  598TMC3     H 8867   2.814   2.511  14.755 -1.4002  2.4489 -1.5303
  598TMC3    H1 8868   3.229   2.552  14.679  0.5970 -0.9489  0.3200
  598TMC3    H2 8869   3.004   2.889  14.813 -1.7141  0.3169  0.7831
  598TMC3    C7 8870   3.246   2.810  14.761  0.1149  0.5622 -1.5972
  598TMC3    C8 8871   2.763   2.770  14.777  0.5072 -0.6640 -0.1845
  598TMC3    O1 8872   3.236   2.920  14.811  0.2286  0.1394  0.0210
  598TMC3    O2 8873   2.768   2.891  14.765  0.0234 -0.8168  0.3511
  599MPD2     C 8874   3.889   0.487  15.940 -0.4456 -0.9705 -0.0801
  599MPD2    C1 8875   3.844   0.359  15.938 -0.3652 -0.5533  0.0418
  599MPD2    C2 8876   3.735   0.318  16.014 -0.0710 -0.3949 -0.4113
  599MPD2    C3 8877   3.662   0.416  16.081  0.6484 -0.0001  0.6317
  599MPD2    C4 8878   3.698   0.551  16.073  0.2308 -0.0377  0.4147
  599MPD2    C5 8879   3.813   0.586  16.001  0.7003  0.3327  0.0528
  599MPD2     H 8880   3.702   0.215  16.005  0.2590 -0.4755 -0.6964
  599MPD2    H1 8881   3.645   0.632  16.123 -1.1569  0.9069 -2.5990
  599MPD2    H2 8882   3.977   0.520  15.887 -0.2216 -0.6387  0.4943
  599MPD2    H3 8883   3.844   0.689  15.987 -0.4003  0.5748 -0.5396
  599MPD2     N 8884   3.553   0.389  16.168 -0.0297  0.3559  0.2469
  599MPD2    H5 8885   3.495   0.469  16.192 -0.8816  0.3237 -1.6927
  599MPD2    N1 8886   3.924   0.264  15.870  0.5761  0.2818  0.3133
  599MPD2    H7 8887   4.013   0.301  15.837  0.8455 -1.6708 -1.1661
  600TMC3    C1 8888   3.390   0.270  16.285  0.5034  0.1562 -0.3478
  600TMC3    C2 8889   3.282   0.182  16.287  0.2131 -0.1859 -0.4107
  600TMC3    C3 8890   3.183   0.194  16.381 -0.5895  0.2669 -0.6076
  600TMC3    C4 8891   3.419   0.354  16.391  0.0169  0.0121  0.0089
  600TMC3    C5 8892   3.318   0.364  16.484 -0.2017  1.0330 -0.3357
  600TMC3    C6 8893   3.200   0.287  16.476 -0.0374  0.3054  0.2462
  600TMC3     C 8894   3.499   0.269  16.189 -0.2073  0.2769  0.1644
  600TMC3     O 8895   3.548   0.161  16.167  0.0900 -0.0230 -0.7862
  600TMC3     H 8896   3.297   0.106  16.211 -0.1666 -1.4308  0.7588
  600TMC3    H1 8897   3.513   0.406  16.399 -0.8515  2.0482 -3.1006
  600TMC3    H2 8898   3.125   0.276  16.553  0.5740  1.8911  1.0911
  600TMC3    C7 8899   3.310   0.483  16.569 -0.0565 -0.6308  0.1302
  600TMC3    C8 8900   3.127   0.067  16.424 -0.1235 -1.0171 -0.1918
  600TMC3    O1 8901   3.196   0.512  16.603 -0.6066  0.1119  0.4147
  600TMC3    O2 8902   3.153   0.049  16.543 -0.0386 -0.6373 -0.2501
  601MPD2     C 8903   0.752   2.577  17.304  0.7214 -0.0491  0.5665
  601MPD2    C1 8904   0.650   2.558  17.396 -0.2870 -0.1795 -0.6142
  601MPD2    C2 8905   0.611   2.434  17.431 -0.3105 -0.0606 -0.1390
  601MPD2    C3 8906   0.665   2.323  17.383  0.1066 -0.2964  0.2227
  601MPD2    C4 8907   0.767   2.342  17.293 -0.0249  0.5799 -0.0250
  601MPD2    C5 8908   0.807   2.463  17.258  0.5005  0.5157 -0.0620
  601MPD2     H 8909   0.547   2.426  17.518 -0.5822  2.0147 -0.1525
  601MPD2    H1 8910   0.819   2.254  17.256 -0.0965  0.3336  0.4589
  601MPD2    H2 8911   0.785   2.674  17.267  0.7485 -0.4791 -0.5312
  601MPD2    H3 8912   0.883   2.470  17.181 -0.2848  1.2676 -0.7661
  601MPD2     N 8913   0.640   2.198  17.441  0.2871  0.1889 -0.1934
  601MPD2    H5 8914   0.709   2.127  17.420  0.4737  0.1174  0.6650
  601MPD2    N1 8915   0.588   2.664  17.473  0.2881 -0.0065  0.0821
  601MPD2    H7 8916   0.509   2.635  17.529 -0.8640 -0.8432 -1.9598
  602TMC3    C1 8917   0.532   2.881  17.553  0.2043 -0.6242  0.1351
  602TMC3    C2 8918   0.578   3.007  17.587  0.0688 -0.7152 -0.3914
  602TMC3    C3 8919   0.488   3.107  17.607 -0.6641 -0.4420 -1.2705
  602TMC3    C4 8920   0.391   2.863  17.535  0.7046 -0.0883 -0.0140
  602TMC3    C5 8921   0.306   2.958  17.568  0.5085 -0.2219 -0.1988
  602TMC3    C6 8922   0.349   3.085  17.611 -0.6255 -0.3222 -0.0757
  602TMC3     C 8923   0.628   2.795  17.479  0.3758 -0.1044  0.2998
  602TMC3     O 8924   0.727   2.844  17.426 -0.2227  0.2971 -0.0820
  602TMC3     H 8925   0.685   3.020  17.590  0.0423 -1.3401  3.6308
  602TMC3    H1 8926   0.348   2.774  17.491  0.4055  0.7844 -1.4548
  602TMC3    H2 8927   0.283   3.155  17.661  1.1186  2.1600 -1.2250
  602TMC3    C7 8928   0.180   2.938  17.507 -0.3812 -0.5864 -0.6845
  602TMC3    C8 8929   0.535   3.246  17.627 -0.3713 -0.8149  0.0864
  602TMC3    O1 8930   0.129   2.828  17.495  0.4428  0.2986  0.4962
  602TMC3    O2 8931   0.653   3.270  17.660  0.4636  0.1155  0.1807
  603TMC3    C1 8932   3.331   3.525  10.941  0.7006  0.0811  0.3748
  603TMC3    C2 8933   3.282   3.588  11.050  0.2325  0.3166 -0.8848
  603TMC3    C3 8934   3.279   3.727  11.051 -0.0233 -0.4062 -0.4571
  603TMC3    C4 8935   3.360   3.601  10.833  0.5059  0.3092 -0.3533
  603TMC3    C5 8936   3.340   3.732  10.839 -0.1498 -0.5062 -0.2876
  603TMC3    C6 8937   3.310   3.806  10.946 -1.0008 -0.6101  0.0058
  603TMC3     C 8938   3.392   3.396  10.964 -0.7436  0.1241 -0.0492
  603TMC3     O 8939   3.421   3.367  11.080  0.0378  0.1225  0.1327
  603TMC3     H 8940   3.234   3.531  11.128 -0.1703 -0.4710 -1.7109
  603TMC3    H1 8941   3.401   3.567  10.738 -1.5138  0.4095 -1.2837
  603TMC3    H2 8942   3.263   3.903  10.930 -0.4892 -0.0038  2.1720
  603TMC3    C7 8943   3.319   3.802  10.717 -0.5475  0.3993 -0.2219
  603TMC3    C8 8944   3.315   3.776  11.179  0.2633 -0.5025 -0.6443
  603TMC3    O1 8945   3.358   3.916  10.724 -0.0904  0.7340 -0.1122
  603TMC3    O2 8946   3.269   3.703  11.268 -0.2363 -0.0950  0.0147
  604MPD2     C 8947   4.349   1.776  16.273  0.5011  0.0545  0.2637
  604MPD2    C1 8948   4.338   1.677  16.176  0.1712  0.4461 -0.1710
  604MPD2    C2 8949   4.325   1.720  16.047  0.6830 -0.3563 -0.0602
  604MPD2    C3 8950   4.321   1.853  16.005 -0.2193 -0.1082 -0.4334
  604MPD2    C4 8951   4.323   1.948  16.105 -0.0087 -0.2693  0.4609
  604MPD2    C5 8952   4.331   1.908  16.235 -0.0857 -0.4564  0.6089
  604MPD2     H 8953   4.319   1.643  15.971 -2.7755  0.5929 -0.7640
  604MPD2    H1 8954   4.313   2.055  16.087  1.6448 -0.2735 -0.4941
  604MPD2    H2 8955   4.338   1.753  16.378 -0.2846  1.1197  0.4222
  604MPD2    H3 8956   4.344   1.990  16.306  1.7830 -0.2782  0.0771
  604MPD2     N 8957   4.294   1.889  15.877  0.2741  0.5907 -0.7674
  604MPD2    H5 8958   4.312   1.809  15.818  1.2201 -0.0542  0.3967
  604MPD2    N1 8959   4.317   1.551  16.228  0.1955 -0.5499 -0.0136
  604MPD2    H7 8960   4.289   1.543  16.326  1.6415 -0.6424  0.3894
  605TMC3    C1 8961   4.209   1.339  16.232  0.0753 -0.5874  0.7000
  605TMC3    C2 8962   4.205   1.374  16.365 -0.0233 -0.1802  0.2258
  605TMC3    C3 8963   4.086   1.420  16.418  0.6199  0.5962  0.0217
  605TMC3    C4 8964   4.100   1.292  16.170 -0.3827  0.3280 -0.0006
  605TMC3    C5 8965   3.980   1.331  16.230 -0.4012  0.4134 -0.1713
  605TMC3    C6 8966   3.973   1.403  16.344  0.7251 -0.1320 -0.1087
  605TMC3     C 8967   4.280   1.438  16.154  0.4395 -0.0997  0.2242
  605TMC3     O 8968   4.273   1.426  16.033 -0.1006  0.8693  0.0639
  605TMC3     H 8969   4.305   1.395  16.402 -0.1619 -1.7349  1.4608
  605TMC3    H1 8970   4.105   1.260  16.067 -0.2461  0.7559 -0.1277
  605TMC3    H2 8971   3.874   1.432  16.377 -0.0440 -1.9313 -0.8350
  605TMC3    C7 8972   3.878   1.362  16.138 -0.4707  0.2836  0.2526
  605TMC3    C8 8973   4.100   1.542  16.491  0.3381  0.1664  0.3910
  605TMC3    O1 8974   3.851   1.485  16.136 -0.5831  0.2381 -0.0067
  605TMC3    O2 8975   4.219   1.565  16.511  0.3967  0.3955 -0.7200
  606TMC3    C1 8976   1.361   0.357  17.203  0.3553  0.3112 -0.1100
  606TMC3    C2 8977   1.496   0.336  17.182 -0.1002  0.8056 -0.0760
  606TMC3    C3 8978   1.556   0.236  17.243  0.5709 -0.5989  0.3060
  606TMC3    C4 8979   1.281   0.262  17.261 -0.0944  0.8344 -0.0265
  606TMC3    C5 8980   1.347   0.155  17.319 -0.2818 -0.1973 -0.0017
  606TMC3    C6 8981   1.487   0.143  17.318  0.0673  0.1032  0.0625
  606TMC3     C 8982   1.291   0.460  17.132 -0.4005  0.0821 -0.0488
  606TMC3     O 8983   1.173   0.443  17.097  0.3846 -0.6910 -0.5483
  606TMC3     H 8984   1.554   0.406  17.123  2.1821 -0.9087  0.1623
  606TMC3    H1 8985   1.175   0.282  17.271 -0.0574  1.0334 -0.0263
  606TMC3    H2 8986   1.533   0.056  17.362  0.0779 -0.7587 -1.6479
  606TMC3    C7 8987   1.275   0.034  17.362 -0.0285 -0.2705  0.3077
  606TMC3    C8 8988   1.688   0.265  17.289  0.4326 -0.0173 -0.1324
  606TMC3    O1 8989   1.332   4.679  17.444 -0.0131 -0.1125  0.4609
  606TMC3    O2 8990   1.754   0.343  17.217 -0.2194  0.1786  0.2044
  607MPD2     C 8991   2.727   3.649  11.450 -0.5015  1.0137  0.4813
  607MPD2    C1 8992   2.752   3.761  11.529 -0.0540  0.4240 -0.0281
  607MPD2    C2 8993   2.702   3.762  11.659 -0.1289  0.3596  0.0354
  607MPD2    C3 8994   2.627   3.654  11.703 -0.3534 -0.2131  0.1462
  607MPD2    C4 8995   2.608   3.541  11.620  0.4924  0.4382  1.4718
  607MPD2    C5 8996   2.649   3.547  11.489 -0.1358  0.1985  0.5510
  607MPD2     H 8997   2.726   3.847  11.722 -0.6572 -0.1369  0.9117
  607MPD2    H1 8998   2.555   3.450  11.643  1.0188 -0.4351 -0.8158
  607MPD2    H2 8999   2.783   3.634  11.358  0.1109 -2.9462  1.5232
  607MPD2    H3 9000   2.633   3.464  11.422  0.1787  0.1931  0.4846
  607MPD2     N 9001   2.569   3.664  11.832 -0.3171  0.0089  0.0515
  607MPD2    H5 9002   2.580   3.758  11.867  1.0235  0.7421 -2.3394
  607MPD2    N1 9003   2.847   3.863  11.501 -0.1988 -0.0387 -0.3563
  607MPD2    H7 9004   2.878   3.916  11.582 -1.8348 -0.3078  0.4419
  608TMC3    C1 9005   2.970   4.020  11.411  0.3055  0.1223  0.5735
  608TMC3    C2 9006   2.927   4.095  11.517 -0.4637 -0.0352  0.5893
  608TMC3    C3 9007   3.011   4.197  11.556 -0.1720 -0.1880 -0.0314
  608TMC3    C4 9008   3.070   4.056  11.333 -0.1124 -0.4999  0.7097
  608TMC3    C5 9009   3.143   4.168  11.369  0.4545  0.5099  0.2322
  608TMC3    C6 9010   3.120   4.241  11.487 -0.4463 -0.4139 -0.4003
  608TMC3     C 9011   2.908   3.892  11.386 -0.0423  0.3256  0.2504
  608TMC3     O 9012   2.896   3.845  11.270 -0.3673  0.4338  0.4316
  608TMC3     H 9013   2.822   4.090  11.547 -1.1637  0.8024 -1.7431
  608TMC3    H1 9014   3.086   4.013  11.234 -0.8304 -1.5641  1.0508
  608TMC3    H2 9015   3.159   4.338  11.519 -0.4343 -0.6623  0.3456
  608TMC3    C7 9016   3.245   4.223  11.277  0.0592  0.1480 -0.4666
  608TMC3    C8 9017   2.970   4.284  11.667 -1.0894  0.0224  0.1293
  608TMC3    O1 9018   3.224   4.206  11.154  0.4611  0.2411  0.2089
  608TMC3    O2 9019   2.991   4.404  11.666  0.2744 -0.2587 -0.5152
  609TMC3    C1 9020   1.476   1.437   9.469  0.3225  0.1408 -0.1802
  609TMC3    C2 9021   1.441   1.310   9.513 -0.4148 -0.1804 -0.8845
  609TMC3    C3 9022   1.490   1.205   9.434  0.1150 -0.1325  0.7644
  609TMC3    C4 9023   1.550   1.469   9.361 -0.3263 -0.1756 -0.4810
  609TMC3    C5 9024   1.607   1.360   9.300 -0.7752 -0.2360  0.6213
  609TMC3    C6 9025   1.582   1.227   9.330  0.2218 -0.1852  0.0060
  609TMC3     C 9026   1.434   1.539   9.567  0.4647  0.8165 -0.2592
  609TMC3     O 9027   1.430   1.501   9.685 -0.2923  0.1931  0.0954
  609TMC3     H 9028   1.378   1.290   9.599  3.4676  0.0058  2.0118
  609TMC3    H1 9029   1.570   1.569   9.325 -0.7766 -0.6313 -1.9980
  609TMC3    H2 9030   1.629   1.141   9.284 -0.5854 -0.6208 -0.0046
  609TMC3    C7 9031   1.715   1.385   9.200  0.3968  0.3285 -0.2597
  609TMC3    C8 9032   1.452   1.069   9.477 -0.2418 -0.1877 -0.4211
  609TMC3    O1 9033   1.750   1.501   9.192  0.4131 -0.5363 -0.3474
  609TMC3    O2 9034   1.429   1.049   9.598 -0.0608 -0.6565 -0.6497
  610TMC3    C1 9035   3.029   3.775  12.784  0.5898  0.0335  0.1388
  610TMC3    C2 9036   3.054   3.822  12.659  0.5416 -0.2382 -0.5162
  610TMC3    C3 9037   3.150   3.765  12.575 -0.1319  0.5184  0.4588
  610TMC3    C4 9038   3.093   3.660  12.826 -0.1619 -0.5134 -0.1701
  610TMC3    C5 9039   3.195   3.612  12.744  1.1119 -0.3183 -0.5150
  610TMC3    C6 9040   3.230   3.667  12.624 -0.1171 -0.5286  0.8381
  610TMC3     C 9041   2.923   3.836  12.867  0.6713  0.1263 -0.5862
  610TMC3     O 9042   2.931   3.805  12.987  0.2085  0.1083  0.3141
  610TMC3     H 9043   3.013   3.919  12.635  1.9779  0.3279 -0.6707
  610TMC3    H1 9044   3.051   3.609  12.912 -1.4235 -0.1521 -0.5733
  610TMC3    H2 9045   3.315   3.626  12.570 -0.2437 -0.1324  0.3378
  610TMC3    C7 9046   3.294   3.535  12.817 -0.7804 -0.3647 -0.7678
  610TMC3    C8 9047   3.197   3.832  12.460 -0.1688 -0.7580  0.3174
  610TMC3    O1 9048   3.379   3.479  12.748  0.1400  0.0214  0.3172
  610TMC3    O2 9049   3.317   3.842  12.442 -0.0793 -0.4091  0.3490
  611MPD2     C 9050   2.329   3.332  10.472  0.1621 -0.3078 -0.2468
  611MPD2    C1 9051   2.338   3.252  10.365 -0.4176 -0.0806 -0.6202
  611MPD2    C2 9052   2.438   3.289  10.274  0.2778  0.5658 -0.3816
  611MPD2    C3 9053   2.524   3.392  10.297 -0.0270  0.5214  0.0925
  611MPD2    C4 9054   2.507   3.471  10.406 -0.2479  0.6260  0.4244
  611MPD2    C5 9055   2.417   3.436  10.500 -0.0663  0.2438 -0.2266
  611MPD2     H 9056   2.451   3.226  10.187  0.8851  1.2219 -0.7597
  611MPD2    H1 9057   2.566   3.560  10.424  2.8806 -1.4687  0.4117
  611MPD2    H2 9058   2.254   3.308  10.546  0.9425 -0.2351  0.5677
  611MPD2    H3 9059   2.410   3.494  10.591  1.5232 -0.1417  0.1365
  611MPD2     N 9060   2.631   3.424  10.216 -0.5662 -0.0555  0.5603
  611MPD2    H5 9061   2.695   3.496  10.246  2.2951 -2.6799  0.7906
  611MPD2    N1 9062   2.247   3.142  10.349  0.5208  0.0716  0.0436
  611MPD2    H7 9063   2.166   3.144  10.409  1.0064 -0.1277  0.7081
  612TMC3    C1 9064   2.754   3.467  10.025 -0.2346 -0.1341 -0.3105
  612TMC3    C2 9065   2.875   3.498  10.077 -0.1670 -1.3731 -0.1898
  612TMC3    C3 9066   2.962   3.565   9.995  0.0268  0.3606  0.3056
  612TMC3    C4 9067   2.711   3.501   9.900  0.4364 -0.3083 -0.2934
  612TMC3    C5 9068   2.788   3.579   9.824 -0.4237  0.0927  0.4362
  612TMC3    C6 9069   2.913   3.613   9.870  0.0716  0.4326  0.6440
  612TMC3     C 9070   2.664   3.373  10.099 -0.1206  0.0007 -0.9128
  612TMC3     O 9071   2.599   3.295  10.029  0.0225  0.1713 -0.4212
  612TMC3     H 9072   2.902   3.454  10.173  0.0211 -0.6196  0.1063
  612TMC3    H1 9073   2.606   3.480   9.882  0.1224  0.4560  0.6343
  612TMC3    H2 9074   2.968   3.688   9.814 -1.1409  1.2277  0.5076
  612TMC3    C7 9075   2.739   3.619   9.691  0.5856 -0.0352  0.1497
  612TMC3    C8 9076   3.074   3.629  10.049 -0.4747  0.8897  0.5501
  612TMC3    O1 9077   2.824   3.672   9.617 -0.1176  0.3412 -0.0899
  612TMC3    O2 9078   3.149   3.679   9.965 -0.3182  0.1033 -0.2409
  613MPD2     C 9079   2.254   1.080  16.295 -0.0762 -0.0031 -0.2757
  613MPD2    C1 9080   2.235   1.115  16.168  0.2032  0.7491  0.1792
  613MPD2    C2 9081   2.194   1.014  16.070  0.3993  0.3118  0.6629
  613MPD2    C3 9082   2.174   0.884  16.108  0.2791  0.5359  0.3806
  613MPD2    C4 9083   2.192   0.850  16.241 -0.4822 -0.1974  0.5051
  613MPD2    C5 9084   2.220   0.949  16.336 -0.1906  0.6883 -0.4885
  613MPD2     H 9085   2.177   1.036  15.965  3.8141  0.2625  0.1012
  613MPD2    H1 9086   2.160   0.752  16.274  0.3333 -0.3872  0.7297
  613MPD2    H2 9087   2.287   1.153  16.368  0.3974  0.8656 -1.3611
  613MPD2    H3 9088   2.233   0.929  16.441  0.2754 -2.7968 -1.2239
  613MPD2     N 9089   2.126   0.781  16.023 -0.0978 -0.5953 -0.0967
  613MPD2    H5 9090   2.102   0.691  16.063 -1.0840 -0.2786  0.0418
  613MPD2    N1 9091   2.284   1.242  16.132  0.2244 -0.1392 -0.6057
  613MPD2    H7 9092   2.332   1.300  16.201 -0.7336 -0.7604  0.5886
  614TMC3    C1 9093   2.373   1.395  15.973  0.1363 -0.3247 -0.0930
  614TMC3    C2 9094   2.502   1.345  15.981 -0.0331 -0.0494  0.0693
  614TMC3    C3 9095   2.575   1.370  15.869 -0.0890 -0.6996  0.9774
  614TMC3    C4 9096   2.330   1.469  15.866 -0.5125 -0.6419  0.5194
  614TMC3    C5 9097   2.424   1.507  15.774  0.2037  0.4792  0.1034
  614TMC3    C6 9098   2.548   1.468  15.781  0.4308 -0.6981  0.2353
  614TMC3     C 9099   2.269   1.296  16.007 -0.2613 -0.1366  0.3142
  614TMC3     O 9100   2.194   1.262  15.918 -0.4768 -0.3402  0.1600
  614TMC3     H 9101   2.527   1.266  16.051  2.0387 -0.8658 -1.6130
  614TMC3    H1 9102   2.226   1.498  15.858 -1.1223 -2.7415  0.9882
  614TMC3    H2 9103   2.615   1.505  15.704 -0.2207 -0.5781 -0.2835
  614TMC3    C7 9104   2.379   1.599  15.668  0.5501  0.6852  0.1024
  614TMC3    C8 9105   2.609   1.246  15.805 -0.1879  0.1766  0.4977
  614TMC3    O1 9106   2.430   1.706  15.634  0.5181 -0.5624  0.4869
  614TMC3    O2 9107   2.597   1.148  15.874  0.0593 -0.2635 -0.0633
  615MPD2     C 9108   0.914   2.073  15.755 -0.0176 -0.0319  0.6211
  615MPD2    C1 9109   0.811   2.163  15.780  0.1727 -0.3164 -0.0996
  615MPD2    C2 9110   0.701   2.158  15.693  0.2906  0.0108  0.3356
  615MPD2    C3 9111   0.700   2.080  15.586 -0.1789  0.5679  0.3200
  615MPD2    C4 9112   0.802   1.993  15.566 -0.5091 -0.0609  0.3681
  615MPD2    C5 9113   0.904   1.981  15.656  0.1458  0.3661 -0.7492
  615MPD2     H 9114   0.626   2.235  15.705 -0.8860 -1.3088  1.4599
  615MPD2    H1 9115   0.798   1.920  15.486 -2.2310  0.4315  0.0169
  615MPD2    H2 9116   0.988   2.055  15.832  1.9245 -0.6620 -1.3671
  615MPD2    H3 9117   0.975   1.900  15.645 -0.5054 -0.5259  1.6469
  615MPD2     N 9118   0.597   2.076  15.485 -0.9421 -0.2777 -0.6116
  615MPD2    H5 9119   0.608   2.013  15.407  2.0429  0.8251 -1.0925
  615MPD2    N1 9120   0.810   2.251  15.890 -0.6930  0.3339 -0.2223
  615MPD2    H7 9121   0.724   2.301  15.908 -0.0611  2.2093 -2.4140
  616TMC3    C1 9122   0.895   2.396  16.063 -0.0312  0.4488 -0.1896
  616TMC3    C2 9123   1.014   2.461  16.106 -0.0985  0.1190  0.2718
  616TMC3    C3 9124   0.993   2.571  16.181  0.6760  0.7141  0.0155
  616TMC3    C4 9125   0.769   2.443  16.094 -0.7394  1.1445 -0.5302
  616TMC3    C5 9126   0.758   2.546  16.177  0.0068  0.2794 -0.1557
  616TMC3    C6 9127   0.869   2.626  16.213  0.4471  0.1464 -0.3248
  616TMC3     C 9128   0.914   2.274  15.976  0.1744  0.4097 -0.2452
  616TMC3     O 9129   1.023   2.222  15.988  0.0819 -0.4973  0.0287
  616TMC3     H 9130   1.111   2.420  16.078 -1.3215 -1.3880 -1.8235
  616TMC3    H1 9131   0.679   2.393  16.059 -0.7154 -0.5113  1.7956
  616TMC3    H2 9132   0.854   2.690  16.299 -0.0832 -0.6478  0.1759
  616TMC3    C7 9133   0.635   2.589  16.234  0.4864 -0.2054  0.2000
  616TMC3    C8 9134   1.095   2.621  16.272  0.2575  0.6422  0.3117
  616TMC3    O1 9135   0.627   2.692  16.299 -0.4084 -0.6133  0.0562
  616TMC3    O2 9136   1.058   2.697  16.361  0.9342  0.6108 -0.2241
  617MPD2     C 9137   3.358   0.523  13.645 -0.0795  0.0592  0.2103
  617MPD2    C1 9138   3.445   0.511  13.751  0.7785 -0.2855  0.3127
  617MPD2    C2 9139   3.389   0.502  13.877 -0.5122  0.0876  0.5975
  617MPD2    C3 9140   3.255   0.489  13.881 -0.2945 -0.4704  0.6172
  617MPD2    C4 9141   3.171   0.493  13.774 -0.9732 -0.3944 -0.3335
  617MPD2    C5 9142   3.223   0.510  13.649 -0.0586  0.3674  0.6031
  617MPD2     H 9143   3.450   0.496  13.967 -2.5565  1.1561  2.0567
  617MPD2    H1 9144   3.064   0.478  13.785 -0.9689 -1.4037 -1.6153
  617MPD2    H2 9145   3.391   0.541  13.544 -0.2075  0.6232  0.2664
  617MPD2    H3 9146   3.159   0.521  13.562 -0.1177 -3.6674  0.1313
  617MPD2     N 9147   3.180   0.460  13.998 -0.1632 -0.6414  0.4862
  617MPD2    H5 9148   3.079   0.460  13.990 -0.1859  0.6354  0.7214
  617MPD2    N1 9149   3.586   0.536  13.731 -0.6398  0.0028  0.5266
  617MPD2    H7 9150   3.625   0.563  13.641  0.3615 -0.1438  0.9118
  618TMC3    C1 9151   3.819   0.521  13.773  0.1771  0.0855  0.0382
  618TMC3    C2 9152   3.840   0.451  13.657 -0.0526 -0.4087  0.3368
  618TMC3    C3 9153   3.967   0.411  13.636 -0.0609  0.0102 -0.5262
  618TMC3    C4 9154   3.916   0.575  13.850  0.0909  0.1313 -0.0659
  618TMC3    C5 9155   4.046   0.527  13.817 -0.0347 -0.5103 -0.1142
  618TMC3    C6 9156   4.072   0.437  13.718  0.0320 -0.4398 -0.4332
  618TMC3     C 9157   3.683   0.532  13.827 -0.2524 -1.2025 -0.4296
  618TMC3     O 9158   3.669   0.519  13.945  0.5640  0.1862  0.5929
  618TMC3     H 9159   3.758   0.413  13.598 -1.3164  1.3176  0.9913
  618TMC3    H1 9160   3.903   0.630  13.943  0.9178  1.4437 -0.7356
  618TMC3    H2 9161   4.166   0.382  13.718  0.5728  0.5107  2.4242
  618TMC3    C7 9162   4.147   0.580  13.908  0.3464 -0.0893 -0.2863
  618TMC3    C8 9163   3.989   0.394  13.494 -0.1417 -0.5832 -0.2275
  618TMC3    O1 9164   4.113   0.575  14.022 -0.0308 -0.5952  0.5310
  618TMC3    O2 9165   3.894   0.382  13.420 -0.1149 -0.1537 -0.4474
  619MPD2     C 9166   0.826   2.233  13.171  0.0186 -0.4206  0.3691
  619MPD2    C1 9167   0.745   2.297  13.083 -0.2489 -0.4292  0.1456
  619MPD2    C2 9168   0.622   2.236  13.059 -0.3046  0.2870 -0.1542
  619MPD2    C3 9169   0.585   2.120  13.119  0.4660 -0.3557 -0.6218
  619MPD2    C4 9170   0.668   2.058  13.210  0.1051  0.5161 -0.2113
  619MPD2    C5 9171   0.792   2.117  13.236 -0.1362 -0.4516  0.4156
  619MPD2     H 9172   0.546   2.297  13.012 -1.3094 -1.1807 -0.4361
  619MPD2    H1 9173   0.636   1.968  13.263  0.1029 -0.3107 -1.6285
  619MPD2    H2 9174   0.917   2.282  13.203  0.2389 -0.3387 -0.3997
  619MPD2    H3 9175   0.866   2.060  13.292  0.1849 -0.9916 -0.5571
  619MPD2     N 9176   0.459   2.061  13.110  0.4079  0.4613  0.8690
  619MPD2    H5 9177   0.432   1.990  13.178  1.4685 -0.4877  0.2972
  619MPD2    N1 9178   0.788   2.419  13.023  0.3472 -0.1250  0.2621
  619MPD2    H7 9179   0.736   2.456  12.944 -0.7414 -2.0398  0.0758
  620TMC3    C1 9180   0.913   2.629  13.003 -0.2662  0.0246 -0.4541
  620TMC3    C2 9181   0.842   2.664  12.891  0.1711  0.3280 -0.0921
  620TMC3    C3 9182   0.832   2.793  12.855 -0.2708  0.4214  0.3737
  620TMC3    C4 9183   0.966   2.731  13.085 -0.3570  0.3164 -1.0319
  620TMC3    C5 9184   0.939   2.864  13.057 -0.1808  0.0069 -0.1394
  620TMC3    C6 9185   0.883   2.896  12.931  0.0856  0.3921 -0.2803
  620TMC3     C 9186   0.898   2.495  13.059  0.2089 -0.3122  1.0754
  620TMC3     O 9187   0.985   2.479  13.147 -0.0231 -0.0503 -0.1465
  620TMC3     H 9188   0.803   2.588  12.823  2.5319 -0.2932 -0.7368
  620TMC3    H1 9189   1.005   2.696  13.180 -2.7022  0.2486 -0.0869
  620TMC3    H2 9190   0.879   2.998  12.894 -0.2068 -0.1248 -1.6947
  620TMC3    C7 9191   0.885   2.936  13.164 -0.4752  0.1012  0.3373
  620TMC3    C8 9192   0.704   2.832  12.810  0.3826 -0.1239 -0.1624
  620TMC3    O1 9193   0.941   2.929  13.274 -0.1519  0.3484 -0.0317
  620TMC3    O2 9194   0.661   2.928  12.873 -0.0104  0.5025  0.0139
  621MPD2     C 9195   1.156   1.636  10.453 -0.0711  0.2297 -0.6205
  621MPD2    C1 9196   1.204   1.582  10.339  0.0105 -0.2813 -0.4402
  621MPD2    C2 9197   1.277   1.672  10.258  0.2825  0.1002  0.1141
  621MPD2    C3 9198   1.275   1.810  10.268 -0.5752 -0.3681  0.1228
  621MPD2    C4 9199   1.225   1.854  10.388  0.3606 -0.2100  0.3610
  621MPD2    C5 9200   1.170   1.769  10.477 -0.2055  0.1013  0.2200
  621MPD2     H 9201   1.327   1.630  10.172 -0.9748  1.7891 -1.4635
  621MPD2    H1 9202   1.214   1.956  10.423  1.7283 -0.0093  0.2043
  621MPD2    H2 9203   1.101   1.584  10.531  1.9979 -3.0507 -1.3520
  621MPD2    H3 9204   1.120   1.805  10.566  0.7285 -1.5415  1.3965
  621MPD2     N 9205   1.334   1.884  10.170  0.4291  0.2758 -0.0097
  621MPD2    H5 9206   1.383   1.826  10.102 -0.8659 -2.2558  1.1876
  621MPD2    N1 9207   1.192   1.448  10.294 -0.4023  0.4131  0.4258
  621MPD2    H7 9208   1.242   1.421  10.210 -1.1161  0.7871 -0.1171
  622TMC3    C1 9209   1.077   1.248  10.283  0.2880  0.1540  0.6817
  622TMC3    C2 9210   1.019   1.153  10.353  0.9576 -0.5415  0.3667
  622TMC3    C3 9211   0.987   1.039  10.294 -0.6752 -0.5510  0.0377
  622TMC3    C4 9212   1.085   1.243  10.148  0.8089  0.2263 -0.6606
  622TMC3    C5 9213   1.050   1.123  10.087 -0.0176  0.1102  0.1123
  622TMC3    C6 9214   1.001   1.018  10.158 -0.0438 -0.6815 -1.0753
  622TMC3     C 9215   1.131   1.353  10.366  0.2176 -0.0113 -0.5101
  622TMC3     O 9216   1.083   1.360  10.478  0.2501 -0.3030  0.8187
  622TMC3     H 9217   1.016   1.154  10.461  2.0881 -0.4475  0.3996
  622TMC3    H1 9218   1.126   1.320  10.083  0.6933  0.1718 -0.7997
  622TMC3    H2 9219   0.968   0.929  10.105 -0.7763 -0.6993 -0.5938
  622TMC3    C7 9220   1.053   1.108   9.944 -0.3066  0.2833  0.5294
  622TMC3    C8 9221   0.888   0.956  10.359  0.0410  0.3003  0.2602
  622TMC3    O1 9222   1.071   0.993   9.902 -0.1125 -0.0818 -0.4560
  622TMC3    O2 9223   0.878   0.839  10.317  0.1967 -0.0063 -0.3389
  623MPD2     C 9224   4.180   2.882  16.472 -0.2050  0.5025  0.3439
  623MPD2    C1 9225   4.130   2.767  16.421  0.4209 -0.6042  0.0874
  623MPD2    C2 9226   4.197   2.642  16.440 -0.6322 -0.5457 -1.0898
  623MPD2    C3 9227   4.309   2.646  16.519  0.5423  0.0680  0.9149
  623MPD2    C4 9228   4.362   2.764  16.563  0.0963 -0.0747  0.4744
  623MPD2    C5 9229   4.301   2.879  16.543  0.9754 -0.1550  0.0940
  623MPD2     H 9230   4.169   2.549  16.391  0.2989 -1.8865  0.9212
  623MPD2    H1 9231   4.454   2.767  16.619  0.4688  0.0528 -0.1498
  623MPD2    H2 9232   4.127   2.977  16.471 -0.6643  0.2109 -2.5524
  623MPD2    H3 9233   4.342   2.970  16.584 -1.0154  0.6254  0.3432
  623MPD2     N 9234   4.375   2.523  16.542  0.1233 -0.5441  0.4794
  623MPD2    H5 9235   4.331   2.438  16.508  3.3271 -1.7283 -0.7541
  623MPD2    N1 9236   4.009   2.780  16.348  0.4499 -0.0469 -0.3313
  623MPD2    H7 9237   3.979   2.876  16.334 -1.5810 -0.4457  1.2796
  624TMC3    C1 9238   4.688   2.201  16.645  0.0294 -0.6146  0.1670
  624TMC3    C2 9239   4.592   2.102  16.644 -1.0930  0.4231 -0.5721
  624TMC3    C3 9240   4.462   2.139  16.627  0.1933  0.8447  0.0301
  624TMC3    C4 9241   4.655   2.335  16.639  0.0771 -0.3955 -0.0645
  624TMC3    C5 9242   4.521   2.366  16.634 -0.0253 -0.4570 -0.4820
  624TMC3    C6 9243   4.425   2.271  16.628  0.2412  0.5240  0.3064
  624TMC3     C 9244   0.090   2.145  16.588  0.2833 -0.6911 -0.1787
  624TMC3     O 9245   0.104   2.022  16.576 -0.2036  1.1941  0.1460
  624TMC3     H 9246   4.615   1.997  16.656  0.0677  0.6249 -0.9399
  624TMC3    H1 9247   0.007   2.415  16.652  0.3243 -0.4678 -1.0471
  624TMC3    H2 9248   4.322   2.305  16.626 -0.2334 -0.9844 -0.6362
  624TMC3    C7 9249   4.492   2.507  16.617  0.2320 -0.5621  0.1103
  624TMC3    C8 9250   4.368   2.026  16.607  0.3132 -0.0497  0.3019
  624TMC3    O1 9251   4.551   2.584  16.689 -0.6527  0.1420 -0.1462
  624TMC3    O2 9252   4.400   1.910  16.624 -0.0767 -0.3046 -0.0709
  625MPD2     C 9253   0.547   3.759   0.506  0.2283  0.2953 -0.4398
  625MPD2    C1 9254   0.588   3.891   0.520 -0.1482  0.0790  0.5120
  625MPD2    C2 9255   0.727   3.910   0.526 -0.8604 -0.3461 -0.6139
  625MPD2    C3 9256   0.817   3.807   0.526  0.4333 -0.9440 -0.4038
  625MPD2    C4 9257   0.765   3.679   0.530  0.5170  0.2510 -0.0287
  625MPD2    C5 9258   0.632   3.655   0.510 -0.2576  0.1140 -0.5364
  625MPD2     H 9259   0.760   4.012   0.513  0.4448 -0.6964  0.0233
  625MPD2    H1 9260   0.828   3.591   0.520 -0.3286 -0.3421 -0.1039
  625MPD2    H2 9261   0.445   3.734   0.480 -0.6154  1.5760  1.6300
  625MPD2    H3 9262   0.600   3.551   0.509  1.7054 -0.4908  0.0007
  625MPD2     N 9263   0.953   3.831   0.529  0.7297  0.7120  0.0589
  625MPD2    H5 9264   0.987   3.924   0.508  1.1407  0.0999 -1.9616
  625MPD2    N1 9265   0.500   3.995   0.512 -0.0836  0.1126  0.5017
  625MPD2    H7 9266   0.414   3.975   0.461 -0.5179  1.8314  0.5680
  626TMC3    C1 9267   0.457   4.229   0.507  0.0872 -0.0289 -0.5568
  626TMC3    C2 9268   0.397   4.224   0.383  0.4222 -0.3920 -0.0660
  626TMC3    C3 9269   0.337   4.336   0.337 -0.6179 -0.5088  0.2100
  626TMC3    C4 9270   0.470   4.336   0.582  0.3320 -0.1078  0.5198
  626TMC3    C5 9271   0.403   4.447   0.539  0.2608  0.6772  0.0876
  626TMC3    C6 9272   0.339   4.448   0.413 -0.2997  0.7493  0.3783
  626TMC3     C 9273   0.529   4.119   0.570  0.3019 -0.5039 -0.7673
  626TMC3     O 9274   0.611   4.141   0.656  0.0559 -0.0299  0.6922
  626TMC3     H 9275   0.413   4.144   0.311 -4.4333 -0.2588 -1.2319
  626TMC3    H1 9276   0.517   4.342   0.679 -0.3601 -1.4047  0.9311
  626TMC3    H2 9277   0.312   4.545   0.372  0.1212  0.9079  0.4822
  626TMC3    C7 9278   0.339   4.529   0.637  0.0194 -0.1687  0.3053
  626TMC3    C8 9279   0.276   4.334   0.203  0.0449  0.0824  0.4710
  626TMC3    O1 9280   0.399   4.538   0.744 -0.3423  0.2117  0.0925
  626TMC3    O2 9281   0.258   4.441   0.145  0.2234 -0.7222  0.2653
  627MPD2     C 9282   3.256   4.087  14.559 -0.4062 -0.2743 -0.2361
  627MPD2    C1 9283   3.373   4.118  14.494 -0.2148 -0.4889  0.2707
  627MPD2    C2 9284   3.417   4.031  14.404 -0.2237  0.8503  0.1501
  627MPD2    C3 9285   3.347   3.922  14.375  0.4428  0.2995  0.1806
  627MPD2    C4 9286   3.231   3.892  14.441 -0.9194 -0.0047 -0.1307
  627MPD2    C5 9287   3.185   3.973  14.543  0.0895 -0.5447 -0.6968
  627MPD2     H 9288   3.512   4.048  14.353 -0.1193 -1.1547 -0.3002
  627MPD2    H1 9289   3.177   3.800  14.423  0.6961 -0.5061 -2.4780
  627MPD2    H2 9290   3.225   4.140  14.648 -0.2845 -0.5675 -0.0184
  627MPD2    H3 9291   3.098   3.954  14.604 -0.4500  2.0341 -0.6486
  627MPD2     N 9292   3.402   3.851  14.266 -0.0031  0.4216 -0.1528
  627MPD2    H5 9293   3.477   3.891  14.209 -0.1241 -0.1185 -0.6816
  627MPD2    N1 9294   3.457   4.223  14.545  0.2909  0.2880  0.1749
  627MPD2    H7 9295   3.550   4.238  14.507  0.0818  0.9584 -0.0850
  628TMC3    C1 9296   3.536   4.402  14.646 -0.1653  0.1193 -0.7732
  628TMC3    C2 9297   3.638   4.322  14.690  0.0318 -0.0059  0.0727
  628TMC3    C3 9298   3.760   4.377  14.697 -0.2887  0.4208 -0.3498
  628TMC3    C4 9299   3.544   4.537  14.631 -0.7311 -0.1270  0.9551
  628TMC3    C5 9300   3.670   4.594  14.641 -0.1906  0.0731 -0.1116
  628TMC3    C6 9301   3.774   4.509  14.661 -0.2236  0.0134  0.3326
  628TMC3     C 9302   3.418   4.324  14.623 -0.6783 -0.1510 -0.5029
  628TMC3     O 9303   3.310   4.371  14.649 -0.0631 -0.7587  0.4643
  628TMC3     H 9304   3.620   4.219  14.721  0.0402 -0.1536 -0.4104
  628TMC3    H1 9305   3.453   4.590  14.606 -0.9725 -0.5679  0.9033
  628TMC3    H2 9306   3.877   4.543  14.668 -0.4206  0.8605 -0.8698
  628TMC3    C7 9307   3.691   0.018  14.635 -0.6204 -0.5227 -0.9510
  628TMC3    C8 9308   3.858   4.282  14.651  0.2069  0.0229  0.6783
  628TMC3    O1 9309   3.809   0.045  14.627  0.3652  0.1499 -0.1082
  628TMC3    O2 9310   3.907   4.292  14.540 -0.1609  0.4952 -0.4194
  629MPD2     C 9311   1.573   2.651  16.474  0.2034  0.4162  0.7086
  629MPD2    C1 9312   1.578   2.589  16.356 -0.2094 -0.2371  0.0854
  629MPD2    C2 9313   1.464   2.560  16.280  0.2537 -0.7743 -0.8649
  629MPD2    C3 9314   1.339   2.601  16.329 -0.1793 -0.2850  0.0577
  629MPD2    C4 9315   1.336   2.669  16.447  0.7781  0.4032  0.5452
  629MPD2    C5 9316   1.451   2.686  16.522 -0.4736 -0.4007  0.5247
  629MPD2     H 9317   1.473   2.498  16.191 -0.1133 -0.3429 -1.2066
  629MPD2    H1 9318   1.248   2.714  16.492  0.3359  0.9972 -0.9156
  629MPD2    H2 9319   1.657   2.663  16.541  1.3726 -2.7434 -0.1633
  629MPD2    H3 9320   1.451   2.730  16.621  0.5654  0.7650  0.0108
  629MPD2     N 9321   1.225   2.581  16.242  0.0279  0.0960 -0.2275
  629MPD2    H5 9322   1.241   2.522  16.161 -1.1995  0.6468 -0.8664
  629MPD2    N1 9323   1.711   2.538  16.319 -0.4055 -0.6167 -0.1759
  629MPD2    H7 9324   1.787   2.567  16.379  0.4477 -1.9590 -0.6124
  630TMC3    C1 9325   1.882   2.422  16.206 -0.8788  0.1210  0.4036
  630TMC3    C2 9326   1.962   2.479  16.110 -0.1520  0.2126 -0.4484
  630TMC3    C3 9327   2.097   2.475  16.132  0.1755  0.3633  0.1163
  630TMC3    C4 9328   1.928   2.390  16.326  0.1869  0.1048  0.3830
  630TMC3    C5 9329   2.066   2.362  16.335 -0.3234 -0.7856  0.1043
  630TMC3    C6 9330   2.150   2.407  16.236 -0.5942  0.9825  0.6547
  630TMC3     C 9331   1.744   2.461  16.209 -0.3223  0.1101  0.0096
  630TMC3     O 9332   1.670   2.426  16.120  0.1646 -0.6581  0.0576
  630TMC3     H 9333   1.917   2.534  16.028 -0.4627 -0.3694 -0.6709
  630TMC3    H1 9334   1.870   2.330  16.395 -0.3863 -0.4724 -0.6141
  630TMC3    H2 9335   2.257   2.395  16.243 -0.6451 -0.8666 -1.8242
  630TMC3    C7 9336   2.117   2.311  16.470 -0.1981 -0.3094 -0.2551
  630TMC3    C8 9337   2.175   2.583  16.087 -0.0028 -0.3545  0.0240
  630TMC3    O1 9338   2.047   2.309  16.571 -0.2908 -0.0432  0.2977
  630TMC3    O2 9339   2.268   2.609  16.165 -0.0026  0.0334  0.0553
  631MPD2     C 9340   4.369   2.461  15.532  0.0513  0.4557  0.0358
  631MPD2    C1 9341   4.435   2.476  15.411 -0.3512 -0.1208 -0.4703
  631MPD2    C2 9342   4.547   2.392  15.384 -0.5612  0.6756  0.3880
  631MPD2    C3 9343   4.596   2.302  15.473 -1.0374 -0.3245 -0.3966
  631MPD2    C4 9344   4.535   2.296  15.592 -0.7221 -0.2780 -0.2205
  631MPD2    C5 9345   4.423   2.372  15.619  0.0131 -0.8242  0.5744
  631MPD2     H 9346   4.592   2.409  15.287 -0.4094 -1.0618  0.1608
  631MPD2    H1 9347   4.558   2.225  15.671 -2.8866 -1.1188 -0.3364
  631MPD2    H2 9348   4.287   2.522  15.566  0.2814  0.9871 -0.3572
  631MPD2    H3 9349   4.369   2.357  15.711 -0.1324  0.3145  0.6824
  631MPD2     N 9350   4.710   2.221  15.444  0.7887 -0.7459 -0.4024
  631MPD2    H5 9351   0.032   2.175  15.523  2.5805  0.9745 -0.3826
  631MPD2    N1 9352   4.379   2.566  15.316 -0.8093 -0.1768  0.6412
  631MPD2    H7 9353   4.307   2.624  15.359 -1.8519  0.1360 -1.5010
  632TMC3    C1 9354   4.333   2.683  15.118  0.9978 -0.3731 -0.5894
  632TMC3    C2 9355   4.229   2.740  15.182  0.1050 -0.5147 -0.4037
  632TMC3    C3 9356   4.206   2.873  15.167  0.3372  0.0247  0.4991
  632TMC3    C4 9357   4.412   2.752  15.035 -0.3997 -0.6758  0.3441
  632TMC3    C5 9358   4.382   2.884  15.018  0.4652 -0.6815 -0.2859
  632TMC3    C6 9359   4.279   2.950  15.079 -0.8958  0.3611  0.9609
  632TMC3     C 9360   4.401   2.569  15.177  0.1039 -0.4833 -0.4520
  632TMC3     O 9361   4.473   2.497  15.116  0.5168  0.4601  0.4841
  632TMC3     H 9362   4.172   2.686  15.256  1.3735  0.2492  1.1492
  632TMC3    H1 9363   4.510   2.713  15.008  0.1317 -0.0317  1.3495
  632TMC3    H2 9364   4.261   3.057  15.068  0.2754  0.4427 -0.1589
  632TMC3    C7 9365   4.467   2.955  14.926  0.2279 -0.4884  0.4514
  632TMC3    C8 9366   4.110   2.935  15.254  0.1775  0.4617 -0.3175
  632TMC3    O1 9367   4.414   3.031  14.841  0.2333 -0.0444  0.0754
  632TMC3    O2 9368   4.081   2.873  15.356 -0.1929 -0.2296  0.4628
  633MPD2     C 9369   0.382   0.788  17.311 -0.2687  0.1611  0.2203
  633MPD2    C1 9370   0.421   0.757  17.183  0.1776  0.1116 -0.2808
  633MPD2    C2 9371   0.417   0.620  17.146 -0.7445 -0.4885 -0.1393
  633MPD2    C3 9372   0.389   0.516  17.229 -0.1065  0.4405  0.1489
  633MPD2    C4 9373   0.353   0.548  17.360  0.2609 -0.0215  0.1314
  633MPD2    C5 9374   0.354   0.680  17.394 -0.6165  0.0827 -0.2719
  633MPD2     H 9375   0.437   0.597  17.042 -1.5864 -1.0363 -0.1781
  633MPD2    H1 9376   0.337   0.481  17.444 -0.8179  0.0594 -0.0092
  633MPD2    H2 9377   0.366   0.889  17.347  1.2764  1.1674 -1.9598
  633MPD2    H3 9378   0.314   0.699  17.493  1.2626 -0.2885  0.5530
  633MPD2     N 9379   0.392   0.380  17.184 -0.4143  0.3681  0.8404
  633MPD2    H5 9380   0.437   0.360  17.095 -2.4945 -0.4424 -0.0371
  633MPD2    N1 9381   0.458   0.855  17.085 -0.2587  0.1986 -0.1117
  633MPD2    H7 9382   0.451   0.802  16.999 -0.6493  1.0426 -0.6053
  634TMC3    C1 9383   0.478   1.060  16.970 -0.0082 -0.1676  0.3612
  634TMC3    C2 9384   0.549   1.002  16.875 -0.3058  0.2648  0.9803
  634TMC3    C3 9385   0.545   1.049  16.745  0.8602  0.1625  0.5044
  634TMC3    C4 9386   0.421   1.183  16.951 -0.0164  0.2395 -0.5148
  634TMC3    C5 9387   0.437   1.243  16.824  0.0989 -0.0549  0.5479
  634TMC3    C6 9388   0.487   1.166  16.720 -0.7857  0.7256  0.1239
  634TMC3     C 9389   0.459   0.990  17.093  0.5764  0.0072  0.4631
  634TMC3     O 9390   0.432   1.063  17.191 -0.2110  0.1156 -0.5464
  634TMC3     H 9391   0.597   0.908  16.900  1.5842  0.8131 -0.6142
  634TMC3    H1 9392   0.372   1.236  17.032 -2.2859  2.3951 -3.3321
  634TMC3    H2 9393   0.482   1.197  16.616 -1.8770 -2.2105 -0.7027
  634TMC3    C7 9394   0.360   1.363  16.788 -0.2007 -0.4162 -0.0001
  634TMC3    C8 9395   0.593   0.958  16.646  0.3350  0.5750 -0.1580
  634TMC3    O1 9396   0.349   1.387  16.667 -0.0678  0.1992 -0.4725
  634TMC3    O2 9397   0.622   0.844  16.684 -0.1565  0.7634  0.0807
  635TMC3    C1 9398   0.987   1.147  17.222  0.1863  0.1399 -0.5163
  635TMC3    C2 9399   1.116   1.131  17.261  0.0145 -0.8041  0.6399
  635TMC3    C3 9400   1.148   0.996  17.263  0.4084 -0.4356 -0.2690
  635TMC3    C4 9401   0.897   1.056  17.182  0.8231  0.5945  0.4193
  635TMC3    C5 9402   0.944   0.934  17.180 -0.7654  0.1590 -0.7855
  635TMC3    C6 9403   1.065   0.893  17.228 -0.6797 -1.1216  0.1360
  635TMC3     C 9404   0.936   1.289  17.233 -0.4978  0.3095 -0.2756
  635TMC3     O 9405   0.831   1.295  17.299 -0.3734  0.5371 -0.3275
  635TMC3     H 9406   1.183   1.211  17.288  1.8229 -2.1630  0.2244
  635TMC3    H1 9407   0.796   1.077  17.147  0.3080 -0.7570  1.0912
  635TMC3    H2 9408   1.094   0.792  17.205 -0.8864 -1.4489  1.3047
  635TMC3    C7 9409   0.857   0.828  17.145  0.0976 -0.1016  0.3734
  635TMC3    C8 9410   1.278   0.959  17.328 -0.6597 -0.1064  0.0726
  635TMC3    O1 9411   0.782   0.837  17.053  0.1010  0.8563 -0.0781
  635TMC3    O2 9412   1.375   1.037  17.335 -0.2583  0.2475 -0.4941
  636MPD2     C 9413   1.430   0.945  15.451  0.6990 -0.7236 -0.5292
  636MPD2    C1 9414   1.535   1.025  15.493  0.2934 -0.1127 -0.1056
  636MPD2    C2 9415   1.661   0.973  15.528  0.3598 -0.4131  0.0891
  636MPD2    C3 9416   1.676   0.836  15.523 -0.1070  0.7614 -0.1697
  636MPD2    C4 9417   1.570   0.765  15.492  0.0327 -0.0337 -0.2490
  636MPD2    C5 9418   1.448   0.812  15.455  0.6574  0.6630  0.4905
  636MPD2     H 9419   1.747   1.036  15.550 -1.3351  1.6729  0.7292
  636MPD2    H1 9420   1.577   0.657  15.491 -0.2768 -0.0355 -3.2244
  636MPD2    H2 9421   1.334   0.983  15.418  1.1664 -0.8975 -2.0650
  636MPD2    H3 9422   1.370   0.740  15.435  0.7867  1.1427 -1.7179
  636MPD2     N 9423   1.799   0.785  15.571  0.1896 -0.3617 -0.7119
  636MPD2    H5 9424   1.878   0.848  15.580  0.9567 -1.7683  2.1727
  636MPD2    N1 9425   1.520   1.166  15.505  0.2388 -0.1842 -0.4309
  636MPD2    H7 9426   1.597   1.213  15.552  0.1352 -1.6683  1.2535
  637TMC3    C1 9427   1.970   0.645  15.643  0.4139 -0.7770 -0.2261
  637TMC3    C2 9428   1.998   0.654  15.777 -0.4861 -0.7390  0.1300
  637TMC3    C3 9429   2.130   0.667  15.818 -0.1022 -0.1940 -0.0884
  637TMC3    C4 9430   2.068   0.683  15.543 -0.2693  0.6962 -0.5849
  637TMC3    C5 9431   2.199   0.678  15.590 -0.0816  0.1613  0.7083
  637TMC3    C6 9432   2.225   0.663  15.721  0.6669 -0.0616 -0.1011
  637TMC3     C 9433   1.827   0.657  15.611  0.1188  0.1133 -0.2222
  637TMC3     O 9434   1.754   0.561  15.619  0.0055 -0.5930  0.0732
  637TMC3     H 9435   1.915   0.650  15.847 -0.9562  0.5879 -0.3404
  637TMC3    H1 9436   2.045   0.711  15.441  0.2264  1.1703 -0.5660
  637TMC3    H2 9437   2.325   0.679  15.759  0.6324 -0.0231 -0.0240
  637TMC3    C7 9438   2.280   0.762  15.505 -0.1821  0.2321  1.0532
  637TMC3    C8 9439   2.138   0.790  15.887 -0.2685 -0.2818  0.0594
  637TMC3    O1 9440   2.267   0.750  15.384 -0.3508  0.3047 -0.2661
  637TMC3    O2 9441   2.160   0.888  15.817  0.0165  0.2220 -0.1814
  638MPD2     C 9442   1.197   0.008  14.676  0.4436 -0.4024 -0.3628
  638MPD2    C1 9443   1.094   4.660  14.609  0.2374  0.4126  0.6843
  638MPD2    C2 9444   1.020   4.561  14.674  0.5171 -0.3152 -0.5334
  638MPD2    C3 9445   1.062   4.525  14.803  0.7063  0.1536 -0.7189
  638MPD2    C4 9446   1.155   4.604  14.869  0.5650 -0.4440 -0.5967
  638MPD2    C5 9447   1.223   4.698  14.809  0.0647 -0.0738  0.2023
  638MPD2     H 9448   0.942   4.506  14.623  0.3394  0.2870 -0.9074
  638MPD2    H1 9449   1.174   4.604  14.975  1.5602 -0.4555 -0.7788
  638MPD2    H2 9450   1.242   0.095  14.630 -1.9137  1.3848  0.6882
  638MPD2    H3 9451   1.291   0.029  14.875  0.6598 -1.3634  0.6017
  638MPD2     N 9452   1.014   4.415  14.866  0.4739 -0.1609  0.1654
  638MPD2    H5 9453   0.952   4.357  14.811  1.6555 -0.4591 -0.8457
  638MPD2    N1 9454   1.080   4.691  14.473  0.0447 -0.7414 -0.0725
  638MPD2    H7 9455   1.151   0.033  14.434  1.6574 -0.0612  4.0151
  639TMC3    C1 9456   0.971   4.234  15.019 -0.4818 -1.1138  0.0891
  639TMC3    C2 9457   0.841   4.232  14.985  0.2462 -0.9140 -0.1366
  639TMC3    C3 9458   0.768   4.125  15.041  0.2341 -0.3136 -0.3436
  639TMC3    C4 9459   1.023   4.155  15.115 -1.0125  0.6165  0.3649
  639TMC3    C5 9460   0.945   4.062  15.170  0.1376 -0.2193 -0.1104
  639TMC3    C6 9461   0.819   4.042  15.135  0.1072  0.5783 -0.0585
  639TMC3     C 9462   1.055   4.354  14.980  0.1196 -0.4776 -0.2088
  639TMC3     O 9463   1.158   4.377  15.043  0.4285  0.4284  0.5821
  639TMC3     H 9464   0.797   4.311  14.926 -1.0847 -2.1095 -0.7667
  639TMC3    H1 9465   1.120   4.192  15.147 -0.9166  2.5501 -2.1382
  639TMC3    H2 9466   0.777   3.943  15.148  0.2264  0.4752 -0.4641
  639TMC3    C7 9467   0.996   3.980  15.273 -0.0884  0.2534 -0.2789
  639TMC3    C8 9468   0.650   4.095  14.967  0.5290  0.8853  1.3490
  639TMC3    O1 9469   0.912   3.924  15.342 -0.1355  0.0138  0.5716
  639TMC3    O2 9470   0.641   4.148  14.853 -0.0982 -0.9215  0.0964
  640MPD2     C 9471   1.603   2.362   9.599 -0.3328 -0.7616  0.2774
  640MPD2    C1 9472   1.657   2.489   9.587  0.3681  0.2727  0.1571
  640MPD2    C2 9473   1.591   2.601   9.648  0.0910  0.3141 -0.4926
  640MPD2    C3 9474   1.462   2.585   9.695  0.0285  0.0708 -0.2214
  640MPD2    C4 9475   1.399   2.459   9.695 -0.5038 -0.0591 -0.4825
  640MPD2    C5 9476   1.480   2.351   9.669  0.1032 -1.1042  0.2035
  640MPD2     H 9477   1.641   2.697   9.648  0.9063 -0.1161 -2.8572
  640MPD2    H1 9478   1.308   2.445   9.751 -1.0319  4.1034 -0.2578
  640MPD2    H2 9479   1.660   2.272   9.577  0.5269 -0.2734  0.5021
  640MPD2    H3 9480   1.432   2.254   9.677  0.0476 -1.0945 -0.0003
  640MPD2     N 9481   1.394   2.682   9.772 -0.0810 -0.0144 -0.4136
  640MPD2    H5 9482   1.305   2.646   9.805 -0.2123  1.7778  1.1290
  640MPD2    N1 9483   1.782   2.501   9.524 -0.3352  0.0091 -0.0873
  640MPD2    H7 9484   1.811   2.413   9.481  0.8481  0.7917 -0.9124
  641TMC3    C1 9485   1.967   2.594   9.404  0.2246  0.3645  0.3225
  641TMC3    C2 9486   2.040   2.477   9.412 -0.0360  0.1098  0.6721
  641TMC3    C3 9487   2.165   2.474   9.344  0.1260 -0.1831 -0.5089
  641TMC3    C4 9488   2.021   2.706   9.349  1.3012  0.0293 -0.2148
  641TMC3    C5 9489   2.137   2.698   9.277  0.4709  0.8131  0.0128
  641TMC3    C6 9490   2.209   2.575   9.271 -0.0423 -0.7594 -0.1510
  641TMC3     C 9491   1.849   2.618   9.492 -0.3219  0.4002  0.1630
  641TMC3     O 9492   1.815   2.731   9.511  0.4682 -0.2589  0.5716
  641TMC3     H 9493   2.005   2.385   9.456  0.3989 -1.2370 -1.7894
  641TMC3    H1 9494   1.973   2.802   9.367 -0.0070 -0.9036  1.2869
  641TMC3    H2 9495   2.291   2.561   9.202 -2.0652  0.7387 -2.8652
  641TMC3    C7 9496   2.185   2.797   9.188  0.0022 -0.0824 -0.8417
  641TMC3    C8 9497   2.242   2.345   9.329  0.1209  0.1128 -0.7858
  641TMC3    O1 9498   2.306   2.804   9.167 -0.1544 -0.2144  0.5369
  641TMC3    O2 9499   2.321   2.334   9.236 -0.4214  0.1676 -0.1462
  642TMC3    C1 9500   2.564   0.200  12.023 -0.6040  0.2538 -0.2058
  642TMC3    C2 9501   2.698   0.167  12.049 -0.0132 -0.0261 -0.3116
  642TMC3    C3 9502   2.754   0.067  11.968  0.3949 -0.0536 -0.0544
  642TMC3    C4 9503   2.489   0.136  11.926  0.0846 -0.1469 -0.5736
  642TMC3    C5 9504   2.554   0.040  11.855  0.5747  0.5389 -0.2464
  642TMC3    C6 9505   2.685   0.004  11.870  0.0515 -0.4982 -0.3556
  642TMC3     C 9506   2.510   0.316  12.092 -0.8244 -0.3915  0.3807
  642TMC3     O 9507   2.601   0.385  12.134 -0.3173 -0.3399  0.3883
  642TMC3     H 9508   2.754   0.216  12.128  0.1118  0.8568 -0.9509
  642TMC3    H1 9509   2.388   0.166  11.901 -0.0397 -1.6697 -1.8628
  642TMC3    H2 9510   2.734   4.645  11.816  1.5667  1.0158 -1.2331
  642TMC3    C7 9511   2.477   4.651  11.797 -0.5044 -0.3064  0.0024
  642TMC3    C8 9512   2.883   0.014  12.007  0.4586 -0.4939 -0.5547
  642TMC3    O1 9513   2.540   4.583  11.715 -0.4004 -1.0070  0.0469
  642TMC3    O2 9514   2.938   4.671  11.921  0.1478 -0.4393 -0.6347
  643TMC3    C1 9515   1.782   4.020   0.212  0.4485  0.4749  0.5156
  643TMC3    C2 9516   1.677   4.085   0.157  0.6035  0.1222 -0.6746
  643TMC3    C3 9517   1.619   4.047   0.038  0.1903  0.4822  0.4223
  643TMC3    C4 9518   1.829   3.913   0.139 -0.3176 -0.6336 -0.2227
  643TMC3    C5 9519   1.787   3.887   0.012  0.1919 -0.6585 -0.1938
  643TMC3    C6 9520   1.673   3.944  17.657 -0.0640  0.1900 -0.2328
  643TMC3     C 9521   1.847   4.071   0.330 -0.3811 -0.5819  0.2434
  643TMC3     O 9522   1.826   4.188   0.366 -0.6639 -0.3740 -0.4109
  643TMC3     H 9523   1.632   4.164   0.216  0.3865  0.2363 -0.9944
  643TMC3    H1 9524   1.921   3.870   0.179 -0.2106 -0.4254 -0.2456
  643TMC3    H2 9525   1.626   3.914  17.564 -0.1674  1.2815 -0.5250
  643TMC3    C7 9526   1.892   3.874  17.593  0.4939 -0.1217  0.0045
  643TMC3    C8 9527   1.563   4.158  17.641  0.1494  0.4238 -0.7628
  643TMC3    O1 9528   2.003   3.917  17.626 -0.4493 -0.3229 -0.0144
  643TMC3    O2 9529   1.502   4.114  17.545  0.3475 -1.0587  0.5876
  644MPD2     C 9530   2.221   3.700   8.978  0.6152 -0.5191 -0.2864
  644MPD2    C1 9531   2.138   3.623   9.052  0.5007  0.0351 -0.1445
  644MPD2    C2 9532   2.003   3.652   9.057 -0.1477  0.0817 -0.1166
  644MPD2    C3 9533   1.948   3.758   8.989 -0.3332  0.3178 -0.4249
  644MPD2    C4 9534   2.035   3.845   8.931 -0.0343 -0.4707  0.1568
  644MPD2    C5 9535   2.168   3.822   8.930 -0.3349  0.0926 -0.5505
  644MPD2     H 9536   1.931   3.589   9.109  0.0732 -1.5743 -1.8090
  644MPD2    H1 9537   1.997   3.935   8.885 -0.3612  1.2675  3.8936
  644MPD2    H2 9538   2.325   3.673   8.967  1.1124  0.5334  1.8330
  644MPD2    H3 9539   2.235   3.899   8.894 -0.7081  0.9637  0.6096
  644MPD2     N 9540   1.811   3.767   8.980  0.3828 -0.4459 -1.0451
  644MPD2    H5 9541   1.764   3.685   9.017  2.3474 -0.5050  1.3654
  644MPD2    N1 9542   2.193   3.511   9.116  0.2800 -0.0270 -0.3186
  644MPD2    H7 9543   2.294   3.501   9.110  0.4794  0.0684  2.5742
  645TMC3    C1 9544   1.590   3.824   8.902  0.3032  0.2598 -0.8384
  645TMC3    C2 9545   1.532   3.724   8.975  0.1727 -0.3839  0.8425
  645TMC3    C3 9546   1.401   3.687   8.945  0.8662  0.1457 -0.5210
  645TMC3    C4 9547   1.518   3.894   8.810  0.0315  0.8003 -0.1639
  645TMC3    C5 9548   1.389   3.856   8.785  0.2896  0.3529 -0.4438
  645TMC3    C6 9549   1.324   3.753   8.846 -0.4862  0.2097 -0.3447
  645TMC3     C 9550   1.731   3.860   8.908  0.4737  0.0078 -0.1551
  645TMC3     O 9551   1.769   3.960   8.842 -0.1446  0.3546 -0.1584
  645TMC3     H 9552   1.584   3.661   9.046 -2.0137 -1.0355  1.8614
  645TMC3    H1 9553   1.562   3.965   8.741 -0.1925  0.8405 -0.2664
  645TMC3    H2 9554   1.216   3.744   8.835 -0.5179 -0.0267  0.1675
  645TMC3    C7 9555   1.315   3.913   8.675 -0.2676 -0.5229  0.6803
  645TMC3    C8 9556   1.345   3.566   9.014 -1.0230  0.6424  0.0322
  645TMC3    O1 9557   1.344   4.023   8.631 -0.5138  0.3311  0.1227
  645TMC3    O2 9558   1.225   3.584   9.046 -0.0329  0.1027  0.0114
  646MPD2     C 9559   0.797   3.227  14.477 -0.0619  0.1729 -0.2450
  646MPD2    C1 9560   0.706   3.267  14.573 -0.1968 -0.1071  0.6396
  646MPD2    C2 9561   0.598   3.348  14.543 -0.1667 -0.3585  0.1550
  646MPD2    C3 9562   0.576   3.375  14.414  0.3001 -0.3290  0.7386
  646MPD2    C4 9563   0.669   3.339  14.318  0.6734  0.1800  0.4466
  646MPD2    C5 9564   0.777   3.259  14.346  0.5617  0.1065 -0.3640
  646MPD2     H 9565   0.530   3.391  14.615  0.7639  0.1871  0.7147
  646MPD2    H1 9566   0.669   3.376  14.216  1.3612 -0.0764  0.3490
  646MPD2    H2 9567   0.884   3.167  14.499  1.0589  1.4712 -1.1445
  646MPD2    H3 9568   0.849   3.240  14.267 -0.3915  2.1881 -1.7579
  646MPD2     N 9569   0.475   3.468  14.387 -0.2989 -0.5049  0.5562
  646MPD2    H5 9570   0.411   3.492  14.462 -1.0685  2.6993 -1.1330
  646MPD2    N1 9571   0.732   3.245  14.712 -0.4694 -0.1830 -0.9264
  646MPD2    H7 9572   0.821   3.210  14.747  0.7157  0.7047 -3.0453
  647TMC3    C1 9573   0.680   3.268  14.942 -0.5795  0.8998  0.2550
  647TMC3    C2 9574   0.604   3.202  15.042  0.4112  0.6087  0.3641
  647TMC3    C3 9575   0.656   3.207  15.168  0.0878 -0.3662  0.2449
  647TMC3    C4 9576   0.795   3.344  14.958 -0.2771 -0.3960 -0.3461
  647TMC3    C5 9577   0.833   3.362  15.088  0.0519  0.4100  0.0511
  647TMC3    C6 9578   0.767   3.286  15.187 -0.1621  0.3358 -0.0363
  647TMC3     C 9579   0.630   3.250  14.805 -0.1943 -0.1976 -0.6223
  647TMC3     O 9580   0.513   3.234  14.796  0.1620  0.1124 -0.2987
  647TMC3     H 9581   0.531   3.127  15.015 -1.0987  2.3502 -0.3523
  647TMC3    H1 9582   0.845   3.397  14.878 -0.8474  2.3801  1.1235
  647TMC3    H2 9583   0.808   3.280  15.287  0.7426 -0.8429 -0.4663
  647TMC3    C7 9584   0.968   3.405  15.119  0.2085  0.4413  0.6998
  647TMC3    C8 9585   0.665   3.072  15.225  0.5418 -0.5384  0.2499
  647TMC3    O1 9586   1.052   3.416  15.032 -0.0530  0.3140 -0.6173
  647TMC3    O2 9587   0.597   2.987  15.168 -0.2678  0.2859  0.0180
  648TMC3    C1 9588   0.831   1.162  16.005 -0.2793  0.6248  0.0208
  648TMC3    C2 9589   0.881   1.048  15.944 -0.5158 -0.4338  0.2051
  648TMC3    C3 9590   0.835   1.015  15.819  0.2048 -0.0779 -0.1510
  648TMC3    C4 9591   0.735   1.239  15.945  0.0363  0.1322  0.2657
  648TMC3    C5 9592   0.688   1.203  15.823 -0.2185 -0.1428 -0.2878
  648TMC3    C6 9593   0.732   1.089  15.759 -0.2103 -0.3490  0.1024
  648TMC3     C 9594   0.836   1.176  16.153 -0.7948  0.2208  0.1885
  648TMC3     O 9595   0.755   1.259  16.200  0.3259 -0.8601 -0.6999
  648TMC3     H 9596   0.949   0.979  15.993  0.6842  0.8401  0.3215
  648TMC3    H1 9597   0.724   1.341  15.981  2.0923  0.6914 -0.7057
  648TMC3    H2 9598   0.684   1.057  15.667  1.1235  0.0563 -0.7360
  648TMC3    C7 9599   0.578   1.269  15.761  0.4768 -0.4574 -0.5352
  648TMC3    C8 9600   0.852   0.886  15.764 -0.3534 -0.0367 -0.0064
  648TMC3    O1 9601   0.538   1.215  15.656 -0.2217 -0.3637  0.2475
  648TMC3    O2 9602   0.965   0.845  15.766 -0.2741  0.1114 -0.0268
  649TMC3    C1 9603   3.678   2.403  11.887 -0.5183 -0.5691 -0.4931
  649TMC3    C2 9604   3.791   2.450  11.818 -0.8171  0.2887  0.2181
  649TMC3    C3 9605   3.877   2.356  11.757 -0.5958  0.2803  0.1647
  649TMC3    C4 9606   3.648   2.266  11.891  0.5091  0.8858  0.3843
  649TMC3    C5 9607   3.740   2.181  11.827  0.6388  0.1460  0.3102
  649TMC3    C6 9608   3.850   2.225  11.755 -0.4359  0.4757 -0.0869
  649TMC3     C 9609   3.612   2.493  11.988  0.0365  0.2409 -0.2715
  649TMC3     O 9610   3.563   2.441  12.091  0.3377 -0.2079  0.1208
  649TMC3     H 9611   3.835   2.546  11.843 -2.7322  1.1165  0.3573
  649TMC3    H1 9612   3.568   2.233  11.957 -0.1612  3.5052  0.8981
  649TMC3    H2 9613   3.922   2.155  11.712 -1.3372 -1.3229  1.3291
  649TMC3    C7 9614   3.760   2.059  11.906  0.5565  0.2229 -0.2587
  649TMC3    C8 9615   4.020   2.385  11.737  0.2210  0.1863  0.2564
  649TMC3    O1 9616   3.663   1.988  11.924  0.0386 -0.4562  0.4653
  649TMC3    O2 9617   4.091   2.287  11.768  0.2204  0.9426 -0.0181
  650TMC3    C1 9618   1.623   3.980  12.600  0.7980  0.3025 -0.5247
  650TMC3    C2 9619   1.555   4.080  12.660  0.9551 -0.4647 -0.0270
  650TMC3    C3 9620   1.541   4.205  12.599 -0.2651 -0.2984  0.1297
  650TMC3    C4 9621   1.659   3.996  12.468 -0.2282  1.3403  0.3077
  650TMC3    C5 9622   1.645   4.119  12.406  0.2857 -0.6077  0.3197
  650TMC3    C6 9623   1.577   4.224  12.466 -0.3823  0.0431  0.5368
  650TMC3     C 9624   1.611   3.847  12.656  0.3058  0.6536  0.3494
  650TMC3     O 9625   1.514   3.822  12.728  0.1487  0.2046  0.0184
  650TMC3     H 9626   1.524   4.074  12.763  1.1721  0.2115  0.0829
  650TMC3    H1 9627   1.708   3.914  12.417 -0.0158  1.7700 -0.1793
  650TMC3    H2 9628   1.535   4.312  12.419  1.5362  1.1800  0.9602
  650TMC3    C7 9629   1.671   4.127  12.262 -0.5074  0.6523 -0.0441
  650TMC3    C8 9630   1.501   4.323  12.685  0.2226  0.4449  0.1732
  650TMC3    O1 9631   1.705   4.022  12.203 -0.4543  0.2030  0.2361
  650TMC3    O2 9632   1.459   4.299  12.798 -0.1858  0.4018  0.0422
  651MPD2     C 9633   0.847   0.428  10.588 -0.5156 -0.6108  0.5008
  651MPD2    C1 9634   0.873   0.557  10.636 -0.3927 -0.3326  0.6398
  651MPD2    C2 9635   0.980   0.630  10.592  0.3608 -0.1660  0.6050
  651MPD2    C3 9636   1.063   0.577  10.497  0.3477 -0.9081 -0.0297
  651MPD2    C4 9637   1.054   0.441  10.461  0.6970  0.3507 -0.1738
  651MPD2    C5 9638   0.948   0.371  10.511 -0.0634  0.5313 -0.1708
  651MPD2     H 9639   0.986   0.736  10.613 -0.2353 -0.4622  2.2690
  651MPD2    H1 9640   1.116   0.403  10.380  1.7160 -0.2138  0.8670
  651MPD2    H2 9641   0.761   0.369  10.618 -0.3336 -1.0571  0.1390
  651MPD2    H3 9642   0.938   0.266  10.486 -1.9484  0.4750  0.8368
  651MPD2     N 9643   1.175   0.660  10.460  0.0466 -0.5210  0.0670
  651MPD2    H5 9644   1.183   0.754  10.499 -0.5760 -0.2038 -0.5663
  651MPD2    N1 9645   0.777   0.621  10.724 -0.5366 -0.1296 -0.4840
  651MPD2    H7 9646   0.806   0.707  10.770 -1.7886 -0.4389  0.8661
  652TMC3    C1 9647   1.575   0.825  10.289 -0.0925 -0.1686 -1.6615
  652TMC3    C2 9648   1.489   0.719  10.301 -0.1635 -0.0775 -0.0712
  652TMC3    C3 9649   1.364   0.746  10.343 -0.5980 -0.1250  0.1100
  652TMC3    C4 9650   1.534   0.954  10.310 -0.2030  0.3031 -0.0914
  652TMC3    C5 9651   1.406   0.973  10.359  0.0288 -0.7781  0.4637
  652TMC3    C6 9652   1.316   0.872  10.362 -0.0068 -0.6449 -0.5576
  652TMC3     C 9653   1.716   0.800  10.307 -0.1414  0.3159  0.9785
  652TMC3     O 9654   1.744   0.701  10.373  0.3761  0.3220 -0.7497
  652TMC3     H 9655   1.534   0.621  10.306  2.5537  1.1912  0.5881
  652TMC3    H1 9656   1.604   1.033  10.337 -0.3048  1.0978 -2.1072
  652TMC3    H2 9657   1.216   0.889  10.399 -0.5816  1.8284 -3.2678
  652TMC3    C7 9658   1.381   1.074  10.453  0.2736 -0.2505  0.2087
  652TMC3    C8 9659   1.278   0.633  10.370  0.4477 -0.3743  0.5115
  652TMC3    O1 9660   1.277   1.066  10.517  0.3572  0.1371  0.0120
  652TMC3    O2 9661   1.298   0.537  10.295 -0.2882 -0.1249 -0.1047
  653MPD2     C 9662   0.166   0.952   0.180 -0.1625  0.8123  0.0542
  653MPD2    C1 9663   0.131   1.058   0.094 -0.1104  0.2483  0.0585
  653MPD2    C2 9664   0.085   1.032  17.656 -0.8255  0.1772 -0.2297
  653MPD2    C3 9665   0.065   0.907  17.614 -0.1663 -0.1442 -0.2951
  653MPD2    C4 9666   0.106   0.805   0.008  0.4278  0.1822  0.1896
  653MPD2    C5 9667   0.154   0.828   0.135 -0.5254  0.1915  0.2299
  653MPD2     H 9668   0.064   1.116  17.591 -2.2864  1.2033  1.5663
  653MPD2    H1 9669   0.101   0.700  17.666  2.7350  0.1996 -0.3001
  653MPD2    H2 9670   0.211   0.961   0.278 -1.6156  1.9380  0.6254
  653MPD2    H3 9671   0.177   0.750   0.207  1.2656  0.5975  0.1063
  653MPD2     N 9672   0.017   0.888  17.480 -0.5858  0.5731 -0.3191
  653MPD2    H5 9673   0.014   0.975  17.427 -1.7494  0.2723 -0.7410
  653MPD2    N1 9674   0.142   1.193   0.132  0.3951 -0.1497  0.4659
  653MPD2    H7 9675   0.106   1.265   0.070  0.7404 -0.4976 -0.1406
  654TMC3    C1 9676   4.644   0.774  17.304  0.1073 -1.0519  0.1413
  654TMC3    C2 9677   4.563   0.875  17.257 -0.9706 -0.3411  0.1569
  654TMC3    C3 9678   4.509   0.862  17.130 -0.4612  0.6746 -0.0708
  654TMC3    C4 9679   4.656   0.661  17.229 -0.1432 -0.0306 -0.1361
  654TMC3    C5 9680   4.589   0.655  17.106 -0.2129 -0.0859 -0.7050
  654TMC3    C6 9681   4.524   0.755  17.046  0.2106 -0.1894  0.4836
  654TMC3     C 9682   4.692   0.767  17.439  0.1733 -0.1312 -0.3543
  654TMC3     O 9683   4.672   0.668  17.507  0.0334 -0.4678 -0.1206
  654TMC3     H 9684   4.554   0.967  17.313 -1.4914  0.1210 -0.6772
  654TMC3    H1 9685   4.716   0.577  17.261  0.5916  1.3228  2.0688
  654TMC3    H2 9686   4.463   0.749  16.956 -0.4796 -0.5809  0.9771
  654TMC3    C7 9687   4.661   0.579  17.007 -0.3606 -0.4333 -0.6269
  654TMC3    C8 9688   4.445   0.986  17.081 -0.4841  0.4678  0.3643
  654TMC3    O1 9689   4.670   0.638  16.900 -0.0684  0.2436 -0.4508
  654TMC3    O2 9690   4.390   1.053  17.168 -0.1341  0.9099  0.1312
  655MPD2     C 9691   0.965   1.376  15.697  0.4851 -0.4016  0.0797
  655MPD2    C1 9692   0.872   1.436  15.611 -0.6907  0.1208  0.0024
  655MPD2    C2 9693   0.850   1.380  15.486  0.4640  0.7025  0.2624
  655MPD2    C3 9694   0.925   1.275  15.432 -0.5806 -0.0659 -0.1912
  655MPD2    C4 9695   1.021   1.227  15.516 -0.5234 -0.5048 -0.1332
  655MPD2    C5 9696   1.037   1.277  15.643  0.4141  0.2623 -0.0941
  655MPD2     H 9697   0.779   1.424  15.417  1.8052  1.6628 -0.5002
  655MPD2    H1 9698   1.074   1.136  15.490  2.9004  1.8504 -1.4610
  655MPD2    H2 9699   0.982   1.413  15.798  2.6855  2.3768 -1.3173
  655MPD2    H3 9700   1.125   1.233  15.689 -1.7134 -2.8376  0.9593
  655MPD2     N 9701   0.891   1.203  15.304  0.6871  0.5933 -0.9215
  655MPD2    H5 9702   0.961   1.134  15.277  0.0004  0.4650 -2.3846
  655MPD2    N1 9703   0.783   1.545  15.661 -0.2343 -0.2021  0.4265
  655MPD2    H7 9704   0.708   1.568  15.596  0.3342 -2.8037 -1.1415
  656TMC3    C1 9705   0.676   1.706  15.793  0.3787 -0.6029  0.8866
  656TMC3    C2 9706   0.637   1.751  15.915 -0.5121  0.5047 -0.9621
  656TMC3    C3 9707   0.521   1.813  15.924 -0.4164  0.2992  0.4248
  656TMC3    C4 9708   0.614   1.750  15.679 -0.3005  1.5827 -0.0938
  656TMC3    C5 9709   0.488   1.801  15.693  1.0616  0.4323  0.3740
  656TMC3    C6 9710   0.442   1.829  15.818  0.2637  0.5593 -0.1157
  656TMC3     C 9711   0.779   1.604  15.783 -0.6929 -0.1652 -0.3629
  656TMC3     O 9712   0.851   1.590  15.880 -0.5255 -0.2064 -0.3338
  656TMC3     H 9713   0.693   1.716  16.001 -0.6207  0.0728 -1.0653
  656TMC3    H1 9714   0.665   1.746  15.584  0.4684  0.4388  0.3550
  656TMC3    H2 9715   0.343   1.871  15.829  0.3418  0.3051  1.4722
  656TMC3    C7 9716   0.421   1.805  15.567  0.3123 -0.1089  0.6507
  656TMC3    C8 9717   0.450   1.823  16.047 -0.3966  0.3201 -0.1401
  656TMC3    O1 9718   0.479   1.785  15.459  0.1786 -0.1211  0.6303
  656TMC3    O2 9719   0.332   1.851  16.052 -0.0322 -0.1250  0.5783
  657TMC3    C1 9720   0.096   0.359  15.230  0.1237 -0.0872 -0.3257
  657TMC3    C2 9721   0.180   0.308  15.325  0.9818 -0.2960  0.0146
  657TMC3    C3 9722   0.148   0.336  15.456  0.9355  0.0355  0.7781
  657TMC3    C4 9723   4.707   0.443  15.261  0.2509 -0.6921 -0.1503
  657TMC3    C5 9724   4.694   0.480  15.388  0.0398 -0.0798  0.6749
  657TMC3    C6 9725   0.059   0.435  15.488  0.7385 -0.6732  0.7106
  657TMC3     C 9726   0.122   0.337  15.091  0.2631  0.1085 -0.0602
  657TMC3     O 9727   0.033   0.349  15.012  0.0253 -0.4890  0.1182
  657TMC3     H 9728   0.243   0.226  15.292  1.2892  0.6975 -1.8995
  657TMC3    H1 9729   4.635   0.467  15.184  1.6761  0.9703 -0.9583
  657TMC3    H2 9730   0.045   0.456  15.594 -0.5981 -0.4844  0.5070
  657TMC3    C7 9731   4.560   0.502  15.425 -0.1878 -0.3609  0.1426
  657TMC3    C8 9732   0.227   0.284  15.562 -0.2458  0.3382  0.1858
  657TMC3    O1 9733   4.527   0.453  15.537  0.2230 -0.3559  0.1684
  657TMC3    O2 9734   0.174   0.278  15.672 -0.2041 -1.0288  0.2775
  658MPD2     C 9735   1.314   0.992  14.866  0.0353  0.3118 -0.5921
  658MPD2    C1 9736   1.191   0.974  14.831  0.4919  0.1130 -0.2544
  658MPD2    C2 9737   1.169   0.958  14.695 -0.3599 -0.8705 -0.6685
  658MPD2    C3 9738   1.265   0.970  14.600  0.2137 -0.7118 -0.0334
  658MPD2    C4 9739   1.392   0.973  14.639 -0.2107  0.2592 -0.3027
  658MPD2    C5 9740   1.409   0.974  14.772  0.1944  0.1264  0.1326
  658MPD2     H 9741   1.066   0.952  14.663 -0.5090  0.2699 -0.3737
  658MPD2    H1 9742   1.481   0.975  14.578  0.8859  1.6850  1.3442
  658MPD2    H2 9743   1.341   1.003  14.970 -0.7864  1.4897 -0.5043
  658MPD2    H3 9744   1.513   0.971  14.804  0.0834 -0.1583  0.4632
  658MPD2     N 9745   1.223   0.965  14.463  0.4422 -0.0439  0.2193
  658MPD2    H5 9746   1.124   0.950  14.449  0.3799 -0.2798  0.8972
  658MPD2    N1 9747   1.080   0.977  14.924  0.0024  0.1660  0.2369
  658MPD2    H7 9748   1.097   1.013  15.017  1.9658  1.7014 -0.7039
  659TMC3    C1 9749   0.854   0.974  14.988 -0.1875  0.0438 -0.1968
  659TMC3    C2 9750   0.874   1.085  15.064 -0.1160 -0.0969  0.2742
  659TMC3    C3 9751   0.763   1.132  15.121 -0.4169  0.4159  0.0510
  659TMC3    C4 9752   0.726   0.924  14.955 -0.0320  1.2419 -0.6636
  659TMC3    C5 9753   0.621   0.994  15.001 -0.0688  0.3234  0.2261
  659TMC3    C6 9754   0.634   1.097  15.089 -0.3191  0.5565  0.5968
  659TMC3     C 9755   0.958   0.927  14.899 -0.4118  0.8522 -0.4308
  659TMC3     O 9756   0.917   0.860  14.802 -0.0623  0.1451 -0.1860
  659TMC3     H 9757   0.969   1.136  15.074 -1.0050  1.6542 -0.2709
  659TMC3    H1 9758   0.720   0.827  14.907 -1.0900  0.7371  0.4995
  659TMC3    H2 9759   0.545   1.140  15.134 -1.9711  1.1613 -3.1954
  659TMC3    C7 9760   0.491   0.953  14.970 -0.5278  0.2193 -0.5742
  659TMC3    C8 9761   0.769   1.216  15.238  0.0558  0.5895 -0.4119
  659TMC3    O1 9762   0.399   1.019  15.025  0.1731 -0.7830  0.0318
  659TMC3    O2 9763   0.668   1.280  15.277 -0.1011 -0.0187  0.6536
  660MPD2     C 9764   3.539   4.589  12.611  0.1834 -0.1714  0.0288
  660MPD2    C1 9765   3.413   4.658  12.597 -0.2960  0.3037  0.0434
  660MPD2    C2 9766   3.309   4.628  12.694 -0.3326  0.2926 -0.3931
  660MPD2    C3 9767   3.327   4.518  12.782 -0.7625 -0.1903  0.0394
  660MPD2    C4 9768   3.448   4.455  12.784 -0.1059  0.3416 -0.8527
  660MPD2    C5 9769   3.553   4.494  12.704 -0.2038  0.4444 -0.6274
  660MPD2     H 9770   3.216   4.683  12.687 -0.0497  0.5683 -2.0394
  660MPD2    H1 9771   3.462   4.374  12.855 -1.8273  1.1992  0.4920
  660MPD2    H2 9772   3.618   4.612  12.541 -0.5329  0.9443 -0.4262
  660MPD2    H3 9773   3.650   4.447  12.719 -0.1955  0.8560  0.6217
  660MPD2     N 9774   3.231   4.476  12.877  0.0952 -0.1801 -0.2529
  660MPD2    H5 9775   3.259   4.407  12.946  0.6943 -0.8559 -1.1620
  660MPD2    N1 9776   3.409   0.027  12.482 -0.3031 -0.3968  0.2022
  660MPD2    H7 9777   3.475   4.720  12.410 -1.3507  0.2425 -1.0189
  661TMC3    C1 9778   3.339   0.193  12.323 -0.0654  0.2223 -0.0459
  661TMC3    C2 9779   3.461   0.189  12.262 -0.0535  0.1270  0.2186
  661TMC3    C3 9780   3.472   0.253  12.141 -0.1054  0.0294  0.1259
  661TMC3    C4 9781   3.222   0.252  12.271  0.0819 -0.7203 -0.6232
  661TMC3    C5 9782   3.240   0.316  12.154 -0.3045 -0.4603 -0.3014
  661TMC3    C6 9783   3.359   0.321  12.088 -0.6373  0.7275  0.3641
  661TMC3     C 9784   3.313   0.122  12.447  0.2019  0.0073 -0.0989
  661TMC3     O 9785   3.237   0.169  12.533 -0.2353 -0.1388 -0.0071
  661TMC3     H 9786   3.548   0.140  12.305  0.8304  2.1371  0.7246
  661TMC3    H1 9787   3.129   0.262  12.325  0.4461  1.3216 -0.3502
  661TMC3    H2 9788   3.354   0.377  11.995  0.6319  2.3773  1.2695
  661TMC3    C7 9789   3.112   0.310  12.080  0.3146 -0.2991 -0.4173
  661TMC3    C8 9790   3.588   0.224  12.064 -0.1732 -0.9602  0.7030
  661TMC3    O1 9791   3.012   0.338  12.141 -0.0147 -0.1255 -0.1259
  661TMC3    O2 9792   3.667   0.142  12.110  0.3462  0.8380  0.2411
  662MPD2     C 9793   4.500   4.252  16.959 -0.5095 -0.6453 -0.2375
  662MPD2    C1 9794   4.380   4.196  17.012 -0.2856  0.4726 -0.1091
  662MPD2    C2 9795   4.296   4.270  17.092  0.2078 -0.3811 -0.4905
  662MPD2    C3 9796   4.306   4.404  17.108 -0.5855  0.2073  0.0275
  662MPD2    C4 9797   4.413   4.464  17.042  0.2576  0.0632  0.0894
  662MPD2    C5 9798   4.508   4.389  16.976  0.9658  0.0932  0.7989
  662MPD2     H 9799   4.220   4.220  17.151  0.7962 -1.3418 -0.5519
  662MPD2    H1 9800   4.423   4.571  17.036 -1.4562  0.1957 -0.3916
  662MPD2    H2 9801   4.564   4.204  16.886 -0.4693 -1.6560  0.4745
  662MPD2    H3 9802   4.587   4.442  16.925  0.6278  1.7506  1.9740
  662MPD2     N 9803   4.218   4.482  17.186 -0.8647 -0.1718  0.6671
  662MPD2    H5 9804   4.251   4.576  17.209  0.6622 -0.8277  1.1440
  662MPD2    N1 9805   4.349   4.055  17.001  0.1849 -0.0997 -0.1152
  662MPD2    H7 9806   4.257   4.022  17.031  0.8192 -1.9092 -0.1579
  663TMC3    C1 9807   4.367   3.831  16.981 -0.0963  0.1008 -0.1092
  663TMC3    C2 9808   4.268   3.812  17.074 -0.0621  0.9134 -0.4807
  663TMC3    C3 9809   4.227   3.686  17.114 -0.2688 -0.1752 -0.8911
  663TMC3    C4 9810   4.395   3.725  16.900 -0.4587 -0.8538  0.0504
  663TMC3    C5 9811   4.346   3.605  16.931  0.7783 -0.0113 -0.1554
  663TMC3    C6 9812   4.262   3.583  17.034 -0.6675 -0.1380 -0.0933
  663TMC3     C 9813   4.429   3.960  16.950  0.2875  0.2258 -0.5822
  663TMC3     O 9814   4.534   3.970  16.891  0.1711 -0.1275 -0.4249
  663TMC3     H 9815   4.267   3.880  17.158  0.7665 -1.4582  1.4539
  663TMC3    H1 9816   4.455   3.744  16.812  0.8624  0.1974  1.1809
  663TMC3    H2 9817   4.252   3.483  17.075  0.2727 -0.7974 -1.4994
  663TMC3    C7 9818   4.409   3.492  16.867  0.0981  0.6334  0.5502
  663TMC3    C8 9819   4.281   3.656  17.243 -0.0128 -0.6235 -0.3281
  663TMC3    O1 9820   4.520   3.512  16.826 -0.1908  0.0050 -0.2626
  663TMC3    O2 9821   4.373   3.574  17.254  0.3211 -0.2648 -0.2027
  664MPD2     C 9822   1.781   2.684  17.463 -0.5123 -0.0125 -0.6951
  664MPD2    C1 9823   1.910   2.671  17.525 -0.2027  0.2067 -0.2973
  664MPD2    C2 9824   1.928   2.707  17.660 -0.1799  0.1863  0.8341
  664MPD2    C3 9825   1.825   2.771   0.044  0.8176  0.5759 -0.0323
  664MPD2    C4 9826   1.701   2.789  17.661  0.5202 -0.2124 -0.6898
  664MPD2    C5 9827   1.682   2.745  17.535 -0.0355 -0.4475 -0.2066
  664MPD2     H 9828   2.025   2.686   0.018 -0.2790 -0.0052  0.9567
  664MPD2    H1 9829   1.615   2.836   0.023 -0.4844 -1.2185 -1.5315
  664MPD2    H2 9830   1.761   2.666  17.358 -1.0180 -2.6780 -0.1438
  664MPD2    H3 9831   1.584   2.769  17.495 -0.3640 -3.2575 -1.0297
  664MPD2     N 9832   1.846   2.800   0.183 -0.0735  0.0705  0.5368
  664MPD2    H5 9833   1.934   2.764   0.220 -1.1723 -0.3914  2.6915
  664MPD2    N1 9834   2.015   2.606  17.462  0.5561 -0.0142 -0.6270
  664MPD2    H7 9835   2.098   2.579  17.515 -0.7839 -0.2323  1.3716
  665TMC3    C1 9836   1.801   2.872   0.408  0.6844 -0.1065  0.7999
  665TMC3    C2 9837   1.708   2.874   0.512  0.6901 -0.2706  0.1556
  665TMC3    C3 9838   1.751   2.898   0.640 -0.3551 -0.4573 -0.0252
  665TMC3    C4 9839   1.931   2.890   0.431 -0.0957 -0.2907  0.4849
  665TMC3    C5 9840   1.975   2.914   0.561 -0.0715 -0.2426 -0.5554
  665TMC3    C6 9841   1.888   2.921   0.663 -0.4972  0.3724 -0.2252
  665TMC3     C 9842   1.751   2.844   0.272 -1.0144  0.4898 -0.0758
  665TMC3     O 9843   1.633   2.857   0.246  0.0521 -0.1786 -0.1271
  665TMC3     H 9844   1.603   2.877   0.484  0.7904 -0.7412 -0.2676
  665TMC3    H1 9845   1.995   2.907   0.345 -1.4146 -0.0225 -0.4266
  665TMC3    H2 9846   1.919   2.931   0.767 -1.2414  0.2255  0.0092
  665TMC3    C7 9847   2.116   2.946   0.580 -0.7389 -0.1155 -0.8207
  665TMC3    C8 9848   1.670   2.976   0.725  0.5601  0.2191  0.4532
  665TMC3    O1 9849   2.202   2.907   0.497 -0.0249  0.4931 -0.5483
  665TMC3    O2 9850   1.720   3.060   0.797  0.0181 -0.3176 -0.1755
  666TMC3    C1 9851   1.442   2.076  10.080 -0.3362 -0.1496 -0.5209
  666TMC3    C2 9852   1.539   1.997  10.020 -0.7061  0.0478 -0.5367
  666TMC3    C3 9853   1.654   2.056   9.973 -0.1189 -0.4691  0.1471
  666TMC3    C4 9854   1.464   2.215  10.087 -0.4270  1.1666 -0.2170
  666TMC3    C5 9855   1.583   2.264  10.051  0.3338 -0.0961  0.2890
  666TMC3    C6 9856   1.675   2.188   9.986  0.3159  0.0828  0.0353
  666TMC3     C 9857   1.333   2.023  10.163 -0.5611  0.0080 -0.1561
  666TMC3     O 9858   1.272   2.110  10.229  0.1149  0.1631 -0.4197
  666TMC3     H 9859   1.539   1.889  10.007  0.8549  0.0670 -0.7872
  666TMC3    H1 9860   1.388   2.272  10.140 -2.4237  0.5117 -2.3716
  666TMC3    H2 9861   1.767   2.233   9.950 -0.6431  0.4217 -1.9922
  666TMC3    C7 9862   1.592   2.411  10.057  0.7187 -0.2169 -1.0236
  666TMC3    C8 9863   1.768   1.967   9.989 -0.7067 -0.0473  0.2284
  666TMC3    O1 9864   1.480   2.462  10.068  0.4177  0.0749 -0.1635
  666TMC3    O2 9865   1.752   1.867  10.057 -0.1328  0.1432 -0.4004
  667MPD2     C 9866   3.169   2.717  14.349  0.2659 -0.4878 -0.1621
  667MPD2    C1 9867   3.086   2.814  14.402 -0.9838 -0.0195  0.2133
  667MPD2    C2 9868   2.948   2.791  14.420 -0.4887 -0.4294  0.1733
  667MPD2    C3 9869   2.900   2.673  14.385  0.2981 -0.0932  0.2047
  667MPD2    C4 9870   2.984   2.568  14.353 -0.7789 -0.0106  0.5000
  667MPD2    C5 9871   3.114   2.597  14.323 -0.0939 -0.4379  0.4853
  667MPD2     H 9872   2.880   2.874  14.437 -1.6014 -1.4566  0.7056
  667MPD2    H1 9873   2.948   2.468  14.329 -1.9340  0.4522  0.2966
  667MPD2    H2 9874   3.273   2.742  14.331  0.3542 -1.8789 -1.5124
  667MPD2    H3 9875   3.173   2.515  14.284 -0.3046 -0.7021  0.7225
  667MPD2     N 9876   2.761   2.640  14.388  0.7133  0.7134 -0.0879
  667MPD2    H5 9877   2.742   2.545  14.356 -0.5064  0.7890  0.4043
  667MPD2    N1 9878   3.131   2.942  14.444  0.2092  0.2200  0.5852
  667MPD2    H7 9879   3.059   2.998  14.489  1.5524  1.5216  1.1582
  668TMC3    C1 9880   3.305   3.118  14.473  0.0615  0.3824 -0.3237
  668TMC3    C2 9881   3.414   3.174  14.421  0.1867 -0.7325 -0.7367
  668TMC3    C3 9882   3.464   3.282  14.488 -0.4340  0.2625 -1.2520
  668TMC3    C4 9883   3.238   3.166  14.584  0.1256 -0.6046 -0.4595
  668TMC3    C5 9884   3.281   3.282  14.645  0.5977 -0.2768  0.8113
  668TMC3    C6 9885   3.402   3.338  14.601  0.2038  0.5601 -0.3411
  668TMC3     C 9886   3.261   2.988  14.422  0.3332  1.1043  0.1176
  668TMC3     O 9887   3.338   2.954  14.332 -0.2652  0.0203  0.4902
  668TMC3     H 9888   3.459   3.147  14.326  3.3501  3.8244 -0.5628
  668TMC3    H1 9889   3.171   3.103  14.642  1.3269 -0.9845  0.5017
  668TMC3    H2 9890   3.459   3.410  14.658 -0.1029 -0.6230  1.4684
  668TMC3    C7 9891   3.270   3.284  14.784 -0.8393  0.3825 -0.2302
  668TMC3    C8 9892   3.602   3.304  14.460 -0.8511 -1.0365 -0.5035
  668TMC3    O1 9893   3.371   3.313  14.847 -0.5712 -0.0393  0.0433
  668TMC3    O2 9894   3.632   3.423  14.442  0.1058 -0.5198 -0.2564
  669TMC3    C1 9895   0.826   2.592  13.971 -0.2799  0.5265 -0.0191
  669TMC3    C2 9896   0.710   2.580  13.892  0.7676  0.5651  0.0530
  669TMC3    C3 9897   0.700   2.690  13.808  0.1239  0.1494  0.0589
  669TMC3    C4 9898   0.924   2.681  13.943 -0.3195 -0.6657 -0.1592
  669TMC3    C5 9899   0.909   2.783  13.854 -0.3615 -0.1444  0.2412
  669TMC3    C6 9900   0.791   2.791  13.799 -0.3467  0.5863  0.2070
  669TMC3     C 9901   0.851   2.495  14.079  0.0519  0.1324 -0.5170
  669TMC3     O 9902   0.801   2.379  14.066  0.0507  0.3298 -0.9417
  669TMC3     H 9903   0.621   2.521  13.907  0.3791  0.7851 -1.4021
  669TMC3    H1 9904   1.013   2.676  14.006  0.3950  0.8252 -1.0608
  669TMC3    H2 9905   0.770   2.863  13.721  4.3292  3.0326  1.2608
  669TMC3    C7 9906   1.008   2.883  13.837 -0.5528 -0.1449  0.6150
  669TMC3    C8 9907   0.571   2.714  13.738 -0.6635 -0.5701  0.2860
  669TMC3    O1 9908   1.083   2.891  13.933 -0.6444  0.2648 -0.3581
  669TMC3    O2 9909   0.508   2.617  13.695 -0.5327 -0.4605  0.0614
  670MPD2     C 9910   3.527   0.389  13.099 -0.6753  0.6728  0.0798
  670MPD2    C1 9911   3.616   0.419  13.197  0.1880 -0.9714  0.4275
  670MPD2    C2 9912   3.590   0.386  13.327 -0.1343 -0.2215  0.4120
  670MPD2    C3 9913   3.492   0.290  13.352  0.4055  0.0228 -0.0417
  670MPD2    C4 9914   3.407   0.250  13.253 -0.3096 -0.3841  0.1136
  670MPD2    C5 9915   3.421   0.306  13.131  0.0660  0.2552 -0.6645
  670MPD2     H 9916   3.653   0.419  13.409  0.1868 -0.5298  0.2900
  670MPD2    H1 9917   3.330   0.177  13.271 -2.1241  0.9965 -2.0072
  670MPD2    H2 9918   3.539   0.430  13.000 -0.8868 -2.0172 -1.0451
  670MPD2    H3 9919   3.353   0.283  13.050  0.4611  1.3655 -1.3207
  670MPD2     N 9920   3.495   0.238  13.482  0.0774 -0.1321  0.3004
  670MPD2    H5 9921   3.558   0.282  13.548  1.4682  0.0943 -1.1872
  670MPD2    N1 9922   3.739   0.481  13.179 -0.3727 -0.0595 -0.0943
  670MPD2    H7 9923   3.782   0.507  13.267  2.8938  0.0101 -1.7061
  671TMC3    C1 9924   3.451   0.126  13.684 -0.2709 -0.5176  0.3721
  671TMC3    C2 9925   3.572   0.174  13.717 -0.0833  0.3385  0.7175
  671TMC3    C3 9926   3.594   0.204  13.852 -0.1615 -0.5039 -0.7159
  671TMC3    C4 9927   3.352   0.116  13.773  0.2173  0.8589 -0.3066
  671TMC3    C5 9928   3.377   0.142  13.908 -0.6765  0.1904 -0.0953
  671TMC3    C6 9929   3.496   0.193  13.947  0.2000 -0.5613  0.2089
  671TMC3     C 9930   3.413   0.148  13.542 -0.4810 -0.2788  0.3345
  671TMC3     O 9931   3.298   0.127  13.501  0.5472 -0.5827  0.1794
  671TMC3     H 9932   3.652   0.144  13.649  1.1691  1.9286  1.4839
  671TMC3    H1 9933   3.256   0.078  13.740 -1.5138  2.8660  2.4800
  671TMC3    H2 9934   3.514   0.224  14.049 -0.5225  1.8366 -0.3990
  671TMC3    C7 9935   3.294   0.064  13.992 -0.9605  0.2919  0.5207
  671TMC3    C8 9936   3.730   0.184  13.895  0.1884  0.2698  0.1171
  671TMC3    O1 9937   3.228   4.696  13.939 -0.7428 -0.3336  0.1870
  671TMC3    O2 9938   3.815   0.160  13.810 -0.4366 -0.3756  0.3690
  672MPD2     C 9939   4.648   0.227   1.468  0.5096 -0.0577 -0.5142
  672MPD2    C1 9940   4.602   0.338   1.398 -0.2609 -0.4497 -0.2643
  672MPD2    C2 9941   4.673   0.461   1.412  0.1471 -0.2992 -0.0943
  672MPD2    C3 9942   0.078   0.467   1.471  0.0772  0.0533 -0.0322
  672MPD2    C4 9943   0.116   0.358   1.545  0.4097 -0.0885  1.2026
  672MPD2    C5 9944   0.040   0.247   1.543  0.1399  0.0672 -0.7538
  672MPD2     H 9945   4.636   0.546   1.355  1.9674 -0.3525 -1.3398
  672MPD2    H1 9946   0.212   0.353   1.596  1.8356  1.9928 -1.2573
  672MPD2    H2 9947   4.595   0.133   1.460 -1.1931  0.8129  0.6367
  672MPD2    H3 9948   0.084   0.166   1.601  1.7570  0.3998 -1.5111
  672MPD2     N 9949   0.172   0.570   1.455  0.0291 -0.2415 -0.2482
  672MPD2    H5 9950   0.256   0.554   1.508  0.2696 -0.8618 -0.8148
  672MPD2    N1 9951   4.492   0.336   1.315 -0.5209 -0.2945  0.1806
  672MPD2    H7 9952   4.447   0.421   1.282 -2.0010 -1.1020  0.1031
  673TMC3    C1 9953   4.350   0.263   1.162 -0.3409 -0.4329 -0.2960
  673TMC3    C2 9954   4.374   0.234   1.032 -0.5334  0.2186 -0.5908
  673TMC3    C3 9955   4.327   0.314   0.932  0.1148  0.2364 -0.8193
  673TMC3    C4 9956   4.281   0.378   1.195 -0.0642 -0.2486  0.5012
  673TMC3    C5 9957   4.238   0.454   1.086 -0.3715 -0.2688  0.3594
  673TMC3    C6 9958   4.258   0.425   0.953 -0.0403  0.4650  0.8211
  673TMC3     C 9959   4.451   0.224   1.248 -0.0851  0.2585  0.3559
  673TMC3     O 9960   4.510   0.116   1.225  0.3496 -0.4703  0.2138
  673TMC3     H 9961   4.424   0.141   1.010 -0.8184  0.2995 -1.5879
  673TMC3    H1 9962   4.273   0.423   1.293  0.9048  0.3568  0.3006
  673TMC3    H2 9963   4.236   0.497   0.874  1.7954  0.6818  0.4949
  673TMC3    C7 9964   4.188   0.582   1.117 -0.6442 -0.6340 -0.0926
  673TMC3    C8 9965   4.379   0.294   0.798  0.9282  0.4436  0.4922
  673TMC3    O1 9966   4.140   0.592   1.231  0.0110  0.1363  0.2822
  673TMC3    O2 9967   4.297   0.336   0.716  0.0905 -0.1296 -0.8705
  674MPD2     C 9968   0.286   0.536   0.395  0.4642  0.6957 -0.4650
  674MPD2    C1 9969   0.206   0.474   0.303  0.3199  0.2963 -0.0203
  674MPD2    C2 9970   0.068   0.501   0.300  0.0813  0.0667 -0.1011
  674MPD2    C3 9971   0.006   0.568   0.400  0.3634  0.2353 -0.2219
  674MPD2    C4 9972   0.089   0.617   0.496  0.4914 -1.0251 -0.7889
  674MPD2    C5 9973   0.222   0.603   0.497 -0.0326 -0.4424  0.2125
  674MPD2     H 9974   0.002   0.449   0.232 -0.4871 -0.3237  0.7408
  674MPD2    H1 9975   0.043   0.660   0.584  2.2830  1.2386 -0.9562
  674MPD2    H2 9976   0.390   0.507   0.407 -0.1276 -0.9313  0.8351
  674MPD2    H3 9977   0.274   0.650   0.580 -2.6501 -0.6332  1.9668
  674MPD2     N 9978   4.591   0.584   0.389  0.2074 -0.1937 -0.5314
  674MPD2    H5 9979   4.549   0.539   0.308  1.1242 -0.0475 -1.0839
  674MPD2    N1 9980   0.265   0.377   0.221 -0.1724  0.3751  1.0087
  674MPD2    H7 9981   0.366   0.378   0.228 -0.0160 -2.6538 -0.7329
  675TMC3    C1 9982   0.274   0.219   0.043 -0.3685 -0.0112 -0.2246
  675TMC3    C2 9983   0.196   0.149  17.640 -0.2914  0.2863  0.2454
  675TMC3    C3 9984   0.241   0.023  17.597  0.3868  0.2804 -0.2656
  675TMC3    C4 9985   0.384   0.167   0.095 -0.5309 -0.6487 -0.5111
  675TMC3    C5 9986   0.420   0.036   0.060  0.3995  0.5668  0.0224
  675TMC3    C6 9987   0.340   4.679  17.661  0.4720 -0.5136  0.2153
  675TMC3     C 9988   0.196   0.312   0.117  0.4937 -0.3591 -0.0781
  675TMC3     O 9989   0.074   0.311   0.091  0.0083 -0.0298 -0.2043
  675TMC3     H 9990   0.117   0.195  17.583 -0.5112 -0.4557 -0.0461
  675TMC3    H1 9991   0.433   0.214   0.180 -1.3984  0.8125 -0.8170
  675TMC3    H2 9992   0.342   4.572  17.644 -0.9068 -0.4027 -0.6477
  675TMC3    C7 9993   0.528   4.693   0.140 -0.1395  0.2310  0.2319
  675TMC3    C8 9994   0.138   4.668  17.538 -0.5248  0.7226 -0.1530
  675TMC3    O1 9995   0.589   0.050   0.209 -0.0198 -0.1045  0.0427
  675TMC3    O2 9996   0.169   4.587  17.453  0.7614 -0.4088  0.0136
  676MPD2     C 9997   2.443   3.260  11.118 -0.3622  0.1729  0.2219
  676MPD2    C1 9998   2.319   3.214  11.134 -0.1800 -0.3082 -0.2606
  676MPD2    C2 9999   2.293   3.074  11.116  0.9408 -0.1554  0.3308
  676MPD2    C310000   2.398   2.982  11.095  0.6506  0.7390 -0.3386
  676MPD2    C410001   2.522   3.027  11.093  0.0540  0.4289  0.0147
  676MPD2    C510002   2.547   3.164  11.102  0.0002  0.0497  0.7703
  676MPD2     H10003   2.197   3.044  11.157  0.3016  1.2326 -0.1366
  676MPD2    H110004   2.607   2.960  11.087  0.9357  1.5875 -0.3612
  676MPD2    H210005   2.465   3.366  11.118 -0.7958  0.2507  3.3086
  676MPD2    H310006   2.643   3.213  11.090 -0.5098  0.6310 -0.8351
  676MPD2     N10007   2.383   2.841  11.091  0.0484  0.7665 -0.3742
  676MPD2    H510008   2.466   2.786  11.073  0.5797  0.9971  1.3407
  676MPD2    N110009   2.210   3.300  11.160 -0.6525  0.3146 -0.7464
  676MPD2    H710010   2.119   3.255  11.150  0.0620 -0.7297 -2.4678
  677TMC3    C110011   2.078   3.499  11.199 -0.5789 -0.6032 -0.2495
  677TMC3    C210012   1.966   3.422  11.210 -0.0098 -0.0458 -0.2928
  677TMC3    C310013   1.854   3.483  11.272  1.6691 -0.4339 -0.3688
  677TMC3    C410014   2.082   3.632  11.235 -1.1546 -0.1109  0.5109
  677TMC3    C510015   1.963   3.693  11.266  0.3886 -0.1764 -0.3551
  677TMC3    C610016   1.855   3.617  11.290  0.4682  1.1101 -0.0084
  677TMC3     C10017   2.210   3.434  11.189 -0.1274 -0.0853  0.0912
  677TMC3     O10018   2.303   3.511  11.205 -0.2574  0.1160  0.0102
  677TMC3     H10019   1.974   3.316  11.189  2.3761 -0.1826  1.4348
  677TMC3    H110020   2.171   3.692  11.217  0.4515 -3.1187 -1.5280
  677TMC3    H210021   1.760   3.662  11.318 -1.2250 -0.7177 -2.7425
  677TMC3    C710022   1.952   3.819  11.338 -0.5299  0.5485 -0.6151
  677TMC3    C810023   1.744   3.394  11.317  0.2172  0.0358  0.3303
  677TMC3    O110024   1.842   3.845  11.383 -0.0798 -0.0864  0.0520
  677TMC3    O210025   1.718   3.307  11.236 -0.4600 -0.3225  0.4435
  678MPD2     C10026   3.671   3.801   1.659 -0.5604 -0.2374  0.2024
  678MPD2    C110027   3.636   3.755   1.533  0.1068  0.7079 -0.1249
  678MPD2    C210028   3.500   3.740   1.501  0.1601  0.6524 -0.0941
  678MPD2    C310029   3.406   3.764   1.598  0.1074  0.2094 -1.0006
  678MPD2    C410030   3.443   3.793   1.727  0.7720 -0.1572 -0.1473
  678MPD2    C510031   3.573   3.829   1.754  0.6160 -0.4425  0.4122
  678MPD2     H10032   3.468   3.723   1.399  1.6010 -3.0053  0.0717
  678MPD2    H110033   3.367   3.798   1.805  2.3395  0.2996  1.3384
  678MPD2    H210034   3.765   3.844   1.692 -0.8404 -0.2064  0.9449
  678MPD2    H310035   3.612   3.879   1.842  0.3224  1.1658 -0.3626
  678MPD2     N10036   3.274   3.741   1.554  0.4665 -0.0194  0.1110
  678MPD2    H510037   3.270   3.719   1.455 -0.3320  0.8337 -0.0459
  678MPD2    N110038   3.725   3.752   1.422 -0.0681 -0.9586 -0.3502
  678MPD2    H710039   3.687   3.728   1.331 -0.5303 -1.4057 -0.0381
  679TMC3    C110040   4.093   3.602   1.204 -0.3006 -0.2804 -0.1290
  679TMC3    C210041   4.049   3.671   1.316  0.4045  0.1892 -0.0074
  679TMC3    C310042   3.925   3.725   1.308  0.5577 -0.0902  0.0047
  679TMC3    C410043   4.004   3.574   1.099 -0.0014  0.0743  0.2349
  679TMC3    C510044   3.885   3.629   1.092 -0.6856 -0.1760 -0.6444
  679TMC3    C610045   3.843   3.713   1.194 -0.0191  0.2122  0.1555
  679TMC3     C10046   4.218   3.524   1.207 -0.5352  0.2571 -0.9256
  679TMC3     O10047   4.212   3.423   1.138 -0.2935  0.1987 -0.7500
  679TMC3     H10048   4.097   3.673   1.413 -0.2527  1.4514  0.2911
  679TMC3    H110049   4.034   3.527   1.006 -1.7625  2.0748 -1.3519
  679TMC3    H210050   3.775   3.793   1.171 -1.2985 -0.5241  1.3624
  679TMC3    C710051   3.842   3.663   0.960 -1.2356  0.1506 -1.1864
  679TMC3    C810052   3.861   3.760   1.431  0.0925 -0.1579  0.2510
  679TMC3    O110053   3.925   3.676   0.867 -0.1963  0.5562 -0.3842
  679TMC3    O210054   3.933   3.777   1.524 -0.2634 -0.0294 -0.8718
  680MPD2     C10055   3.411   2.173  12.954  0.1641 -0.1433  0.7475
  680MPD2    C110056   3.478   2.056  12.996  0.0165  0.0506  0.3031
  680MPD2    C210057   3.505   2.050  13.132  0.0495 -0.1893 -0.4157
  680MPD2    C310058   3.450   2.133  13.229 -0.5332  0.1780  0.1149
  680MPD2    C410059   3.362   2.229  13.181  0.2208  1.0212  1.1031
  680MPD2    C510060   3.345   2.247  13.050 -0.1326  0.3013 -0.3935
  680MPD2     H10061   3.558   1.959  13.157  0.6181  0.2747  0.0687
  680MPD2    H110062   3.310   2.302  13.242 -0.4274  2.0833 -0.7437
  680MPD2    H210063   3.377   2.180  12.851  1.8672 -2.3229  0.0344
  680MPD2    H310064   3.280   2.328  13.018  1.3875  1.5256 -0.4333
  680MPD2     N10065   3.476   2.128  13.365  0.0741 -0.6461 -0.1607
  680MPD2    H510066   3.405   2.172  13.423  1.2217  1.4617 -0.3504
  680MPD2    N110067   3.520   1.959  12.908 -0.4371  0.5646  0.2854
  680MPD2    H710068   3.569   1.878  12.945 -3.0723 -1.0318  0.3065
  681TMC3    C110069   3.581   1.845  12.716 -0.6129 -0.2532  0.1817
  681TMC3    C210070   3.587   1.730  12.794  0.0752  0.0100  0.1763
  681TMC3    C310071   3.650   1.624  12.736 -0.0309 -0.2912  0.2235
  681TMC3    C410072   3.630   1.860  12.589  0.4223  0.4779  0.5238
  681TMC3    C510073   3.688   1.750  12.542  0.1861 -0.0385  0.5653
  681TMC3    C610074   3.698   1.632  12.604  0.4212  0.7190 -0.1314
  681TMC3     C10075   3.512   1.963  12.772 -0.0823 -0.1612  0.0736
  681TMC3     O10076   3.477   2.054  12.697  0.1532 -0.8635 -0.4069
  681TMC3     H10077   3.544   1.715  12.892  0.2541  1.6902  0.5231
  681TMC3    H110078   3.623   1.954  12.536 -0.8292  0.1804  0.1699
  681TMC3    H210079   3.774   1.562  12.573  1.3095  2.1001 -1.0576
  681TMC3    C710080   3.816   1.776  12.487  0.0432  0.8719 -0.5615
  681TMC3    C810081   3.647   1.493  12.799  0.1684 -0.2119 -0.0020
  681TMC3    O110082   3.909   1.790  12.571 -0.4610  0.3177  0.4252
  681TMC3    O210083   3.666   1.394  12.729  0.1180  0.3602  0.0044
  682MPD2     C10084   1.381   3.638  10.546  0.0223  0.1970  0.1710
  682MPD2    C110085   1.315   3.527  10.594  0.1259 -0.4969  0.0626
  682MPD2    C210086   1.268   3.541  10.723 -0.2377 -0.1147  0.0572
  682MPD2    C310087   1.267   3.664  10.790  0.4443 -0.3570  0.1366
  682MPD2    C410088   1.337   3.774  10.742 -0.7002 -0.0040  0.0945
  682MPD2    C510089   1.387   3.757  10.613  0.0404 -0.0151 -0.1439
  682MPD2     H10090   1.207   3.460  10.763 -1.1178  1.1916  1.3517
  682MPD2    H110091   1.356   3.862  10.803 -1.5403 -0.1452  0.5584
  682MPD2    H210092   1.427   3.641  10.448  0.6411 -1.4332  0.4028
  682MPD2    H310093   1.452   3.836  10.577  3.4122 -1.0732  3.5955
  682MPD2     N10094   1.213   3.671  10.923  0.3944 -0.2860  1.0630
  682MPD2    H510095   1.216   3.765  10.961  2.4260  0.1357 -0.1361
  682MPD2    N110096   1.289   3.406  10.525  1.1702 -0.8559 -0.0210
  682MPD2    H710097   1.253   3.326  10.577 -3.0162  1.2844  0.4026
  683TMC3    C110098   1.090   3.769  11.311  0.6143  0.3736  0.1037
  683TMC3    C210099   1.012   3.684  11.384  0.3054  0.2062  0.5092
  683TMC3    C310100   0.980   3.558  11.331  0.1951  0.1776 -0.1524
  683TMC3    C410101   1.133   3.749  11.182  0.1916 -0.8513  0.1646
  683TMC3    C510102   1.092   3.623  11.128 -0.1302 -0.0680  0.3199
  683TMC3    C610103   1.021   3.527  11.200  0.3067 -0.7274  0.6334
  683TMC3     C10104   1.151   3.863  11.391 -0.8707 -0.0636 -0.6770
  683TMC3     O10105   1.099   3.894  11.499  0.0529  0.9085  0.3682
  683TMC3     H10106   0.976   3.707  11.484 -0.2290 -0.3512  0.4463
  683TMC3    H110107   1.188   3.825  11.128 -0.8814 -1.1504 -1.3398
  683TMC3    H210108   0.997   3.431  11.154 -0.0118 -1.0199  1.4091
  683TMC3    C710109   1.141   3.579  10.994  0.5528 -0.7429 -0.2339
  683TMC3    C810110   0.887   3.469  11.405  0.2643 -0.0132 -0.2651
  683TMC3    O110111   1.110   3.472  10.946 -0.4488 -0.0954  0.0277
  683TMC3    O210112   0.819   3.530  11.489 -0.2861  0.3089  0.0504
  684MPD2     C10113   3.579   3.305  16.051  0.5548  0.0588  0.3055
  684MPD2    C110114   3.686   3.261  16.130 -0.6238  0.3212  0.4414
  684MPD2    C210115   3.750   3.359  16.205  0.4765 -0.5728  0.2017
  684MPD2    C310116   3.716   3.497  16.190 -0.3078 -0.2967  0.3177
  684MPD2    C410117   3.609   3.530  16.109 -0.1686  0.2733 -0.4690
  684MPD2    C510118   3.542   3.435  16.040 -0.0115 -0.4173  0.2192
  684MPD2     H10119   3.831   3.326  16.269 -1.9333 -1.7096  2.6742
  684MPD2    H110120   3.577   3.633  16.106  0.8275  0.6159  0.4875
  684MPD2    H210121   3.513   3.242  15.992  0.6521  0.5310 -0.3214
  684MPD2    H310122   3.449   3.454  15.989  0.0910 -0.1515  0.1302
  684MPD2     N10123   3.790   3.609  16.243 -0.1446 -0.2184 -0.4329
  684MPD2    H510124   3.749   3.700  16.226 -0.8981 -0.6275 -0.8242
  684MPD2    N110125   3.726   3.122  16.141  0.0314  0.1085 -0.1133
  684MPD2    H710126   3.803   3.098  16.203  0.2392  1.4393  0.1479
  685TMC3    C110127   3.687   2.885  16.130 -0.5399 -0.6399  0.0938
  685TMC3    C210128   3.574   2.801  16.131  0.2681 -0.1437  0.4476
  685TMC3    C310129   3.585   2.677  16.177 -0.0544  0.4266 -0.4021
  685TMC3    C410130   3.805   2.849  16.181 -0.3013  0.6219  0.1012
  685TMC3    C510131   3.807   2.727  16.236  0.7169  0.5237 -0.0946
  685TMC3    C610132   3.694   2.639  16.240 -0.9912 -0.2777 -0.0452
  685TMC3     C10133   3.647   3.019  16.095 -0.2367 -0.2550  0.3536
  685TMC3     O10134   3.554   3.024  16.015  0.5181 -0.1123  0.5327
  685TMC3     H10135   3.475   2.833  16.100  0.8020 -0.2498 -1.4046
  685TMC3    H110136   3.898   2.903  16.167 -0.3817  0.9247  0.7347
  685TMC3    H210137   3.696   2.542  16.289  0.3948  0.0841  0.6330
  685TMC3    C710138   3.930   2.675  16.292  0.2237  0.3742 -0.1392
  685TMC3    C810139   3.469   2.601  16.197 -0.4581 -0.1702 -0.2161
  685TMC3    O110140   3.954   2.558  16.285  0.4184  0.1167  0.2456
  685TMC3    O210141   3.367   2.661  16.234 -0.3171 -0.2304  0.0097
  686MPD2     C10142   0.373   2.680  15.124 -0.3568  0.2009  0.6240
  686MPD2    C110143   0.278   2.619  15.205  0.6343 -0.1344  0.8954
  686MPD2    C210144   0.240   2.490  15.169 -0.2075 -0.3973 -0.1215
  686MPD2    C310145   0.321   2.417  15.079  0.1515 -1.0688 -0.7706
  686MPD2    C410146   0.434   2.474  15.016  0.0625 -0.2593 -0.3067
  686MPD2    C510147   0.451   2.611  15.031  0.2083 -0.5550 -0.4161
  686MPD2     H10148   0.151   2.439  15.206 -1.0281 -0.0040 -1.5451
  686MPD2    H110149   0.501   2.418  14.951 -0.5175 -2.5748  1.0966
  686MPD2    H210150   0.392   2.785  15.143  2.6080 -0.1627 -0.3153
  686MPD2    H310151   0.530   2.664  14.979  0.6083 -2.4366 -1.7323
  686MPD2     N10152   0.292   2.278  15.085  0.1602  0.3890 -0.4888
  686MPD2    H510153   0.216   2.254  15.148  1.6011 -2.4513  0.1540
  686MPD2    N110154   0.217   2.687  15.316 -0.4123  0.8262  1.1574
  686MPD2    H710155   0.241   2.785  15.326  0.2659  0.6393  1.3955
  687TMC3    C110156   0.341   2.073  15.164 -0.1354 -0.2751 -0.7010
  687TMC3    C210157   0.207   2.081  15.188  0.1669 -0.5770 -0.2906
  687TMC3    C310158   0.161   2.110  15.320 -0.5751 -0.0585  0.1713
  687TMC3    C410159   0.430   2.077  15.268  0.6033 -0.4115  0.0443
  687TMC3    C510160   0.385   2.116  15.397 -0.7207  0.7123  0.4847
  687TMC3    C610161   0.253   2.138  15.422  0.2175  0.0478 -0.3905
  687TMC3     C10162   0.379   2.177  15.067 -0.2172  0.4706 -0.4539
  687TMC3     O10163   0.488   2.167  15.017  0.4668 -0.3951  0.0760
  687TMC3     H10164   0.135   2.074  15.107 -1.5478 -2.7217  1.3815
  687TMC3    H110165   0.529   2.053  15.230 -0.4312 -2.5317 -1.3474
  687TMC3    H210166   0.217   2.159  15.522 -0.3660 -0.5681 -0.4720
  687TMC3    C710167   0.474   2.136  15.510 -0.4229  0.2944 -0.4919
  687TMC3    C810168   0.045   2.198  15.318  0.2026 -0.3856  0.3817
  687TMC3    O110169   0.433   2.171  15.618 -0.3145 -0.1149 -0.0976
  687TMC3    O210170   0.009   2.234  15.208 -0.1676  0.3953 -0.2752
  688MPD2     C10171   0.232   1.770  17.448  0.2951 -0.1277 -0.5429
  688MPD2    C110172   0.319   1.665  17.483 -0.1206 -0.0547  0.2262
  688MPD2    C210173   0.415   1.621  17.393 -0.6962  0.7197  0.1341
  688MPD2    C310174   0.421   1.676  17.273  0.1008 -0.1856 -0.9252
  688MPD2    C410175   0.336   1.778  17.234  0.4339  0.1996 -0.1021
  688MPD2    C510176   0.240   1.826  17.323  0.8001  0.3338 -0.0811
  688MPD2     H10177   0.490   1.548  17.423 -0.0102  0.7822 -1.4162
  688MPD2    H110178   0.351   1.817  17.134  2.7415 -0.4796 -0.0140
  688MPD2    H210179   0.169   1.825  17.517  1.4492 -0.7691  1.0041
  688MPD2    H310180   0.167   1.894  17.280  0.8701  0.9110  0.7250
  688MPD2     N10181   0.514   1.643  17.168 -0.2534 -0.0366 -0.0039
  688MPD2    H510182   0.506   1.700  17.085  1.3925 -1.3229 -1.0500
  688MPD2    N110183   0.319   1.602  17.613  0.0370 -0.0554 -0.3536
  688MPD2    H710184   0.390   1.532  17.636 -0.6321 -1.1779 -1.7238
  689TMC3    C110185   0.274   1.576   0.159  0.3361  0.2623  0.2093
  689TMC3    C210186   0.273   1.642   0.273 -1.0924  1.0199 -0.2763
  689TMC3    C310187   0.269   1.564   0.383 -0.3337  0.4108 -0.1902
  689TMC3    C410188   0.245   1.447   0.146  0.5309 -0.3648  0.4196
  689TMC3    C510189   0.223   1.377   0.262 -0.0396 -0.0679 -0.2012
  689TMC3    C610190   0.237   1.435   0.387  0.1010 -0.2389 -0.5286
  689TMC3     C10191   0.273   1.660   0.041  0.3576  0.2588 -0.7050
  689TMC3     O10192   0.233   1.774   0.065 -0.0308  0.3890  0.6190
  689TMC3     H10193   0.299   1.747   0.272 -0.3743  0.8264 -1.5952
  689TMC3    H110194   0.239   1.401   0.048  3.2956  0.5291 -0.1750
  689TMC3    H210195   0.230   1.375   0.477 -1.1328  0.4193 -0.1931
  689TMC3    C710196   0.197   1.235   0.254  0.2622 -0.0704 -0.0483
  689TMC3    C810197   0.227   1.627   0.512 -0.2326  0.3833 -0.1469
  689TMC3    O110198   0.193   1.180   0.363 -0.6905  0.2570  0.4027
  689TMC3    O210199   0.209   1.561   0.614  1.0839  0.0698  0.5742
  690MPD2     C10200   1.743   2.958  15.461  0.5807  0.1104  0.3366
  690MPD2    C110201   1.686   3.049  15.550 -0.0184  0.1545  0.1800
  690MPD2    C210202   1.759   3.156  15.581 -0.0302 -0.4506  0.1059
  690MPD2    C310203   1.895   3.171  15.563  0.3720 -0.0953 -0.4023
  690MPD2    C410204   1.955   3.074  15.487  0.3150  0.3761  0.1240
  690MPD2    C510205   1.880   2.976  15.436  0.2357 -0.3874 -0.5151
  690MPD2     H10206   1.698   3.233  15.628 -1.0839  0.4893 -2.8171
  690MPD2    H110207   2.061   3.077  15.466  0.6037 -1.0324  1.3558
  690MPD2    H210208   1.681   2.886  15.407  1.9081 -1.4893  0.9440
  690MPD2    H310209   1.928   2.903  15.371 -0.3565 -0.9976 -0.2674
  690MPD2     N10210   1.963   3.293  15.600  0.5767 -0.2975 -0.3651
  690MPD2    H510211   1.901   3.363  15.640 -0.5575 -1.5488  0.0630
  690MPD2    N110212   1.545   3.040  15.572 -0.2285 -0.2792  1.2778
  690MPD2    H710213   1.510   3.112  15.634  1.1700 -0.4880  2.3212
  691TMC3    C110214   1.323   2.964  15.559  0.2733  0.0798 -0.2765
  691TMC3    C210215   1.282   3.046  15.656  0.0313 -0.3231 -0.2374
  691TMC3    C310216   1.184   3.140  15.631  0.7990  1.1853 -0.4167
  691TMC3    C410217   1.269   2.970  15.436  0.0862  0.5292  0.0436
  691TMC3    C510218   1.169   3.057  15.416  0.6661 -0.1084 -0.0218
  691TMC3    C610219   1.123   3.143  15.510 -0.2693 -0.2498 -0.1785
  691TMC3     C10220   1.466   2.930  15.562  0.7354  0.0951 -0.6517
  691TMC3     O10221   1.496   2.819  15.514 -0.3174 -0.5847  0.5939
  691TMC3     H10222   1.329   3.031  15.752  0.9633  1.9285 -0.3496
  691TMC3    H110223   1.304   2.914  15.350  1.7220  1.4254  0.1196
  691TMC3    H210224   1.037   3.203  15.483 -0.7565 -1.2845 -0.9259
  691TMC3    C710225   1.084   3.020  15.299 -0.7549 -0.3509 -0.5478
  691TMC3    C810226   1.105   3.188  15.748 -0.0309  0.2104 -0.5214
  691TMC3    O110227   1.023   3.119  15.251 -0.1934  0.0981 -0.1419
  691TMC3    O210228   1.122   3.127  15.856 -0.8928 -0.2836 -0.1338
  692TMC3    C110229   4.006   0.058  15.783 -0.4254 -0.6542  0.0409
  692TMC3    C210230   4.131   0.076  15.839 -0.9524 -0.3292  0.4445
  692TMC3    C310231   4.227   4.708  15.800  0.5804  0.6298 -0.1108
  692TMC3    C410232   3.977   4.685  15.687  0.5767  0.0706  0.6684
  692TMC3    C510233   4.074   4.600  15.653 -0.1488 -0.2863 -0.3905
  692TMC3    C610234   4.201   4.617  15.701  0.0647 -0.0239  0.2521
  692TMC3     C10235   3.900   0.126  15.847 -0.0654  0.0514 -0.2004
  692TMC3     O10236   3.794   0.065  15.847  0.4615 -0.3585 -0.8722
  692TMC3     H10237   4.152   0.144  15.920  1.1555  0.5795 -0.8595
  692TMC3    H110238   3.876   4.651  15.667  1.4756 -2.2666  0.0813
  692TMC3    H210239   4.263   4.529  15.690 -0.2958 -0.1596 -0.6510
  692TMC3    C710240   4.021   4.464  15.639 -0.0490  0.7770  0.1029
  692TMC3    C810241   4.250   4.638  15.924  0.2271  0.1723  0.0570
  692TMC3    O110242   3.959   4.441  15.535 -0.4009 -0.3884 -0.1209
  692TMC3    O210243   4.228   4.515  15.933  0.0675 -0.0940 -0.0154
  693MPD2     C10244   2.645   2.767  10.759 -0.3867  0.0048  0.0951
  693MPD2    C110245   2.695   2.687  10.654 -0.1380 -0.1285  0.3074
  693MPD2    C210246   2.807   2.734  10.588  0.1568 -0.1088 -0.0446
  693MPD2    C310247   2.865   2.853  10.624 -0.6372 -0.1082  0.0073
  693MPD2    C410248   2.805   2.934  10.721  0.5609 -0.1800  0.3765
  693MPD2    C510249   2.691   2.894  10.781 -0.1803 -0.2036 -0.1100
  693MPD2     H10250   2.856   2.677  10.510 -0.4248  0.5397 -0.8983
  693MPD2    H110251   2.838   3.036  10.741  1.5269 -0.2552 -0.8393
  693MPD2    H210252   2.553   2.747  10.814  0.9849 -2.4543  1.4838
  693MPD2    H310253   2.643   2.955  10.858  0.3787 -0.6200  0.5729
  693MPD2     N10254   2.984   2.903  10.565  0.1158  0.5851 -0.5601
  693MPD2    H510255   3.025   2.987  10.605  0.8148 -1.0722  2.1506
  693MPD2    N110256   2.640   2.556  10.631  0.0814  0.3774  0.5520
  693MPD2    H710257   2.559   2.530  10.686  0.6721  0.3950  1.4198
  694TMC3    C110258   2.633   2.328  10.579  0.4179 -0.0897 -0.0083
  694TMC3    C210259   2.614   2.239  10.480 -0.3550  0.9301  0.2456
  694TMC3    C310260   2.566   2.113  10.512 -0.9512  0.0035 -0.2485
  694TMC3    C410261   2.600   2.303  10.709  0.5863 -0.4892 -0.1926
  694TMC3    C510262   2.559   2.172  10.744  0.2053 -0.0975  0.5875
  694TMC3    C610263   2.534   2.082  10.639  0.4433  0.2273 -0.3484
  694TMC3     C10264   2.687   2.461  10.547  0.5039 -1.0672  0.1728
  694TMC3     O10265   2.758   2.474  10.448 -0.1529 -0.2567 -0.1848
  694TMC3     H10266   2.644   2.258  10.378 -0.3387  0.4766  0.1653
  694TMC3    H110267   2.626   2.372  10.788 -0.3173 -1.2323  0.7471
  694TMC3    H210268   2.496   1.982  10.660 -0.1600  0.5350  0.0119
  694TMC3    C710269   2.582   2.132  10.879 -0.1320 -0.4775  0.1293
  694TMC3    C810270   2.548   2.003  10.414 -0.2269 -0.0407  0.3089
  694TMC3    O110271   2.592   2.232  10.950  0.5407 -0.3058  0.2616
  694TMC3    O210272   2.473   1.920  10.447  0.6824  0.4784  0.1124
  695MPD2     C10273   3.637   4.086  13.836  0.2334  0.0576  0.0341
  695MPD2    C110274   3.648   4.147  13.956  0.3520  0.1240 -0.0038
  695MPD2    C210275   3.534   4.183  14.026 -0.1134 -0.2053 -0.1289
  695MPD2    C310276   3.412   4.139  13.979  0.1145  0.9454 -0.3350
  695MPD2    C410277   3.403   4.058  13.867  1.7816 -0.2517 -0.8134
  695MPD2    C510278   3.517   4.027  13.799  1.0291  1.0057 -0.3200
  695MPD2     H10279   3.546   4.240  14.117  0.7983 -2.1762  0.9999
  695MPD2    H110280   3.316   4.014  13.820  2.7998 -1.4477 -1.5683
  695MPD2    H210281   3.720   4.069  13.770  1.0843  0.3441  1.0296
  695MPD2    H310282   3.513   3.987  13.699  0.3715  1.1882 -0.3712
  695MPD2     N10283   3.299   4.172  14.050 -0.4693  0.0816  0.3152
  695MPD2    H510284   3.307   4.228  14.134  0.4416 -0.9892  0.9453
  695MPD2    N110285   3.770   4.182  14.020  0.2388 -0.4124  0.0819
  695MPD2    H710286   3.761   4.231  14.109 -1.8090 -2.3822  0.9422
  696TMC3    C110287   3.073   4.144  14.117 -0.1354  0.6706  0.3087
  696TMC3    C210288   3.089   4.176  14.249 -0.5402 -0.4997 -0.0021
  696TMC3    C310289   2.993   4.222  14.331  0.9195 -0.1156  0.1206
  696TMC3    C410290   2.941   4.154  14.075  0.2928  0.0480 -0.0048
  696TMC3    C510291   2.851   4.220  14.159 -0.0328 -0.2420  0.1062
  696TMC3    C610292   2.868   4.247  14.292  1.0402  0.4019 -0.0721
  696TMC3     C10293   3.173   4.128  14.016 -0.5483  0.2860  0.3280
  696TMC3     O10294   3.134   4.101  13.902 -0.9074  0.3348 -0.0723
  696TMC3     H10295   3.188   4.199  14.288 -1.7433  1.6496  1.7386
  696TMC3    H110296   2.914   4.115  13.977  0.6178 -0.0224 -0.0661
  696TMC3    H210297   2.804   4.313  14.351  0.1450  0.2102 -0.8274
  696TMC3    C710298   2.768   4.315  14.095 -0.9069  0.3575  0.0801
  696TMC3    C810299   3.046   4.337  14.395 -0.0200  0.4353 -0.1302
  696TMC3    O110300   2.729   4.295  13.978 -0.1325  0.2458 -0.5963
  696TMC3    O210301   3.004   4.360  14.509 -0.1685  1.0929 -0.0698
  697MPD2     C10302   3.317   1.673  15.449  0.3701 -1.2661  0.0891
  697MPD2    C110303   3.356   1.615  15.330  0.3292  0.2079 -0.0095
  697MPD2    C210304   3.382   1.691  15.223 -0.3142 -0.1599 -0.4821
  697MPD2    C310305   3.392   1.826  15.240 -0.1065  0.1701  0.1503
  697MPD2    C410306   3.333   1.885  15.353 -0.7684 -0.7860 -0.2941
  697MPD2    C510307   3.299   1.805  15.463  0.3530 -0.0902  0.1272
  697MPD2     H10308   3.415   1.645  15.131  0.7833  0.1577 -0.2454
  697MPD2    H110309   3.311   1.991  15.360 -0.2844 -0.5228 -2.7043
  697MPD2    H210310   3.308   1.611  15.538  1.5444 -1.4375  0.0897
  697MPD2    H310311   3.257   1.853  15.551  1.1120 -0.7319  0.8440
  697MPD2     N10312   3.432   1.900  15.126 -0.1374 -0.1553  0.6102
  697MPD2    H510313   3.484   1.851  15.055 -0.4591 -1.0588  0.9852
  697MPD2    N110314   3.370   1.476  15.316 -0.1257 -0.0725  0.3296
  697MPD2    H710315   3.354   1.433  15.226  3.1580  0.0778 -0.3340
  698TMC3    C110316   3.506   2.061  14.988 -0.2103  0.4228 -0.2901
  698TMC3    C210317   3.617   2.137  15.002  0.2669 -0.6848 -0.0506
  698TMC3    C310318   3.731   2.111  14.926  0.0302 -0.0237 -0.3504
  698TMC3    C410319   3.493   1.969  14.888 -0.0831 -0.0649  0.4655
  698TMC3    C510320   3.605   1.943  14.819 -0.3106 -0.0166 -0.8883
  698TMC3    C610321   3.725   2.013  14.829 -0.3060  0.6845 -0.3667
  698TMC3     C10322   3.438   2.034  15.114 -0.6755 -0.2232  0.7544
  698TMC3     O10323   3.415   2.126  15.198  0.2515  0.2469  0.1827
  698TMC3     H10324   3.617   2.220  15.072  2.4476 -0.1874 -0.6142
  698TMC3    H110325   3.401   1.913  14.883  0.2315 -0.5799  0.5054
  698TMC3    H210326   3.793   2.013  14.745 -0.1977 -1.1050 -0.2746
  698TMC3    C710327   3.602   1.835  14.725  0.4365  0.0309  0.2931
  698TMC3    C810328   3.840   2.211  14.914 -1.0680 -0.4571  0.6272
  698TMC3    O110329   3.494   1.796  14.684 -0.1785  0.0127 -0.0675
  698TMC3    O210330   3.833   2.296  14.999 -0.2789  0.3444 -0.0762
  699TMC3    C110331   3.018   4.460  12.988  0.5625 -0.8978 -0.2651
  699TMC3    C210332   3.084   4.399  13.095 -0.4312 -0.1306 -0.0188
  699TMC3    C310333   3.010   4.342  13.197 -0.0833 -0.8685 -0.6327
  699TMC3    C410334   2.884   4.489  12.995  0.4444  0.0930 -0.0128
  699TMC3    C510335   2.816   4.454  13.107  0.2189 -0.6665  0.2910
  699TMC3    C610336   2.874   4.374  13.201  0.3099  0.1084 -0.4427
  699TMC3     C10337   3.098   4.512  12.875 -0.6300  0.7465 -0.1180
  699TMC3     O10338   3.041   4.593  12.802 -0.3004  0.5357 -0.1278
  699TMC3     H10339   3.192   4.401  13.104 -0.3674 -2.2440 -0.4620
  699TMC3    H110340   2.841   4.555  12.921 -1.6403  0.2539  1.3201
  699TMC3    H210341   2.819   4.346  13.290  0.4573 -1.2237 -0.7719
  699TMC3    C710342   2.672   4.466  13.110 -0.8120 -0.2817  0.1040
  699TMC3    C810343   3.069   4.241  13.289 -0.0999  0.0422 -0.5022
  699TMC3    O110344   2.622   4.437  13.222 -0.0169  0.1769  0.3115
  699TMC3    O210345   3.006   4.208  13.391  0.3015 -0.5850 -0.5383
  700TMC3    C110346   3.137   2.017  17.676 -0.5336 -0.2942 -0.3713
  700TMC3    C210347   3.203   1.909  17.637 -1.1289 -0.1266  0.2391
  700TMC3    C310348   3.341   1.909  17.636 -0.3049  0.2258 -0.3660
  700TMC3    C410349   3.202   2.125   0.049 -0.6723  0.1869 -0.8340
  700TMC3    C510350   3.341   2.122   0.058  0.1862 -0.7545 -0.4463
  700TMC3    C610351   3.415   2.012   0.004 -0.2949  0.0265 -0.4860
  700TMC3     C10352   3.011   2.055  17.611 -0.6870 -0.3432 -0.7010
  700TMC3     O10353   2.961   1.963  17.543 -0.4306 -0.6288  0.4738
  700TMC3     H10354   3.145   1.834  17.585 -2.7500  1.6332 -0.4843
  700TMC3    H110355   3.153   2.211   0.093 -0.0068  1.8244 -3.2878
  700TMC3    H210356   3.517   2.028  17.658 -0.3952 -0.5218 -1.0847
  700TMC3    C710357   3.409   2.245   0.092  0.2754 -0.4096  0.2671
  700TMC3    C810358   3.416   1.789  17.598  0.5694 -0.5379 -0.9491
  700TMC3    O110359   3.351   2.354   0.097  0.6682 -0.0724  0.0073
  700TMC3    O210360   3.347   1.704  17.542  0.6426 -0.8513  0.1499
  701TMC3    C110361   2.725   0.704  15.424  0.5195  0.0379 -0.2409
  701TMC3    C210362   2.689   0.649  15.305 -0.3825 -0.3079 -0.0300
  701TMC3    C310363   2.750   0.695  15.190 -0.3180  0.1211  0.3010
  701TMC3    C410364   2.809   0.811  15.429 -0.1724 -0.4410  0.0537
  701TMC3    C510365   2.864   0.857  15.317 -0.0860  0.3646 -0.4466
  701TMC3    C610366   2.846   0.798  15.192 -0.5945  0.4204 -0.0237
  701TMC3     C10367   2.655   0.666  15.543  0.4153 -0.0720  0.8745
  701TMC3     O10368   2.567   0.584  15.524 -0.1446  0.2711 -0.1625
  701TMC3     H10369   2.602   0.585  15.312 -1.1061  0.6893  0.2479
  701TMC3    H110370   2.802   0.870  15.520 -0.8359  3.5011 -2.5671
  701TMC3    H210371   2.882   0.843  15.100  0.3063  0.9533  0.5915
  701TMC3    C710372   2.916   0.992  15.313  0.0787  0.3618  0.9504
  701TMC3    C810373   2.736   0.632  15.058  0.0565  0.0583  0.0840
  701TMC3    O110374   2.931   1.051  15.201 -0.1731  0.0923 -0.0745
  701TMC3    O210375   2.805   0.675  14.964  0.4032  0.6032 -0.0705
  702MPD2     C10376   2.250   2.211  10.541  0.0430  0.0586  1.1498
  702MPD2    C110377   2.260   2.334  10.601  0.2135  0.3113  0.0813
  702MPD2    C210378   2.271   2.449  10.525  0.0041 -0.2920 -0.4082
  702MPD2    C310379   2.238   2.443  10.391 -0.0146 -0.0678  0.1645
  702MPD2    C410380   2.210   2.319  10.331 -0.3106 -0.2536  0.3301
  702MPD2    C510381   2.231   2.203  10.404  0.2896  0.0526 -1.0970
  702MPD2     H10382   2.288   2.546  10.571  0.0149 -1.9530  3.0490
  702MPD2    H110383   2.175   2.298  10.230 -0.8055  2.3074 -0.0245
  702MPD2    H210384   2.247   2.120  10.599  1.3758  0.7222  2.2439
  702MPD2    H310385   2.216   2.107  10.358  1.7864 -1.7399  2.1694
  702MPD2     N10386   2.216   2.570  10.337 -0.3409  0.0299 -0.7256
  702MPD2    H510387   2.205   2.645  10.406 -0.9289 -1.7936  1.1656
  702MPD2    N110388   2.274   2.339  10.741 -0.4996 -0.2031 -0.3050
  702MPD2    H710389   2.249   2.254  10.791  0.2638 -0.4881 -0.3993
  703TMC3    C110390   2.106   2.715  10.199 -0.1214  0.0050  0.8812
  703TMC3    C210391   1.978   2.737  10.249 -0.0283 -0.0562  0.1970
  703TMC3    C310392   1.941   2.862  10.291  0.0691  1.0203  0.1217
  703TMC3    C410393   2.192   2.815  10.218  0.2933 -0.6632 -0.6439
  703TMC3    C510394   2.152   2.938  10.263 -0.4408  0.2241  0.3467
  703TMC3    C610395   2.021   2.967  10.295 -0.0330 -1.4042  0.5740
  703TMC3     C10396   2.160   2.585  10.216  0.1348  0.7742  0.1864
  703TMC3     O10397   2.166   2.513  10.116  0.2412  0.1845 -0.0857
  703TMC3     H10398   1.909   2.653  10.249  0.3106 -0.3405 -1.0905
  703TMC3    H110399   2.294   2.789  10.190  0.5106 -0.0993 -0.3805
  703TMC3    H210400   2.006   3.072  10.319 -1.5234 -0.7976 -3.0291
  703TMC3    C710401   2.261   3.037  10.268 -0.3501 -0.0885  0.3351
  703TMC3    C810402   1.826   2.858  10.375 -0.9157  0.0328  1.2241
  703TMC3    O110403   2.365   3.007  10.208  0.2562 -0.2946  0.3552
  703TMC3    O210404   1.777   2.747  10.394 -0.2242 -0.2010 -0.0944
  704TMC3    C110405   4.183   1.303  11.972  0.0769  0.2233  0.2156
  704TMC3    C210406   4.311   1.341  12.005 -0.7241  0.6672 -0.2159
  704TMC3    C310407   4.360   1.284  12.124  0.0591 -0.4637  0.1370
  704TMC3    C410408   4.109   1.209  12.043 -0.4939  0.2796  0.7189
  704TMC3    C510409   4.163   1.152  12.152 -0.8821 -0.5595 -0.1490
  704TMC3    C610410   4.290   1.186  12.195 -0.5049 -0.6220 -0.3948
  704TMC3     C10411   4.129   1.361  11.849  0.3175  0.4902 -0.0237
  704TMC3     O10412   4.008   1.354  11.836 -0.0813 -0.0020 -0.2551
  704TMC3     H10413   4.366   1.425  11.963  1.1717  0.6127  2.1037
  704TMC3    H110414   4.008   1.177  12.021  0.1834 -1.7047  0.5241
  704TMC3    H210415   4.344   1.130  12.270  1.3957 -1.0669 -2.0898
  704TMC3    C710416   4.098   1.033  12.201  0.1107  0.7320 -0.4955
  704TMC3    C810417   4.481   1.341  12.175 -0.5020  0.7608  0.9500
  704TMC3    O110418   3.976   1.020  12.208 -0.0950  0.7005 -0.7304
  704TMC3    O210419   4.567   1.380  12.093 -0.0195 -0.0657  0.3440
  705MPD2     C10420   4.386   4.320  16.495 -0.4530 -0.3049 -0.0287
  705MPD2    C110421   4.284   4.288  16.410 -0.4200 -0.8479  0.7808
  705MPD2    C210422   4.151   4.271  16.450  0.1153  0.4075 -0.3327
  705MPD2    C310423   4.110   4.304  16.578 -0.5442 -0.5091  0.3040
  705MPD2    C410424   4.212   4.343  16.661  0.1261  0.0264 -0.5073
  705MPD2    C510425   4.344   4.352  16.623 -0.2241  0.3640  0.1639
  705MPD2     H10426   4.082   4.242  16.372  0.8644 -0.1609 -0.7902
  705MPD2    H110427   4.189   4.371  16.763 -1.1009 -0.5844 -0.6142
  705MPD2    H210428   4.490   4.340  16.474 -0.0457 -0.5952  1.7328
  705MPD2    H310429   4.404   4.409  16.694 -0.1056  0.3976  0.0371
  705MPD2     N10430   3.977   4.308  16.628 -0.4068 -0.2380 -0.1834
  705MPD2    H510431   3.965   4.345  16.721  1.8711 -1.9537  0.7824
  705MPD2    N110432   4.312   4.248  16.281 -1.0280 -0.7111 -0.4917
  705MPD2    H710433   4.233   4.214  16.229  0.6618 -0.2925 -3.3161
  706TMC3    C110434   4.406   4.041  15.956 -0.1259  0.0999  0.0815
  706TMC3    C210435   4.431   4.120  15.845  0.0974 -0.3020  0.3302
  706TMC3    C310436   4.468   4.248  15.867 -0.4342 -0.4506 -0.2683
  706TMC3    C410437   4.418   4.088  16.080 -0.3990 -0.5538  0.2145
  706TMC3    C510438   4.437   4.221  16.093 -0.4570 -0.1335  0.0745
  706TMC3    C610439   4.456   4.312  15.993  0.6083  0.3650  0.7867
  706TMC3     C10440   4.397   3.896  15.945 -1.1175  0.2598 -0.8140
  706TMC3     O10441   4.423   3.841  16.047 -0.2952  0.0222 -0.0383
  706TMC3     H10442   4.442   4.077  15.746  0.8630  2.8659 -0.9502
  706TMC3    H110443   4.386   4.029  16.165  1.6002 -3.3884 -1.0061
  706TMC3    H210444   4.476   4.418  16.005  0.5032  0.3900  0.7484
  706TMC3    C710445   4.434   4.268  16.225 -0.7724  0.1433  0.4389
  706TMC3    C810446   4.485   4.333  15.746  0.0155  0.3404  0.1354
  706TMC3    O110447   4.528   4.341  16.253  0.4103  0.9736 -0.1676
  706TMC3    O210448   4.426   4.296  15.644  0.2106  0.2799 -0.4502
  707TMC3    C110449   0.456   3.481   0.847  0.5295 -0.6533  0.6170
  707TMC3    C210450   0.497   3.548   0.962  0.4058 -0.2189 -0.5434
  707TMC3    C310451   0.429   3.663   0.996  0.4468 -0.5956 -0.2396
  707TMC3    C410452   0.373   3.540   0.753  0.3048 -0.0690 -0.8827
  707TMC3    C510453   0.308   3.652   0.796  0.2930 -0.2273 -0.3624
  707TMC3    C610454   0.332   3.713   0.919 -0.2044 -0.0029  0.6716
  707TMC3     C10455   0.564   3.402   0.788 -0.5321 -0.1308  0.1826
  707TMC3     O10456   0.673   3.434   0.828  0.2057 -0.2898  0.6956
  707TMC3     H10457   0.564   3.493   1.027 -1.2782 -1.8976 -0.2539
  707TMC3    H110458   0.352   3.483   0.663  0.4820  0.9799 -1.5871
  707TMC3    H210459   0.284   3.806   0.948  0.7072  0.1998  1.5462
  707TMC3    C710460   0.208   3.710   0.708  0.2634 -0.3490 -0.5480
  707TMC3    C810461   0.487   3.748   1.097 -0.3141  0.1180 -0.2011
  707TMC3    O110462   0.160   3.632   0.630 -0.0517 -0.3081  0.0047
  707TMC3    O210463   0.411   3.812   1.172 -0.0170 -0.0522  0.6526
  708MPD2     C10464   2.594   2.887  13.468  1.4098  0.4277 -0.3602
  708MPD2    C110465   2.493   2.846  13.549 -0.9173  0.2124  0.1909
  708MPD2    C210466   2.494   2.713  13.591  0.1247 -0.3944  0.1724
  708MPD2    C310467   2.598   2.633  13.557 -0.3019  0.6159 -0.2117
  708MPD2    C410468   2.698   2.673  13.470  0.9149  0.3390 -0.1293
  708MPD2    C510469   2.687   2.802  13.415 -0.5327  0.4941  0.2255
  708MPD2     H10470   2.422   2.676  13.663  1.0116 -2.5508 -0.0509
  708MPD2    H110471   2.779   2.606  13.443 -0.3963 -0.6308 -1.6970
  708MPD2    H210472   2.585   2.988  13.429 -2.0562  0.2092 -0.1695
  708MPD2    H310473   2.759   2.816  13.336  0.6286 -2.1802  0.7931
  708MPD2     N10474   2.624   2.510  13.618 -0.7695 -0.2426 -0.5755
  708MPD2    H510475   2.722   2.488  13.632 -0.2261  2.3910 -0.2407
  708MPD2    N110476   2.394   2.943  13.590  0.3220 -0.3630  0.1081
  708MPD2    H710477   2.408   3.029  13.540 -3.6332  0.8020  0.9889
  709TMC3    C110478   2.210   3.040  13.706  0.1401 -0.4866 -0.6456
  709TMC3    C210479   2.162   3.085  13.591  0.2169  0.0242  0.0754
  709TMC3    C310480   2.032   3.126  13.582  0.5757 -0.0988  0.1467
  709TMC3    C410481   2.132   3.013  13.816  0.7538  0.1234  0.1764
  709TMC3    C510482   1.995   3.017  13.791 -0.2642  0.2476  0.0679
  709TMC3    C610483   1.950   3.076  13.679 -0.4561  0.4547  0.3610
  709TMC3     C10484   2.294   2.929  13.675  0.0164  0.8855 -0.1783
  709TMC3     O10485   2.268   2.825  13.741  0.6590  0.5248  0.4059
  709TMC3     H10486   2.228   3.102  13.507  1.0793 -0.8081  0.5903
  709TMC3    H110487   2.169   2.973  13.909  1.5551 -0.5765 -0.4492
  709TMC3    H210488   1.842   3.083  13.669 -0.3162  1.5196 -0.4307
  709TMC3    C710489   1.919   2.903  13.830 -0.1851  0.2819 -1.0441
  709TMC3    C810490   1.985   3.218  13.486 -0.5978 -0.4301 -0.1993
  709TMC3    O110491   1.795   2.904  13.840 -0.0634 -0.1105 -0.6907
  709TMC3    O210492   1.866   3.249  13.493 -0.6138  0.1774 -0.6187
  710TMC3    C110493   3.780   4.150   0.280  0.7162  0.0911 -0.2894
  710TMC3    C210494   3.852   4.098   0.173 -0.7497 -0.0826  0.2670
  710TMC3    C310495   3.927   3.990   0.190  1.0701 -0.2114  0.0124
  710TMC3    C410496   3.758   4.078   0.394 -0.5934 -0.3661 -0.1380
  710TMC3    C510497   3.836   3.962   0.403 -0.4254 -0.1110 -0.1037
  710TMC3    C610498   3.920   3.916   0.304 -0.4844 -0.0614 -0.2344
  710TMC3     C10499   3.715   4.278   0.256  0.0685  0.3096  0.5742
  710TMC3     O10500   3.736   4.333   0.152 -0.2887 -0.3140 -0.4784
  710TMC3     H10501   3.864   4.165   0.089  0.2390  0.2080  0.6497
  710TMC3    H110502   3.722   4.127   0.484 -1.6595  0.1358 -0.8405
  710TMC3    H210503   3.970   3.822   0.327  1.8468  1.6860  1.7797
  710TMC3    C710504   3.789   3.856   0.494 -0.1739  0.3906  0.1639
  710TMC3    C810505   4.003   3.946   0.075  0.3468  0.3256 -0.0804
  710TMC3    O110506   3.878   3.778   0.531 -0.3197  0.3629 -0.4035
  710TMC3    O210507   3.986   3.990  17.647  0.3376 -0.0522 -0.5987
  711TMC3    C110508   3.129   0.522  15.033 -0.0437 -0.4790 -0.6962
  711TMC3    C210509   3.194   0.596  15.128  0.3598 -0.2813  0.1729
  711TMC3    C310510   3.325   0.626  15.112  0.7477 -0.2969 -0.0501
  711TMC3    C410511   3.188   0.479  14.916  0.0347 -0.1697  0.1931
  711TMC3    C510512   3.325   0.500  14.903  0.0948  0.8482 -0.0787
  711TMC3    C610513   3.388   0.591  14.993 -0.2190 -0.4206  0.7174
  711TMC3     C10514   3.017   0.433  15.075  0.2499  0.1119 -0.1092
  711TMC3     O10515   2.978   0.366  14.980  0.2032  0.6914 -0.0700
  711TMC3     H10516   3.153   0.623  15.225 -0.1702 -0.5040  0.0078
  711TMC3    H110517   3.135   0.413  14.848  0.3452 -1.2395  0.9818
  711TMC3    H210518   3.494   0.613  14.980 -0.7803  1.6873 -0.2857
  711TMC3    C710519   3.407   0.378  14.898  0.4988 -0.3729  0.0454
  711TMC3    C810520   3.405   0.614  15.231  0.1194  0.3398  0.4087
  711TMC3    O110521   3.525   0.382  14.942  0.0856 -0.6028 -0.1832
  711TMC3    O210522   3.358   0.637  15.340  0.1472  0.0610 -0.0334
  712MPD2     C10523   0.213   1.514  13.681  0.5985 -0.3159 -0.1381
  712MPD2    C110524   0.130   1.476  13.581  0.0961  0.0080  0.4666
  712MPD2    C210525   0.116   1.555  13.473 -0.5756 -0.0409  0.2944
  712MPD2    C310526   0.194   1.667  13.460  0.3783 -0.7175  0.1842
  712MPD2    C410527   0.287   1.702  13.558  0.3745 -0.3351 -0.0585
  712MPD2    C510528   0.289   1.626  13.665  0.1437  0.8904 -0.3083
  712MPD2     H10529   0.034   1.529  13.408  0.0484 -0.4431 -0.3247
  712MPD2    H110530   0.338   1.798  13.560  1.0681 -0.7073  0.2412
  712MPD2    H210531   0.217   1.473  13.781  2.0410  1.1398  0.3857
  712MPD2    H310532   0.358   1.662  13.741  0.8191 -0.3591 -0.3180
  712MPD2     N10533   0.181   1.761  13.347 -0.4743 -0.3878  0.6250
  712MPD2    H510534   0.247   1.837  13.345  1.4178 -2.0585 -0.4101
  712MPD2    N110535   0.041   1.366  13.591  0.0060 -0.6040 -0.1919
  712MPD2    H710536   4.690   1.344  13.523 -1.2699  0.3183  0.8569
  713TMC3    C110537   0.109   1.879  13.152  0.4141  0.0722  0.4166
  713TMC3    C210538   0.229   1.934  13.122 -0.4376  0.5781 -0.2021
  713TMC3    C310539   0.246   2.025  13.033  0.1519  0.6032  0.3438
  713TMC3    C410540   0.000   1.925  13.085  0.1242 -0.2238  0.4975
  713TMC3    C510541   0.019   2.033  13.000  0.1339  0.6511  0.1315
  713TMC3    C610542   0.143   2.073  12.962  0.2507  0.6032  0.0358
  713TMC3     C10543   0.096   1.762  13.237 -0.5869 -0.0521 -0.2907
  713TMC3     O10544   0.001   1.687  13.209 -0.0286 -0.1019  0.0208
  713TMC3     H10545   0.314   1.880  13.163 -0.2681  1.4422  0.5778
  713TMC3    H110546   4.624   1.891  13.119  0.6526 -0.2190  2.0197
  713TMC3    H210547   0.155   2.150  12.886 -0.6841  0.2767 -0.4457
  713TMC3    C710548   4.616   2.079  12.930 -0.1702  0.0193  0.6975
  713TMC3    C810549   0.368   2.088  13.011  0.0789  0.4302 -0.1575
  713TMC3    O110550   4.511   2.020  12.952  0.5216 -0.3540 -0.1994
  713TMC3    O210551   0.377   2.157  12.909  0.2932  0.0292 -0.3911
  714MPD2     C10552   2.388   0.200   1.491 -0.0110 -0.6829  0.2651
  714MPD2    C110553   2.372   0.124   1.378  0.1340  0.2516  0.4234
  714MPD2    C210554   2.361   0.185   1.253 -0.2791  0.1443 -0.3775
  714MPD2    C310555   2.370   0.325   1.239  0.1042  0.2823 -0.1479
  714MPD2    C410556   2.385   0.402   1.355 -0.9871 -0.1705  0.3364
  714MPD2    C510557   2.393   0.338   1.478  0.2174 -0.0232 -0.7312
  714MPD2     H10558   2.335   0.128   1.165  1.0198 -2.1165  0.6844
  714MPD2    H110559   2.396   0.509   1.348 -1.2860 -0.1106  0.8049
  714MPD2    H210560   2.394   0.150   1.587  3.9552  0.8864  0.8192
  714MPD2    H310561   2.394   0.403   1.564  0.1311  0.1390 -0.8513
  714MPD2     N10562   2.365   0.380   1.108  0.0440 -0.0555  0.2575
  714MPD2    H510563   2.338   0.323   1.028  1.8627  1.9340 -1.7693
  714MPD2    N110564   2.382   4.703   1.402 -0.1154  0.1948  0.4671
  714MPD2    H710565   2.394   4.668   1.497  2.8350  3.6842  1.3487
  715TMC3    C110566   2.455   4.477   1.352  0.5612 -0.4356 -1.0383
  715TMC3    C210567   2.464   4.368   1.266 -0.7155 -0.7530  0.6696
  715TMC3    C310568   2.558   4.270   1.303 -0.2960  0.1715 -0.2415
  715TMC3    C410569   2.540   4.484   1.456 -0.1618 -0.5654  0.2825
  715TMC3    C510570   2.632   4.385   1.492 -0.3889 -0.3213 -0.1734
  715TMC3    C610571   2.632   4.268   1.414 -0.9005 -0.4560  0.5465
  715TMC3     C10572   2.393   4.604   1.304 -0.3625 -0.5716  0.7207
  715TMC3     O10573   2.385   4.620   1.183  0.0182  1.0146  0.0952
  715TMC3     H10574   2.415   4.365   1.170 -0.3470  0.4765  0.4396
  715TMC3    H110575   2.552   4.579   1.507 -1.5836  0.8584 -2.0600
  715TMC3    H210576   2.696   4.184   1.438 -0.0445  0.4228  1.3672
  715TMC3    C710577   2.703   4.386   1.618 -0.5996  0.2452 -0.4778
  715TMC3    C810578   2.583   4.161   1.206 -0.9323 -0.3481  0.0919
  715TMC3    O110579   2.803   4.314   1.628 -0.7780  0.6531 -0.1735
  715TMC3    O210580   2.489   4.125   1.136 -0.2648  0.0175 -0.8489
  716MPD2     C10581   2.317   2.096   9.568 -0.0819 -0.2465  0.0392
  716MPD2    C110582   2.307   2.148   9.444 -0.4935 -0.3406 -0.3007
  716MPD2    C210583   2.351   2.078   9.327 -1.1243  0.3119  0.0621
  716MPD2    C310584   2.421   1.963   9.335  0.5073  0.4368 -0.3408
  716MPD2    C410585   2.445   1.918   9.470  0.0734 -0.1089  0.0013
  716MPD2    C510586   2.400   1.989   9.576 -0.2626  0.8434  0.1838
  716MPD2     H10587   2.319   2.105   9.227 -0.1522  0.1759 -0.2909
  716MPD2    H110588   2.513   1.834   9.484 -3.2112 -2.8061 -0.4024
  716MPD2    H210589   2.271   2.142   9.655 -1.9696  1.1699 -1.7159
  716MPD2    H310590   2.438   1.963   9.674 -0.4903  0.7211  0.2411
  716MPD2     N10591   2.448   1.900   9.213  0.3904 -0.6462  0.2985
  716MPD2    H510592   2.394   1.938   9.136  1.6050 -0.3330 -0.4110
  716MPD2    N110593   2.237   2.271   9.439 -0.3197  0.1843  0.1059
  716MPD2    H710594   2.185   2.313   9.515 -1.2283  1.7403 -1.3891
  717TMC3    C110595   2.493   1.712   9.087 -0.2999 -0.2727 -0.6047
  717TMC3    C210596   2.357   1.685   9.063 -0.2607  0.0905  0.1734
  717TMC3    C310597   2.328   1.565   9.011  0.3321  0.2718 -0.5073
  717TMC3    C410598   2.588   1.616   9.066 -0.1840 -0.5138  0.7289
  717TMC3    C510599   2.558   1.499   9.007  0.0454 -0.4137  0.5071
  717TMC3    C610600   2.426   1.471   8.977  0.1537  0.4151  0.0600
  717TMC3     C10601   2.521   1.787   9.209  0.2808  0.1790 -0.2989
  717TMC3     O10602   2.592   1.730   9.292 -0.6953  0.8181 -0.0083
  717TMC3     H10603   2.276   1.751   9.093  0.9607  2.6351 -2.0878
  717TMC3    H110604   2.690   1.641   9.092 -1.0232  0.9741  2.6289
  717TMC3    H210605   2.404   1.370   8.945  0.4730  0.9970 -2.0369
  717TMC3    C710606   2.656   1.411   8.955  0.0928 -0.3182  0.2102
  717TMC3    C810607   2.187   1.534   9.008 -0.3607 -0.3173 -0.7179
  717TMC3    O110608   2.759   1.418   9.022  0.1926 -0.2877  0.0003
  717TMC3    O210609   2.113   1.605   9.073 -0.6974 -0.2890 -0.5172
  718MPD2     C10610   1.637   2.192  13.180 -0.4818 -0.6354  0.1317
  718MPD2    C110611   1.563   2.148  13.080  0.1503  0.1913  0.0352
  718MPD2    C210612   1.497   2.032  13.095 -0.0757  0.3057 -0.2676
  718MPD2    C310613   1.518   1.952  13.205 -0.5099 -0.3662 -0.1311
  718MPD2    C410614   1.599   1.997  13.309 -0.1845  0.5165 -0.1534
  718MPD2    C510615   1.659   2.120  13.294  0.3663  0.1166 -0.5138
  718MPD2     H10616   1.433   2.009  13.011 -1.7339 -0.9315  1.3509
  718MPD2    H110617   1.630   1.942  13.397  0.8023  1.2712 -0.0245
  718MPD2    H210618   1.675   2.294  13.178 -3.0403  0.3251  0.0598
  718MPD2    H310619   1.732   2.150  13.368 -0.1867  1.4928 -0.5209
  718MPD2     N10620   1.473   1.820  13.202  0.5030 -0.0706  0.6910
  718MPD2    H510621   1.422   1.795  13.119  2.6987  0.1545 -0.7249
  718MPD2    N110622   1.546   2.228  12.960  0.3042  0.1688  0.3860
  718MPD2    H710623   1.490   2.178  12.892  1.0974 -2.0614  1.3667
  719TMC3    C110624   1.611   2.368  12.782 -0.2444 -0.0991  0.2386
  719TMC3    C210625   1.507   2.303  12.723 -0.1828  0.4494 -0.1109
  719TMC3    C310626   1.532   2.220  12.622 -0.3233  0.0597  0.8414
  719TMC3    C410627   1.734   2.374  12.725  0.5831  0.5339  0.1124
  719TMC3    C510628   1.751   2.310  12.607  0.2231  0.2062  0.2636
  719TMC3    C610629   1.654   2.232  12.563  0.0705 -0.3735 -0.7109
  719TMC3     C10630   1.622   2.340  12.923  0.7367 -0.7006 -0.0197
  719TMC3     O10631   1.713   2.399  12.972 -0.0649  0.5257  0.2327
  719TMC3     H10632   1.408   2.308  12.766  0.0680 -2.4107  0.7793
  719TMC3    H110633   1.825   2.412  12.769  0.1699  0.7814  0.7533
  719TMC3    H210634   1.664   2.178  12.469 -0.5095 -3.6718  1.1327
  719TMC3    C710635   1.861   2.350  12.515  0.1551  0.1964 -0.8759
  719TMC3    C810636   1.489   2.078  12.645 -0.3250  0.0796  0.2608
  719TMC3    O110637   1.870   2.288  12.410  0.0867  0.1368 -0.1246
  719TMC3    O210638   1.430   2.064  12.752 -0.1519 -0.2879 -0.1216
  720MPD2     C10639   4.162   3.532  13.947  0.0686 -0.1459  0.7392
  720MPD2    C110640   4.262   3.515  13.855 -0.4683 -0.0801 -0.6722
  720MPD2    C210641   4.366   3.431  13.890  0.1437 -0.5998  0.4411
  720MPD2    C310642   4.364   3.369  14.016 -1.2496 -0.2187 -0.9601
  720MPD2    C410643   4.261   3.384  14.100  0.5267  0.1323  0.3710
  720MPD2    C510644   4.162   3.472  14.070  0.1990 -0.0973  0.0686
  720MPD2     H10645   4.431   3.405  13.807 -0.8372  1.1722 -0.9060
  720MPD2    H110646   4.261   3.339  14.199  0.2729  1.8539  1.1462
  720MPD2    H210647   4.078   3.598  13.926 -0.6200 -0.7170  1.6862
  720MPD2    H310648   4.077   3.499  14.131  0.0577 -1.1361  0.3283
  720MPD2     N10649   4.477   3.290  14.046  0.0899 -0.5207  0.0080
  720MPD2    H510650   4.539   3.268  13.969  0.5648  1.0499 -0.0591
  720MPD2    N110651   4.270   3.582  13.730 -0.2377 -0.3412  0.3870
  720MPD2    H710652   4.345   3.544  13.672  0.4229  2.1902 -0.4067
  721TMC3    C110653   4.653   3.205  14.177 -0.0900 -0.6460 -0.5885
  721TMC3    C210654   4.705   3.191  14.311 -0.0926 -0.3471 -0.4662
  721TMC3    C310655   0.116   3.182  14.336  0.5620 -0.2638 -0.1537
  721TMC3    C410656   0.028   3.215  14.072  0.1947  0.2910 -0.4267
  721TMC3    C510657   0.157   3.228  14.119 -0.3716 -0.0801  0.2237
  721TMC3    C610658   0.210   3.201  14.246 -0.7671 -0.0365 -0.4836
  721TMC3     C10659   4.513   3.243  14.170  0.1881 -0.6019 -0.0982
  721TMC3     O10660   4.447   3.239  14.271  0.4076 -0.8995 -0.0922
  721TMC3     H10661   4.632   3.185  14.391  1.4108 -1.9917  0.7880
  721TMC3    H110662   0.011   3.230  13.966 -1.1163  0.3594 -0.2028
  721TMC3    H210663   0.316   3.206  14.270 -1.5976  0.2019  3.0489
  721TMC3    C710664   0.264   3.235  14.023 -0.0505 -0.3590 -0.1236
  721TMC3    C810665   0.169   3.151  14.469  0.2306  0.1724 -0.0903
  721TMC3    O110666   0.260   3.317  13.935  0.5151  0.1274  0.9450
  721TMC3    O210667   0.289   3.150  14.486  0.5581 -0.0062  0.0110
  722MPD2     C10668   3.469   2.089  12.162 -0.5034 -0.0501 -0.6656
  722MPD2    C110669   3.444   2.125  12.289  0.4355 -0.0664  0.2135
  722MPD2    C210670   3.315   2.128  12.332  0.1774 -0.5183 -0.4590
  722MPD2    C310671   3.205   2.110  12.249 -0.1412  0.8309 -0.0722
  722MPD2    C410672   3.232   2.070  12.115 -0.1996  0.7064 -0.0382
  722MPD2    C510673   3.363   2.063  12.081 -0.5763 -0.3453  0.2781
  722MPD2     H10674   3.314   2.163  12.434 -2.4359 -0.2451 -0.5622
  722MPD2    H110675   3.154   2.048  12.043  1.8723 -3.0136 -1.1526
  722MPD2    H210676   3.565   2.060  12.120 -0.0227 -0.0397  0.4326
  722MPD2    H310677   3.378   2.035  11.977 -0.1022  0.4991  0.1248
  722MPD2     N10678   3.080   2.123  12.307 -0.2360 -0.4909 -0.5157
  722MPD2    H510679   3.073   2.143  12.407 -1.1230  1.0112 -0.8785
  722MPD2    N110680   3.552   2.146  12.378  0.6426 -0.8932  0.3306
  722MPD2    H710681   3.528   2.144  12.477 -1.0865  0.9131 -0.0500
  723TMC3    C110682   2.853   2.129  12.332  0.2164 -0.4910  0.3566
  723TMC3    C210683   2.752   2.036  12.313 -0.5853  0.3652 -0.3904
  723TMC3    C310684   2.633   2.075  12.360  0.0061  0.8042  0.0020
  723TMC3    C410685   2.835   2.248  12.394  0.7788  0.8650  0.0647
  723TMC3    C510686   2.711   2.286  12.444  0.3379 -0.4806  0.2546
  723TMC3    C610687   2.608   2.192  12.432 -0.2434 -0.1034 -0.1118
  723TMC3     C10688   2.964   2.108  12.243 -0.1724 -0.5133 -0.3390
  723TMC3     O10689   2.939   2.054  12.134 -0.4284 -0.3354  0.5876
  723TMC3     H10690   2.778   1.941  12.267  3.2146  2.0282 -1.6593
  723TMC3    H110691   2.916   2.320  12.392 -0.0856  1.7729 -1.9765
  723TMC3    H210692   2.514   2.219  12.476 -1.9263 -1.2038 -3.0130
  723TMC3    C710693   2.701   2.409  12.524  0.3299  0.2420 -0.5591
  723TMC3    C810694   2.537   1.974  12.377 -0.2616  0.0071  0.4734
  723TMC3    O110695   2.802   2.473  12.545 -0.3489  0.2438 -0.0226
  723TMC3    O210696   2.422   2.005  12.388  0.2151 -0.0166  0.4520
  724TMC3    C110697   3.074   0.329   9.423  0.0228  0.1717  0.5948
  724TMC3    C210698   3.161   0.235   9.476 -0.2873  0.1748  0.1444
  724TMC3    C310699   3.294   0.260   9.455  0.5755 -0.0263 -0.1875
  724TMC3    C410700   3.114   0.425   9.331 -0.1664 -0.2684 -0.0845
  724TMC3    C510701   3.248   0.445   9.306  0.1912  0.7787  0.0800
  724TMC3    C610702   3.342   0.365   9.373 -0.6244 -0.9867 -0.4683
  724TMC3     C10703   2.932   0.347   9.475  1.0673 -0.2679  0.3296
  724TMC3     O10704   2.856   0.396   9.392  0.4623  0.6144  0.2096
  724TMC3     H10705   3.125   0.168   9.553  2.2324 -0.4043  0.8043
  724TMC3    H110706   3.042   0.496   9.293 -2.1705 -0.8408  2.6681
  724TMC3    H210707   3.446   0.376   9.342  0.3024  1.7457  3.7256
  724TMC3    C710708   3.300   0.545   9.222  0.6864 -0.2672 -0.5247
  724TMC3    C810709   3.384   0.187   9.551 -0.2931  0.3504  0.2020
  724TMC3    O110710   3.416   0.542   9.190 -0.2386  0.1839  0.5448
  724TMC3    O210711   3.328   0.146   9.648  0.4526  0.4598 -0.2953
  725TMC3    C110712   0.280   3.971  12.942 -0.4790 -0.3766  0.0018
  725TMC3    C210713   0.203   3.988  12.826 -0.0487 -0.3079  0.5016
  725TMC3    C310714   0.107   3.898  12.799 -0.1678 -0.0841  0.5450
  725TMC3    C410715   0.278   3.853  13.012 -0.1226  0.1750 -0.7008
  725TMC3    C510716   0.181   3.757  12.982  0.4969  0.4967 -0.5896
  725TMC3    C610717   0.097   3.782  12.875 -0.0130 -0.4691  0.5200
  725TMC3     C10718   0.382   4.069  12.960  0.3110  0.4434 -0.2860
  725TMC3     O10719   0.399   4.149  12.867  0.2246  0.2424  0.4093
  725TMC3     H10720   0.205   4.085  12.777  0.2988  0.2786  1.6696
  725TMC3    H110721   0.335   3.849  13.105 -2.3356  0.6095  0.6834
  725TMC3    H210722   0.020   3.709  12.851 -0.6369  0.0208  1.0269
  725TMC3    C710723   0.230   3.621  12.970  0.1273 -0.7287  0.5901
  725TMC3    C810724   0.030   3.905  12.677  0.3223 -0.0719 -1.1578
  725TMC3    O110725   0.190   3.548  12.882  0.0885 -0.7471  0.5871
  725TMC3    O210726   4.641   3.847  12.670  0.1775 -0.5742 -0.5911
  726MPD2     C10727   3.593   0.262  10.062  0.4637  0.0450  0.3351
  726MPD2    C110728   3.474   0.305  10.009  0.0181  0.0842  0.0294
  726MPD2    C210729   3.355   0.235  10.030 -0.3505 -0.3203 -0.5011
  726MPD2    C310730   3.357   0.128  10.113 -0.1572  0.3380  0.1891
  726MPD2    C410731   3.473   0.089  10.170 -0.1090  0.3014  0.2411
  726MPD2    C510732   3.589   0.152  10.140  0.4970 -0.2531 -0.1816
  726MPD2     H10733   3.267   0.284   9.991 -0.3015  0.1800  0.0135
  726MPD2    H110734   3.478   0.008  10.242  0.3735  0.1793  0.0722
  726MPD2    H210735   3.683   0.323  10.053  0.6514 -0.0579  1.4989
  726MPD2    H310736   3.675   0.106  10.187  0.2007  0.6661  1.2601
  726MPD2     N10737   3.239   0.058  10.149 -0.1595  0.9522  0.3150
  726MPD2    H510738   3.251   4.689  10.196  0.6143  0.3418 -1.0746
  726MPD2    N110739   3.465   0.421   9.930 -0.0405  0.4343  0.5601
  726MPD2    H710740   3.367   0.440   9.911  0.8617  2.6801 -1.7216
  727TMC3    C110741   3.516   0.623   9.824 -0.3579  0.4879  0.4722
  727TMC3    C210742   3.582   0.743   9.850  0.0671 -0.2368 -0.6578
  727TMC3    C310743   3.532   0.854   9.783 -0.1415 -0.8550 -0.0321
  727TMC3    C410744   3.416   0.608   9.732 -0.4098  0.6110  0.3701
  727TMC3    C510745   3.374   0.723   9.667  0.8415  0.5037  0.2806
  727TMC3    C610746   3.433   0.847   9.686 -0.0543 -0.3437  0.0614
  727TMC3     C10747   3.569   0.502   9.883  0.0653  0.3350 -0.1981
  727TMC3     O10748   3.690   0.496   9.887 -0.0444  0.5293  0.2545
  727TMC3     H10749   3.645   0.756   9.937 -0.2390  1.5172 -0.7043
  727TMC3    H110750   3.362   0.514   9.724 -0.3805  0.6227  0.0403
  727TMC3    H210751   3.397   0.941   9.646  0.9083 -0.2305 -0.5472
  727TMC3    C710752   3.244   0.708   9.602  0.6862 -0.1263  1.5826
  727TMC3    C810753   3.616   0.974   9.794  0.4417 -0.6880  0.5187
  727TMC3    O110754   3.194   0.597   9.607  0.1255  0.0165 -0.2538
  727TMC3    O210755   3.699   0.967   9.885 -0.2973 -0.1121  0.1273
  728TMC3    C110756   2.137   3.453  15.597  0.2818  0.0338 -0.4713
  728TMC3    C210757   2.262   3.469  15.635  0.5020 -0.0911  0.3398
  728TMC3    C310758   2.321   3.589  15.599 -0.9628 -0.1474  0.0922
  728TMC3    C410759   2.071   3.540  15.509 -0.3993 -0.0082  0.3567
  728TMC3    C510760   2.134   3.659  15.477 -0.1386 -0.3361  0.7914
  728TMC3    C610761   2.260   3.688  15.518  0.2177  0.6690 -0.4296
  728TMC3     C10762   2.097   3.318  15.591  0.7761  0.1160 -0.0158
  728TMC3     O10763   2.189   3.240  15.566  1.0705 -0.9380 -0.1481
  728TMC3     H10764   2.313   3.390  15.689 -0.6127 -0.9083  0.1981
  728TMC3    H110765   1.970   3.526  15.475 -0.7229  0.3464  1.1795
  728TMC3    H210766   2.316   3.778  15.494  1.2486  0.0506 -0.3463
  728TMC3    C710767   2.067   3.749  15.384  0.1077  1.1082  0.1899
  728TMC3    C810768   2.466   3.586  15.613  0.0914  0.2222  0.5916
  728TMC3    O110769   1.944   3.732  15.367 -0.3547  0.3251  0.2376
  728TMC3    O210770   2.510   3.498  15.684 -0.3342  0.4119 -0.2323
  729MPD2     C10771   0.605   4.479  16.438  0.3763 -0.5413  0.0190
  729MPD2    C110772   0.621   4.605  16.456  0.1697  0.2194 -0.7277
  729MPD2    C210773   0.588   4.651  16.581  0.0351  0.4289 -0.4011
  729MPD2    C310774   0.536   4.573  16.684 -0.3712 -0.0602  0.8063
  729MPD2    C410775   0.516   4.441  16.656  0.3617 -0.8404 -0.2974
  729MPD2    C510776   0.550   4.398  16.535  0.1969 -0.3665  0.0715
  729MPD2     H10777   0.624   0.029  16.608  0.7095 -0.1028  0.6353
  729MPD2    H110778   0.476   4.364  16.721  1.7555 -2.8924 -1.8617
  729MPD2    H210779   0.626   4.433  16.343  1.0911  0.9625 -0.5560
  729MPD2    H310780   0.548   4.291  16.515  2.2797  0.1114 -2.6720
  729MPD2     N10781   0.536   4.617  16.824  0.3911 -0.0514 -0.6006
  729MPD2    H510782   0.509   4.545  16.891 -0.3033 -0.1021 -0.9430
  729MPD2    N110783   0.672   4.699  16.357 -0.8875  0.2894 -0.0399
  729MPD2    H710784   0.695   4.655  16.268  1.2293  0.4488  0.4530
  730TMC3    C110785   0.504   0.031  17.016  0.0138 -0.4098  0.0970
  730TMC3    C210786   0.529   4.649  17.093  0.3507  0.1294  0.9297
  730TMC3    C310787   0.481   4.651  17.223 -0.3544 -1.1700  0.6820
  730TMC3    C410788   0.443   0.143  17.071 -0.1088 -0.2350 -0.1863
  730TMC3    C510789   0.387   0.138  17.195  0.9208  0.3722  0.1120
  730TMC3    C610790   0.407   0.029  17.273  0.0077 -0.4289 -0.4856
  730TMC3     C10791   0.535   0.026  16.873  0.2096  0.1980 -0.4971
  730TMC3     O10792   0.562   0.133  16.814  0.4419  0.1206 -0.4384
  730TMC3     H10793   0.600   4.577  17.055  0.0433  1.1911 -1.7019
  730TMC3    H110794   0.416   0.218  16.998 -1.6833 -0.8469 -0.2326
  730TMC3    H210795   0.380   0.026  17.378  0.5535 -1.2244 -0.3768
  730TMC3    C710796   0.359   0.268  17.263  0.7300  0.1441 -0.4708
  730TMC3    C810797   0.577   4.595  17.321 -0.0623  0.5629  0.5685
  730TMC3    O110798   0.292   0.260  17.364  0.4861 -0.9124 -0.2635
  730TMC3    O210799   0.537   4.585  17.437 -0.4711 -0.0181 -0.4207
  731MPD2     C10800   4.262   3.763  12.128 -0.2221  0.0266  0.3004
  731MPD2    C110801   4.343   3.664  12.090  0.2349 -0.7240 -0.2416
  731MPD2    C210802   4.308   3.531  12.113  0.0746 -0.2384  0.3183
  731MPD2    C310803   4.201   3.500  12.193 -0.1497  0.6958  0.0462
  731MPD2    C410804   4.117   3.600  12.231  0.7333 -0.1030  0.6953
  731MPD2    C510805   4.149   3.731  12.202 -0.1133  0.1587 -0.1138
  731MPD2     H10806   4.365   3.449  12.072 -1.2101 -1.5157  1.0520
  731MPD2    H110807   4.024   3.580  12.283  0.4089 -2.3699 -0.7455
  731MPD2    H210808   4.274   3.867  12.101  0.8713  0.0795  0.9954
  731MPD2    H310809   4.085   3.814  12.230 -1.6946 -0.5730 -1.6280
  731MPD2     N10810   4.190   3.368  12.232 -0.2845 -0.2846 -0.0158
  731MPD2    H510811   4.245   3.297  12.185  0.4267  0.5019 -0.3499
  731MPD2    N110812   4.445   3.693  12.002  0.8018 -1.0512 -0.0139
  731MPD2    H710813   4.437   3.783  11.957  3.1249 -1.7991 -1.9542
  732TMC3    C110814   4.620   3.652  11.860 -0.4914 -0.0919 -0.1829
  732TMC3    C210815   4.541   3.635  11.745 -0.0936 -0.6016 -0.7115
  732TMC3    C310816   4.598   3.597  11.625  0.1768  0.0934 -0.4237
  732TMC3    C410817   0.034   3.612  11.851  0.0894 -0.7129  0.1994
  732TMC3    C510818   0.087   3.583  11.727  0.6840 -0.7267  0.1909
  732TMC3    C610819   0.008   3.579  11.614 -0.3045  0.4625 -0.5143
  732TMC3     C10820   4.547   3.602  11.976  0.3530 -0.2671 -0.0459
  732TMC3     O10821   4.579   3.500  12.033  0.3561  0.3610 -0.9455
  732TMC3     H10822   4.440   3.676  11.748  0.3895  0.6898 -1.7940
  732TMC3    H110823   0.093   3.633  11.940  1.4083  0.1507 -0.8939
  732TMC3    H210824   0.055   3.578  11.516  0.5909  0.1508 -0.0823
  732TMC3    C710825   0.230   3.550  11.707  0.5030 -0.3742  0.1542
  732TMC3    C810826   4.517   3.508  11.544  0.6903  0.1694 -0.3306
  732TMC3    O110827   0.266   3.524  11.595  0.1427  0.1315  0.5823
  732TMC3    O210828   4.554   3.480  11.433 -0.4169 -0.1589 -0.2546
  733TMC3    C110829   1.356   1.402  13.197 -0.3035 -0.0649  0.1926
  733TMC3    C210830   1.366   1.514  13.267 -0.0337  0.1579  0.0766
  733TMC3    C310831   1.474   1.594  13.238  0.3787 -0.3054  0.1810
  733TMC3    C410832   1.431   1.369  13.090 -0.0347 -0.0481  0.0934
  733TMC3    C510833   1.525   1.465  13.054 -0.4110 -0.4289  0.4256
  733TMC3    C610834   1.541   1.577  13.124 -0.6059 -0.1771  0.5351
  733TMC3     C10835   1.225   1.342  13.189 -0.0456 -0.3863 -0.2560
  733TMC3     O10836   1.188   1.322  13.073  0.5043 -0.1784 -0.6163
  733TMC3     H10837   1.308   1.549  13.352  1.1126  0.5755  0.6997
  733TMC3    H110838   1.408   1.283  13.028  2.4316  1.9251 -3.5242
  733TMC3    H210839   1.631   1.630  13.095  0.2872 -0.8519  2.1090
  733TMC3    C710840   1.547   1.477  12.909  0.3675 -0.4421  0.1855
  733TMC3    C810841   1.499   1.723  13.298  0.7167 -0.0742 -0.3109
  733TMC3    O110842   1.552   1.376  12.838 -0.5869 -0.1592  0.4452
  733TMC3    O210843   1.527   1.731  13.414  0.0406  0.3021  0.3418
  734MPD2     C10844   2.650   4.318  12.068  0.8403 -0.6691  0.5680
  734MPD2    C110845   2.653   4.183  12.023 -0.3059  1.3987 -0.2564
  734MPD2    C210846   2.735   4.151  11.919 -0.1787  0.4026 -0.0069
  734MPD2    C310847   2.819   4.246  11.861  0.1525  0.0590  0.1040
  734MPD2    C410848   2.821   4.378  11.907  0.5191  0.4135  1.0124
  734MPD2    C510849   2.735   4.406  12.005  0.3998  1.0475 -0.2923
  734MPD2     H10850   2.749   4.045  11.899  0.4764 -0.0150  2.6396
  734MPD2    H110851   2.880   4.459  11.868  0.9177  0.2641  1.3051
  734MPD2    H210852   2.584   4.350  12.148  2.5743  1.6920  1.0609
  734MPD2    H310853   2.734   4.510  12.035 -0.2133  0.9756 -0.0494
  734MPD2     N10854   2.898   4.207  11.754  0.2895  0.1320 -0.4113
  734MPD2    H510855   2.901   4.107  11.738  1.9894  0.2019 -0.5822
  734MPD2    N110856   2.577   4.079  12.081 -0.4165 -0.3274  0.0250
  734MPD2    H710857   2.560   4.099  12.179  2.1529 -1.6138  0.7402
  735TMC3    C110858   2.498   3.857  12.097  0.7781 -0.2791 -0.3568
  735TMC3    C210859   2.439   3.758  12.025  0.2919 -0.1040 -0.1883
  735TMC3    C310860   2.473   3.624  12.042 -0.9911  0.3144  0.8238
  735TMC3    C410861   2.598   3.823  12.185  0.1171  0.2643 -0.4374
  735TMC3    C510862   2.635   3.691  12.196 -0.0881  0.0788  0.4868
  735TMC3    C610863   2.566   3.591  12.134  0.3210  0.4870  0.1438
  735TMC3     C10864   2.537   3.964  12.009 -0.2862 -0.1413 -0.3585
  735TMC3     O10865   2.531   3.949  11.885  0.0557 -0.5719  0.2073
  735TMC3     H10866   2.366   3.789  11.951  0.0489 -1.4635 -0.5152
  735TMC3    H110867   2.657   3.906  12.221 -0.6081  0.8824 -0.6723
  735TMC3    H210868   2.585   3.486  12.152  0.9132  0.6635  0.5110
  735TMC3    C710869   2.772   3.679  12.232  0.3415 -0.0718 -0.7139
  735TMC3    C810870   2.504   3.565  11.911 -0.4844 -0.2376 -0.6506
  735TMC3    O110871   2.837   3.782  12.243 -0.3698  0.0923 -0.2799
  735TMC3    O210872   2.508   3.444  11.900  0.2888  1.0060  0.4354
  736MPD2     C10873   2.959   3.397  12.376 -0.7161  0.1535 -0.2218
  736MPD2    C110874   2.953   3.512  12.306  0.8488  0.1424  0.1912
  736MPD2    C210875   3.066   3.569  12.257  0.3127 -0.1050  0.3600
  736MPD2    C310876   3.185   3.504  12.269 -0.3101 -0.2469  0.4567
  736MPD2    C410877   3.191   3.402  12.353 -0.0147 -0.8381 -0.6760
  736MPD2    C510878   3.077   3.346  12.401 -0.0655 -0.3145  0.7609
  736MPD2     H10879   3.060   3.654  12.190  0.1843 -0.7967 -0.5051
  736MPD2    H110880   3.277   3.339  12.374  0.5338  0.0525 -0.2926
  736MPD2    H210881   2.873   3.339  12.409  0.1760 -0.4286  1.0764
  736MPD2    H310882   3.071   3.255  12.459  2.1296  0.3344  1.9819
  736MPD2     N10883   3.304   3.553  12.202  0.6562  0.6277  0.5377
  736MPD2    H510884   3.394   3.508  12.216  0.2911 -0.1547  0.4220
  736MPD2    N110885   2.818   3.560  12.279  0.1141 -0.2949  0.5331
  736MPD2    H710886   2.747   3.492  12.306 -1.0910  1.2587  1.2907
  737TMC3    C110887   3.437   3.650  12.039  0.2999 -0.0912 -0.1828
  737TMC3    C210888   3.477   3.763  11.971 -0.5104  0.1484  0.0141
  737TMC3    C310889   3.554   3.753  11.854  0.1323  0.6553 -1.0162
  737TMC3    C410890   3.486   3.527  12.008 -0.0120  0.1985  0.3874
  737TMC3    C510891   3.551   3.521  11.883  1.2635  0.3225  0.3138
  737TMC3    C610892   3.581   3.630  11.801 -0.2836 -0.1009 -0.2498
  737TMC3     C10893   3.313   3.658  12.117 -0.0557 -0.6301 -0.2304
  737TMC3     O10894   3.231   3.743  12.085  0.4697  0.2410  0.6976
  737TMC3     H10895   3.426   3.852  12.007 -0.0223  0.6189 -0.4629
  737TMC3    H110896   3.453   3.435  12.055  0.7458 -0.4424 -0.3380
  737TMC3    H210897   3.639   3.633  11.709  2.5413  1.2775  1.5818
  737TMC3    C710898   3.576   3.379  11.837  0.2258  0.3405 -0.6449
  737TMC3    C810899   3.559   3.870  11.771  0.1561 -0.2382 -0.2651
  737TMC3    O110900   3.534   3.285  11.908 -0.0745  0.1500 -0.2390
  737TMC3    O210901   3.609   3.973  11.810 -0.3802 -0.2555  0.0620
  738MPD2     C10902   4.090   2.359  14.862  0.5773  0.0148  0.1719
  738MPD2    C110903   4.067   2.231  14.814 -1.0625  0.2441 -0.9887
  738MPD2    C210904   4.157   2.173  14.724 -0.4712  0.8409 -0.9985
  738MPD2    C310905   4.283   2.236  14.696  0.0166  0.3676 -0.4820
  738MPD2    C410906   4.299   2.364  14.749  0.0414 -0.0437  0.1440
  738MPD2    C510907   4.204   2.421  14.827  0.2249 -0.2648  0.2097
  738MPD2     H10908   4.135   2.071  14.692  1.6371 -0.2640  1.0448
  738MPD2    H110909   4.394   2.416  14.735  0.0752 -1.1671 -3.5836
  738MPD2    H210910   4.025   2.406  14.934 -1.6989 -0.1568 -1.7876
  738MPD2    H310911   4.216   2.520  14.868  0.4143  0.2666 -1.1204
  738MPD2     N10912   4.379   2.190  14.599  0.3077  0.0792  0.0604
  738MPD2    H510913   4.452   2.258  14.579 -2.0252  2.1025 -1.7322
  738MPD2    N110914   3.944   2.168  14.837 -0.3083  0.2569  0.1450
  738MPD2    H710915   3.926   2.085  14.781 -0.0169 -0.8054  1.6295
  739TMC3    C110916   4.449   2.057  14.416  0.0119 -0.7868 -0.2390
  739TMC3    C210917   4.382   2.008  14.305  0.0057  0.1136 -0.2105
  739TMC3    C310918   4.434   2.016  14.180  0.2699  0.3120 -0.6589
  739TMC3    C410919   4.569   2.124  14.396 -0.0867 -0.6333 -0.5875
  739TMC3    C510920   4.616   2.141  14.267 -0.1205 -0.6880  0.0402
  739TMC3    C610921   4.554   2.077  14.160  0.1444 -0.7338 -0.0645
  739TMC3     C10922   4.372   2.069  14.536 -0.3118 -0.5930 -0.0944
  739TMC3     O10923   4.289   1.981  14.563 -0.5241  0.1983  0.2062
  739TMC3     H10924   4.292   1.949  14.317  0.6545 -0.7108  0.5925
  739TMC3    H110925   4.616   2.182  14.475 -1.9046  1.1668 -0.8196
  739TMC3    H210926   4.613   2.083  14.070 -0.4175  0.5916 -0.3483
  739TMC3    C710927   0.015   2.214  14.235  0.7813 -0.1544 -1.0172
  739TMC3    C810928   4.335   2.014  14.072  0.1469  0.1770 -0.3633
  739TMC3    O110929   0.084   2.150  14.155  0.8167 -0.0475 -0.2958
  739TMC3    O210930   4.229   1.965  14.105  0.0921  0.0838 -0.5245
  740TMC3    C110931   4.402   3.785  14.102  0.3416  0.0047  0.5318
  740TMC3    C210932   4.475   3.743  14.207  1.1416  0.7278  0.5193
  740TMC3    C310933   4.593   3.674  14.181 -0.1493 -0.3131  0.1615
  740TMC3    C410934   4.446   3.781  13.970 -0.1762 -0.3418 -0.3950
  740TMC3    C510935   4.565   3.720  13.944 -0.5208  0.4926 -0.1028
  740TMC3    C610936   4.635   3.667  14.050  0.3729 -0.3024 -0.2993
  740TMC3     C10937   4.253   3.817  14.121 -0.2005 -0.3873  0.0280
  740TMC3     O10938   4.183   3.856  14.028  0.0668 -0.2886  0.1515
  740TMC3     H10939   4.432   3.759  14.305  0.9289  1.5438  0.2948
  740TMC3    H110940   4.374   3.813  13.895 -0.5117  0.6071  0.3255
  740TMC3    H210941   0.003   3.612  14.021 -1.6848 -3.7288 -0.1542
  740TMC3    C710942   4.594   3.666  13.809  0.0605 -0.5455 -0.7856
  740TMC3    C810943   4.665   3.594  14.281 -0.0784 -0.0510 -0.6825
  740TMC3    O110944   4.665   3.566  13.803  0.0400  0.0010  0.4098
  740TMC3    O210945   0.038   3.531  14.234 -0.3537 -0.9357  0.1115
  741TMC3    C110946   4.149   3.129  13.791  0.3999 -0.1552 -0.0668
  741TMC3    C210947   4.042   3.066  13.858  0.5522 -0.2044  0.1563
  741TMC3    C310948   4.068   2.967  13.951  0.5926  0.2989  0.1413
  741TMC3    C410949   4.275   3.087  13.817 -0.2852  0.1904 -0.2984
  741TMC3    C510950   4.297   3.002  13.923  0.3438 -0.3763  0.1136
  741TMC3    C610951   4.196   2.934  13.985  0.1649  0.1132 -0.9413
  741TMC3     C10952   4.121   3.209  13.673 -0.1207  0.3736 -0.2688
  741TMC3     O10953   4.214   3.224  13.592 -0.0243  1.0896 -0.3016
  741TMC3     H10954   3.939   3.099  13.847  1.3222  2.3518  0.4696
  741TMC3    H110955   4.348   3.151  13.769  1.2585  0.4259  2.3796
  741TMC3    H210956   4.221   2.859  14.059  1.3882  0.6599 -0.7816
  741TMC3    C710957   4.436   2.976  13.948  0.0424  0.9727 -0.5014
  741TMC3    C810958   3.967   2.907  14.022  0.8227 -0.1121 -0.2238
  741TMC3    O110959   4.513   3.022  13.869 -0.3119 -0.3585 -0.0263
  741TMC3    O210960   3.864   2.977  14.041 -0.2243  0.4884 -0.3257
  742TMC3    C110961   3.866   1.362  15.497  0.5960 -0.0307  0.4219
  742TMC3    C210962   3.789   1.284  15.411 -0.5297  0.0696 -0.4288
  742TMC3    C310963   3.855   1.195  15.328  0.2246  0.1354 -0.3604
  742TMC3    C410964   4.000   1.369  15.487 -0.0717 -0.0786 -0.4667
  742TMC3    C510965   4.054   1.275  15.402 -0.4191  0.1729 -0.3497
  742TMC3    C610966   3.984   1.181  15.335 -0.2543  0.5435 -0.7173
  742TMC3     C10967   3.807   1.497  15.498  0.5950  0.0201 -0.0502
  742TMC3     O10968   3.725   1.510  15.406  0.3579 -0.2730 -0.4984
  742TMC3     H10969   3.682   1.270  15.423 -0.3690 -2.7621 -2.0968
  742TMC3    H110970   4.062   1.424  15.557  1.4151  0.1576 -1.9709
  742TMC3    H210971   4.031   1.128  15.253  1.9645  1.3514  0.0521
  742TMC3    C710972   4.201   1.254  15.403 -0.9560 -0.4792 -0.2336
  742TMC3    C810973   3.807   1.200  15.192 -0.2857  0.0050  0.0530
  742TMC3    O110974   4.239   1.143  15.372  0.3803 -0.2981 -0.5413
  742TMC3    O210975   3.833   1.108  15.116 -0.0035 -0.2769 -0.1360
  743MPD2     C10976   1.506   3.819   1.744  0.8865  0.1723 -0.5796
  743MPD2    C110977   1.554   3.709   1.683  0.4582 -0.2577 -0.2452
  743MPD2    C210978   1.652   3.632   1.748  0.5598 -0.0010  0.4074
  743MPD2    C310979   1.716   3.680   1.861  0.3863  0.0905  0.2493
  743MPD2    C410980   1.677   3.797   1.926  0.6846  0.2858  0.4434
  743MPD2    C510981   1.567   3.859   1.865 -0.4453 -0.5197 -0.1347
  743MPD2     H10982   1.690   3.539   1.707  1.4377  1.9100 -3.1192
  743MPD2    H110983   1.720   3.831   2.019 -0.6738  0.5381  0.9857
  743MPD2    H210984   1.421   3.878   1.712 -1.2646 -3.3050 -1.3650
  743MPD2    H310985   1.532   3.943   1.924  0.3831 -1.9084  2.3675
  743MPD2     N10986   1.831   3.608   1.900 -0.1691 -0.7604  0.3938
  743MPD2    H510987   1.847   3.521   1.851  0.8600 -1.3829  1.8312
  743MPD2    N110988   1.488   3.671   1.567  0.0137 -0.0156  0.1175
  743MPD2    H710989   1.398   3.712   1.544  0.5838  1.8921  1.2946
  744TMC3    C110990   1.428   3.517   1.377 -0.7766  0.7228 -0.1970
  744TMC3    C210991   1.321   3.601   1.346 -0.5118 -0.1831  0.1401
  744TMC3    C310992   1.242   3.565   1.238 -0.9659 -0.4171 -0.2612
  744TMC3    C410993   1.468   3.421   1.297 -0.3053 -0.2711  0.6182
  744TMC3    C510994   1.394   3.394   1.184 -0.1258 -0.1558  0.5221
  744TMC3    C610995   1.280   3.465   1.152 -0.5946  0.1770  0.2075
  744TMC3     C10996   1.522   3.563   1.485 -0.4554 -0.2605 -0.1477
  744TMC3     O10997   1.628   3.500   1.485 -0.6195 -0.2824  0.0742
  744TMC3     H10998   1.306   3.696   1.396  1.0444  0.7058 -1.0993
  744TMC3    H110999   1.558   3.364   1.318 -1.0720 -1.5315  0.4786
  744TMC3    H211000   1.222   3.457   1.061  1.0393  1.3229 -0.9300
  744TMC3    C711001   1.432   3.271   1.116 -0.6576 -0.9410 -0.1252
  744TMC3    C811002   1.113   3.631   1.211 -0.0234 -0.7902  0.3832
  744TMC3    O111003   1.548   3.235   1.116 -0.1247 -0.4416  0.6521
  744TMC3    O211004   1.062   3.600   1.103 -0.1314  0.2020 -0.1098
  745TMC3    C111005   4.684   1.163  13.659  0.4576  0.7261 -0.7467
  745TMC3    C211006   4.653   1.081  13.762 -0.5914  0.7787  0.1596
  745TMC3    C311007   4.554   0.990  13.747 -0.6054 -0.1909 -0.7481
  745TMC3    C411008   4.625   1.150  13.531  0.0043  0.1207  0.2131
  745TMC3    C511009   4.535   1.050  13.517  0.4251 -0.7190  0.5877
  745TMC3    C611010   4.488   0.972  13.625  0.1553 -0.6444  0.3661
  745TMC3     C11011   0.058   1.265  13.679  0.4666 -0.1438  0.4442
  745TMC3     O11012   0.127   1.264  13.781 -0.6366  1.0390  0.4533
  745TMC3     H11013   4.690   1.101  13.862 -1.7906  1.4578  0.4695
  745TMC3    H111014   4.658   1.207  13.445  0.9905  2.0357  1.8513
  745TMC3    H211015   4.417   0.894  13.601 -1.4036  1.0481 -0.5884
  745TMC3    C711016   4.504   1.013  13.378 -0.5046 -0.0632 -0.8091
  745TMC3    C811017   4.481   0.960  13.871  0.3456  0.5098  0.2845
  745TMC3    O111018   4.387   0.991  13.350  0.5552  0.0326  0.2608
  745TMC3    O211019   4.543   0.918  13.968 -0.0411  0.1942 -0.3299
  746TMC3    C111020   2.259   2.631  11.119  0.0486 -0.4348 -0.4804
  746TMC3    C211021   2.328   2.583  10.998 -0.5845  0.4217  0.5738
  746TMC3    C311022   2.272   2.471  10.937 -0.1994  0.3384  0.1107
  746TMC3    C411023   2.140   2.579  11.150 -0.1153 -0.2467  0.4762
  746TMC3    C511024   2.074   2.491  11.068 -0.5622 -0.3920  0.1983
  746TMC3    C611025   2.141   2.429  10.969 -0.1067  0.4379  0.4613
  746TMC3     C11026   2.265   2.777  11.127  0.1165 -0.0851 -0.1465
  746TMC3     O11027   2.160   2.822  11.160 -0.2627 -0.0436 -0.8893
  746TMC3     H11028   2.422   2.626  10.965 -0.1552  1.1177  2.7575
  746TMC3    H111029   2.083   2.621  11.233  2.1568  0.0201  1.9254
  746TMC3    H211030   2.089   2.366  10.897  1.8980 -1.2338  0.4660
  746TMC3    C711031   1.931   2.496  11.068  0.8326  0.6083 -0.7510
  746TMC3    C811032   2.329   2.449  10.806  0.3672  0.8423 -0.0186
  746TMC3    O111033   1.873   2.401  11.017 -0.1820 -0.3884  0.2851
  746TMC3    O211034   2.402   2.537  10.770  0.1144 -0.0137 -0.1198
  747TMC3    C111035   4.092   3.101  10.940  0.5517  0.1061  0.1311
  747TMC3    C211036   3.991   3.070  11.030 -0.1715 -0.6300 -0.4435
  747TMC3    C311037   3.947   3.158  11.127  0.2141  0.1318 -0.3360
  747TMC3    C411038   4.164   3.213  10.949  0.0635  0.5573 -0.3226
  747TMC3    C511039   4.109   3.307  11.038 -0.2500 -0.6982  0.2991
  747TMC3    C611040   3.997   3.287  11.117  0.1110 -0.0103  0.0591
  747TMC3     C11041   4.155   2.990  10.873 -0.0198 -0.0257 -0.3795
  747TMC3     O11042   4.078   2.913  10.817 -0.2982 -0.6535 -0.3684
  747TMC3     H11043   3.942   2.975  11.013 -0.1446 -0.6184 -0.5833
  747TMC3    H111044   4.259   3.219  10.897  0.3226  0.6170  0.1565
  747TMC3    H211045   3.956   3.369  11.174 -4.2814 -0.7867 -1.9563
  747TMC3    C711046   4.174   3.437  11.054  0.2462  0.4286  0.2803
  747TMC3    C811047   3.854   3.110  11.223 -0.1411  0.2308  0.6413
  747TMC3    O111048   4.118   3.516  11.133  0.2459 -0.6069  0.4461
  747TMC3    O211049   3.809   3.001  11.204 -0.2670  0.0661 -0.1783
  748MPD2     C11050   0.932   4.224   0.682 -0.3299 -0.0865  0.2568
  748MPD2    C111051   0.953   4.160   0.800 -0.1581  0.5917 -0.1311
  748MPD2    C211052   1.074   4.152   0.860  0.1110  0.1827  0.5977
  748MPD2    C311053   1.183   4.214   0.793 -0.3522  0.3523 -0.3431
  748MPD2    C411054   1.158   4.263   0.669  0.1672 -0.5451  0.9241
  748MPD2    C511055   1.033   4.284   0.619 -0.2352  0.0568  0.7993
  748MPD2     H11056   1.089   4.093   0.950  1.4670  0.3350  0.4735
  748MPD2    H111057   1.231   4.313   0.605 -0.2582 -1.0590  0.0463
  748MPD2    H211058   0.829   4.248   0.656 -0.3454  1.0993  1.4186
  748MPD2    H311059   1.030   4.344   0.529  0.4559  0.5652  1.1184
  748MPD2     N11060   1.309   4.227   0.853 -0.8699 -0.1706  0.6466
  748MPD2    H511061   1.320   4.185   0.944 -1.0120 -1.2131  0.1763
  748MPD2    N111062   0.838   4.118   0.875  0.0668 -0.3966  0.3605
  748MPD2    H711063   0.748   4.143   0.836  0.9689 -0.3740 -1.6992
  749TMC3    C111064   1.529   4.305   0.896  0.0691  0.3172  0.3767
  749TMC3    C211065   1.536   4.234   1.016 -0.1183 -0.4357 -0.5584
  749TMC3    C311066   1.657   4.232   1.079  0.0137  0.2022 -0.2900
  749TMC3    C411067   1.633   4.376   0.850 -1.0711 -0.3975 -0.5110
  749TMC3    C511068   1.755   4.360   0.911  0.0004  0.3521  0.1362
  749TMC3    C611069   1.764   4.290   1.031  0.1696  0.1977  0.5984
  749TMC3     C11070   1.416   4.302   0.803  1.1113  0.5630  0.2785
  749TMC3     O11071   1.425   4.359   0.694 -0.3135 -0.4244  0.6808
  749TMC3     H11072   1.444   4.193   1.056  0.9214 -1.7265  0.5538
  749TMC3    H111073   1.619   4.436   0.760 -0.6382  1.4298  0.6517
  749TMC3    H211074   1.853   4.287   1.093 -0.3123 -0.5410  1.2490
  749TMC3    C711075   1.876   4.419   0.849 -0.0245 -0.4994  0.4994
  749TMC3    C811076   1.661   4.173   1.207 -0.4805  0.3435 -0.2126
  749TMC3    O111077   1.963   4.456   0.922  0.2063 -0.0221  0.2116
  749TMC3    O211078   1.582   4.209   1.289  0.4797  0.4507  0.5962
  750MPD2     C11079   2.656   0.299  10.776  0.2103 -0.1868  0.0489
  750MPD2    C111080   2.589   0.234  10.874  0.1848 -0.4151  0.5960
  750MPD2    C211081   2.539   0.109  10.849 -0.9017  0.3210  0.3137
  750MPD2    C311082   2.551   0.054  10.724  0.4099 -0.0070  0.2854
  750MPD2    C411083   2.622   0.114  10.624 -0.3623  0.0738  0.0837
  750MPD2    C511084   2.677   0.238  10.649  0.2104 -0.2911 -0.2606
  750MPD2     H11085   2.479   0.058  10.924 -1.3519 -0.3044 -0.4748
  750MPD2    H111086   2.632   0.068  10.527  1.3893 -1.5031  1.0189
  750MPD2    H211087   2.693   0.398  10.799  2.1465 -1.2095  1.2755
  750MPD2    H311088   2.726   0.276  10.560  2.3762 -0.2370  0.9415
  750MPD2     N11089   2.504   4.641  10.712 -0.7225  0.4761  0.0913
  750MPD2    H511090   2.526   4.593  10.626  1.2950  2.7830 -0.6767
  750MPD2    N111091   2.584   0.304  10.990  0.0766  0.3230 -0.1401
  750MPD2    H711092   2.620   0.398  10.998  2.0167 -0.4045 -0.2379
  751TMC3    C111093   2.406   4.433  10.756  0.2371  0.5671 -0.3602
  751TMC3    C211094   2.316   4.365  10.839 -0.1833  0.7932 -0.5663
  751TMC3    C311095   2.322   4.232  10.839 -0.1549  0.9146 -0.3914
  751TMC3    C411096   2.491   4.379  10.664  0.8265 -0.0859  0.5544
  751TMC3    C511097   2.484   4.246  10.665 -0.3639  0.2409  0.5136
  751TMC3    C611098   2.408   4.173  10.748  0.7044 -0.0479  0.0261
  751TMC3     C11099   2.424   4.574  10.798 -0.4189  0.1809 -0.4621
  751TMC3     O11100   2.358   4.610  10.898 -1.0605  0.1626  0.5011
  751TMC3     H11101   2.250   4.423  10.902  0.8680 -0.1839  1.4357
  751TMC3    H111102   2.546   4.430  10.586  1.2539 -2.3123 -0.5723
  751TMC3    H211103   2.409   4.065  10.740  0.5436  0.0226 -0.9943
  751TMC3    C711104   2.553   4.187  10.554 -0.1798  0.1009 -0.4416
  751TMC3    C811105   2.207   4.157  10.871  0.2359 -0.6632 -0.0054
  751TMC3    O111106   2.648   4.249  10.502  0.2890 -0.2651  0.2341
  751TMC3    O211107   2.183   4.056  10.798  0.2933  0.0943  0.1742
  752TMC3    C111108   1.665   0.564  16.475 -0.2206 -0.4022  0.1265
  752TMC3    C211109   1.580   0.676  16.463 -0.2972  0.1197 -0.6122
  752TMC3    C311110   1.596   0.780  16.551  0.2598  0.1951  0.3628
  752TMC3    C411111   1.771   0.565  16.570  0.0965  0.4698  0.0563
  752TMC3    C511112   1.776   0.670  16.657 -0.1638 -0.1749 -0.2485
  752TMC3    C611113   1.682   0.774  16.658 -0.0372  0.3088  0.1563
  752TMC3     C11114   1.632   0.440  16.418 -0.6611 -0.2372 -0.6825
  752TMC3     O11115   1.713   0.352  16.423  0.0297 -0.3292  0.2339
  752TMC3     H11116   1.507   0.679  16.382  0.8096 -1.4440 -1.6774
  752TMC3    H111117   1.837   0.480  16.581 -0.1581 -0.0470 -2.4312
  752TMC3    H211118   1.700   0.861  16.719  0.1514  2.3247 -2.8010
  752TMC3    C711119   1.908   0.693  16.720  0.0970  0.5735  0.5571
  752TMC3    C811120   1.506   0.892  16.535 -0.4974  0.4874 -0.0435
  752TMC3    O111121   1.901   0.761  16.823 -0.1001  0.6803 -0.3525
  752TMC3    O211122   1.406   0.867  16.472  0.5209 -0.1644 -0.3861
  753TMC3    C111123   2.815   0.978  13.195  0.3904  0.4651  1.0821
  753TMC3    C211124   2.927   0.956  13.278 -0.6948 -0.8117  0.1497
  753TMC3    C311125   2.930   0.830  13.342 -0.2999 -0.1356  0.0214
  753TMC3    C411126   2.712   0.896  13.184 -0.4373 -1.0571  0.1591
  753TMC3    C511127   2.718   0.788  13.262  0.6600 -0.4425  0.0540
  753TMC3    C611128   2.827   0.743  13.324 -0.8433  0.0391 -0.7199
  753TMC3     C11129   2.807   1.105  13.121 -0.1192  0.7865 -0.1229
  753TMC3     O11130   2.696   1.151  13.093  0.0202 -0.4669 -0.3108
  753TMC3     H11131   2.992   1.037  13.311 -0.2831 -0.6063 -1.1766
  753TMC3    H111132   2.628   0.922  13.120 -0.2034  0.6879  0.5523
  753TMC3    H211133   2.823   0.651  13.382  0.0674  0.8129  0.5904
  753TMC3    C711134   2.602   0.697  13.274  0.8663  0.4191 -0.0952
  753TMC3    C811135   3.005   0.810  13.464  0.4664  0.3563  0.5691
  753TMC3    O111136   2.629   0.583  13.313 -0.1258  0.0809 -0.2663
  753TMC3    O211137   3.023   0.695  13.492  0.0489  0.0437  0.2071
  754MPD2     C11138   1.084   4.145  12.370  0.9207  0.5447  0.1811
  754MPD2    C111139   1.106   4.218  12.487  0.6819  0.3602  0.3306
  754MPD2    C211140   1.074   4.351  12.496 -0.7758 -0.7174  0.8522
  754MPD2    C311141   1.010   4.417  12.395 -0.3346  0.0669  0.0674
  754MPD2    C411142   0.995   4.342  12.279 -1.0124 -0.2979 -0.0139
  754MPD2    C511143   1.037   4.214  12.267 -1.2795  0.8436 -0.0929
  754MPD2     H11144   1.114   4.414  12.574 -0.6461 -1.3832  1.3304
  754MPD2    H111145   0.952   4.392  12.193 -1.9527 -0.8575  0.1385
  754MPD2    H211146   1.101   4.039  12.355 -0.0136  0.4250 -0.0128
  754MPD2    H311147   1.035   4.172  12.168  0.3311 -3.3019  1.6101
  754MPD2     N11148   0.974   4.554  12.398 -0.1688 -0.4737  0.0550
  754MPD2    H511149   0.935   4.589  12.311  1.8899 -3.3595 -2.0177
  754MPD2    N111150   1.139   4.144  12.592 -0.3071  0.7662  0.1012
  754MPD2    H711151   1.160   4.047  12.570  0.3143  0.7923  0.5689
  755MPD2     C11152   0.617   0.480  12.868  0.2812 -0.2530 -0.4344
  755MPD2    C111153   0.597   0.351  12.922 -0.3158  0.2433 -0.1777
  755MPD2    C211154   0.698   0.259  12.915 -0.0791  0.4746 -0.2877
  755MPD2    C311155   0.827   0.286  12.865 -0.5942  0.3575  1.1124
  755MPD2    C411156   0.843   0.414  12.824  0.0113  0.1706  0.2196
  755MPD2    C511157   0.739   0.507  12.820 -0.0995 -0.3448  0.3826
  755MPD2     H11158   0.671   0.157  12.940  0.3301  0.3392 -0.3997
  755MPD2    H111159   0.940   0.442  12.784  0.2335 -1.7720 -0.6157
  755MPD2    H211160   0.536   0.551  12.863  1.3696  1.1534  1.3831
  755MPD2    H311161   0.747   0.608  12.783 -0.5506  0.0996  1.4957
  755MPD2     N11162   0.930   0.191  12.845 -0.5245  0.0125 -0.5726
  755MPD2    H511163   1.009   0.213  12.784 -0.1169 -0.8382 -0.3463
  755MPD2    N111164   0.474   0.315  12.988  0.2925  0.0267 -0.6238
  755MPD2    H711165   0.476   0.232  13.047 -3.0240  1.0140  0.9294
  756MPD2     C11166   2.245   4.679   9.201 -0.1302 -0.6666 -0.0306
  756MPD2    C111167   2.118   4.667   9.248 -0.4508 -0.5892 -0.1977
  756MPD2    C211168   2.034   4.584   9.173 -0.3266  0.4625 -0.0118
  756MPD2    C311169   2.070   4.514   9.062  0.7062 -0.2847  0.0419
  756MPD2    C411170   2.199   4.508   9.026  0.5406  0.2523  0.3274
  756MPD2    C511171   2.280   4.590   9.098 -0.3392  0.1230  0.5345
  756MPD2     H11172   1.929   4.591   9.198 -0.7820 -0.9910 -1.5217
  756MPD2    H111173   2.240   4.438   8.954 -0.2685  0.0712  0.0426
  756MPD2    H211174   2.323   0.023   9.239  0.8496 -1.1661 -1.1875
  756MPD2    H311175   2.385   4.580   9.074 -0.4741 -2.7449  1.1300
  756MPD2     N11176   1.958   4.450   8.997  0.1067  0.0024  0.1447
  756MPD2    H511177   1.864   4.467   9.030 -0.4294  0.6366 -1.7006
  756MPD2    N111178   2.073   0.009   9.360 -0.1049  0.0980 -0.0753
  756MPD2    H711179   1.975   0.001   9.384  0.0091  0.3089  0.4580
  757MPD2     C11180   1.347   3.842   9.300  0.3860  0.0178 -1.3479
  757MPD2    C111181   1.483   3.819   9.291  0.2519 -0.2141  0.7049
  757MPD2    C211182   1.560   3.916   9.226  0.1398 -0.1999 -0.1841
  757MPD2    C311183   1.503   4.021   9.153  0.6993 -0.9166  0.2360
  757MPD2    C411184   1.365   4.050   9.171  0.0809 -0.2185 -0.5204
  757MPD2    C511185   1.291   3.957   9.237 -1.2667  0.1125 -0.7159
  757MPD2     H11186   1.667   3.911   9.209  0.3974  0.9770  1.1199
  757MPD2    H111187   1.320   4.140   9.130  0.8289  0.9958  1.2953
  757MPD2    H211188   1.288   3.769   9.355 -0.4058  2.9103  1.6540
  757MPD2    H311189   1.183   3.955   9.244 -1.1533 -0.3960  0.8753
  757MPD2     N11190   1.589   4.097   9.061  0.1915 -0.1382  0.4012
  757MPD2    H511191   1.687   4.076   9.048  0.4896  1.7173 -0.3904
  757MPD2    N111192   1.531   3.696   9.332  0.6323 -1.1912 -0.4071
  757MPD2    H711193   1.471   3.627   9.376 -2.1915  0.2718 -2.0568
  758MPD2     C11194   1.862   3.254  15.909 -0.3299 -0.5967 -0.1474
  758MPD2    C111195   1.951   3.270  16.015 -0.0362  1.3622  0.1256
  758MPD2    C211196   1.959   3.399  16.074 -0.5680 -0.3197  0.3368
  758MPD2    C311197   1.886   3.501  16.030  0.6018  0.4548 -0.2780
  758MPD2    C411198   1.791   3.481  15.931 -0.0371 -0.0669  0.0512
  758MPD2    C511199   1.780   3.354  15.882  0.1427 -0.6454 -0.2745
  758MPD2     H11200   2.024   3.408  16.161  0.9976  2.5843 -1.1339
  758MPD2    H111201   1.719   3.554  15.896  0.3392  1.2176  1.9675
  758MPD2    H211202   1.846   3.156  15.867  0.7875 -1.2946  1.0679
  758MPD2    H311203   1.715   3.343  15.797  0.4446  0.8482 -0.7087
  758MPD2     N11204   1.903   3.631  16.072 -0.2095  0.7031 -0.1734
  758MPD2    H511205   1.834   3.699  16.040 -0.3440  0.4031 -0.5147
  758MPD2    N111206   2.014   3.154  16.066  0.3353 -0.2286 -0.3752
  758MPD2    H711207   1.979   3.063  16.040 -1.4529  0.4000 -0.1866
  759MPD2     C11208   0.458   1.902  10.703 -0.5684  0.2515  0.2787
  759MPD2    C111209   0.476   1.779  10.640 -0.4318 -0.1795  1.1040
  759MPD2    C211210   0.571   1.759  10.543  0.0022 -0.1976  0.1120
  759MPD2    C311211   0.658   1.860  10.516  0.8071 -0.1743 -0.5243
  759MPD2    C411212   0.651   1.982  10.581  0.7436 -0.3558 -0.0767
  759MPD2    C511213   0.553   1.995  10.674 -0.4655  0.4270  0.5661
  759MPD2     H11214   0.589   1.659  10.504  2.0836  0.6264 -1.0370
  759MPD2    H111215   0.716   2.067  10.566 -1.1410  1.1745  0.4134
  759MPD2    H211216   0.384   1.922  10.781 -0.5499 -1.4365  0.7240
  759MPD2    H311217   0.545   2.095  10.716  2.3226  1.1485 -0.6362
  759MPD2     N11218   0.730   1.845  10.394 -0.1626 -0.3742  0.2670
  759MPD2    H511219   0.702   1.770  10.332  0.4398 -0.8141  0.5305
  759MPD2    N111220   0.401   1.663  10.681  0.2419  0.3965  0.3060
  759MPD2    H711221   0.426   1.571  10.648 -1.7450 -0.6438  1.7346
  760MPD2     C11222   0.170   0.087  11.964 -0.8365 -0.8560  0.5588
  760MPD2    C111223   0.292   0.072  11.906  0.6223 -0.7157  0.1248
  760MPD2    C211224   0.335   4.665  11.895  0.2066  0.3224 -0.4985
  760MPD2    C311225   0.268   4.558  11.948  0.1853 -0.6384 -0.4483
  760MPD2    C411226   0.154   4.578  12.011 -0.2921  0.3783  0.5996
  760MPD2    C511227   0.095   4.699  12.004 -0.5205  0.0528 -0.1904
  760MPD2     H11228   0.429   4.661  11.840  1.2369  0.2517  1.2390
  760MPD2    H111229   0.107   4.491  12.055  1.4239 -0.4686  0.7528
  760MPD2    H211230   0.118   0.182  11.966 -2.1831 -1.5918  0.3526
  760MPD2    H311231   4.718   4.713  12.049 -0.6154  0.6065 -0.5658
  760MPD2     N11232   0.314   4.425  11.926  0.3857 -0.0270  0.8108
  760MPD2    H511233   0.250   4.359  11.969 -0.3667  0.1506 -0.0493
  760MPD2    N111234   0.373   0.187  11.880  0.3271  0.6944  0.5245
  760MPD2    H711235   0.446   0.163  11.814  0.5761  0.7901  0.7642
  761MPD2     C11236   1.761   4.127  11.118 -0.1566 -0.0931 -0.1061
  761MPD2    C111237   1.814   4.050  11.017 -0.2926 -0.5225  0.5837
  761MPD2    C211238   1.936   4.076  10.960  0.7938 -0.1491 -0.1601
  761MPD2    C311239   2.011   4.188  11.006  0.6646  0.7544 -0.1999
  761MPD2    C411240   1.945   4.265  11.104 -0.0866 -0.2515 -1.0480
  761MPD2    C511241   1.827   4.237  11.158 -0.1774 -0.7209  0.3419
  761MPD2     H11242   1.962   4.013  10.875  0.9997  0.2956 -0.4303
  761MPD2    H111243   2.001   4.350  11.140  1.2313 -2.0578  1.1527
  761MPD2    H211244   1.662   4.117  11.160  0.1370  0.3745  0.7107
  761MPD2    H311245   1.787   4.308  11.229 -1.1367 -1.1337  0.2074
  761MPD2     N11246   2.135   4.216  10.973  0.6224 -0.4531  1.2056
  761MPD2    H511247   2.181   4.290  11.026 -2.7677  0.8332  2.3743
  761MPD2    N111248   1.741   3.934  10.984  0.0467 -0.1522 -0.2573
  761MPD2    H711249   1.656   3.918  11.037  1.6921 -3.5743  1.3762
  762MPD2     C11250   1.486   3.113  10.665 -0.1889  0.2901  0.6887
  762MPD2    C111251   1.600   3.186  10.660  0.3470  0.6502  0.4257
  762MPD2    C211252   1.701   3.149  10.567  0.0945 -0.3363  0.2631
  762MPD2    C311253   1.697   3.024  10.505  0.6368  0.5643 -0.5465
  762MPD2    C411254   1.584   2.947  10.527 -0.3078  0.4110 -0.2851
  762MPD2    C511255   1.478   2.995  10.598  0.0327  0.0060  0.1945
  762MPD2     H11256   1.790   3.211  10.560  0.8294 -1.7153 -2.5871
  762MPD2    H111257   1.575   2.855  10.470  1.3488 -0.7180  1.2752
  762MPD2    H211258   1.403   3.144  10.727 -1.0183  0.9991 -0.7969
  762MPD2    H311259   1.389   2.934  10.590 -0.2615  0.2858  1.3420
  762MPD2     N11260   1.801   2.987  10.414  0.2237  0.1351  0.5527
  762MPD2    H511261   1.879   3.051  10.399 -0.1610  0.4102 -0.3155
  762MPD2    N111262   1.597   3.303  10.741 -0.1341 -0.1355 -0.4537
  762MPD2    H711263   1.528   3.309  10.814  0.6958 -3.1353  0.5650
  763MPD2     C11264   3.185   4.246  16.009  0.1141 -0.4420  0.0571
  763MPD2    C111265   3.285   4.314  15.934  0.1254 -0.2540  0.2695
  763MPD2    C211266   3.361   4.411  16.001 -0.8377  1.1530 -0.3022
  763MPD2    C311267   3.338   4.437  16.141 -0.0058 -0.0632  0.3762
  763MPD2    C411268   3.242   4.370  16.201 -0.5458  0.3113 -0.3853
  763MPD2    C511269   3.161   4.275  16.139  0.5746  0.5118 -0.2303
  763MPD2     H11270   3.446   4.459  15.954 -0.3976  0.6234 -0.0418
  763MPD2    H111271   3.217   4.366  16.306 -0.8504  0.1564 -0.4613
  763MPD2    H211272   3.120   4.175  15.957  0.1779 -0.7103  0.3472
  763MPD2    H311273   3.089   4.212  16.190  0.3756  0.1655 -0.9369
  763MPD2     N11274   3.437   4.520  16.205 -0.5342  0.1859 -0.0295
  763MPD2    H511275   3.508   4.556  16.143 -1.2541  0.0995 -0.9018
  763MPD2    N111276   3.317   4.295  15.801  0.3958 -0.0709  0.2581
  763MPD2    H711277   3.393   4.342  15.753 -0.0692  0.7793  0.3448
  764MPD2     C11278   2.310   1.251  16.828  0.4217 -0.5249 -0.6105
  764MPD2    C111279   2.201   1.168  16.827  0.6177  0.2400 -0.1620
  764MPD2    C211280   2.178   1.095  16.944  0.1981 -0.4816  0.5470
  764MPD2    C311281   2.259   1.102  17.059  0.3328 -0.2327  0.1804
  764MPD2    C411282   2.358   1.197  17.060  0.1777  0.0215 -0.1961
  764MPD2    C511283   2.386   1.259  16.944 -0.3923 -0.3245 -0.1429
  764MPD2     H11284   2.086   1.038  16.943 -0.2713  0.2587  1.8369
  764MPD2    H111285   2.427   1.221  17.141  0.4727 -3.8185  0.6714
  764MPD2    H211286   2.347   1.311  16.746  1.0631 -1.0685 -0.7150
  764MPD2    H311287   2.478   1.315  16.944 -0.7329  0.2405 -0.5045
  764MPD2     N11288   2.226   1.012  17.172 -0.5243 -0.4744  0.0319
  764MPD2    H511289   2.151   0.945  17.156 -0.5930 -0.1855 -0.8692
  764MPD2    N111290   2.110   1.159  16.714  0.5070  0.0900  0.2863
  764MPD2    H711291   2.045   1.082  16.726  1.2524 -0.2887  1.8544
  765MPD2     C11292   0.755   3.496  15.957 -0.5549  0.3152  0.0726
  765MPD2    C111293   0.812   3.556  15.848 -0.0530  0.2933  0.6407
  765MPD2    C211294   0.908   3.486  15.776 -0.8468  0.0100 -0.0084
  765MPD2    C311295   0.951   3.364  15.808  0.0219 -0.1555  0.3879
  765MPD2    C411296   0.908   3.315  15.926 -0.1604  0.3258 -0.1342
  765MPD2    C511297   0.804   3.372  15.992  0.2865 -0.5180 -0.3250
  765MPD2     H11298   0.943   3.535  15.685 -0.0257  0.3058  0.4682
  765MPD2    H111299   0.940   3.218  15.964 -0.6359  0.5572  0.8662
  765MPD2    H211300   0.678   3.552  16.008 -0.8300 -0.6594  0.7230
  765MPD2    H311301   0.754   3.315  16.069 -0.4278 -0.0706 -0.4543
  765MPD2     N11302   1.039   3.297  15.717 -0.3100  0.0994 -0.4525
  765MPD2    H511303   1.060   3.339  15.627  1.0000  1.8110  0.6613
  765MPD2    N111304   0.771   3.683  15.817  0.1011  0.1494  0.4070
  765MPD2    H711305   0.691   3.724  15.865  1.6689  0.2463  2.9696
  766MPD2     C11306   0.360   3.668  15.355 -0.0424  0.3036 -0.1838
  766MPD2    C111307   0.457   3.757  15.354  0.4270  0.3712  0.1368
  766MPD2    C211308   0.544   3.760  15.242  0.6237 -0.5525  0.1973
  766MPD2    C311309   0.532   3.672  15.141  0.3335 -0.2374  0.7530
  766MPD2    C411310   0.420   3.600  15.139 -0.6490 -0.2870 -0.6178
  766MPD2    C511311   0.340   3.590  15.245 -0.2143  0.1336 -0.1916
  766MPD2     H11312   0.633   3.822  15.238  0.3911 -0.3704 -2.2504
  766MPD2    H111313   0.385   3.542  15.055 -2.5852  1.7929 -1.2611
  766MPD2    H211314   0.275   3.666  15.422 -1.1816 -0.9627 -1.6950
  766MPD2    H311315   0.255   3.523  15.243 -1.4127  1.6807 -1.3365
  766MPD2     N11316   0.620   3.663  15.024 -0.0447  0.2843 -0.1781
  766MPD2    H511317   0.577   3.616  14.945 -1.2042 -0.0297  0.6320
  766MPD2    N111318   0.477   3.853  15.455  0.7020 -0.3618 -0.5059
  766MPD2    H711319   0.450   3.817  15.546  0.2503  1.1319 -0.0550
  767MPD2     C11320   0.330   3.979  15.032  0.0664  0.1919 -0.4123
  767MPD2    C111321   0.448   3.980  14.963 -0.6166 -0.3400 -0.2983
  767MPD2    C211322   0.454   3.937  14.833 -0.0955 -0.0858 -0.5598
  767MPD2    C311323   0.338   3.898  14.768 -0.1469  0.1837  0.5112
  767MPD2    C411324   0.220   3.916  14.827 -0.0639 -0.4022 -0.4962
  767MPD2    C511325   0.217   3.958  14.956  0.5219  0.0789  0.7806
  767MPD2     H11326   0.549   3.913  14.785  0.3502 -0.4228  0.4811
  767MPD2    H111327   0.126   3.888  14.780 -0.5636 -1.0375  0.8741
  767MPD2    H211328   0.332   4.001  15.138  0.5088  1.2954 -0.6459
  767MPD2    H311329   0.119   3.986  14.990 -0.3546 -0.2220 -1.4614
  767MPD2     N11330   0.348   3.846  14.635  0.1364 -0.4052 -0.4203
  767MPD2    H511331   0.442   3.815  14.611  0.5598  0.6383 -0.1419
  767MPD2    N111332   0.561   4.024  15.035 -0.4711  0.0730 -0.2542
  767MPD2    H711333   0.556   4.012  15.136  1.5563  1.9342  0.0492
  768MPD2     C11334   1.358   1.871  10.856  0.2725 -0.7683 -0.8678
  768MPD2    C111335   1.369   1.971  10.953  0.0311 -0.3032  0.0297
  768MPD2    C211336   1.443   1.954  11.066 -0.3046  0.9650  0.3334
  768MPD2    C311337   1.514   1.833  11.085  0.0017  0.1841  0.1071
  768MPD2    C411338   1.514   1.740  10.980 -0.5375  0.4971  0.2426
  768MPD2    C511339   1.427   1.760  10.873  0.4881  0.9978 -0.3822
  768MPD2     H11340   1.450   2.035  11.137  0.4194  1.4923 -0.3434
  768MPD2    H111341   1.583   1.657  10.985 -0.5601  0.5346  1.0827
  768MPD2    H211342   1.298   1.874  10.765 -0.1287  0.3458 -0.5686
  768MPD2    H311343   1.428   1.690  10.790  0.2395 -0.6718  1.0256
  768MPD2     N11344   1.607   1.818  11.195 -0.3667 -0.2069  0.0772
  768MPD2    H511345   1.682   1.750  11.191  0.0407  0.2917 -0.7691
  768MPD2    N111346   1.314   2.099  10.933  0.0010  0.4437 -0.0329
  768MPD2    H711347   1.337   2.162  11.009 -0.0432 -0.5612  0.8056
  769MPD2     C11348   2.489   0.404  14.689  0.3043 -0.2679 -0.0917
  769MPD2    C111349   2.403   0.411  14.799 -0.0229  0.3014  0.0102
  769MPD2    C211350   2.457   0.453  14.919 -0.1906  0.3978 -0.3973
  769MPD2    C311351   2.595   0.475  14.936 -0.2683 -0.4997 -0.3439
  769MPD2    C411352   2.676   0.469  14.828  0.4225 -0.2471 -0.4736
  769MPD2    C511353   2.621   0.439  14.706 -0.3222  0.0592  0.3025
  769MPD2     H11354   2.391   0.472  15.003  0.6032 -1.9727  0.7688
  769MPD2    H111355   2.780   0.501  14.834  0.5904 -1.1262  1.1724
  769MPD2    H211356   2.455   0.371  14.591 -0.3723  2.0611 -0.6497
  769MPD2    H311357   2.679   0.449  14.614 -0.5158 -1.1326  0.0434
  769MPD2     N11358   2.626   0.546  15.050  0.6793  0.6504  0.5788
  769MPD2    H511359   2.559   0.541  15.125 -0.4359 -0.0669 -0.4667
  769MPD2    N111360   2.269   0.362  14.777 -0.1665  0.1686  0.5743
  769MPD2    H711361   2.244   0.337  14.681  2.1674 -1.3025  0.3623
  770MPD2     C11362   1.563   4.429  15.133  0.7980 -0.1492  0.1302
  770MPD2    C111363   1.687   4.455  15.191  0.0469 -0.0443 -0.2972
  770MPD2    C211364   1.751   4.583  15.173 -0.0475  0.2293 -0.1881
  770MPD2    C311365   1.688   4.674  15.094  0.4323 -0.6775  0.3301
  770MPD2    C411366   1.560   4.648  15.049  0.2844  0.0221 -0.3915
  770MPD2    C511367   1.500   4.530  15.061  0.4922  0.6542  0.1022
  770MPD2     H11368   1.853   4.602  15.205 -0.3382  0.6249  0.5072
  770MPD2    H111369   1.506   0.012  15.007  0.8034 -0.5713 -2.2215
  770MPD2    H211370   1.508   4.336  15.137 -2.2704  1.6819  0.7582
  770MPD2    H311371   1.399   4.505  15.029  1.8858 -1.6952 -2.4029
  770MPD2     N11372   1.767   0.060  15.047  0.4366 -0.2001 -0.0550
  770MPD2    H511373   1.863   0.059  15.079 -0.1962  0.9317  1.8732
  770MPD2    N111374   1.742   4.348  15.267 -0.0353 -0.7038  0.3384
  770MPD2    H711375   1.693   4.261  15.246 -0.8445  0.0165 -0.7318
  771MPD2     C11376   3.052   3.019  13.738  0.5544  0.3156 -0.1582
  771MPD2    C111377   3.053   3.142  13.665 -0.8666  0.0938 -0.2105
  771MPD2    C211378   3.042   3.141  13.527  0.7149 -0.8494 -0.3163
  771MPD2    C311379   3.023   3.023  13.463 -0.0825 -0.8427  0.3976
  771MPD2    C411380   3.009   2.907  13.534  0.1085  0.5080 -0.1055
  771MPD2    C511381   3.018   2.904  13.674 -0.4428  0.0255 -0.2879
  771MPD2     H11382   3.051   3.235  13.474 -1.1904  0.6414  1.9971
  771MPD2    H111383   2.998   2.818  13.474 -2.5976  0.4534  0.4958
  771MPD2    H211384   3.072   3.017  13.844 -0.5125 -2.3571 -0.0077
  771MPD2    H311385   3.002   2.808  13.721 -2.8316  0.9692  0.8474
  771MPD2     N11386   3.005   3.038  13.328 -0.1436 -0.7144  0.6230
  771MPD2    H511387   3.024   3.134  13.302  1.5079 -1.3709 -0.6115
  771MPD2    N111388   3.079   3.272  13.715 -0.1253 -0.7812  0.0323
  771MPD2    H711389   3.094   3.349  13.650  1.2227 -1.4290 -0.4110
  772MPD2     C11390   2.851   3.810  14.303 -0.3741 -0.0200  0.1614
  772MPD2    C111391   2.793   3.785  14.180 -0.3136 -0.5185  0.4779
  772MPD2    C211392   2.658   3.785  14.169 -0.1802 -0.2295  0.2037
  772MPD2    C311393   2.575   3.815  14.276  0.1498  0.5282 -0.5868
  772MPD2    C411394   2.631   3.840  14.397  0.0449  0.0909  0.0871
  772MPD2    C511395   2.768   3.838  14.406  0.0866  0.2495  0.5154
  772MPD2     H11396   2.615   3.736  14.083  0.7644 -0.3411 -0.2029
  772MPD2    H111397   2.566   3.864  14.480  0.2315  0.1527  0.2141
  772MPD2    H211398   2.955   3.794  14.331  0.1839 -1.1869 -2.5673
  772MPD2    H311399   2.812   3.820  14.503 -0.7811  0.2303  0.9098
  772MPD2     N11400   2.438   3.805  14.263  0.2020 -0.3277  0.2351
  772MPD2    H511401   2.386   3.825  14.347  0.0131 -2.6044  0.6569
  772MPD2    N111402   2.864   3.733  14.068 -0.2824  0.7136 -0.1253
  772MPD2    H711403   2.811   3.684  13.997  0.5653  1.2489 -1.1342
  773MPD2     C11404   2.486   0.088   0.163 -0.7970  0.4884 -0.6803
  773MPD2    C111405   2.385   0.003   0.113  0.0046 -0.3555 -0.4480
  773MPD2    C211406   2.365   4.602   0.177 -0.4468 -0.8155  0.5514
  773MPD2    C311407   2.445   4.570   0.285 -0.0603  0.3815 -0.3075
  773MPD2    C411408   2.554   4.645   0.321 -0.3404  0.0703  0.3867
  773MPD2    C511409   2.571   0.050   0.267  0.4684 -0.5472  0.4312
  773MPD2     H11410   2.289   4.530   0.150 -1.1968  0.2522 -0.1927
  773MPD2    H111411   2.617   4.632   0.408 -0.6960  1.6397  0.8796
  773MPD2    H211412   2.487   0.191   0.129 -0.4195  0.1373 -1.7061
  773MPD2    H311413   2.646   0.116   0.310  1.6104 -2.4697  1.4071
  773MPD2     N11414   2.425   4.448   0.354 -0.7845 -0.8686  0.1671
  773MPD2    H511415   2.346   4.390   0.326 -2.4282  0.2780  2.3913
  773MPD2    N111416   2.302   0.043   0.005  0.0741 -0.0551 -0.2255
  773MPD2    H711417   2.243   4.687  17.662 -2.1889  1.5477  0.1795
  774MPD2     C11418   0.965   3.364  13.260 -0.2324 -0.5004 -0.1400
  774MPD2    C111419   0.949   3.488  13.325  0.8166 -0.5084 -1.0421
  774MPD2    C211420   0.949   3.605  13.253 -0.6616 -0.3942 -0.6311
  774MPD2    C311421   0.984   3.601  13.122  0.7699 -0.7177  0.5596
  774MPD2    C411422   0.997   3.483  13.053  0.2660 -0.5909 -0.1556
  774MPD2    C511423   0.982   3.367  13.123  0.0163 -0.7754 -0.1787
  774MPD2     H11424   0.949   3.700  13.304 -1.4548  0.0642 -1.4927
  774MPD2    H111425   1.025   3.476  12.948  1.4037 -0.5780  0.1447
  774MPD2    H211426   0.970   3.275  13.322  0.6097 -1.0471 -0.9947
  774MPD2    H311427   0.987   3.273  13.070 -1.2242 -1.0026  0.1024
  774MPD2     N11428   1.004   3.722  13.061  0.1961  0.2074 -0.0920
  774MPD2    H511429   0.993   3.810  13.111  1.7903 -0.2343  1.0442
  774MPD2    N111430   0.950   3.491  13.465 -0.7325 -0.0008 -0.4705
  774MPD2    H711431   0.951   3.407  13.522 -2.5016 -0.6796 -1.4597
  775MPD2     C11432   3.333   0.566  15.918 -0.2904 -0.6692  0.1223
  775MPD2    C111433   3.229   0.654  15.895 -0.8043 -0.0344  0.0862
  775MPD2    C211434   3.255   0.758  15.817  0.1720  0.2818  0.1483
  775MPD2    C311435   3.370   0.769  15.743  0.2148 -0.4799 -0.1291
  775MPD2    C411436   3.467   0.677  15.761  0.0848 -0.0873 -0.3633
  775MPD2    C511437   3.451   0.574  15.851  0.1394  0.6091 -0.1999
  775MPD2     H11438   3.189   0.844  15.812 -0.3869 -0.2601 -1.5969
  775MPD2    H111439   3.554   0.675  15.696 -0.0134 -1.7095 -0.4361
  775MPD2    H211440   3.322   0.478  15.981 -0.4801 -1.1468 -0.5866
  775MPD2    H311441   3.526   0.496  15.857 -0.9671 -0.5871 -2.2388
  775MPD2     N11442   3.398   0.868  15.642 -0.1663  0.1389  0.1572
  775MPD2    H511443   3.491   0.871  15.602  0.6346  0.7191  2.0768
  775MPD2    N111444   3.110   0.631  15.975  0.0876 -0.0309  0.0142
  775MPD2    H711445   3.107   0.541  16.022 -0.8737  0.0169  0.0370
  776MPD2     C11446   2.890   0.840  11.457 -0.1363  0.4565  0.4789
  776MPD2    C111447   2.788   0.863  11.369 -0.1314 -0.3344  0.3405
  776MPD2    C211448   2.747   0.997  11.344 -0.0846  0.4247 -0.0661
  776MPD2    C311449   2.809   1.101  11.409 -0.0507 -0.5033 -0.4921
  776MPD2    C411450   2.915   1.067  11.492 -0.7045  0.2097  0.5606
  776MPD2    C511451   2.955   0.941  11.509 -0.1112 -0.7815  0.2523
  776MPD2     H11452   2.662   1.027  11.283 -1.4181 -2.6480  0.2502
  776MPD2    H111453   2.964   1.150  11.543  2.4917 -1.9484  0.9820
  776MPD2    H211454   2.922   0.739  11.479 -0.5624  0.1178 -0.4461
  776MPD2    H311455   3.027   0.917  11.587  0.2762 -1.3285 -0.2692
  776MPD2     N11456   2.791   1.235  11.383 -0.0363 -0.1967 -0.3864
  776MPD2    H511457   2.853   1.304  11.424  0.4394  0.1637 -1.7088
  776MPD2    N111458   2.714   0.765  11.299  0.2114 -0.4704  0.1934
  776MPD2    H711459   2.639   0.804  11.242  0.7343 -1.1522 -0.9674
  777MPD2     C11460   2.467   3.145   0.887 -0.0484  0.5032 -1.0117
  777MPD2    C111461   2.344   3.211   0.912  0.1356 -0.0159 -0.0457
  777MPD2    C211462   2.248   3.181   0.827 -0.2859 -0.2542 -0.1067
  777MPD2    C311463   2.257   3.079   0.733  0.4663 -0.4723 -0.5108
  777MPD2    C411464   2.372   3.014   0.724  0.3657  0.1784  0.5465
  777MPD2    C511465   2.485   3.049   0.794 -0.6963 -0.3957 -0.7834
  777MPD2     H11466   2.155   3.237   0.827  0.1772  0.5241  1.3796
  777MPD2    H111467   2.386   2.934   0.651 -0.3201  0.1255  0.4772
  777MPD2    H211468   2.557   3.173   0.941  0.0778 -1.9639  0.0470
  777MPD2    H311469   2.581   3.002   0.780  0.5887  2.1780 -0.4983
  777MPD2     N11470   2.135   3.037   0.680  0.1001 -0.2568 -0.3600
  777MPD2    H511471   2.053   3.080   0.721  0.4160  1.6285 -1.7021
  777MPD2    N111472   2.323   3.306   1.014  0.6920  0.3415  0.7371
  777MPD2    H711473   2.232   3.351   1.014 -0.3101 -1.6690 -0.0351
  778MPD2     C11474   3.898   3.293  14.392  0.5140  0.1992  0.6104
  778MPD2    C111475   3.820   3.184  14.426  0.4608  0.3295  0.4343
  778MPD2    C211476   3.885   3.062  14.418  0.2183  0.5716  0.1174
  778MPD2    C311477   4.011   3.047  14.379  0.4832  0.3532  0.5204
  778MPD2    C411478   4.086   3.153  14.337 -0.2799  0.5274 -0.3612
  778MPD2    C511479   4.028   3.277  14.349 -0.1073 -0.0126  0.5572
  778MPD2     H11480   3.825   2.973  14.439  0.1515  0.7721  0.7861
  778MPD2    H111481   4.186   3.137  14.300 -0.9658  0.1565 -2.0614
  778MPD2    H211482   3.858   3.394  14.400 -0.6631 -0.4236  2.5350
  778MPD2    H311483   4.083   3.364  14.314 -0.6917 -0.5420 -1.6357
  778MPD2     N11484   4.067   2.910  14.389  0.3258 -0.5764 -0.0313
  778MPD2    H511485   4.005   2.837  14.424 -0.2547  0.3031  0.7804
  778MPD2    N111486   3.683   3.194  14.456 -0.3147  0.2076  0.5278
  778MPD2    H711487   3.640   3.104  14.475  1.9721 -1.3318 -1.5729
  779MPD2     C11488   2.967   1.877  13.802 -0.1177  0.0798 -0.0866
  779MPD2    C111489   3.061   1.872  13.901 -0.8426  0.0025 -0.8467
  779MPD2    C211490   3.130   1.986  13.933 -0.4979  0.7518 -0.0893
  779MPD2    C311491   3.106   2.107  13.872 -0.5868 -0.2960 -0.4171
  779MPD2    C411492   3.001   2.111  13.785  0.3422 -0.3552  0.1883
  779MPD2    C511493   2.935   1.997  13.750  0.0303 -0.3786  0.1003
  779MPD2     H11494   3.213   1.980  14.002 -1.0027 -2.0485  0.2324
  779MPD2    H111495   2.969   2.200  13.731  0.3315 -0.3666  0.1760
  779MPD2    H211496   2.905   1.796  13.767 -1.1270  1.5009 -1.6196
  779MPD2    H311497   2.857   1.996  13.674  0.5656  0.7692 -0.4664
  779MPD2     N11498   3.183   2.218  13.911 -0.3719 -0.0150 -0.1229
  779MPD2    H511499   3.235   2.207  13.997 -0.0466 -1.7661 -0.5402
  779MPD2    N111500   3.094   1.750  13.962 -0.4790 -0.1063  0.0966
  779MPD2    H711501   3.050   1.666  13.925  1.0377 -1.2387  0.8420
  780MPD2     C11502   2.952   2.609   1.020  0.2803 -0.1334 -1.2163
  780MPD2    C111503   2.932   2.478   0.993 -0.2029  0.5631  0.2615
  780MPD2    C211504   3.011   2.419   0.896 -0.1474  0.5717  0.5727
  780MPD2    C311505   3.108   2.484   0.831  0.0729 -0.0995 -0.2467
  780MPD2    C411506   3.115   2.622   0.859 -0.8431 -0.2265  0.3945
  780MPD2    C511507   3.043   2.680   0.954 -0.2934 -0.7215 -0.4134
  780MPD2     H11508   3.008   2.311   0.894  0.8330  0.5609 -0.0042
  780MPD2    H111509   3.195   2.680   0.815 -2.2752  1.0786 -0.5139
  780MPD2    H211510   2.899   2.671   1.091  0.2530  0.0094 -1.3616
  780MPD2    H311511   3.059   2.782   0.985  1.7853 -0.3118 -2.9000
  780MPD2     N11512   3.202   2.424   0.742  0.0121  0.0988 -0.8893
  780MPD2    H511513   3.180   2.328   0.719  3.6103 -0.6840 -1.0952
  780MPD2    N111514   2.842   2.410   1.074  0.2919  0.0083  0.1702
  780MPD2    H711515   2.795   2.449   1.156  1.5757  1.4700  0.2024
  781MPD2     C11516   4.063   3.757  11.841  0.2749  0.1663  0.4098
  781MPD2    C111517   4.083   3.893  11.845 -0.2597 -0.7321 -0.3768
  781MPD2    C211518   4.163   3.959  11.759  0.0459 -0.1654 -0.5910
  781MPD2    C311519   4.228   3.894  11.657 -0.7423  0.6148 -0.3090
  781MPD2    C411520   4.202   3.763  11.638 -0.3093 -0.5010 -0.2361
  781MPD2    C511521   4.128   3.692  11.736 -0.5800 -0.4617 -0.1223
  781MPD2     H11522   4.144   4.065  11.770  2.0238  0.1597 -0.3544
  781MPD2    H111523   4.242   3.714  11.550  1.0667 -1.4958  0.9524
  781MPD2    H211524   3.997   3.696  11.902  1.0349  1.0333  2.1140
  781MPD2    H311525   4.117   3.584  11.726  1.0434 -0.5566 -0.7514
  781MPD2     N11526   4.307   3.954  11.556  0.4590  0.4971  0.1920
  781MPD2    H511527   4.348   3.892  11.486 -0.4665 -0.4943  0.5317
  781MPD2    N111528   4.005   3.974  11.931 -0.3892  0.2633  0.1508
  781MPD2    H711529   4.007   4.073  11.910  0.9832 -0.1533 -1.5872
  782MPD2     C11530   2.616   4.220   9.682 -0.1050 -0.4224 -0.1506
  782MPD2    C111531   2.749   4.246   9.703 -0.0324  0.3133  0.9025
  782MPD2    C211532   2.790   4.350   9.775 -0.5967  0.3356  0.3788
  782MPD2    C311533   2.698   4.424   9.849  0.5633 -0.2760  0.4031
  782MPD2    C411534   2.560   4.407   9.826 -0.1123 -0.3110 -0.5408
  782MPD2    C511535   2.524   4.302   9.743 -0.9853  0.6879 -0.4732
  782MPD2     H11536   2.894   4.380   9.787  0.2703 -1.3483 -2.9625
  782MPD2    H111537   2.478   4.445   9.886  0.3875  1.8002 -1.2066
  782MPD2    H211538   2.572   4.137   9.627 -1.0018  0.8698 -1.3652
  782MPD2    H311539   2.423   4.272   9.718 -0.6905  0.8333 -1.8355
  782MPD2     N11540   2.765   4.506   9.940  0.0541 -0.0542 -0.3485
  782MPD2    H511541   2.866   4.504   9.939  0.0874  1.7299 -1.0306
  782MPD2    N111542   2.827   4.146   9.653  0.3504 -0.2332 -0.4268
  782MPD2    H711543   2.787   4.071   9.599  0.4091  1.1430 -2.3787
  783MPD2     C11544   2.433   3.892  10.383  0.5801  0.0329  0.2678
  783MPD2    C111545   2.517   3.996  10.405 -0.1702  0.1572 -0.1278
  783MPD2    C211546   2.620   4.015  10.316  0.3133 -0.1072  0.0850
  783MPD2    C311547   2.638   3.946  10.206  0.5796 -0.6765  0.5692
  783MPD2    C411548   2.549   3.846  10.186  0.3190 -0.0046  0.2974
  783MPD2    C511549   2.441   3.821  10.270 -0.9670 -0.2115 -0.3182
  783MPD2     H11550   2.690   4.094  10.340  0.6153 -0.4291  0.2588
  783MPD2    H111551   2.554   3.778  10.102  1.8501  0.9939 -0.4191
  783MPD2    H211552   2.347   3.876  10.447 -0.6945 -0.2647 -1.5042
  783MPD2    H311553   2.367   3.744  10.249 -0.8889 -0.9189  2.0443
  783MPD2     N11554   2.754   3.967  10.128  0.2867  0.3343 -0.0178
  783MPD2    H511555   2.820   4.040  10.154 -1.0351  1.3101  0.5542
  783MPD2    N111556   2.481   4.084  10.511 -0.0321  0.8376  0.6620
  783MPD2    H711557   2.402   4.058  10.569 -0.7454  1.1606 -0.1842
  784MPD2     C11558   0.024   0.197   0.453  0.4500  0.9238  0.3681
  784MPD2    C111559   0.082   0.208   0.578 -1.2504 -0.0594 -0.1261
  784MPD2    C211560   0.002   0.225   0.690 -0.1686  0.0678  0.0384
  784MPD2    C311561   4.589   0.251   0.675 -0.1303  0.3326 -0.0806
  784MPD2    C411562   4.537   0.262   0.550  0.2015 -0.0580 -0.4521
  784MPD2    C511563   4.614   0.232   0.445  0.5716 -0.4353 -0.3397
  784MPD2     H11564   0.042   0.247   0.788  0.7564  1.2685 -0.6057
  784MPD2    H111565   4.434   0.294   0.541 -0.3867 -1.6037  0.7323
  784MPD2    H211566   0.077   0.183   0.359  0.1332 -1.2020  0.5188
  784MPD2    H311567   4.565   0.220   0.349  1.6283 -1.7731 -0.7014
  784MPD2     N11568   4.512   0.272   0.796  0.2361  0.2179 -0.2710
  784MPD2    H511569   4.562   0.269   0.885  0.9738  0.1411 -0.6838
  784MPD2    N111570   0.222   0.204   0.600 -0.0307  0.9177  0.3820
  784MPD2    H711571   0.257   0.240   0.688  0.2560 -2.2094  1.5558
  785MPD2     C11572   0.664   2.901  11.104  0.5223 -0.1639  1.2873
  785MPD2    C111573   0.621   3.017  11.044 -0.3615  0.5744 -0.9409
  785MPD2    C211574   0.502   3.014  10.975  0.1327  0.2599  0.1525
  785MPD2    C311575   0.432   2.898  10.959  0.2155  0.1865 -0.9125
  785MPD2    C411576   0.483   2.779  11.012 -0.1809 -0.5903 -0.2265
  785MPD2    C511577   0.596   2.781  11.083 -0.1104  0.0235  0.3418
  785MPD2     H11578   0.458   3.108  10.941  2.2492  0.8871 -0.8605
  785MPD2    H111579   0.427   2.687  10.999 -1.6976  0.0438  1.8459
  785MPD2    H211580   0.753   2.899  11.166  3.3953  1.3084 -2.7581
  785MPD2    H311581   0.632   2.694  11.138 -0.4929 -0.0541  0.4675
  785MPD2     N11582   0.307   2.913  10.902 -0.2798 -0.3736 -0.2794
  785MPD2    H511583   0.277   3.007  10.882 -4.7053 -1.6644  0.2589
  785MPD2    N111584   0.700   3.137  11.053 -0.0780  0.2679 -0.4273
  785MPD2    H711585   0.796   3.124  11.083 -0.0740 -0.7026 -0.8484
  786MPD2     C11586   3.563   1.455  14.819 -0.1862 -0.1826 -0.8164
  786MPD2    C111587   3.622   1.332  14.819 -0.1224  1.2483  0.1505
  786MPD2    C211588   3.682   1.276  14.933  0.1634  0.0365 -0.1052
  786MPD2    C311589   3.689   1.351  15.050  0.2966  0.3528  0.2693
  786MPD2    C411590   3.624   1.470  15.053 -0.1522  0.2531 -0.1113
  786MPD2    C511591   3.562   1.522  14.939  0.6210  0.2215  0.0856
  786MPD2     H11592   3.711   1.172  14.937 -0.2635 -0.0336  1.2459
  786MPD2    H111593   3.617   1.527  15.146  1.3049  0.5247 -0.1649
  786MPD2    H211594   3.533   1.490  14.721  2.3537 -0.4522 -1.6961
  786MPD2    H311595   3.511   1.618  14.944  0.4626  0.1705 -0.4932
  786MPD2     N11596   3.730   1.309  15.177  0.4004 -0.1802  0.3089
  786MPD2    H511597   3.726   1.376  15.253 -1.1927 -0.9906  0.9345
  786MPD2    N111598   3.638   1.246  14.700 -0.0016  0.2600  0.6447
  786MPD2    H711599   3.686   1.157  14.707  0.8631  0.7277  0.6216
  787MPD2     C11600   4.008   0.657  14.635  0.6560  0.7998 -0.2140
  787MPD2    C111601   3.967   0.701  14.512  0.1275 -0.4496  0.9883
  787MPD2    C211602   4.017   0.641  14.401 -0.0521 -0.3835  0.1005
  787MPD2    C311603   4.103   0.533  14.413  0.0476 -0.1301  0.1445
  787MPD2    C411604   4.138   0.487  14.543  0.1235  0.6074  0.0809
  787MPD2    C511605   4.095   0.551  14.654 -0.6032  0.0052  0.0653
  787MPD2     H11606   3.980   0.666  14.303  0.3996 -2.2924 -0.5425
  787MPD2    H111607   4.188   0.393  14.560 -0.3270  0.2348 -0.6427
  787MPD2    H211608   3.971   0.691  14.730 -0.0983  1.4955 -0.7657
  787MPD2    H311609   4.116   0.517  14.754  1.3705  0.5321 -0.1849
  787MPD2     N11610   4.144   0.464  14.299  0.3953 -0.5954  0.5430
  787MPD2    H511611   4.101   0.491  14.211  0.0681 -0.1285  0.8491
  787MPD2    N111612   3.869   0.804  14.515  0.3062  0.1263  0.2559
  787MPD2    H711613   3.833   0.838  14.604 -0.3510  1.3356 -0.4583
  788MPD2     C11614   1.369   4.321   0.258  0.7856  0.5009  0.1425
  788MPD2    C111615   1.311   4.200   0.236  0.1264  1.3573  0.2055
  788MPD2    C211616   1.240   4.177   0.118 -0.4227  0.5531 -0.0818
  788MPD2    C311617   1.239   4.268   0.012 -0.1216 -0.0696 -0.0516
  788MPD2    C411618   1.283   4.395   0.042 -0.0859 -0.8400  0.1560
  788MPD2    C511619   1.342   4.421   0.160 -0.9784 -0.4379 -0.2285
  788MPD2     H11620   1.184   4.084   0.114  0.8442 -0.1913 -0.7610
  788MPD2    H111621   1.270   4.477  17.659 -0.5363 -1.1138 -0.0794
  788MPD2    H211622   1.417   4.362   0.346 -0.1059 -1.9227  1.7692
  788MPD2    H311623   1.366   4.522   0.193 -0.0115 -0.4299 -0.9485
  788MPD2     N11624   1.186   4.249  17.569  0.5469 -0.0326  0.7593
  788MPD2    H511625   1.186   4.331  17.511  0.7628  0.8990  2.0683
  788MPD2    N111626   1.301   4.103   0.330  0.1823  0.1254  0.3135
  788MPD2    H711627   1.225   4.037   0.318 -0.6091  0.7326  1.9578
  789MPD2     C11628   1.353   3.952  15.942 -0.1408  0.3097 -0.1952
  789MPD2    C111629   1.243   3.871  15.963 -0.2621  0.0500  0.3674
  789MPD2    C211630   1.119   3.925  15.982  0.5320 -0.0285 -0.2798
  789MPD2    C311631   1.097   4.063  15.964 -0.4800  0.2106 -0.7719
  789MPD2    C411632   1.201   4.147  15.936 -0.7360  0.2664 -0.0596
  789MPD2    C511633   1.330   4.087  15.929  0.6260 -0.1129 -0.7508
  789MPD2     H11634   1.037   3.860  16.010  0.1576  0.4651 -0.2413
  789MPD2    H111635   1.195   4.255  15.932 -0.7036  0.2035 -1.9503
  789MPD2    H211636   1.456   3.924  15.923 -0.3355 -0.0581 -0.6941
  789MPD2    H311637   1.421   4.140  15.903  1.9907 -2.2577 -0.4505
  789MPD2     N11638   0.975   4.123  16.003 -0.3723  0.3011 -0.0272
  789MPD2    H511639   0.973   4.224  16.004  0.4314  0.3206 -0.1817
  789MPD2    N111640   1.256   3.732  15.989 -0.2416  0.2720  0.0012
  789MPD2    H711641   1.183   3.677  16.034  0.9224 -0.3208  1.1703
  790MPD2     C11642   2.122   1.603  13.328  0.7306  0.1191 -0.3489
  790MPD2    C111643   2.077   1.490  13.389 -0.1250 -0.0062  0.0652
  790MPD2    C211644   2.012   1.396  13.308 -0.1357  0.5475 -0.4252
  790MPD2    C311645   1.981   1.424  13.180  0.3764 -0.7094  0.1382
  790MPD2    C411646   2.028   1.542  13.125  0.4996 -0.8004 -1.0573
  790MPD2    C511647   2.100   1.634  13.200  0.0605 -0.6324 -0.1133
  790MPD2     H11648   1.989   1.294  13.337  0.9063  0.3500 -0.3042
  790MPD2    H111649   2.005   1.564  13.021 -2.5445 -2.9249 -0.8091
  790MPD2    H211650   2.171   1.676  13.391 -0.6812 -0.2580  1.1792
  790MPD2    H311651   2.145   1.722  13.155  1.0063  0.0562  2.1628
  790MPD2     N11652   1.931   1.310  13.107 -0.3295  0.2843 -0.2667
  790MPD2    H511653   1.926   1.221  13.156  3.5913  0.0683 -0.2830
  790MPD2    N111654   2.109   1.454  13.521  0.2156 -0.5542  0.7583
  790MPD2    H711655   2.078   1.370  13.568  2.6545 -1.3012  1.0463
  791MPD2     C11656   1.320   1.188  12.677 -0.3979 -0.7410  0.0654
  791MPD2    C111657   1.410   1.087  12.656  0.3722 -0.7281  0.1295
  791MPD2    C211658   1.368   0.979  12.583 -0.2087  0.3854 -1.0313
  791MPD2    C311659   1.236   0.962  12.560  0.1442  0.2707 -0.4777
  791MPD2    C411660   1.142   1.051  12.605  0.0475 -0.9693  0.6606
  791MPD2    C511661   1.188   1.173  12.650  0.0836 -0.3815  0.3781
  791MPD2     H11662   1.443   0.907  12.552 -1.5342 -0.7839 -1.4866
  791MPD2    H111663   1.037   1.038  12.583 -0.2033  1.0940  0.6294
  791MPD2    H211664   1.347   1.281  12.726 -0.2408  0.9199 -3.1869
  791MPD2    H311665   1.122   1.254  12.678  0.6714  1.1850 -2.7282
  791MPD2     N11666   1.196   0.838  12.491 -0.8626  0.4737 -0.0584
  791MPD2    H511667   1.272   0.788  12.446 -0.8812 -1.7152  2.3352
  791MPD2    N111668   1.540   1.098  12.703  0.1400 -0.2232  0.1343
  791MPD2    H711669   1.561   1.188  12.744  0.0909  0.5546 -1.5240
  792MPD2     C11670   1.789   0.707  10.972  0.5492 -0.2308  0.1006
  792MPD2    C111671   1.918   0.660  10.953  0.0404 -0.7517 -0.5350
  792MPD2    C211672   1.939   0.523  10.911  0.0613 -0.3406  1.0632
  792MPD2    C311673   1.826   0.449  10.882  0.2473  0.0215 -0.0324
  792MPD2    C411674   1.702   0.494  10.908  0.3920 -0.5342  0.1081
  792MPD2    C511675   1.683   0.621  10.951 -0.1288 -0.7186  0.1959
  792MPD2     H11676   2.036   0.485  10.880 -1.4161 -3.8601  0.8028
  792MPD2    H111677   1.621   0.423  10.896  0.7943 -1.0526  0.5081
  792MPD2    H211678   1.762   0.807  11.004  1.0393 -0.2878  0.6694
  792MPD2    H311679   1.582   0.659  10.965  1.2481  1.9792  2.5649
  792MPD2     N11680   1.831   0.312  10.847 -0.3772 -0.0628 -0.0147
  792MPD2    H511681   1.738   0.274  10.834 -0.0346 -1.1666  0.6773
  792MPD2    N111682   2.024   0.749  10.974 -0.0843  1.0358  0.7427
  792MPD2    H711683   1.990   0.842  10.998 -3.6983  0.3494 -1.7512
  793MPD2     C11684   1.657   4.709  10.000  0.3019 -0.5869 -0.3938
  793MPD2    C111685   1.785   0.037  10.027  0.1241 -0.4646 -0.4521
  793MPD2    C211686   1.818   0.060  10.162  0.2000 -0.5686 -0.1549
  793MPD2    C311687   1.736   0.026  10.270  0.0018  0.6568 -0.2719
  793MPD2    C411688   1.611   4.702  10.238  0.3160  0.4813 -0.5259
  793MPD2    C511689   1.569   4.682  10.107 -0.0827  0.3321  0.3328
  793MPD2     H11690   1.913   0.109  10.178  0.9367 -1.9640 -0.2400
  793MPD2    H111691   1.547   4.667  10.318 -1.4709  1.3046 -1.5985
  793MPD2    H211692   1.622   4.694   9.899 -0.2122 -0.5802 -0.2161
  793MPD2    H311693   1.470   4.642  10.093 -0.7386  1.5025  1.6111
  793MPD2     N11694   1.794   0.024  10.398  0.1487  0.2546 -0.0174
  793MPD2    H511695   1.893   0.045  10.403 -0.1992  1.8874  0.0230
  793MPD2    N111696   1.872   0.076   9.920  0.5416  0.0449  0.0362
  793MPD2    H711697   1.966   0.106   9.945  0.5140  1.1278 -1.1714
  794MPD2     C11698   2.445   0.338  16.919 -0.4142 -0.9179  0.3745
  794MPD2    C111699   2.337   0.252  16.925 -0.2894  0.6566 -0.1894
  794MPD2    C211700   2.283   0.215  16.805 -0.1513  0.2295  0.1675
  794MPD2    C311701   2.328   0.259  16.684 -0.2559 -0.1732  0.8578
  794MPD2    C411702   2.440   0.340  16.685 -0.1477 -0.9903  0.5352
  794MPD2    C511703   2.492   0.384  16.801 -0.1125 -0.3089 -0.2582
  794MPD2     H11704   2.196   0.151  16.807 -0.3956  0.5357 -0.8275
  794MPD2    H111705   2.472   0.372  16.586  0.9592 -0.9323  0.9227
  794MPD2    H211706   2.507   0.373  17.000 -0.3178  0.7680 -0.4279
  794MPD2    H311707   2.579   0.448  16.807  0.2884 -0.7842 -0.9619
  794MPD2     N11708   2.263   0.235  16.562  0.4374 -0.3109 -0.0141
  794MPD2    H511709   2.291   0.293  16.484  1.8281 -0.4995  0.3530
  794MPD2    N111710   2.274   0.214  17.043 -0.0495 -0.1942  0.0649
  794MPD2    H711711   2.194   0.153  17.034 -0.5301  0.4193  0.1667
  795MPD2     C11712   4.397   2.343  12.539  0.1835  0.2037  0.0543
  795MPD2    C111713   4.348   2.243  12.628 -0.2705 -0.1178 -0.5648
  795MPD2    C211714   4.426   2.185  12.729  1.2750  0.3767 -1.0192
  795MPD2    C311715   4.557   2.235  12.748 -0.4564 -0.5603  0.1097
  795MPD2    C411716   4.606   2.326  12.659 -0.4472  0.3469  0.0860
  795MPD2    C511717   4.527   2.373  12.558  0.1620 -0.5859 -0.4062
  795MPD2     H11718   4.376   2.111  12.790 -1.5614  0.6467 -2.9981
  795MPD2    H111719   4.705   2.369  12.655 -1.3797  2.6863  2.2882
  795MPD2    H211720   4.339   2.389  12.460  0.0445  2.5362  1.5108
  795MPD2    H311721   4.567   2.446  12.488  2.9360 -0.5194  1.2659
  795MPD2     N11722   4.646   2.180  12.843 -0.4490  0.5483  0.3966
  795MPD2    H511723   0.018   2.220  12.850 -0.2547  0.3441 -0.9932
  795MPD2    N111724   4.215   2.208  12.622 -0.1099  0.5891 -0.2509
  795MPD2    H711725   4.169   2.155  12.695  0.9500 -1.3082 -0.9578
  796MPD2     C11726   3.995   3.979  15.781 -0.2774  0.5333  0.6490
  796MPD2    C111727   4.035   4.054  15.892  0.2439 -0.0724  0.0651
  796MPD2    C211728   4.052   4.192  15.889 -0.4133 -0.0841  0.4485
  796MPD2    C311729   4.031   4.247  15.766  0.3677 -0.2763  0.0286
  796MPD2    C411730   3.997   4.175  15.656  0.5335 -0.0598  0.0154
  796MPD2    C511731   3.971   4.043  15.662  0.2391  0.5938 -0.2075
  796MPD2     H11732   4.081   4.253  15.974  0.2655  1.6517 -1.0395
  796MPD2    H111733   3.973   4.228  15.564 -0.2290  0.2240  0.3719
  796MPD2    H211734   3.966   3.875  15.769 -0.7562  0.4318  2.7864
  796MPD2    H311735   3.943   3.982  15.576  1.0702 -0.3200  0.1756
  796MPD2     N11736   4.051   4.389  15.748 -0.0430 -0.1479 -0.0542
  796MPD2    H511737   4.105   4.436  15.820 -0.2217 -0.5876  0.3697
  796MPD2    N111738   4.041   3.964  16.008 -0.5528 -0.0727  0.0381
  796MPD2    H711739   4.010   3.868  16.001 -2.2126  0.5568 -1.1098
  797MPD2     C11740   4.641   2.989  17.344 -0.4749  0.8298 -0.7786
  797MPD2    C111741   0.020   3.080  17.380  0.3591 -0.6583 -0.0380
  797MPD2    C211742   0.012   3.207  17.327  0.1305 -0.0031 -0.4192
  797MPD2    C311743   4.627   3.251  17.256  0.2264  0.3409  0.3630
  797MPD2    C411744   4.523   3.165  17.231 -0.0313  0.0957  0.0801
  797MPD2    C511745   4.535   3.030  17.263  0.2454  0.0527  0.7013
  797MPD2     H11746   0.093   3.266  17.367 -0.9902 -0.0250  1.8728
  797MPD2    H111747   4.442   3.190  17.164  1.0848 -0.0622 -1.3397
  797MPD2    H211748   4.644   2.885  17.376 -1.8655  1.7595  2.3014
  797MPD2    H311749   4.451   2.964  17.244  1.8305 -1.3608 -1.4450
  797MPD2     N11750   4.610   3.385  17.214  0.1923 -0.1239  0.9677
  797MPD2    H511751   4.532   3.423  17.162 -0.7805 -2.0884  0.9716
  797MPD2    N111752   0.141   3.056  17.457 -0.2315 -0.1189 -0.3707
  797MPD2    H711753   0.202   3.136  17.469 -1.5757  0.6553  1.4093
  798MPD2     C11754   0.485   3.703  17.409 -0.0029  0.6830 -0.4345
  798MPD2    C111755   0.364   3.641  17.413 -0.2739 -0.7350  0.5919
  798MPD2    C211756   0.362   3.521  17.474  0.8342 -0.9282 -0.5082
  798MPD2    C311757   0.466   3.464  17.536 -0.1388 -0.1159  0.2534
  798MPD2    C411758   0.588   3.524  17.530 -0.1479  0.4394  0.6167
  798MPD2    C511759   0.595   3.647  17.465 -0.0302  0.1103  0.0704
  798MPD2     H11760   0.268   3.467  17.474 -0.2769  1.0086 -0.0821
  798MPD2    H111761   0.681   3.484  17.569  0.1259 -2.2619 -2.7683
  798MPD2    H211762   0.502   3.804  17.372 -1.2456  0.9342 -0.3344
  798MPD2    H311763   0.691   3.694  17.447 -0.1202  0.2057 -0.1572
  798MPD2     N11764   0.434   3.336  17.589 -0.3850  0.1537  0.2213
  798MPD2    H511765   0.345   3.299  17.555 -1.5381  2.4036  0.7724
  798MPD2    N111766   0.242   3.694  17.363 -0.2343 -0.4753  0.1930
  798MPD2    H711767   0.165   3.630  17.380 -1.0725  0.0881 -1.4387
  799MPD2     C11768   3.684   0.314  14.620 -0.1387  0.7169  0.0432
  799MPD2    C111769   3.572   0.236  14.619  0.0429  0.1676  0.0182
  799MPD2    C211770   3.455   0.305  14.596 -0.1101 -0.2020  0.6399
  799MPD2    C311771   3.438   0.437  14.567 -0.4461 -0.5494  0.8229
  799MPD2    C411772   3.551   0.514  14.561  0.5305 -0.6856  0.4105
  799MPD2    C511773   3.671   0.448  14.586 -0.1380  0.5783  0.6957
  799MPD2     H11774   3.365   0.246  14.579 -1.5564  1.7647  1.5464
  799MPD2    H111775   3.556   0.620  14.543 -0.5098 -0.6043  0.5947
  799MPD2    H211776   3.778   0.267  14.643  1.4022  2.4317 -2.7268
  799MPD2    H311777   3.758   0.512  14.589  0.0219  0.2884  2.3314
  799MPD2     N11778   3.312   0.488  14.535  0.0934  0.0675 -0.2729
  799MPD2    H511779   3.310   0.579  14.491  1.2361 -0.0993 -0.6791
  799MPD2    N111780   3.574   0.092  14.628 -0.4522 -0.2334 -0.3494
  799MPD2    H711781   3.485   0.046  14.637 -1.5555  1.4287 -2.6991
  800MPD2     C11782   4.087   0.993  14.172 -0.3877  0.4949 -0.3106
  800MPD2    C111783   4.219   0.973  14.204  0.3858 -0.0016 -0.2586
  800MPD2    C211784   4.306   0.946  14.101 -0.2199  0.2109 -0.3540
  800MPD2    C311785   4.258   0.951  13.966  0.1887  0.2880  0.3888
  800MPD2    C411786   4.127   0.968  13.936  0.0836  0.2588 -0.9557
  800MPD2    C511787   4.044   0.988  14.038  0.1357 -1.2242 -0.7007
  800MPD2     H11788   4.407   0.932  14.135  0.4559  3.0197 -1.1935
  800MPD2    H111789   4.093   0.956  13.834 -0.1649  0.5880 -0.9101
  800MPD2    H211790   4.012   1.006  14.250  1.2064  0.3169  1.2652
  800MPD2    H311791   3.942   1.021  14.017  0.5650 -0.8091 -2.1649
  800MPD2     N11792   4.344   0.965  13.857  0.4059  0.0083 -0.4844
  800MPD2    H511793   4.308   0.987  13.765  0.2241 -0.2377 -0.4722
  800MPD2    N111794   4.258   0.991  14.336  0.7920  0.2656  0.1225
  800MPD2    H711795   4.184   1.028  14.395 -0.6685  2.2756 -2.9304
  801MPD2     C11796   4.480   1.352  13.960 -0.2185  0.9698  0.1447
  801MPD2    C111797   4.378   1.326  14.049 -0.8540 -0.3460 -0.0295
  801MPD2    C211798   4.255   1.309  14.001  0.1765 -0.7938 -0.2932
  801MPD2    C311799   4.218   1.339  13.869  0.1284  0.0640 -0.0993
  801MPD2    C411800   4.323   1.367  13.782 -0.0962  0.3733  0.5333
  801MPD2    C511801   4.451   1.371  13.831 -0.4707 -0.0412  0.1822
  801MPD2     H11802   4.178   1.286  14.074 -0.0257  1.1130  0.1129
  801MPD2    H111803   4.318   1.383  13.675  0.3211  1.6142  0.6895
  801MPD2    H211804   4.584   1.366  13.984 -0.4794 -0.0623  1.8928
  801MPD2    H311805   4.526   1.405  13.760  0.7259  0.2269  1.5649
  801MPD2     N11806   4.083   1.333  13.829 -0.2334 -0.2686  0.3133
  801MPD2    H511807   4.009   1.317  13.896 -0.6184  1.7394  0.3704
  801MPD2    N111808   4.396   1.298  14.184 -0.1144 -0.1163  0.6026
  801MPD2    H711809   4.307   1.277  14.227  0.3900 -0.4235  1.4957
  802MPD2     C11810   3.815   2.779  17.443 -0.1190  0.5511 -0.4095
  802MPD2    C111811   3.934   2.724  17.490  0.6528 -0.0051  0.0825
  802MPD2    C211812   3.954   2.589  17.483  0.3411 -0.0887 -0.3712
  802MPD2    C311813   3.854   2.501  17.455  0.1473 -0.2075 -0.3483
  802MPD2    C411814   3.732   2.553  17.411  0.3346 -0.4008  0.0475
  802MPD2    C511815   3.719   2.687  17.409  0.1673  0.1155  0.3619
  802MPD2     H11816   4.047   2.538  17.502  0.4000  0.5179  1.0005
  802MPD2    H111817   3.650   2.493  17.373  0.2758 -0.8238  0.8489
  802MPD2    H211818   3.780   2.881  17.448  0.9784  0.7766  2.3688
  802MPD2    H311819   3.624   2.732  17.379  0.0302  1.0418  2.1620
  802MPD2     N11820   3.868   2.363  17.469  0.4257 -0.7834 -0.0700
  802MPD2    H511821   3.962   2.327  17.477 -0.3517 -2.5226  1.3482
  802MPD2    N111822   4.029   2.805  17.563 -0.5255 -0.2533  1.0312
  802MPD2    H711823   4.100   2.758  17.619  0.6843  0.5676  0.1745
  803MPD2     C11824   0.234   0.997  11.861 -1.0217  0.1704  0.3056
  803MPD2    C111825   0.300   0.986  11.979 -0.5893  0.3376 -0.1367
  803MPD2    C211826   0.266   0.884  12.062 -0.7248  0.1675  0.7658
  803MPD2    C311827   0.167   0.794  12.035  0.6862  0.5305  0.1145
  803MPD2    C411828   0.088   0.817  11.919 -0.3461 -0.2967  0.1222
  803MPD2    C511829   0.127   0.920  11.843 -0.0951  0.5103  0.0669
  803MPD2     H11830   0.328   0.879  12.151 -0.3891 -2.3491  0.4081
  803MPD2    H111831   0.002   0.754  11.898 -2.1128  0.9212  3.6517
  803MPD2    H211832   0.253   1.078  11.791 -0.9085 -0.1051  0.0181
  803MPD2    H311833   0.061   0.943  11.760 -1.9382  0.9255  1.6339
  803MPD2     N11834   0.124   0.690  12.122  0.0861 -0.0259  0.1207
  803MPD2    H511835   0.036   0.645  12.102 -0.8892  1.3800  1.2401
  803MPD2    N111836   0.393   1.084  12.026 -0.4827  0.5626  0.4769
  803MPD2    H711837   0.424   1.071  12.122  0.9817 -1.4842 -0.2699
  804MPD2     C11838   4.403   1.868  17.023 -0.2188 -0.1568 -0.8208
  804MPD2    C111839   4.473   1.883  17.141 -0.1683  0.2524 -0.0784
  804MPD2    C211840   4.521   2.011  17.180  0.2082 -0.6083  0.9389
  804MPD2    C311841   4.490   2.121  17.102 -0.1873 -0.3275  0.0745
  804MPD2    C411842   4.409   2.108  16.989 -0.5884 -0.6444  0.0490
  804MPD2    C511843   4.376   1.982  16.949 -0.1477  0.5477 -0.0222
  804MPD2     H11844   4.578   2.024  17.271  0.7571  0.8931  0.3671
  804MPD2    H111845   4.374   2.199  16.942  0.8313 -1.0175 -1.6998
  804MPD2    H211846   4.386   1.775  16.970  3.4099 -0.7112 -1.0264
  804MPD2    H311847   4.313   1.961  16.863 -1.5558 -1.7409  1.5540
  804MPD2     N11848   4.533   2.242  17.148 -0.3580 -0.5830 -0.2400
  804MPD2    H511849   4.588   2.240  17.234 -2.1409 -1.2121  0.8814
  804MPD2    N111850   4.508   1.773  17.225 -0.2030  0.3216 -0.1613
  804MPD2    H711851   4.567   1.802  17.303 -2.2553 -0.2716  1.6209
  805MPD2     C11852   3.622   0.541  15.431  0.3715  0.2269 -0.2951
  805MPD2    C111853   3.634   0.521  15.292  0.2781 -0.6989 -0.3112
  805MPD2    C211854   3.753   0.474  15.246  0.2843 -0.3889  0.2050
  805MPD2    C311855   3.851   0.427  15.332  0.1943 -0.7995  0.3995
  805MPD2    C411856   3.831   0.440  15.469 -0.3122  0.0392 -0.1357
  805MPD2    C511857   3.720   0.500  15.516  0.2307 -0.4122  0.3490
  805MPD2     H11858   3.770   0.456  15.140  1.8212  1.2042  0.1898
  805MPD2    H111859   3.907   0.423  15.544  0.1036  2.8630  0.0897
  805MPD2    H211860   3.525   0.572  15.467  0.2906  1.0188 -1.1898
  805MPD2    H311861   3.712   0.508  15.623 -0.0395  2.4056  0.1199
  805MPD2     N11862   3.959   0.357  15.270  0.3027 -0.0442 -0.2098
  805MPD2    H511863   3.968   0.358  15.169 -0.9018  1.0536 -0.2997
  805MPD2    N111864   3.534   0.562  15.201 -0.5038 -0.2157 -0.0924
  805MPD2    H711865   3.557   0.538  15.105 -2.5736  0.2890 -0.7261
  806MPD2     C11866   4.402   4.439  17.618  0.2712  0.2191  0.1477
  806MPD2    C111867   4.427   4.520   0.045  0.6824 -0.3949  0.0842
  806MPD2    C211868   4.542   4.600   0.033 -0.2788 -0.0213 -0.5842
  806MPD2    C311869   4.627   4.594  17.609  0.2554  0.0935  0.3462
  806MPD2    C411870   4.599   4.518  17.500  0.0668 -0.7110 -1.0758
  806MPD2    C511871   4.486   4.436  17.510 -0.0728 -0.0778  0.3759
  806MPD2     H11872   4.565   4.675   0.108  0.9157  0.6857 -1.6499
  806MPD2    H111873   4.660   4.529  17.411 -1.8302  0.8035 -2.1709
  806MPD2    H211874   4.313   4.378  17.606  0.7461 -0.8717  2.0925
  806MPD2    H311875   4.460   4.368  17.429 -3.8467  0.5530  1.0794
  806MPD2     N11876   0.028   4.671  17.623 -0.1320 -0.1600 -0.2501
  806MPD2    H511877   0.037   4.720   0.026  0.2667 -0.2750 -0.2263
  806MPD2    N111878   4.347   4.507   0.162 -0.2220 -0.4433  0.4652
  806MPD2    H711879   4.263   4.451   0.151 -0.2065 -0.6552  1.4251
  807MPD2     C11880   3.951   4.085   0.707 -0.0127 -0.3553  0.7409
  807MPD2    C111881   3.905   4.218   0.702  0.5852 -0.3104  0.2464
  807MPD2    C211882   3.812   4.262   0.801 -0.3190  0.3361  0.1127
  807MPD2    C311883   3.754   4.167   0.880 -0.5636  0.2135 -0.4595
  807MPD2    C411884   3.787   4.035   0.866  0.7217 -0.1996  1.0976
  807MPD2    C511885   3.889   3.994   0.786 -0.2126  0.0406 -0.1417
  807MPD2     H11886   3.784   4.366   0.809 -1.2296 -0.0136  1.3966
  807MPD2    H111887   3.738   3.953   0.916  1.5365 -0.8413  0.8522
  807MPD2    H211888   4.033   4.060   0.642  0.1634 -0.2069  0.9065
  807MPD2    H311889   3.920   3.890   0.787  1.4039  0.5159 -0.3034
  807MPD2     N11890   3.643   4.209   0.958  0.1134 -0.7213 -0.6823
  807MPD2    H511891   3.596   4.299   0.952  0.7864 -0.3632 -0.5222
  807MPD2    N111892   3.965   4.314   0.622  0.2580  0.2577 -0.5482
  807MPD2    H711893   3.939   4.411   0.636 -0.0365  0.1169 -0.1277
  808MPD2     C11894   4.471   0.915   9.281  0.3440  0.1058 -0.3528
  808MPD2    C111895   4.477   0.886   9.414  0.3204 -0.7772  1.0338
  808MPD2    C211896   4.536   0.976   9.503  0.5433 -0.4696 -0.2317
  808MPD2    C311897   4.589   1.095   9.455 -0.4095 -0.2941 -0.0671
  808MPD2    C411898   4.594   1.107   9.322  0.1061  0.2834  0.5090
  808MPD2    C511899   4.540   1.018   9.232 -0.7866  0.7125 -0.0048
  808MPD2     H11900   4.530   0.957   9.609 -0.0553  1.5746  0.0993
  808MPD2    H111901   4.641   1.194   9.276  2.6312 -1.0941  0.4688
  808MPD2    H211902   4.431   0.842   9.213 -0.3036 -2.2796  2.5939
  808MPD2    H311903   4.546   1.030   9.124  1.0467 -0.6075 -0.0489
  808MPD2     N11904   4.660   1.196   9.535 -0.2167  0.1803  0.0159
  808MPD2    H511905   4.714   1.267   9.486  0.8996 -1.1011 -0.5836
  808MPD2    N111906   4.424   0.768   9.461 -0.0006 -0.0132 -0.5161
  808MPD2    H711907   4.450   0.748   9.557  0.0926 -0.4205 -0.6306
  809MPD2     C11908   0.463   2.058   9.504  0.6385 -0.1201  0.7132
  809MPD2    C111909   0.515   1.926   9.496  0.5152 -0.2244  0.0456
  809MPD2    C211910   0.430   1.817   9.537 -0.2502  0.3782  0.3185
  809MPD2    C311911   0.303   1.840   9.585 -0.4862 -0.0941  0.0909
  809MPD2    C411912   0.265   1.971   9.608  0.8323  0.1382  0.2960
  809MPD2    C511913   0.341   2.079   9.568  0.1591  0.3428 -0.6561
  809MPD2     H11914   0.469   1.716   9.532 -2.6556 -0.5546  0.4857
  809MPD2    H111915   0.166   1.985   9.649 -0.1135 -3.7723 -0.6083
  809MPD2    H211916   0.523   2.148   9.491  0.4366 -0.0785  0.0494
  809MPD2    H311917   0.310   2.181   9.588 -0.8015 -0.2233  0.7353
  809MPD2     N11918   0.223   1.735   9.634  0.4346  0.0862 -0.1345
  809MPD2    H511919   0.147   1.760   9.698 -1.6722 -5.1863 -0.5738
  809MPD2    N111920   0.650   1.903   9.463 -0.2510  0.4688 -0.3404
  809MPD2    H711921   0.678   1.806   9.453 -1.4688  0.0726  0.0930
  810MPD2     C11922   3.905   0.854  10.586  0.7433 -0.2527 -0.1552
  810MPD2    C111923   3.958   0.897  10.466 -0.2986  0.1139 -0.0689
  810MPD2    C211924   3.974   1.032  10.444 -0.4703  0.7259  0.3862
  810MPD2    C311925   3.916   1.121  10.526  0.0701 -0.2633  0.5342
  810MPD2    C411926   3.851   1.076  10.639 -0.2158 -0.0024  0.8347
  810MPD2    C511927   3.858   0.944  10.676  0.7509  0.1127  0.0327
  810MPD2     H11928   4.041   1.064  10.365  0.2832 -2.6657 -0.3625
  810MPD2    H111929   3.793   1.135  10.710  1.0637  2.5707 -0.2593
  810MPD2    H211930   3.903   0.749  10.612 -1.1108 -0.6181 -1.8423
  810MPD2    H311931   3.827   0.921  10.777 -0.9402 -2.8152 -1.1563
  810MPD2     N11932   3.917   1.264  10.510 -0.0455  0.0339 -0.2683
  810MPD2    H511933   3.846   1.308  10.569  0.7811  0.8611  0.0987
  810MPD2    N111934   3.983   0.796  10.371  0.5951 -0.4072  1.1700
  810MPD2    H711935   3.958   0.701  10.398 -0.2079 -0.5801 -0.1629
  811MPD2     C11936   3.721   0.591   9.554  0.1558  0.7416 -0.7354
  811MPD2    C111937   3.831   0.659   9.620 -0.2751 -0.2972  0.1501
  811MPD2    C211938   3.853   0.793   9.587  0.4133 -0.7567 -0.6629
  811MPD2    C311939   3.772   0.858   9.503  0.6652 -0.1474 -0.8895
  811MPD2    C411940   3.668   0.790   9.441  0.5626  0.9837 -0.0772
  811MPD2    C511941   3.648   0.654   9.456  0.0851  0.0132 -0.1067
  811MPD2     H11942   3.933   0.850   9.632 -1.1244  0.8509  0.0283
  811MPD2    H111943   3.603   0.838   9.369  0.2412 -0.4342 -0.7206
  811MPD2    H211944   3.694   0.488   9.574  1.1929  0.5936 -0.1169
  811MPD2    H311945   3.561   0.618   9.403  0.7572 -1.1217 -0.4368
  811MPD2     N11946   3.793   0.994   9.497  0.0129 -0.0443 -0.0719
  811MPD2    H511947   3.871   1.022   9.554  0.0803 -0.8773  0.2428
  811MPD2    N111948   3.894   0.590   9.729  0.5787  0.1563  0.3974
  811MPD2    H711949   3.829   0.525   9.773  0.1367  0.2325 -0.1332
  812MPD2     C11950   2.790   1.155  12.138 -0.4405  0.2859  0.4417
  812MPD2    C111951   2.662   1.156  12.198  0.6126  0.2184 -0.4647
  812MPD2    C211952   2.625   1.047  12.281  0.8635 -0.0282  0.9319
  812MPD2    C311953   2.702   0.931  12.293  0.3409 -0.1326  0.0256
  812MPD2    C411954   2.830   0.941  12.241 -0.1249  0.1405 -0.0843
  812MPD2    C511955   2.876   1.051  12.165  0.2426  0.3939 -0.1893
  812MPD2     H11956   2.540   1.055  12.347 -0.9139  1.9874 -1.6153
  812MPD2    H111957   2.894   0.854  12.253  0.9322  0.8487 -0.6113
  812MPD2    H211958   2.834   1.240  12.087  1.1841 -1.0854 -0.4217
  812MPD2    H311959   2.972   1.041  12.115 -0.7070  0.4491 -2.0160
  812MPD2     N11960   2.658   0.834  12.385 -0.5420  0.4517 -0.2379
  812MPD2    H511961   2.561   0.830  12.417 -0.7861 -0.1991 -1.0508
  812MPD2    N111962   2.572   1.266  12.183  0.0515  0.1859  0.4777
  812MPD2    H711963   2.598   1.343  12.121 -2.6967  0.2610 -0.5869
  813MPD2     C11964   2.342   2.869  13.154 -0.3244 -0.5155 -0.0915
  813MPD2    C111965   2.270   2.974  13.102 -0.8328  0.9805 -0.3327
  813MPD2    C211966   2.143   2.995  13.159  0.1585  0.6106  0.3722
  813MPD2    C311967   2.087   2.900  13.244  0.2721 -0.1909  0.8305
  813MPD2    C411968   2.158   2.793  13.284  0.1260 -0.5649  0.0042
  813MPD2    C511969   2.290   2.777  13.248  0.7658 -0.4190 -0.0167
  813MPD2     H11970   2.088   3.082  13.126  2.1877  1.2010 -1.4714
  813MPD2    H111971   2.114   2.712  13.342 -0.1735 -0.5295 -0.1736
  813MPD2    H211972   2.448   2.860  13.131  0.1221  0.3401  1.6558
  813MPD2    H311973   2.354   2.703  13.293 -0.6772 -1.7629 -0.1935
  813MPD2     N11974   1.952   2.922  13.276 -0.0416 -0.2269 -0.3583
  813MPD2    H511975   1.904   2.996  13.226  1.3287  1.6780  1.1478
  813MPD2    N111976   2.331   3.064  13.014 -0.1117  0.8940 -0.4011
  813MPD2    H711977   2.430   3.055  12.994  0.0749  1.7808  0.0919
  814MPD2     C11978   2.098   4.313  11.889  0.7605 -0.0223  0.4474
  814MPD2    C111979   2.215   4.296  11.814 -0.5143  0.6858 -0.1358
  814MPD2    C211980   2.300   4.401  11.793 -0.4239 -0.2752 -0.0762
  814MPD2    C311981   2.269   4.524  11.841  0.0536  0.7405 -0.5535
  814MPD2    C411982   2.149   4.534  11.910 -0.1568  0.1908 -0.2401
  814MPD2    C511983   2.062   4.437  11.925 -0.0986  0.5820  0.2466
  814MPD2     H11984   2.397   4.384  11.748 -0.0410 -0.3997  0.7917
  814MPD2    H111985   2.105   4.627  11.946 -1.6574 -0.6082 -0.0245
  814MPD2    H211986   2.022   4.237  11.900 -1.0720  1.8804  0.9224
  814MPD2    H311987   1.976   4.454  11.990  0.4741  0.8014  0.9427
  814MPD2     N11988   2.350   4.635  11.856 -0.0365  0.0541 -0.1200
  814MPD2    H511989   2.315   4.699  11.927 -1.0016 -1.6508  0.9649
  814MPD2    N111990   2.246   4.174  11.748  1.0792 -0.6746 -0.1118
  814MPD2    H711991   2.319   4.173  11.678  0.8468 -1.6836 -0.3429
  815MPD2     C11992   3.224   2.246  11.704 -0.0844  0.6277 -0.2481
  815MPD2    C111993   3.107   2.251  11.631  0.6423 -0.4096 -0.4039
  815MPD2    C211994   2.980   2.286  11.686  0.3096  0.4554  0.2937
  815MPD2    C311995   2.975   2.318  11.821 -0.1709  0.8315  0.5851
  815MPD2    C411996   3.089   2.307  11.897  0.0010  0.4615 -0.7067
  815MPD2    C511997   3.211   2.275  11.838  0.4462 -0.4227 -0.1676
  815MPD2     H11998   2.891   2.305  11.628  1.5558  0.6350 -1.5544
  815MPD2    H111999   3.097   2.330  12.002 -2.4548 -0.3018 -0.3752
  815MPD2    H212000   3.324   2.219  11.673  0.4006  0.7127  1.2322
  815MPD2    H312001   3.302   2.259  11.895 -0.2065  0.0705  1.0118
  815MPD2     N12002   2.848   2.334  11.875 -0.1115  0.0033  0.2109
  815MPD2    H512003   2.773   2.320  11.809  0.0442  0.9662 -0.1693
  815MPD2    N112004   3.127   2.202  11.501 -0.0117 -0.1050  0.0818
  815MPD2    H712005   3.221   2.165  11.487 -0.0775  0.1192 -0.9314
  816MPD2     C12006   3.738   1.657  17.675  0.2063  0.1616 -0.3947
  816MPD2    C112007   3.631   1.682  17.592  0.6997 -0.2195 -0.2180
  816MPD2    C212008   3.617   1.618  17.473 -0.5208  0.1273  0.3918
  816MPD2    C312009   3.710   1.519  17.429  0.2161 -1.1282  0.1960
  816MPD2    C412010   3.825   1.500  17.499 -0.1931  0.7228 -0.0536
  816MPD2    C512011   3.833   1.567  17.618 -0.3139  0.5789 -0.6996
  816MPD2     H12012   3.524   1.627  17.418  0.4338 -1.2987 -1.4621
  816MPD2    H112013   3.902   1.433  17.462 -0.5487  0.2799 -0.0000
  816MPD2    H212014   3.744   1.706   0.085 -1.5646  1.6787 -1.0501
  816MPD2    H312015   3.921   1.560  17.681 -0.2785 -2.9411 -1.1496
  816MPD2     N12016   3.679   1.450  17.311 -0.4275 -0.2312  0.0523
  816MPD2    H512017   3.593   1.482  17.266 -0.6104 -0.4911  0.2151
  816MPD2    N112018   3.546   1.777  17.641  0.8089  0.3121  0.1766
  816MPD2    H712019   3.569   1.832   0.038 -2.0337  1.8821 -0.0713
  817MPD2     C12020   2.302   2.573   9.656  0.1418 -0.2419 -0.1360
  817MPD2    C112021   2.412   2.623   9.581  0.3257  0.5951  0.0076
  817MPD2    C212022   2.416   2.761   9.545  0.5357  0.0714 -0.5242
  817MPD2    C312023   2.304   2.840   9.564  0.6605 -0.1793  0.1047
  817MPD2    C412024   2.197   2.783   9.627  0.1987 -0.7491  0.0765
  817MPD2    C512025   2.188   2.650   9.665  0.0056 -0.2731  0.8671
  817MPD2     H12026   2.500   2.794   9.484 -0.4969  0.6404 -1.6232
  817MPD2    H112027   2.117   2.853   9.650  1.9175  1.2448 -0.0407
  817MPD2    H212028   2.301   2.468   9.683  2.6671 -0.0156  0.8663
  817MPD2    H312029   2.097   2.617   9.713 -0.0587 -2.7445 -0.9495
  817MPD2     N12030   2.308   2.970   9.526 -0.1752 -0.6208  0.0562
  817MPD2    H512031   2.402   3.005   9.513 -0.9515  0.5787 -2.1926
  817MPD2    N112032   2.518   2.544   9.531 -0.4885 -0.0389  0.1885
  817MPD2    H712033   2.564   2.577   9.447  0.8620  0.5121  1.1508
  818MPD2     C12034   1.745   2.877   9.990 -0.1004 -0.1868 -0.2675
  818MPD2    C112035   1.651   2.820  10.076 -0.4273  0.4303 -0.5240
  818MPD2    C212036   1.636   2.684  10.088  0.3221 -0.1102 -0.2908
  818MPD2    C312037   1.711   2.602  10.011  0.1709  0.4190 -0.4874
  818MPD2    C412038   1.813   2.654   9.929  0.4339 -0.4606  0.1864
  818MPD2    C512039   1.831   2.792   9.922  0.5171  0.5641 -0.1505
  818MPD2     H12040   1.568   2.646  10.163  0.8885  0.7097  0.6407
  818MPD2    H112041   1.880   2.590   9.873  0.3217 -0.9797  0.6408
  818MPD2    H212042   1.766   2.983   9.979 -1.9898  0.4502  2.2018
  818MPD2    H312043   1.899   2.834   9.849 -0.5273  0.8055 -0.9939
  818MPD2     N12044   1.709   2.467  10.016  0.8276 -0.3615 -0.1606
  818MPD2    H512045   1.785   2.414   9.976 -0.3644 -0.5793 -2.1121
  818MPD2    N112046   1.567   2.897  10.156 -0.4128  0.3809 -0.3342
  818MPD2    H712047   1.514   2.841  10.223  0.1013 -0.8610 -0.9593
  819MPD2     C12048   4.355   4.718  14.810 -0.2471  1.2807  0.8894
  819MPD2    C112049   4.351   4.684  14.940  0.6548  0.1926  0.4458
  819MPD2    C212050   4.468   4.651  15.005 -0.2775 -0.1560 -0.3660
  819MPD2    C312051   4.588   4.689  14.947 -0.9199  0.0310  0.0993
  819MPD2    C412052   4.602   0.012  14.815  0.7173 -0.6599  0.4195
  819MPD2    C512053   4.479   0.031  14.752  0.4320 -0.7456 -0.1035
  819MPD2     H12054   4.478   4.621  15.109 -1.4237  1.1798  0.1347
  819MPD2    H112055   4.689   0.036  14.755 -0.3534 -0.4207 -1.0487
  819MPD2    H212056   4.266   0.012  14.751  0.1562 -0.3919 -0.1679
  819MPD2    H312057   4.485   0.054  14.646  0.0244 -0.1340  0.0025
  819MPD2     N12058   4.695   4.676  15.032 -0.3443  0.4324 -0.0155
  819MPD2    H512059   4.677   4.647  15.127 -1.8762  3.0651  0.5239
  819MPD2    N112060   4.222   4.666  15.000 -0.7932 -0.7543  0.6981
  819MPD2    H712061   4.141   4.676  14.940 -1.3918 -0.9300  1.4627
  820MPD2     C12062   3.267   0.040  14.839  0.3449 -0.4616 -0.1728
  820MPD2    C112063   3.360   0.134  14.886 -0.3006  0.1715  0.7177
  820MPD2    C212064   3.483   0.086  14.935  0.3285 -0.2455  0.1833
  820MPD2    C312065   3.504   4.673  14.957 -0.4384 -0.2846  0.1333
  820MPD2    C412066   3.405   4.589  14.922  0.0754  0.8512 -0.5156
  820MPD2    C512067   3.287   4.632  14.869 -0.6640  0.7221  0.0011
  820MPD2     H12068   3.568   0.151  14.953  1.4302 -0.9468 -2.4408
  820MPD2    H112069   3.409   4.481  14.930 -3.7979  0.7373  0.2037
  820MPD2    H212070   3.168   0.073  14.807 -0.0370 -1.2745  0.1778
  820MPD2    H312071   3.208   4.561  14.844  2.8366 -2.9080 -0.6885
  820MPD2     N12072   3.614   4.622  15.030 -0.1088 -0.1561  0.3233
  820MPD2    H512073   3.609   4.522  15.042 -1.8852 -0.0056  0.9560
  820MPD2    N112074   3.327   0.268  14.880  0.3461  0.0060 -0.1149
  820MPD2    H712075   3.234   0.294  14.847  0.6577  0.1994 -0.8235
  821MPD2     C12076   4.495   1.096  13.097  0.2292  0.0520  0.2434
  821MPD2    C112077   4.610   1.056  13.156 -0.2532 -0.1484  0.3786
  821MPD2    C212078   0.011   1.079  13.089  0.2353 -0.3915 -0.0215
  821MPD2    C312079   0.017   1.153  12.975  0.2386 -0.3644 -0.5977
  821MPD2    C412080   4.615   1.181  12.920 -0.2918 -0.8834 -0.2569
  821MPD2    C512081   4.494   1.158  12.978  0.6465  0.4823 -0.0438
  821MPD2     H12082   0.101   1.053  13.143  0.4655  3.6971  1.6216
  821MPD2    H112083   4.600   1.238  12.829  2.1574  1.3544  0.7286
  821MPD2    H212084   4.399   1.104  13.147 -0.1743 -0.5394 -0.4246
  821MPD2    H312085   4.402   1.201  12.941 -0.7249  0.9867  3.9298
  821MPD2     N12086   0.134   1.213  12.919 -0.2602 -0.3088  0.5477
  821MPD2    H512087   0.124   1.281  12.845  4.9723 -0.3314 -0.1443
  821MPD2    N112088   4.612   1.020  13.293 -0.2883  0.0588  0.9378
  821MPD2    H712089   4.705   1.019  13.334  0.1388 -0.0534 -0.0237
  822MPD2     C12090   0.339   1.436  15.666  0.2364  0.0945  0.0570
  822MPD2    C112091   0.387   1.419  15.798  0.2399 -0.0839 -0.4963
  822MPD2    C212092   0.314   1.491  15.886 -0.3100  0.2835  0.6014
  822MPD2    C312093   0.188   1.553  15.867 -0.2986 -0.0420 -0.5566
  822MPD2    C412094   0.135   1.546  15.743 -0.2770  0.0780  0.9161
  822MPD2    C512095   0.215   1.489  15.643 -0.3448  0.4323 -0.0203
  822MPD2     H12096   0.353   1.498  15.987  1.0240  0.7460  0.0561
  822MPD2    H112097   0.044   1.594  15.707  1.6878  2.3966 -0.9652
  822MPD2    H212098   0.396   1.402  15.581  0.2304  1.6068 -0.5463
  822MPD2    H312099   0.181   1.505  15.541  1.9080  0.4485 -0.7617
  822MPD2     N12100   0.130   1.612  15.976  0.8147  0.2166 -0.1525
  822MPD2    H512101   0.165   1.589  16.068  0.2214  1.8183  0.4694
  822MPD2    N112102   0.511   1.359  15.837  0.2935  0.0533  0.0878
  822MPD2    H712103   0.547   1.385  15.928  2.0472  0.5199 -0.7400
  823MPD2     C12104   0.037   1.761  16.820 -0.1693 -0.5305  0.0651
  823MPD2    C112105   0.087   1.695  16.710 -0.3304  0.4211 -0.4392
  823MPD2    C212106   0.166   1.582  16.727 -0.4193 -0.5233  0.3158
  823MPD2    C312107   0.197   1.537  16.858 -0.1223 -0.3252  0.1082
  823MPD2    C412108   0.140   1.598  16.964  0.3100  0.0449  0.6878
  823MPD2    C512109   0.060   1.709  16.949 -0.3900  0.1334 -0.1157
  823MPD2     H12110   0.202   1.535  16.637  1.7669  0.6093  0.5888
  823MPD2    H112111   0.162   1.573  17.068 -1.3899  2.6417  1.6639
  823MPD2    H212112   4.690   1.846  16.815 -4.3616 -4.0011 -2.0587
  823MPD2    H312113   0.011   1.756  17.033 -4.6797 -3.9884 -0.3204
  823MPD2     N12114   0.291   1.431  16.883  0.2027 -0.9283 -0.3776
  823MPD2    H512115   0.295   1.399  16.980 -2.3032  2.7617  0.9582
  823MPD2    N112116   0.049   1.746  16.581  0.8174  0.5675  0.7883
  823MPD2    H712117   0.014   1.842  16.579  2.7823  1.3013  1.2247
  824MPD2     C12118   0.624   0.642  15.603  0.0990 -0.3057  0.1147
  824MPD2    C112119   0.741   0.696  15.642 -0.3734  0.0723 -0.0305
  824MPD2    C212120   0.855   0.633  15.600 -0.4350  0.5637 -0.5526
  824MPD2    C312121   0.852   0.530  15.512 -0.1094  0.0390 -0.3796
  824MPD2    C412122   0.731   0.477  15.478  0.2474 -0.3564  0.2435
  824MPD2    C512123   0.616   0.530  15.523  0.6475  0.1970  0.0485
  824MPD2     H12124   0.951   0.663  15.640  0.5806  0.2935 -2.8190
  824MPD2    H112125   0.710   0.394  15.412 -1.1013  0.9575 -0.9792
  824MPD2    H212126   0.528   0.688  15.625  0.3252 -1.1979  2.9349
  824MPD2    H312127   0.517   0.493  15.498  0.0712  3.5811 -2.6711
  824MPD2     N12128   0.974   0.472  15.465  0.0654  0.5969  0.2166
  824MPD2    H512129   1.055   0.522  15.499 -0.9328  1.2736  1.6202
  824MPD2    N112130   0.737   0.823  15.719 -0.3796 -0.3125 -0.1647
  824MPD2    H712131   0.646   0.863  15.738  0.3597  1.8280 -1.1655
  825MPD2     C12132   1.778   0.437  15.226  0.3891  0.0046  0.2658
  825MPD2    C112133   1.663   0.506  15.207  0.8537 -0.2235  0.5224
  825MPD2    C212134   1.661   0.645  15.191  0.4527  0.1253  0.0087
  825MPD2    C312135   1.774   0.717  15.189  0.4502  0.3884  0.3263
  825MPD2    C412136   1.888   0.650  15.190  0.2855  0.2323  0.6546
  825MPD2    C512137   1.895   0.510  15.215  1.1533  0.4778  0.3207
  825MPD2     H12138   1.565   0.696  15.185  0.0350 -0.4608  2.0095
  825MPD2    H112139   1.980   0.703  15.170  0.5199  0.4653  2.3930
  825MPD2    H212140   1.787   0.330  15.238  0.3586  0.1663  1.6772
  825MPD2    H312141   1.993   0.465  15.214  0.2525 -1.5582  1.7695
  825MPD2     N12142   1.776   0.856  15.177  0.1728 -0.1281  0.5714
  825MPD2    H512143   1.858   0.910  15.200  0.6816 -0.4449 -0.4964
  825MPD2    N112144   1.548   0.422  15.223  0.6962 -0.1692  0.1820
  825MPD2    H712145   1.571   0.323  15.230  0.3715 -0.2939 -0.6235
  826MPD2     C12146   0.496   0.180  13.356  0.3975 -0.1078 -0.5604
  826MPD2    C112147   0.560   0.296  13.340  1.0754 -0.1167 -0.6304
  826MPD2    C212148   0.493   0.416  13.385 -0.6474  0.8590 -0.2859
  826MPD2    C312149   0.370   0.424  13.441 -1.0823  0.3507 -0.4128
  826MPD2    C412150   0.298   0.302  13.443 -0.4165  0.0216  0.1880
  826MPD2    C512151   0.364   0.182  13.410  0.3058 -0.3887 -0.7552
  826MPD2     H12152   0.552   0.507  13.383 -0.6627  0.8812  0.6440
  826MPD2    H112153   0.199   0.296  13.484 -0.5901 -0.0434 -0.2391
  826MPD2    H212154   0.532   0.080  13.336 -2.7029 -1.4994  0.9158
  826MPD2    H312155   0.319   0.086  13.431 -0.0774  0.3411  1.7904
  826MPD2     N12156   0.331   0.541  13.506 -0.2437  0.5974  0.2454
  826MPD2    H512157   0.385   0.624  13.482 -2.2338  1.5352 -0.9263
  826MPD2    N112158   0.690   0.288  13.290  0.4252  0.5129 -0.7092
  826MPD2    H712159   0.726   0.197  13.263 -0.9908 -0.6495  1.2992
  827MPD2     C12160   2.489   1.183   9.587  0.0137 -0.0145 -0.1671
  827MPD2    C112161   2.362   1.193   9.633  0.1019  0.6449 -0.3909
  827MPD2    C212162   2.275   1.099   9.581  0.1380  0.3168 -0.4915
  827MPD2    C312163   2.305   1.004   9.483  0.3457  0.3137  0.0032
  827MPD2    C412164   2.439   0.999   9.440 -0.1472 -0.2624  0.1569
  827MPD2    C512165   2.525   1.094   9.494  0.3367 -0.2708 -0.1490
  827MPD2     H12166   2.172   1.101   9.615  1.0775 -0.4217  2.3146
  827MPD2    H112167   2.476   0.917   9.380  2.1274  1.8228 -1.2786
  827MPD2    H212168   2.563   1.250   9.628 -1.7567  0.8757  1.5511
  827MPD2    H312169   2.631   1.087   9.470  0.2815 -2.9660  0.3326
  827MPD2     N12170   2.206   0.908   9.454 -0.0342  0.0363  0.0099
  827MPD2    H512171   2.119   0.921   9.505 -0.3338  0.1927 -0.5362
  827MPD2    N112172   2.324   1.264   9.748  0.0382 -0.7492 -0.2056
  827MPD2    H712173   2.394   1.304   9.809 -0.2306  1.7733 -1.5706
  828MPD2     C12174   4.533   1.659  12.330 -0.2439 -0.5029 -0.3007
  828MPD2    C112175   4.527   1.748  12.222 -0.1530 -0.7983 -0.1056
  828MPD2    C212176   4.641   1.820  12.196  0.4751 -0.1123 -0.4777
  828MPD2    C312177   0.032   1.813  12.277 -0.0290 -0.3836  0.0282
  828MPD2    C412178   0.032   1.735  12.390  0.1791 -0.3795  0.6276
  828MPD2    C512179   4.646   1.660  12.409  0.4211 -0.3732  0.6043
  828MPD2     H12180   4.637   1.885  12.109  0.6182  1.1377  0.4432
  828MPD2    H112181   0.120   1.716  12.449  0.8051  0.1042 -0.1579
  828MPD2    H212182   4.448   1.604  12.367  1.6417 -1.9598  1.8792
  828MPD2    H312183   4.655   1.585  12.487 -1.8376  1.3639  2.5543
  828MPD2     N12184   0.156   1.868  12.246 -0.2213 -0.5148 -0.0776
  828MPD2    H512185   0.233   1.851  12.311 -0.4551  2.2170  0.9122
  828MPD2    N112186   4.424   1.751  12.126 -0.2522  0.6528  0.2755
  828MPD2    H712187   4.420   1.834  12.066 -3.2232 -1.6513 -2.7146
  829MPD2     C12188   4.512   2.251  11.523 -0.1421  0.6448 -0.3006
  829MPD2    C112189   4.377   2.249  11.495  0.1016 -0.3030  0.0948
  829MPD2    C212190   4.307   2.142  11.552  0.0627  0.5759  0.2120
  829MPD2    C312191   4.373   2.052  11.630 -0.0851  0.3150 -0.2758
  829MPD2    C412192   4.508   2.045  11.628 -0.5817  0.1500  0.2513
  829MPD2    C512193   4.579   2.157  11.596  0.7282  0.3703  0.0026
  829MPD2     H12194   4.199   2.136  11.549 -0.0099  2.6975 -1.4921
  829MPD2    H112195   4.562   1.968  11.682 -0.8130  0.1907  0.5418
  829MPD2    H212196   4.580   2.326  11.484 -0.1095  0.1855 -1.1224
  829MPD2    H312197   4.686   2.159  11.610  0.7185 -0.2878  0.1344
  829MPD2     N12198   4.310   1.955  11.706  0.2602  0.1822  0.2911
  829MPD2    H512199   4.375   1.901  11.763 -0.1761 -0.0160  0.5939
  829MPD2    N112200   4.317   2.358  11.433 -0.5650  0.3367  0.1414
  829MPD2    H712201   4.387   2.414  11.385 -1.3650  0.1016 -1.3041
  830MPD2     C12202   0.853   4.565  15.290 -0.0331 -0.4905 -0.1967
  830MPD2    C112203   0.763   4.664  15.256 -0.2836  0.2747 -0.3071
  830MPD2    C212204   0.809   0.056  15.190 -0.1423 -0.4053 -0.4211
  830MPD2    C312205   0.937   0.072  15.150  0.9509  0.7825 -0.0935
  830MPD2    C412206   1.026   4.691  15.185  0.1661  0.1711 -0.6253
  830MPD2    C512207   0.981   4.580  15.253  0.7038 -0.2623 -0.1110
  830MPD2     H12208   0.745   0.138  15.160  1.8297  0.8607 -1.1686
  830MPD2    H112209   1.133   4.696  15.169  0.1415 -2.2491 -1.4246
  830MPD2    H212210   0.824   4.483  15.355  1.0066 -1.8015 -1.3675
  830MPD2    H312211   1.062   4.510  15.272  2.2993  0.9320 -2.6585
  830MPD2     N12212   0.963   0.185  15.066 -0.5863 -0.3407  0.2376
  830MPD2    H512213   0.882   0.243  15.048  0.0613  0.4542 -0.0910
  830MPD2    N112214   0.631   4.628  15.268  0.0733  0.1395  0.2790
  830MPD2    H712215   0.619   4.533  15.304  0.9194 -0.7877 -1.9083
  831MPD2     C12216   0.608   1.789  16.368  0.4004  0.1603  0.1833
  831MPD2    C112217   0.519   1.769  16.267  0.2988  0.2848  0.4931
  831MPD2    C212218   0.408   1.684  16.285  0.3185 -0.1258 -0.0842
  831MPD2    C312219   0.411   1.603  16.397  0.6848 -0.0256 -0.5620
  831MPD2    C412220   0.494   1.627  16.496  0.1729 -0.0433 -0.1193
  831MPD2    C512221   0.586   1.725  16.486  0.3495  0.4579 -0.4357
  831MPD2     H12222   0.339   1.671  16.203 -0.8749  1.8825  0.6131
  831MPD2    H112223   0.505   1.574  16.590 -4.2245 -0.9631 -0.1103
  831MPD2    H212224   0.684   1.866  16.365  1.1114 -0.5315  0.4539
  831MPD2    H312225   0.646   1.747  16.574  1.7134  1.8482 -1.7133
  831MPD2     N12226   0.333   1.484  16.403  0.5896 -0.3570  0.1934
  831MPD2    H512227   0.329   1.427  16.487  1.4514  0.4418  0.7836
  831MPD2    N112228   0.541   1.834  16.147 -0.6726  0.4658 -0.2650
  831MPD2    H712229   0.637   1.858  16.124 -0.7863  2.4366  1.2940
  832MPD2     C12230   3.585   2.380  16.949 -0.6318 -0.1063 -0.0276
  832MPD2    C112231   3.601   2.512  16.990 -0.1196  0.5802 -0.1479
  832MPD2    C212232   3.494   2.595  17.021  0.0767 -0.1167 -0.2254
  832MPD2    C312233   3.365   2.554  16.992 -0.0388  0.7392 -0.9450
  832MPD2    C412234   3.348   2.423  16.945 -0.0408  0.5819 -0.1331
  832MPD2    C512235   3.456   2.338  16.936 -0.5647 -0.7250  0.4726
  832MPD2     H12236   3.509   2.699  17.048 -0.7749  0.2266 -1.0634
  832MPD2    H112237   3.252   2.378  16.922 -0.7927  1.6225  0.9638
  832MPD2    H212238   3.665   2.310  16.929 -1.1906 -1.0751  1.1332
  832MPD2    H312239   3.450   2.234  16.907 -0.1497 -0.4391 -0.6318
  832MPD2     N12240   3.257   2.640  17.008 -0.4104  0.0214 -0.3643
  832MPD2    H512241   3.162   2.607  16.993  0.1595 -2.4812  1.5811
  832MPD2    N112242   3.732   2.561  17.017  0.1592 -0.5076  0.6475
  832MPD2    H712243   3.807   2.494  17.007  1.1043  0.4758  1.1657
  833MPD2     C12244   0.689   4.261  12.133 -0.2167  0.1603  0.5203
  833MPD2    C112245   0.675   4.385  12.085  0.2838 -0.9290 -0.2749
  833MPD2    C212246   0.726   4.412  11.959  0.4862 -0.1456  0.1103
  833MPD2    C312247   0.793   4.309  11.884  0.1544  0.9463 -0.2070
  833MPD2    C412248   0.807   4.181  11.943  1.0231 -0.5882 -0.3982
  833MPD2    C512249   0.754   4.159  12.067  0.5606  0.8988  1.0943
  833MPD2     H12250   0.700   4.507  11.913  0.3346 -0.4652 -0.4629
  833MPD2    H112251   0.869   4.101  11.905 -0.0069 -0.8362 -1.5339
  833MPD2    H212252   0.647   4.243  12.231 -0.5846 -0.6427  0.2210
  833MPD2    H312253   0.752   4.059  12.110 -1.7691  1.6753  2.7774
  833MPD2     N12254   0.856   4.333  11.753  0.0017  0.4072 -0.1851
  833MPD2    H512255   0.912   4.260  11.711  0.8622  1.6258 -1.1858
  833MPD2    N112256   0.624   4.485  12.176  0.0077 -0.8913 -0.1841
  833MPD2    H712257   0.583   4.451  12.263 -0.3406  1.0289  0.4021
  834MPD2     C12258   1.484   4.017  11.362  0.8467  1.4138 -0.3773
  834MPD2    C112259   1.348   4.010  11.383  0.2267 -0.2610 -0.3179
  834MPD2    C212260   1.283   4.114  11.443 -0.0410  0.9704 -0.0082
  834MPD2    C312261   1.346   4.225  11.491 -0.4609 -0.4395 -0.2059
  834MPD2    C412262   1.483   4.233  11.476  0.0823 -0.0240 -0.1443
  834MPD2    C512263   1.550   4.130  11.412  0.0500  0.3663 -0.8086
  834MPD2     H12264   1.175   4.119  11.452  0.2642  2.9272  2.7424
  834MPD2    H112265   1.543   4.318  11.507 -1.0536  0.9359 -0.5862
  834MPD2    H212266   1.534   3.931  11.319  0.6389  1.0030  0.1885
  834MPD2    H312267   1.658   4.139  11.412 -0.0363  1.2548  0.8885
  834MPD2     N12268   1.263   4.327  11.538  0.3715 -0.1845  0.1783
  834MPD2    H512269   1.164   4.305  11.538  0.1199  0.9357 -2.6916
  834MPD2    N112270   1.278   3.899  11.341 -0.2266 -0.4933 -0.0148
  834MPD2    H712271   1.318   3.824  11.285 -0.3365 -0.3269 -0.3178
  835MPD2     C12272   1.210   1.534  11.160 -0.7917  0.1387  0.2233
  835MPD2    C112273   1.178   1.663  11.141 -0.1172  0.0318 -0.5053
  835MPD2    C212274   1.193   1.748  11.246 -0.1864 -0.0511 -0.0033
  835MPD2    C312275   1.243   1.704  11.366 -0.2527 -0.7160  1.2890
  835MPD2    C412276   1.273   1.573  11.386 -0.2192 -0.0434 -0.0381
  835MPD2    C512277   1.262   1.486  11.280 -0.9388  0.1685  0.3003
  835MPD2     H12278   1.162   1.851  11.230 -2.3245 -0.4658  1.4741
  835MPD2    H112279   1.305   1.545  11.485  1.6336 -2.9689 -1.4635
  835MPD2    H212280   1.198   1.470  11.073 -0.0191  0.1613  0.1032
  835MPD2    H312281   1.273   1.381  11.305  0.0070  0.0110 -0.7990
  835MPD2     N12282   1.264   1.788  11.479 -0.2599  0.4157  0.1953
  835MPD2    H512283   1.288   1.754  11.572  2.4867  0.2690 -0.5791
  835MPD2    N112284   1.119   1.715  11.021 -0.1440 -0.0347  0.1449
  835MPD2    H712285   1.083   1.808  11.040  0.2498  0.2042 -0.2929
  836MPD2     C12286   0.711   2.272  11.704  0.6392 -0.1585  0.5380
  836MPD2    C112287   0.799   2.252  11.807 -0.6541  0.3595  0.0423
  836MPD2    C212288   0.754   2.294  11.932 -0.3853  0.1512  0.4740
  836MPD2    C312289   0.636   2.359  11.957 -0.3311 -0.0454 -0.3393
  836MPD2    C412290   0.551   2.384  11.855 -0.1626  0.0705  0.7899
  836MPD2    C512291   0.592   2.340  11.731 -0.0195  0.0979 -0.4082
  836MPD2     H12292   0.826   2.286  12.013 -1.6357  1.3820  1.7005
  836MPD2    H112293   0.456   2.432  11.870 -1.1492 -1.7039  0.2929
  836MPD2    H212294   0.738   2.249  11.601  0.7937 -0.5525  0.6659
  836MPD2    H312295   0.523   2.351  11.648  0.1157  0.4085 -0.4809
  836MPD2     N12296   0.590   2.392  12.085 -0.0260  0.3182  0.1050
  836MPD2    H512297   0.496   2.427  12.095  0.1806  0.9605 -0.2619
  836MPD2    N112298   0.926   2.184  11.777  0.2313 -0.2579  0.1378
  836MPD2    H712299   0.932   2.164  11.678  0.2995 -0.5654  0.2040
  837MPD2     C12300   4.034   1.572   9.903 -0.0097 -0.2083 -0.2778
  837MPD2    C112301   3.971   1.626   9.796 -0.1010 -0.4649  0.0232
  837MPD2    C212302   3.936   1.757   9.800 -0.4895 -0.0327  0.3430
  837MPD2    C312303   3.938   1.830   9.921 -0.8874 -0.2307 -0.0083
  837MPD2    C412304   3.993   1.773  10.030  1.1894  0.0514  0.0581
  837MPD2    C512305   4.047   1.648  10.020 -0.0427 -1.0397  0.0580
  837MPD2     H12306   3.886   1.805   9.716  0.5556  0.2705 -0.1118
  837MPD2    H112307   4.011   1.821  10.126  0.6905  2.7141 -1.1829
  837MPD2    H212308   4.083   1.475   9.903 -1.3999 -0.9039 -1.6554
  837MPD2    H312309   4.102   1.603  10.101 -2.7010 -0.0692  2.3964
  837MPD2     N12310   3.889   1.959   9.910  0.1821 -0.1419  0.3613
  837MPD2    H512311   3.870   1.988   9.815  1.7000 -5.1243 -1.4798
  837MPD2    N112312   3.949   1.548   9.681 -0.4999  0.1156  0.4944
  837MPD2    H712313   3.925   1.603   9.600  3.6279  0.2728 -0.5851
  838MPD2     C12314   2.440   0.299  11.582  0.6368  0.6089  0.4484
  838MPD2    C112315   2.360   0.188  11.564  0.1354 -0.2959  0.6519
  838MPD2    C212316   2.252   0.182  11.650 -0.2831  0.1317  0.2351
  838MPD2    C312317   2.210   0.287  11.734  0.2948  1.0238  0.0503
  838MPD2    C412318   2.290   0.403  11.738  0.9416 -0.4640  1.1370
  838MPD2    C512319   2.408   0.404  11.661  0.8194  0.7288 -0.4757
  838MPD2     H12320   2.190   0.094  11.646 -0.4696  0.3068 -0.6706
  838MPD2    H112321   2.265   0.484  11.806 -0.6294  1.7734 -2.1112
  838MPD2    H212322   2.530   0.300  11.522  1.2256  0.2121  1.3263
  838MPD2    H312323   2.469   0.493  11.669  1.5655  0.3463 -1.8607
  838MPD2     N12324   2.084   0.275  11.796  0.0003 -0.3283  0.1611
  838MPD2    H512325   2.026   0.194  11.775  2.6843 -2.1376 -0.2983
  838MPD2    N112326   2.393   0.081  11.473 -0.2099 -0.2046 -0.1767
  838MPD2    H712327   2.326   0.008  11.455  1.2226 -1.4835 -0.2930
  839MPD2     C12328   1.973   4.067  11.499 -0.0350 -0.2520  0.2382
  839MPD2    C112329   2.056   4.033  11.393 -0.3619 -0.3188 -1.7017
  839MPD2    C212330   2.152   4.126  11.352 -0.2902  0.0550  0.0319
  839MPD2    C312331   2.154   4.262  11.400 -0.0078  0.5150 -0.3756
  839MPD2    C412332   2.052   4.299  11.489  0.2228  0.4216  0.2278
  839MPD2    C512333   1.966   4.201  11.534 -0.3807 -0.7752 -0.1979
  839MPD2     H12334   2.219   4.100  11.270 -1.0902  0.7461 -0.8323
  839MPD2    H112335   2.047   4.400  11.528 -1.2419  0.2505  0.5070
  839MPD2    H212336   1.913   3.995  11.553  0.3958 -0.3064  0.6406
  839MPD2    H312337   1.893   4.223  11.611  0.1694  0.1282  0.0663
  839MPD2     N12338   2.261   4.357  11.379  0.3561 -0.2214 -0.0286
  839MPD2    H512339   2.254   4.452  11.414  1.7637 -0.4358  0.8325
  839MPD2    N112340   2.062   3.898  11.341 -0.1778  0.2049  0.2337
  839MPD2    H712341   2.141   3.868  11.284 -1.3881 -1.8936 -0.3285
  840MPD2     C12342   2.724   1.672  10.051  0.6081  0.1050  0.2687
  840MPD2    C112343   2.612   1.671  10.127  0.0931 -0.6975 -0.1750
  840MPD2    C212344   2.594   1.780  10.218  0.0310 -0.6714 -0.2125
  840MPD2    C312345   2.683   1.876  10.241  0.5689  0.1074 -0.2472
  840MPD2    C412346   2.801   1.866  10.177 -0.2402  0.9078  0.4684
  840MPD2    C512347   2.820   1.770  10.082  0.4162 -0.3622  0.1145
  840MPD2     H12348   2.498   1.796  10.265 -0.7577 -2.0890 -1.3490
  840MPD2    H112349   2.879   1.940  10.189  2.4380 -1.4777 -2.2484
  840MPD2    H212350   2.743   1.599   9.974 -0.4029  0.1680 -0.0371
  840MPD2    H312351   2.910   1.773  10.021  1.4342  0.1227  1.6395
  840MPD2     N12352   2.652   1.987  10.331  0.3426  0.9142 -0.5244
  840MPD2    H512353   2.729   2.053  10.342 -1.3225  2.1376  3.5507
  840MPD2    N112354   2.515   1.576  10.105  0.2288 -0.8625  0.1259
  840MPD2    H712355   2.536   1.505  10.035 -0.0465  0.3640 -1.1850
  841MPD2     C12356   1.689   2.780  14.284 -0.1596 -0.2365  0.6658
  841MPD2    C112357   1.735   2.652  14.301  0.5776  0.0357 -0.5237
  841MPD2    C212358   1.868   2.630  14.278  0.7038  0.0926 -0.4269
  841MPD2    C312359   1.963   2.727  14.256  0.0688  0.0592 -0.1979
  841MPD2    C412360   1.917   2.847  14.230 -0.4828 -0.2361 -0.7042
  841MPD2    C512361   1.783   2.875  14.247 -0.1452  1.1548  0.6490
  841MPD2     H12362   1.910   2.530  14.281 -0.6375 -0.4465  0.0936
  841MPD2    H112363   1.973   2.930  14.187  0.0990 -0.3766 -0.2118
  841MPD2    H212364   1.585   2.804  14.303 -0.0682 -0.2031  1.1409
  841MPD2    H312365   1.748   2.976  14.231 -0.1307  1.2883  1.4477
  841MPD2     N12366   2.098   2.682  14.254 -0.0873 -0.0347  0.0419
  841MPD2    H512367   2.110   2.582  14.240 -0.4348 -0.2077  0.9939
  841MPD2    N112368   1.663   2.536  14.341  0.7008 -0.2934 -0.1392
  841MPD2    H712369   1.710   2.448  14.321  0.3813 -0.3216 -0.7661
  842MPD2     C12370   2.477   2.255  16.522 -0.0961  0.2582 -0.2801
  842MPD2    C112371   2.345   2.273  16.558  0.2129 -1.1095 -0.0247
  842MPD2    C212372   2.312   2.302  16.688  0.1417  0.7556  0.1958
  842MPD2    C312373   2.413   2.315  16.785 -0.4679  1.0687 -0.0471
  842MPD2    C412374   2.545   2.299  16.752 -0.6268 -0.3430  0.6576
  842MPD2    C512375   2.574   2.266  16.625 -0.2345 -0.1764  0.0186
  842MPD2     H12376   2.212   2.333  16.712  0.4652  0.7511  1.5689
  842MPD2    H112377   2.633   2.308  16.816  0.7687 -1.2065 -1.1406
  842MPD2    H212378   2.522   2.228  16.427  2.0053  1.7165  0.2845
  842MPD2    H312379   2.677   2.246  16.598  0.1263  0.0378  1.2399
  842MPD2     N12380   2.378   2.354  16.915 -0.3251  0.4783 -0.5834
  842MPD2    H512381   2.460   2.377  16.969 -0.5690  1.4538 -0.6296
  842MPD2    N112382   2.250   2.274  16.451 -0.5371 -0.2435  0.5346
  842MPD2    H712383   2.290   2.255  16.360  1.9509 -1.6986  1.9211
  843MPD2     C12384   4.585   3.237  17.628 -0.3812 -0.0467  0.2168
  843MPD2    C112385   4.662   3.180   0.039  0.0590 -0.5983  0.1710
  843MPD2    C212386   0.054   3.249   0.091 -0.0947  0.3305  0.2455
  843MPD2    C312387   0.078   3.380   0.052  0.0496 -0.0167 -0.2767
  843MPD2    C412388   4.709   3.439  17.651 -0.2273 -0.0534 -0.4430
  843MPD2    C512389   4.608   3.368  17.589  0.0766 -0.3136  0.4527
  843MPD2     H12390   0.118   3.206   0.167 -0.1731 -2.2266 -1.1303
  843MPD2    H112391   0.008   3.539  17.615 -2.0620  1.0091  1.5326
  843MPD2    H212392   4.515   3.174  17.575 -1.6342  0.0139  1.8334
  843MPD2    H312393   4.542   3.406  17.512 -0.1328  0.1915  0.8871
  843MPD2     N12394   0.185   3.457   0.092  0.4129 -0.0462  0.1881
  843MPD2    H512395   0.175   3.556   0.073  0.0179 -0.4233 -1.5174
  843MPD2    N112396   4.629   3.048   0.077  0.0922 -0.0383  0.1198
  843MPD2    H712397   4.548   3.008   0.031  0.4125 -2.5453  1.7851
  844MPD2     C12398   2.877   2.047  16.622  0.5071 -0.0090  0.0303
  844MPD2    C112399   2.948   1.930  16.644 -0.3315 -0.2457 -0.1834
  844MPD2    C212400   3.086   1.937  16.641 -0.8460  0.2602  0.6467
  844MPD2    C312401   3.154   2.054  16.634 -0.0647 -0.1310  0.2341
  844MPD2    C412402   3.079   2.176  16.624 -0.0033 -0.1882 -0.1014
  844MPD2    C512403   2.940   2.171  16.623 -0.1294 -0.7082 -0.1680
  844MPD2     H12404   3.148   1.850  16.654 -0.4964  0.3782 -0.1990
  844MPD2    H112405   3.126   2.273  16.609 -1.1059  0.1324 -1.4793
  844MPD2    H212406   2.769   2.045  16.632  0.6216 -1.3492  1.0143
  844MPD2    H312407   2.885   2.263  16.609 -1.5743 -1.2994  1.5826
  844MPD2     N12408   3.299   2.049  16.628 -0.5508  0.0824 -0.3097
  844MPD2    H512409   3.338   1.960  16.600  0.5270 -0.1277  1.8957
  844MPD2    N112410   2.895   1.799  16.660 -0.4240 -0.2380 -0.4205
  844MPD2    H712411   2.960   1.722  16.674  0.1006 -0.0051 -1.5424
  845MPD2     C12412   4.034   2.769  16.752  0.3063 -0.4570 -0.3729
  845MPD2    C112413   3.904   2.767  16.717 -0.6376  0.1396  0.2156
  845MPD2    C212414   3.835   2.646  16.709  0.5273  0.3813  1.5266
  845MPD2    C312415   3.898   2.524  16.726 -0.5988  0.1080 -0.4934
  845MPD2    C412416   4.035   2.531  16.755 -0.5960  0.2105  0.1110
  845MPD2    C512417   4.100   2.649  16.762  0.2348 -0.5539 -0.2860
  845MPD2     H12418   3.730   2.652  16.684  0.4638 -1.0423  1.5003
  845MPD2    H112419   4.098   2.442  16.753 -0.0285  0.6496 -1.5156
  845MPD2    H212420   4.094   2.860  16.758  0.0987 -0.2624 -1.3704
  845MPD2    H312421   4.208   2.651  16.774  0.2212  0.6061 -0.3395
  845MPD2     N12422   3.820   2.408  16.698 -0.0379 -0.0297  0.0782
  845MPD2    H512423   3.726   2.434  16.670 -0.1234 -1.8943 -1.4319
  845MPD2    N112424   3.841   2.888  16.708  0.6865 -0.5936 -0.3516
  845MPD2    H712425   3.888   2.976  16.729  0.5572 -0.8573  0.9761
  846MPD2     C12426   4.653   3.726  13.295  0.1011  0.3371  0.3076
  846MPD2    C112427   4.628   3.849  13.356 -0.0197 -0.3862 -0.0764
  846MPD2    C212428   4.603   3.860  13.491 -0.3886 -0.2781  0.6296
  846MPD2    C312429   4.599   3.743  13.568 -0.0075  0.0665  0.5473
  846MPD2    C412430   4.647   3.625  13.509 -0.6259 -0.1053  0.2370
  846MPD2    C512431   4.669   3.620  13.372 -0.6561  0.0938  0.5986
  846MPD2     H12432   4.577   3.953  13.541 -1.3190 -0.3863  0.3345
  846MPD2    H112433   4.648   3.535  13.569 -0.1262 -1.2270 -1.4672
  846MPD2    H212434   4.667   3.718  13.188  1.4990  2.7132  0.2938
  846MPD2    H312435   4.692   3.528  13.320 -0.5716  0.9124 -0.8100
  846MPD2     N12436   4.567   3.762  13.709 -0.2041  0.1290 -0.3149
  846MPD2    H512437   4.531   3.852  13.739 -1.9176 -0.8445  0.5147
  846MPD2    N112438   4.616   3.964  13.278  0.3257  0.4047 -0.1604
  846MPD2    H712439   4.612   4.054  13.325 -0.0993  0.4829 -0.3504
  847MPD2     C12440   0.227   4.507  14.088 -0.1380  0.2969 -0.1658
  847MPD2    C112441   0.329   4.519  14.187 -0.6125  0.1648 -0.2347
  847MPD2    C212442   0.309   4.439  14.300 -0.7951  0.2489  0.5120
  847MPD2    C312443   0.202   4.355  14.320 -0.5544 -0.5616  0.6345
  847MPD2    C412444   0.105   4.341  14.220  0.7707  0.5682  0.9646
  847MPD2    C512445   0.125   4.410  14.102  0.5020 -0.4880  0.3062
  847MPD2     H12446   0.379   4.453  14.382 -1.1079 -1.0215  1.0040
  847MPD2    H112447   0.020   4.275  14.224  1.4397 -0.2343  1.8407
  847MPD2    H212448   0.230   4.561  13.994  0.4259  3.2238  1.5328
  847MPD2    H312449   0.058   4.398  14.018 -2.4288 -1.5576  2.8107
  847MPD2     N12450   0.176   4.285  14.445  0.0883 -0.1127 -0.9249
  847MPD2    H512451   0.081   4.257  14.468  0.7624 -0.0272  1.9077
  847MPD2    N112452   0.443   4.607  14.179 -0.5316  0.4924  0.1745
  847MPD2    H712453   0.514   4.587  14.250 -2.0294 -2.3831  0.8688
  848MPD2     C12454   2.654   2.657  16.720  0.0971  0.1609  0.4064
  848MPD2    C112455   2.737   2.764  16.735  0.3713 -0.1300 -0.6054
  848MPD2    C212456   2.738   2.853  16.630  0.0110 -0.1266  0.2320
  848MPD2    C312457   2.665   2.830  16.520  0.4566 -0.4524  0.2411
  848MPD2    C412458   2.586   2.721  16.507 -0.4744 -0.7859  0.1399
  848MPD2    C512459   2.575   2.638  16.607 -0.7939 -0.7377  0.2762
  848MPD2     H12460   2.797   2.944  16.639  3.1952 -2.0571 -1.5253
  848MPD2    H112461   2.531   2.707  16.415  0.6071 -0.5214 -0.5468
  848MPD2    H212462   2.636   2.577  16.791 -1.4831 -0.6379 -0.8767
  848MPD2    H312463   2.514   2.551  16.587  1.6305 -2.5129  0.7791
  848MPD2     N12464   2.668   2.909  16.404  0.4732 -0.3128 -0.2335
  848MPD2    H512465   2.610   2.883  16.325 -1.4933  0.8423  0.8423
  848MPD2    N112466   2.814   2.797  16.846  0.2826 -0.8446 -0.5341
  848MPD2    H712467   2.864   2.885  16.835 -2.4693  0.9538  1.2880
  849MPD2     C12468   1.884   2.625  13.911  0.3439 -0.5405 -0.7059
  849MPD2    C112469   2.006   2.683  13.902  0.0729  0.2455 -0.0887
  849MPD2    C212470   2.121   2.615  13.941  0.5499  0.3242  0.0311
  849MPD2    C312471   2.117   2.482  13.974 -0.9876 -0.5251 -0.8719
  849MPD2    C412472   1.997   2.413  13.979  0.2963 -1.0173  0.1971
  849MPD2    C512473   1.884   2.489  13.941  0.4096 -0.2342 -0.0119
  849MPD2     H12474   2.212   2.674  13.936 -1.4525  3.3763 -1.0724
  849MPD2    H112475   1.995   2.309  14.011 -1.5339 -1.9937 -3.1550
  849MPD2    H212476   1.796   2.686  13.892  2.3784  1.8962 -2.3131
  849MPD2    H312477   1.787   2.440  13.943 -0.5222  1.6254  0.2889
  849MPD2     N12478   2.238   2.417  13.990  0.3244  0.3036  0.7672
  849MPD2    H512479   2.233   2.317  14.007 -0.8058  0.5062  1.6650
  849MPD2    N112480   2.018   2.800  13.839 -0.1882  0.4631  0.1003
  849MPD2    H712481   2.113   2.825  13.816  0.3844 -1.2723  0.6156
  850MPD2     C12482   0.195   0.583  14.802  0.0902 -0.0004  0.4600
  850MPD2    C112483   0.174   0.666  14.905  0.0820 -0.2431 -0.1379
  850MPD2    C212484   0.268   0.769  14.922  0.8171  0.2549 -0.5079
  850MPD2    C312485   0.377   0.771  14.844 -0.3787  0.4835 -0.2893
  850MPD2    C412486   0.387   0.685  14.735 -0.1328 -0.1072  0.4927
  850MPD2    C512487   0.297   0.590  14.715  0.4132  0.8897 -0.1322
  850MPD2     H12488   0.263   0.831  15.010  0.8771 -1.5153  0.7517
  850MPD2    H112489   0.480   0.692  14.679  0.0923 -1.1262  0.7426
  850MPD2    H212490   0.127   0.499  14.790  1.0109 -0.8742  1.3402
  850MPD2    H312491   0.307   0.512  14.640 -3.1444  1.0072 -0.7241
  850MPD2     N12492   0.487   0.855  14.875  0.0254  0.1251 -0.4209
  850MPD2    H512493   0.562   0.849  14.808 -0.0606  1.1644 -0.6146
  850MPD2    N112494   0.050   0.644  14.977  0.0745 -0.0407  0.0407
  850MPD2    H712495   0.003   0.560  14.945 -1.4955  0.6604  0.5180
  851MPD2     C12496   0.752   0.899  15.393 -0.1020  0.4568  0.0080
  851MPD2    C112497   0.663   0.820  15.319 -0.0394 -0.2154 -0.1343
  851MPD2    C212498   0.716   0.735  15.229  0.1973 -0.0809 -0.3513
  851MPD2    C312499   0.848   0.728  15.207 -0.5004 -0.0679  0.1975
  851MPD2    C412500   0.937   0.814  15.268  0.0079 -0.6194  0.3040
  851MPD2    C512501   0.889   0.891  15.368 -0.7996 -0.1532  0.3645
  851MPD2     H12502   0.648   0.674  15.170 -0.9907  2.1527 -1.2630
  851MPD2    H112503   1.044   0.824  15.255 -0.1610  1.0575  0.2065
  851MPD2    H212504   0.707   0.970  15.461 -2.6782  1.1348 -2.4298
  851MPD2    H312505   0.963   0.955  15.415 -1.3990  1.9792 -1.6382
  851MPD2     N12506   0.879   0.651  15.097  0.6625  0.0552  0.4573
  851MPD2    H512507   0.804   0.591  15.063  0.6146 -0.6888  1.8705
  851MPD2    N112508   0.526   0.832  15.342 -0.0753 -0.0963 -0.2317
  851MPD2    H712509   0.489   0.920  15.375 -0.6959 -0.1094 -0.8816
  852MPD2     C12510   4.662   2.997  10.236 -0.6256  0.4467  0.2805
  852MPD2    C112511   0.051   2.985  10.321  0.0441 -0.2727  0.4885
  852MPD2    C212512   0.173   2.995  10.269  0.1282  0.7308  0.2542
  852MPD2    C312513   0.197   3.021  10.138 -0.5938  0.6980 -0.3058
  852MPD2    C412514   0.092   3.026  10.047 -0.0764 -0.2347  0.2565
  852MPD2    C512515   4.686   3.028  10.102 -0.1689  0.1142  0.3882
  852MPD2     H12516   0.257   2.990  10.337  0.9261  0.0259 -0.7847
  852MPD2    H112517   0.096   3.063   9.945  2.2676  0.5433  0.6329
  852MPD2    H212518   4.559   2.987  10.267 -0.6114 -1.2783 -0.2253
  852MPD2    H312519   4.603   3.048  10.035  0.6488  0.2177 -0.6024
  852MPD2     N12520   0.336   3.042  10.110  0.0689 -0.3895 -0.1896
  852MPD2    H512521   0.380   3.045  10.201  0.1839  0.4266 -0.2701
  852MPD2    N112522   0.037   2.955  10.455  0.2582 -0.2719  0.4550
  852MPD2    H712523   0.121   2.947  10.512  2.4839 -0.9559 -2.9699
  853MPD2     C12524   1.265   2.804  12.352  0.1696  0.4038  0.3422
  853MPD2    C112525   1.227   2.913  12.282 -0.0674  0.1166  0.2233
  853MPD2    C212526   1.225   2.904  12.140 -0.3607 -0.1020  0.8375
  853MPD2    C312527   1.254   2.787  12.086 -0.4341 -0.1681  0.6316
  853MPD2    C412528   1.305   2.679  12.157  0.1325 -0.3966 -0.2342
  853MPD2    C512529   1.302   2.688  12.292 -0.9163  0.6800  0.0085
  853MPD2     H12530   1.186   2.990  12.085  1.9813  0.2032 -0.3346
  853MPD2    H112531   1.336   2.583  12.115 -1.9246 -1.0701 -0.1982
  853MPD2    H212532   1.260   2.808  12.460  0.4025 -0.0574  0.3679
  853MPD2    H312533   1.335   2.602  12.350 -2.9334  0.0449  0.2285
  853MPD2     N12534   1.237   2.765  11.946  0.3641  0.2243  0.2136
  853MPD2    H512535   1.267   2.673  11.917 -0.9059 -0.1364  0.0122
  853MPD2    N112536   1.199   3.028  12.360  0.0114 -0.4641 -0.5347
  853MPD2    H712537   1.202   3.016  12.461 -1.4106 -0.4715 -0.4916
  854MPD2     C12538   3.398   3.560  13.160 -0.2638 -0.5897  0.3967
  854MPD2    C112539   3.380   3.498  13.040  0.0902 -0.2964  0.8350
  854MPD2    C212540   3.458   3.389  13.003  0.0554 -0.1741 -0.4806
  854MPD2    C312541   3.541   3.328  13.106  0.0561 -0.3919  0.5196
  854MPD2    C412542   3.543   3.389  13.234 -0.1159  0.7510 -1.3270
  854MPD2    C512543   3.481   3.512  13.250  0.7367 -0.7445  0.5598
  854MPD2     H12544   3.439   3.330  12.914  0.7840 -2.1272  0.6466
  854MPD2    H112545   3.605   3.358  13.317 -0.6721  3.2237  0.0016
  854MPD2    H212546   3.350   3.653  13.187  0.1599 -0.0144 -0.8601
  854MPD2    H312547   3.506   3.557  13.345  2.4572 -1.1454  0.3063
  854MPD2     N12548   3.611   3.209  13.099  0.3136  0.3746 -0.3000
  854MPD2    H512549   3.644   3.175  13.189  1.3521  0.0577 -0.8046
  854MPD2    N112550   3.289   3.560  12.949  0.4423 -0.2226  0.1005
  854MPD2    H712551   3.240   3.644  12.979  0.0689 -0.5495  0.4180
  855MPD2     C12552   3.683   2.670  13.803 -0.3597  0.1548  0.6764
  855MPD2    C112553   3.671   2.595  13.684 -0.1656 -0.6965 -0.2406
  855MPD2    C212554   3.688   2.658  13.561  0.9869  0.2265  0.1844
  855MPD2    C312555   3.721   2.791  13.544 -0.7959  0.0573 -0.6282
  855MPD2    C412556   3.731   2.867  13.661 -0.9230  0.1425  0.0658
  855MPD2    C512557   3.717   2.801  13.785  0.2259 -0.4629 -0.2754
  855MPD2     H12558   3.667   2.598  13.473  2.2237  0.1066 -0.0236
  855MPD2    H112559   3.757   2.972  13.670 -2.6366  0.7021 -1.5703
  855MPD2    H212560   3.665   2.635  13.904  1.2778 -0.7073  0.6618
  855MPD2    H312561   3.736   2.858  13.875 -2.2120  2.5573 -1.6677
  855MPD2     N12562   3.758   2.842  13.418  0.1373  0.3016 -0.1425
  855MPD2    H512563   3.782   2.941  13.420 -0.0843  0.3216  1.0924
  855MPD2    N112564   3.628   2.463  13.672 -0.2388  0.5965 -0.1864
  855MPD2    H712565   3.635   2.422  13.580 -0.1119  2.8563 -1.1869
  856MPD2     C12566   0.885   3.851  13.886  0.7928  0.8682  0.3112
  856MPD2    C112567   0.967   3.955  13.912 -0.3672 -1.1469  1.0616
  856MPD2    C212568   0.931   4.080  13.855 -0.3556 -0.2098 -0.2344
  856MPD2    C312569   0.815   4.094  13.783 -0.0585  0.9094  1.0832
  856MPD2    C412570   0.740   3.987  13.754  1.0528 -0.4682 -0.1326
  856MPD2    C512571   0.775   3.860  13.806 -0.3810 -0.6078  0.1080
  856MPD2     H12572   0.996   4.167  13.858 -1.8606  0.9610 -1.3060
  856MPD2    H112573   0.645   3.999  13.702  0.8174  0.4416  0.5125
  856MPD2    H212574   0.895   3.755  13.936 -0.9538 -0.2740 -1.5522
  856MPD2    H312575   0.701   3.781  13.803  0.1480 -1.1447  1.4710
  856MPD2     N12576   0.764   4.222  13.743 -0.2507  0.5228 -0.1561
  856MPD2    H512577   0.677   4.230  13.691 -1.1247  0.7744  1.3683
  856MPD2    N112578   1.076   3.950  14.006 -0.0642 -0.5200 -0.3216
  856MPD2    H712579   1.130   4.036  14.019 -3.0529  1.3596 -0.3385
  857MPD2     C12580   2.414   1.491  12.522  0.1539 -0.6703  0.0494
  857MPD2    C112581   2.550   1.499  12.508  0.3216  0.1631 -0.1966
  857MPD2    C212582   2.604   1.619  12.465  0.1720  1.2752 -0.0708
  857MPD2    C312583   2.529   1.729  12.440 -0.7416 -0.0035  0.6225
  857MPD2    C412584   2.391   1.717  12.450 -0.5236  0.3845  0.0110
  857MPD2    C512585   2.335   1.597  12.497  0.3515  0.6190 -0.7424
  857MPD2     H12586   2.711   1.636  12.473  0.9422 -3.1676 -0.7485
  857MPD2    H112587   2.321   1.798  12.433  1.2857  2.1149  0.8187
  857MPD2    H212588   2.367   1.403  12.564 -1.7410  0.0653 -0.5585
  857MPD2    H312589   2.228   1.596  12.507  0.4335  0.6755  0.0911
  857MPD2     N12590   2.596   1.851  12.417  0.0240 -0.4116  0.6920
  857MPD2    H512591   2.697   1.856  12.422 -0.1479  1.2427  2.7596
  857MPD2    N112592   2.626   1.390  12.548 -0.4749 -0.2106  0.5448
  857MPD2    H712593   2.578   1.304  12.574 -0.3801 -0.4464 -0.0567
  858MPD2     C12594   3.360   0.273  16.805  0.0220 -0.3338  0.2503
  858MPD2    C112595   3.494   0.241  16.793  0.1805 -0.5200  0.6963
  858MPD2    C212596   3.585   0.303  16.883 -0.6022  0.0677 -0.1913
  858MPD2    C312597   3.550   0.395  16.978  0.2173 -0.5049 -0.8270
  858MPD2    C412598   3.414   0.428  16.984 -0.2645  0.2652  0.3385
  858MPD2    C512599   3.326   0.363  16.910 -0.3240  1.6781  0.1168
  858MPD2     H12600   3.688   0.273  16.871 -0.3006 -0.7146  4.6282
  858MPD2    H112601   3.382   0.502  17.056  1.9675  0.8823  0.6976
  858MPD2    H212602   3.277   0.232  16.748  0.4290 -0.6233 -0.1313
  858MPD2    H312603   3.224   0.380  16.941 -0.2768  0.4175  0.9794
  858MPD2     N12604   3.643   0.468  17.058 -0.1065 -0.2526  0.2372
  858MPD2    H512605   3.612   0.543  17.119  0.2745 -0.1586  0.3182
  858MPD2    N112606   3.522   0.142  16.685  0.7750 -0.6078 -0.7093
  858MPD2    H712607   3.438   0.120  16.633 -0.2932 -0.7619  1.0819
  859MPD2     C12608   1.313   2.854  14.968  0.2229 -0.6530 -0.3695
  859MPD2    C112609   1.452   2.838  15.007  0.1619  0.9836 -0.3495
  859MPD2    C212610   1.509   2.710  14.989  0.2949  0.4792  0.3325
  859MPD2    C312611   1.436   2.606  14.931  0.2292  0.5419 -0.0730
  859MPD2    C412612   1.307   2.628  14.906  0.5281 -0.3533 -0.2556
  859MPD2    C512613   1.244   2.746  14.927 -0.5939 -0.5413 -0.0669
  859MPD2     H12614   1.612   2.703  15.020  0.2399 -3.0614 -0.2873
  859MPD2    H112615   1.239   2.563  14.853 -1.6748  2.2678 -0.6263
  859MPD2    H212616   1.261   2.948  14.978  2.1353  0.2547  0.9582
  859MPD2    H312617   1.138   2.749  14.907 -0.1857 -0.0906 -2.2154
  859MPD2     N12618   1.492   2.480  14.911 -0.1152 -0.3845  0.1342
  859MPD2    H512619   1.422   2.413  14.880  0.0692 -1.0130  1.0854
  859MPD2    N112620   1.524   2.952  15.058 -0.0522  0.3543  0.5072
  859MPD2    H712621   1.468   3.034  15.080  1.1781  1.3611 -0.1351
  860MPD2     C12622   4.333   3.310  11.430 -0.2191  0.1141  0.2671
  860MPD2    C112623   4.315   3.382  11.547  0.0731 -0.0333  0.5044
  860MPD2    C212624   4.213   3.342  11.636 -0.9144  0.7496  0.6043
  860MPD2    C312625   4.139   3.230  11.607  0.4065  0.1710  0.8852
  860MPD2    C412626   4.153   3.164  11.483  0.9065 -0.0831  0.0445
  860MPD2    C512627   4.249   3.207  11.406 -0.2327  0.0593 -0.3457
  860MPD2     H12628   4.205   3.391  11.732 -2.1575  1.6101  0.0629
  860MPD2    H112629   4.091   3.081  11.451  1.1589 -0.4243  0.4430
  860MPD2    H212630   4.414   3.316  11.358 -0.6826  0.2915 -0.2423
  860MPD2    H312631   4.261   3.149  11.314  1.0190 -0.8043  0.3631
  860MPD2     N12632   4.033   3.196  11.700 -0.3011  0.5174  0.0487
  860MPD2    H512633   4.011   3.262  11.774  0.8055  1.8803 -0.8664
  860MPD2    N112634   4.400   3.482  11.599 -0.6156  0.1804  0.4730
  860MPD2    H712635   4.383   3.504  11.696  1.6760  0.5560  0.7935
  861MPD2     C12636   3.507   0.973  10.675  0.6783 -0.2118 -0.3048
  861MPD2    C112637   3.418   1.032  10.760 -0.0453  0.0778 -0.6163
  861MPD2    C212638   3.304   1.086  10.697  0.4912 -0.6166 -0.5800
  861MPD2    C312639   3.276   1.073  10.562  0.4381  0.2159  0.2607
  861MPD2    C412640   3.367   1.013  10.484  0.3626 -0.1087  0.5303
  861MPD2    C512641   3.485   0.966  10.540 -1.0874  0.0623  0.0819
  861MPD2     H12642   3.230   1.141  10.754  0.0020  0.3905 -2.1666
  861MPD2    H112643   3.360   1.009  10.376 -1.3439  0.1682  0.6337
  861MPD2    H212644   3.600   0.926  10.705  0.9873  0.2819 -0.4930
  861MPD2    H312645   3.559   0.932  10.468 -1.5572 -1.5643  0.3701
  861MPD2     N12646   3.167   1.122  10.489  0.1825 -0.0250 -0.1693
  861MPD2    H512647   3.183   1.118  10.388  0.3045 -0.8746 -0.1094
  861MPD2    N112648   3.443   1.061  10.891  0.2813  0.4321  0.7698
  861MPD2    H712649   3.379   1.124  10.940 -1.2725  0.6413 -1.5547
  862MPD2     C12650   2.912   1.254   9.831 -0.6258 -0.4818 -0.0088
  862MPD2    C112651   2.975   1.170   9.927 -0.1906  0.2933  0.2355
  862MPD2    C212652   3.001   1.039   9.890  0.0536  0.6866  0.6817
  862MPD2    C312653   2.957   0.982   9.769 -0.2532 -0.7568 -0.4826
  862MPD2    C412654   2.882   1.059   9.688 -0.0075 -0.7514  0.4448
  862MPD2    C512655   2.858   1.191   9.722 -0.0125 -0.2977 -0.0808
  862MPD2     H12656   3.059   0.977   9.957 -1.2727  0.4945  1.6576
  862MPD2    H112657   2.845   1.024   9.593  0.4353 -3.6347  1.3515
  862MPD2    H212658   2.894   1.359   9.848 -0.7661 -0.0972 -2.6747
  862MPD2    H312659   2.803   1.249   9.649 -1.3253 -0.5402  0.7233
  862MPD2     N12660   2.948   0.845   9.760 -0.5332  0.5955  0.4270
  862MPD2    H512661   2.867   0.809   9.710  0.3193  1.0904 -1.2707
  862MPD2    N112662   3.006   1.210  10.056 -0.1867 -0.4589  0.6497
  862MPD2    H712663   3.059   1.144  10.111  0.4730 -0.4869 -0.0179
  863MPD2     C12664   2.423   4.274  16.398  0.4249  0.0633  0.6892
  863MPD2    C112665   2.327   4.193  16.454  0.2533  0.1401 -0.4200
  863MPD2    C212666   2.331   4.170  16.584  0.1215 -0.5165  0.4251
  863MPD2    C312667   2.436   4.220  16.664  0.4444  0.5896  0.7430
  863MPD2    C412668   2.538   4.305  16.606  0.2676  0.4049  0.6010
  863MPD2    C512669   2.526   4.331  16.471 -0.2705  0.1219  0.7308
  863MPD2     H12670   2.247   4.135  16.643 -1.9025  1.3666 -1.3888
  863MPD2    H112671   2.615   4.355  16.663 -3.2506  3.2285  2.8885
  863MPD2    H212672   2.420   4.301  16.293 -1.6075 -2.6788  0.0479
  863MPD2    H312673   2.592   4.396  16.415 -0.8964 -1.8571 -2.3296
  863MPD2     N12674   2.442   4.180  16.799 -0.6635 -0.2727 -0.3983
  863MPD2    H512675   2.358   4.137  16.836  0.8048 -0.9001  2.2076
  863MPD2    N112676   2.231   4.140  16.364 -0.0689 -0.0546 -0.4166
  863MPD2    H712677   2.230   4.167  16.267  3.0005 -2.2355 -1.0315
  864MPD2     C12678   2.567   0.590  17.408  0.5596  0.2381 -0.3598
  864MPD2    C112679   2.674   0.560  17.324  0.1331 -0.5339  0.0126
  864MPD2    C212680   2.769   0.652  17.292  0.1434  0.2093  0.1396
  864MPD2    C312681   2.747   0.782  17.314 -0.6463  0.7252  0.0362
  864MPD2    C412682   2.637   0.820  17.382  0.6724  0.1731  0.2136
  864MPD2    C512683   2.548   0.727  17.435 -0.8962  0.0350  0.6019
  864MPD2     H12684   2.851   0.630  17.224  0.8982  0.8255  0.8495
  864MPD2    H112685   2.618   0.922  17.414  0.4783 -0.1361  1.0917
  864MPD2    H212686   2.485   0.525  17.437  1.0478 -0.0893  0.2785
  864MPD2    H312687   2.462   0.756  17.493 -0.9120  0.6754  0.2591
  864MPD2     N12688   2.825   0.882  17.257 -0.3087  0.0536  0.0477
  864MPD2    H512689   2.790   0.977  17.252  0.7307  0.4477  0.1568
  864MPD2    N112690   2.673   0.432  17.263  0.1581  0.3665  0.0451
  864MPD2    H712691   2.596   0.372  17.292 -1.5160  3.6222  2.2603
  865MPD2     C12692   2.586   1.099  16.463 -0.1115  0.5051  0.1634
  865MPD2    C112693   2.681   0.995  16.469 -0.8061 -0.1140  0.6593
  865MPD2    C212694   2.762   0.994  16.583  0.1409  0.2083  0.2158
  865MPD2    C312695   2.751   1.077  16.690 -0.5181 -0.2444 -0.8090
  865MPD2    C412696   2.651   1.166  16.680  0.8213  0.3770  0.0225
  865MPD2    C512697   2.573   1.186  16.571 -0.2499 -0.3555  0.5582
  865MPD2     H12698   2.837   0.917  16.591 -0.4624 -0.2730  1.3116
  865MPD2    H112699   2.629   1.232  16.764 -0.3514 -0.3799  0.3144
  865MPD2    H212700   2.523   1.120  16.377  2.1832 -2.0875 -2.1570
  865MPD2    H312701   2.490   1.256  16.577 -1.0367 -1.1040 -1.6148
  865MPD2     N12702   2.831   1.089  16.811  0.2355 -0.1759  0.0221
  865MPD2    H512703   2.790   1.145  16.885  1.9533 -0.1904  0.9722
  865MPD2    N112704   2.701   0.910  16.359 -0.1648 -0.1454 -0.4330
  865MPD2    H712705   2.653   0.938  16.274 -2.0898 -1.1438  0.3439
  866MPD2     C12706   3.774   1.377  11.389 -0.5572 -0.2963  0.4101
  866MPD2    C112707   3.790   1.375  11.251  0.0553  1.0179  0.2395
  866MPD2    C212708   3.706   1.447  11.160 -0.6549 -0.5695 -0.9656
  866MPD2    C312709   3.593   1.508  11.205  0.2151  0.2931 -0.0068
  866MPD2    C412710   3.569   1.500  11.337  0.1014 -0.2630 -0.3336
  866MPD2    C512711   3.650   1.432  11.425 -0.0478  0.1252  0.4347
  866MPD2     H12712   3.727   1.450  11.054  3.1003  1.9230 -0.1796
  866MPD2    H112713   3.482   1.555  11.369 -0.3430 -0.5203 -1.0962
  866MPD2    H212714   3.834   1.309  11.449  0.8121 -1.0080 -1.7691
  866MPD2    H312715   3.612   1.432  11.527  0.7226 -0.5222  0.7224
  866MPD2     N12716   3.504   1.577  11.120 -0.4315 -0.7916 -0.3129
  866MPD2    H512717   3.417   1.607  11.162  0.7491  0.5368  1.1631
  866MPD2    N112718   3.906   1.304  11.210  0.5187  0.2611  0.1992
  866MPD2    H712719   3.965   1.261  11.280 -0.1674 -0.8197  0.1131
  867MPD2     C12720   1.703   0.589  16.024 -0.3051 -0.4570  0.1289
  867MPD2    C112721   1.798   0.589  16.121  0.1011 -0.3756  0.6452
  867MPD2    C212722   1.826   0.711  16.188  0.7176 -0.7052  0.0019
  867MPD2    C312723   1.765   0.831  16.151 -0.1642 -0.7446 -0.4333
  867MPD2    C412724   1.687   0.831  16.038 -0.1766  0.6132  0.2958
  867MPD2    C512725   1.644   0.704  15.987 -0.1779 -0.1282  0.3121
  867MPD2     H12726   1.888   0.704  16.277  0.0833 -0.0054  0.4962
  867MPD2    H112727   1.650   0.925  15.998 -1.6731  0.5382  1.5200
  867MPD2    H212728   1.665   0.500  15.974  1.5628 -1.7997  1.0693
  867MPD2    H312729   1.574   0.703  15.905  2.0744 -0.2198 -1.6002
  867MPD2     N12730   1.791   0.954  16.217  0.3197  0.3214  0.8947
  867MPD2    H512731   1.762   1.039  16.171 -1.5918 -1.0503 -0.4382
  867MPD2    N112732   1.862   0.469  16.158  0.2210  0.3464  0.8295
  867MPD2    H712733   1.823   0.382  16.125  0.8174 -0.9398  3.4498
  868MPD2     C12734   2.449   4.659  12.878  0.2914  0.6456 -0.6688
  868MPD2    C112735   2.485   4.576  12.991 -0.0805 -0.4311 -0.2157
  868MPD2    C212736   2.386   4.533  13.079  0.7050  0.4575 -0.5269
  868MPD2    C312737   2.250   4.550  13.047 -0.3951 -0.3838 -0.1508
  868MPD2    C412738   2.214   4.622  12.934  0.2265  0.1788  0.0271
  868MPD2    C512739   2.315   4.675  12.852  0.3036  0.5995  0.4389
  868MPD2     H12740   2.402   4.457  13.155 -0.7298  1.4548  0.7703
  868MPD2    H112741   2.108   4.635  12.919  0.0874  1.6868  2.3061
  868MPD2    H212742   2.520   4.703  12.809  1.0954  1.8543  0.9286
  868MPD2    H312743   2.286   0.018  12.770  0.5287 -1.6350 -1.3517
  868MPD2     N12744   2.155   4.507  13.144 -0.3321  0.6762 -0.1688
  868MPD2    H512745   2.186   4.471  13.233 -1.2202 -0.6543 -0.4061
  868MPD2    N112746   2.617   4.548  13.013 -0.0185 -0.2943  0.6489
  868MPD2    H712747   2.685   4.582  12.947 -0.8735 -0.1071 -0.1315
  869MPD2     C12748   4.283   2.474   1.873 -0.6958 -0.4953  0.4829
  869MPD2    C112749   4.227   2.581   1.809  0.2916  0.9309  0.7583
  869MPD2    C212750   4.284   2.637   1.699  0.0435 -0.4185 -0.2770
  869MPD2    C312751   4.396   2.575   1.640 -0.1263  0.5474 -0.0470
  869MPD2    C412752   4.442   2.461   1.701  0.7529 -0.1532  0.2570
  869MPD2    C512753   4.382   2.410   1.812  0.1255 -0.8063 -0.5449
  869MPD2     H12754   4.231   2.720   1.655  0.3980 -0.1651 -0.2191
  869MPD2    H112755   4.523   2.398   1.669  0.1854 -1.4619  1.3965
  869MPD2    H212756   4.245   2.429   1.964 -1.9291  0.2437  0.3328
  869MPD2    H312757   4.420   2.320   1.859 -1.1444 -0.2422  1.5313
  869MPD2     N12758   4.448   2.619   1.520 -0.0876 -0.1804  0.1823
  869MPD2    H512759   4.532   2.569   1.491 -1.8443 -2.0580 -1.6489
  869MPD2    N112760   4.111   2.629   1.874  0.4491  0.2413  0.0884
  869MPD2    H712761   4.069   2.576   1.949  0.0341  1.8082  0.9623
  870MPD2     C12762   4.238   0.992   1.854 -0.5200  0.9801 -0.8697
  870MPD2    C112763   4.332   1.037   1.759 -0.6525 -0.5702  0.4126
  870MPD2    C212764   4.313   1.154   1.696  0.8419 -0.1580  0.1631
  870MPD2    C312765   4.228   1.249   1.759  0.1255 -0.1017 -0.3652
  870MPD2    C412766   4.145   1.206   1.857  0.6915  0.8527 -0.3886
  870MPD2    C512767   4.144   1.078   1.899 -0.5076 -0.2816  0.5061
  870MPD2     H12768   4.386   1.197   1.629 -2.4401  0.6465 -2.8754
  870MPD2    H112769   4.083   1.278   1.909  0.4737 -0.7237  1.5338
  870MPD2    H212770   4.238   0.895   1.901 -4.4185  1.2593 -0.2545
  870MPD2    H312771   4.081   1.040   1.978 -1.8900 -0.1283 -0.5243
  870MPD2     N12772   4.240   1.381   1.714  0.2723  0.9324  0.6264
  870MPD2    H512773   4.308   1.389   1.639 -2.8827  0.8879 -2.2251
  870MPD2    N112774   4.438   0.948   1.734 -0.0714  0.3807 -0.5202
  870MPD2    H712775   4.441   0.862   1.788 -2.2936  1.0973  0.7434
  871MPD2     C12776   0.522   0.993  16.283 -0.6150  0.7876 -0.0812
  871MPD2    C112777   0.561   0.928  16.395  0.3472 -0.6885 -0.0543
  871MPD2    C212778   0.606   0.798  16.382 -0.9771 -0.2457  0.5092
  871MPD2    C312779   0.619   0.730  16.261  0.1386 -0.6706 -0.5388
  871MPD2    C412780   0.582   0.792  16.149 -0.7446  1.1135 -0.4604
  871MPD2    C512781   0.541   0.924  16.164 -0.5235  0.4563  0.3503
  871MPD2     H12782   0.645   0.742  16.467  0.5414  0.2567  0.1484
  871MPD2    H112783   0.590   0.748  16.050  0.3333  2.2605 -0.8763
  871MPD2    H212784   0.500   1.099  16.292  0.7076  1.2945 -2.8846
  871MPD2    H312785   0.513   0.981  16.076  1.3034  0.5981 -0.1530
  871MPD2     N12786   0.672   0.603  16.265  0.2628  0.5417  0.6230
  871MPD2    H512787   0.674   0.557  16.355 -3.0488 -0.8620  0.0013
  871MPD2    N112788   0.564   1.004  16.519  0.2900 -0.6235  0.0966
  871MPD2    H712789   0.543   1.103  16.519  2.5280 -0.1216  3.9342
  872MPD2     C12790   0.757   3.099  13.987  0.6370 -0.0487  0.2700
  872MPD2    C112791   0.701   3.222  13.965 -0.3694  0.5248 -0.7963
  872MPD2    C212792   0.562   3.232  13.987  0.1397 -0.2689  0.3326
  872MPD2    C312793   0.488   3.128  14.032  0.3156 -0.5097 -0.0439
  872MPD2    C412794   0.552   3.005  14.051 -0.0834  0.4391 -0.6336
  872MPD2    C512795   0.686   2.993  14.027 -0.2243  0.4751  0.4316
  872MPD2     H12796   0.515   3.328  13.966  2.3846 -0.0049 -3.5921
  872MPD2    H112797   0.487   2.919  14.061  0.5085 -0.0543 -1.0250
  872MPD2    H212798   0.862   3.079  13.972  0.2383 -0.5438 -1.8569
  872MPD2    H312799   0.732   2.897  14.051 -1.7002 -0.5658 -0.9170
  872MPD2     N12800   0.351   3.132  14.044 -0.1702  0.2933  0.2686
  872MPD2    H512801   0.307   3.059  14.099 -0.0859  0.1563  0.1544
  872MPD2    N112802   0.777   3.325  13.918 -0.0191  0.8657 -0.6595
  872MPD2    H712803   0.730   3.413  13.896 -0.7765  0.1924 -1.7067
  873MPD2     C12804   3.033   3.131   1.369 -1.1596  0.5273  0.9659
  873MPD2    C112805   2.935   3.223   1.339  0.1277 -0.5929  0.1454
  873MPD2    C212806   2.811   3.183   1.279 -0.9279  0.1982 -0.5107
  873MPD2    C312807   2.790   3.048   1.249 -0.3520 -0.2923 -0.3752
  873MPD2    C412808   2.897   2.963   1.279  0.0097  0.5162 -0.0760
  873MPD2    C512809   3.012   3.007   1.328 -0.1531 -0.3634  1.0452
  873MPD2     H12810   2.739   3.264   1.273 -0.8929  0.2292 -0.5166
  873MPD2    H112811   2.898   2.861   1.241 -0.0479  0.4134  0.1964
  873MPD2    H212812   3.134   3.156   1.401 -0.8249  2.0669 -1.2856
  873MPD2    H312813   3.086   2.928   1.340 -1.3756 -1.4726  1.3676
  873MPD2     N12814   2.658   3.011   1.195  0.0680  0.4326  0.6916
  873MPD2    H512815   2.592   3.084   1.172 -0.7173 -0.2429  0.7766
  873MPD2    N112816   2.968   3.358   1.370 -0.1407 -0.4061  0.1831
  873MPD2    H712817   3.056   3.372   1.420 -0.7432  1.2296  0.7746
  874MPD2     C12818   2.117   2.820  15.816 -0.5505  0.1715  0.4473
  874MPD2    C112819   2.193   2.751  15.909 -0.3118  0.5698 -0.5890
  874MPD2    C212820   2.314   2.802  15.946  0.4384 -0.5022 -0.1007
  874MPD2    C312821   2.357   2.932  15.907  0.3669  0.0258  0.7813
  874MPD2    C412822   2.294   2.998  15.801  0.3996 -0.3115  0.7810
  874MPD2    C512823   2.175   2.938  15.756  0.5748 -0.2997 -0.3910
  874MPD2     H12824   2.366   2.768  16.035 -0.3160  2.3135  1.4196
  874MPD2    H112825   2.329   3.093  15.762  2.4870 -1.1254  0.6501
  874MPD2    H212826   2.025   2.776  15.778 -0.3272  0.2627 -0.1916
  874MPD2    H312827   2.110   2.985  15.683  1.3625 -1.0701 -1.5961
  874MPD2     N12828   2.462   2.986  15.982  0.2126  0.1152 -0.2173
  874MPD2    H512829   2.502   2.920  16.048 -0.2716 -0.1632 -0.1985
  874MPD2    N112830   2.132   2.639  15.966  0.0640  0.0883 -0.5409
  874MPD2    H712831   2.053   2.605  15.913 -1.0354 -0.3564  1.3902
  875MPD2     C12832   3.784   1.502  14.391  1.0000 -0.5306 -0.7420
  875MPD2    C112833   3.667   1.576  14.390  1.0236  0.2560  0.2411
  875MPD2    C212834   3.647   1.673  14.488  0.0327  0.4303  0.0460
  875MPD2    C312835   3.750   1.691  14.585  0.0291 -0.6393 -1.1000
  875MPD2    C412836   3.871   1.616  14.580 -0.0987 -1.0851  0.4043
  875MPD2    C512837   3.887   1.532  14.471 -0.4466  0.4753 -0.0207
  875MPD2     H12838   3.553   1.727  14.492 -0.4463 -0.5290  1.5399
  875MPD2    H112839   3.956   1.627  14.646  1.1428  1.0079 -1.5442
  875MPD2    H212840   3.807   1.421  14.323  0.9854  0.8300 -2.3498
  875MPD2    H312841   3.974   1.468  14.480 -1.8526 -1.4510 -0.3572
  875MPD2     N12842   3.729   1.785  14.694 -0.1030 -0.3876  0.2541
  875MPD2    H512843   3.805   1.815  14.754 -0.9314  0.1921  1.0220
  875MPD2    N112844   3.562   1.550  14.300 -0.1514 -0.0475  0.6686
  875MPD2    H712845   3.482   1.613  14.307 -1.0791 -1.0172 -1.1454
  876MPD2     C12846   2.972   3.138  15.724  0.1151  0.4778  0.0746
  876MPD2    C112847   2.885   3.119  15.618  0.4031  0.5821  0.3291
  876MPD2    C212848   2.806   3.006  15.629  0.2272  0.1045  0.3730
  876MPD2    C312849   2.820   2.916  15.734 -0.7569  0.5286 -0.4011
  876MPD2    C412850   2.912   2.936  15.835  0.1180 -0.3643  0.2867
  876MPD2    C512851   2.985   3.055  15.830 -0.2882  0.6253  0.3114
  876MPD2     H12852   2.737   2.985  15.549 -0.2390  1.1287  0.5097
  876MPD2    H112853   2.928   2.866  15.916  1.4679 -0.6469 -0.2203
  876MPD2    H212854   3.028   3.230  15.729 -0.4291  0.8013  0.1859
  876MPD2    H312855   3.052   3.087  15.909 -1.7164  1.4466  1.2011
  876MPD2     N12856   2.738   2.806  15.722  0.4569 -0.6920 -0.4955
  876MPD2    H512857   2.674   2.799  15.644  1.0290  1.5219 -1.1761
  876MPD2    N112858   2.851   3.209  15.520 -0.8158 -0.4285 -0.1971
  876MPD2    H712859   2.769   3.181  15.466 -1.2775 -0.2906  0.4267
  877MPD2     C12860   3.092   3.603  14.841  0.0124  0.2469 -0.3186
  877MPD2    C112861   2.959   3.552  14.848 -0.1659 -0.3560 -0.4234
  877MPD2    C212862   2.894   3.522  14.731  0.2239 -0.1851 -0.2008
  877MPD2    C312863   2.957   3.533  14.611 -0.0461 -0.0684  0.3814
  877MPD2    C412864   3.091   3.575  14.606  0.6556  0.1614 -0.1333
  877MPD2    C512865   3.152   3.616  14.719 -0.1604  0.4972  0.3998
  877MPD2     H12866   2.800   3.469  14.731  0.1815 -0.1170 -1.5740
  877MPD2    H112867   3.143   3.587  14.511  0.3322  2.9679  0.0689
  877MPD2    H212868   3.142   3.657  14.922  2.3616 -0.2253 -1.4483
  877MPD2    H312869   3.250   3.661  14.705  0.7982 -1.0644  2.1617
  877MPD2     N12870   2.897   3.496  14.490  0.7720 -0.0252 -0.1214
  877MPD2    H512871   2.966   3.486  14.416  1.7957 -0.2354  0.8714
  877MPD2    N112872   2.894   3.543  14.970 -0.0113 -0.0848 -0.2860
  877MPD2    H712873   2.802   3.501  14.977  0.4203 -0.5735  2.6104
  878MPD2     C12874   2.049   3.541  13.098 -0.1860  0.4522  0.0136
  878MPD2    C112875   2.173   3.489  13.133  0.1786  0.4562 -0.3247
  878MPD2    C212876   2.177   3.400  13.240 -0.7664 -1.0466 -0.7644
  878MPD2    C312877   2.059   3.360  13.302  0.2988 -0.0780 -0.4517
  878MPD2    C412878   1.940   3.423  13.271  0.3791  0.9513 -0.1359
  878MPD2    C512879   1.931   3.513  13.168 -0.6449 -0.3635 -0.1162
  878MPD2     H12880   2.271   3.352  13.268  0.3658  2.3248  1.2387
  878MPD2    H112881   1.843   3.404  13.315 -0.5806  1.8426 -1.8949
  878MPD2    H212882   2.042   3.618  13.022  1.1515 -1.2393 -1.8358
  878MPD2    H312883   1.839   3.560  13.138 -0.9876 -0.2319  1.1187
  878MPD2     N12884   2.079   3.264  13.401 -0.2398  0.1301 -0.2932
  878MPD2    H512885   2.172   3.232  13.427  0.5051  1.7355 -0.9429
  878MPD2    N112886   2.271   3.507  13.038 -0.4301  0.0889  0.2568
  878MPD2    H712887   2.243   3.565  12.960 -0.3952  0.0169  0.1912
  879MPD2     C12888   2.990   4.175  17.170  0.3567  0.0797 -0.1773
  879MPD2    C112889   2.969   4.099  17.285 -0.0855 -0.0444 -0.3973
  879MPD2    C212890   2.925   3.967  17.277  0.3530  0.0618 -0.2650
  879MPD2    C312891   2.914   3.903  17.150  0.4007  0.1447 -0.6333
  879MPD2    C412892   2.930   3.978  17.036 -0.2896 -0.2611  0.3906
  879MPD2    C512893   2.966   4.110  17.050 -0.4999 -0.5446 -0.1919
  879MPD2     H12894   2.907   3.909  17.366  0.4712 -0.8155 -0.8164
  879MPD2    H112895   2.932   3.946  16.933  0.8193  3.2276 -0.6855
  879MPD2    H212896   3.010   4.282  17.175  3.5350 -0.5826  0.7716
  879MPD2    H312897   2.973   4.173  16.962  1.2711 -1.7738 -0.9311
  879MPD2     N12898   2.888   3.768  17.137 -0.2499  0.1787  0.0655
  879MPD2    H512899   2.897   3.724  17.046  3.4488  1.7220 -0.3503
  879MPD2    N112900   2.993   4.168  17.411  0.0182  0.2432  0.7980
  879MPD2    H712901   3.015   4.265  17.392 -0.3469 -0.1492 -1.6575
  880MPD2     C12902   4.188   1.100   1.102 -0.0737  0.1772 -0.1474
  880MPD2    C112903   4.274   1.053   1.007  0.0100 -0.2560 -0.3267
  880MPD2    C212904   4.279   0.914   0.986  0.4683 -0.8292 -0.0471
  880MPD2    C312905   4.204   0.827   1.055  0.3003 -0.1514 -0.0104
  880MPD2    C412906   4.098   0.877   1.128 -0.0291  0.5707  0.7278
  880MPD2    C512907   4.097   1.015   1.161 -0.7114  0.1756 -0.7616
  880MPD2     H12908   4.350   0.868   0.919  1.7699 -0.5540  1.1289
  880MPD2    H112909   4.036   0.806   1.182 -0.1866 -1.1071 -1.6320
  880MPD2    H212910   4.176   1.206   1.124  1.4409  0.1996  0.5670
  880MPD2    H312911   4.030   1.044   1.241  1.0533 -0.4483  0.9562
  880MPD2     N12912   4.233   0.688   1.040 -0.0688 -0.4102  0.3346
  880MPD2    H512913   4.305   0.668   0.971  1.6107  2.6718  1.1950
  880MPD2    N112914   4.348   1.147   0.939 -0.1777 -0.0640  0.1400
  880MPD2    H712915   4.342   1.243   0.972 -0.1252 -0.5435  1.5271
  881MPD2     C12916   4.598   1.806   0.150 -0.5358 -0.0839 -0.0043
  881MPD2    C112917   4.625   1.675   0.120 -0.2051 -0.3131  0.1361
  881MPD2    C212918   4.597   1.583   0.221 -0.4876 -0.3739  0.3776
  881MPD2    C312919   4.558   1.627   0.344 -0.0925 -0.2738  0.4214
  881MPD2    C412920   4.530   1.758   0.369  0.2113 -0.1963 -0.2001
  881MPD2    C512921   4.548   1.844   0.269 -0.3401 -0.3033 -0.7040
  881MPD2     H12922   4.592   1.477   0.202 -0.1122 -0.7634  2.5047
  881MPD2    H112923   4.502   1.786   0.470  0.7389 -0.0464 -0.0959
  881MPD2    H212924   4.603   1.878   0.069 -3.5882 -0.0028 -0.0919
  881MPD2    H312925   4.521   1.948   0.288  0.9630 -0.1372  0.2698
  881MPD2     N12926   4.544   1.549   0.460  0.6915 -0.6646 -0.1153
  881MPD2    H512927   4.503   1.597   0.540  1.4621 -1.7566  0.9238
  881MPD2    N112928   4.633   1.642  17.669 -1.0490  0.3630  0.0878
  881MPD2    H712929   4.615   1.719  17.606 -2.4150 -0.9433 -1.0902
  882MPD2     C12930   2.337   3.502  13.777 -0.3100 -0.1031 -0.4338
  882MPD2    C112931   2.316   3.475  13.911 -0.1680  0.3900  0.0077
  882MPD2    C212932   2.192   3.420  13.948  0.4300  0.3879  0.5458
  882MPD2    C312933   2.082   3.415  13.866  0.8763 -0.3558  0.2625
  882MPD2    C412934   2.105   3.462  13.730 -0.4191  0.3735 -0.4451
  882MPD2    C512935   2.232   3.506  13.695  0.1237 -0.0169 -0.7256
  882MPD2     H12936   2.194   3.374  14.046  3.4094  1.7106  1.1299
  882MPD2    H112937   2.032   3.460  13.650  0.1011  1.7034 -0.9575
  882MPD2    H212938   2.440   3.525  13.752 -0.4922  1.4916  0.2778
  882MPD2    H312939   2.244   3.536  13.591  0.0280  0.0095 -0.7298
  882MPD2     N12940   1.951   3.373  13.904 -0.2892  0.3370 -0.3188
  882MPD2    H512941   1.883   3.376  13.829 -0.1519  1.0135 -0.4212
  882MPD2    N112942   2.435   3.465  13.990  0.9216 -0.4241  0.3409
  882MPD2    H712943   2.521   3.481  13.939  0.7619  0.2552  0.2822
  883MPD2     C12944   4.248   3.311  16.380  0.9657 -0.2714  0.1141
  883MPD2    C112945   4.290   3.386  16.271  1.1261  0.5494 -0.5359
  883MPD2    C212946   4.415   3.453  16.277  0.1419 -0.4735 -0.5359
  883MPD2    C312947   4.497   3.430  16.386  0.3529 -0.4635  0.0374
  883MPD2    C412948   4.441   3.369  16.498  1.1089 -1.6205 -0.0929
  883MPD2    C512949   4.316   3.307  16.494 -0.0444  0.2959 -0.2422
  883MPD2     H12950   4.459   3.496  16.187 -0.4769  0.3708 -0.4321
  883MPD2    H112951   4.485   3.358  16.597  0.5073  2.6037  0.6631
  883MPD2    H212952   4.151   3.262  16.378 -0.1015  1.9037 -0.7352
  883MPD2    H312953   4.274   3.255  16.579 -0.0587 -1.0474 -1.0565
  883MPD2     N12954   4.629   3.483  16.375 -0.2226  0.2753 -0.3463
  883MPD2    H512955   4.644   3.537  16.291 -0.0020  0.7347 -0.0126
  883MPD2    N112956   4.212   3.390  16.150 -0.4905  0.1055 -0.8470
  883MPD2    H712957   4.256   3.447  16.077 -0.9441  0.9750 -0.4448
  884MPD2     C12958   1.402   3.849  15.596 -0.5671  0.1779  0.0722
  884MPD2    C112959   1.441   3.925  15.486  0.0261 -0.2466  0.0273
  884MPD2    C212960   1.357   3.958  15.381 -0.1290  0.1264 -0.0894
  884MPD2    C312961   1.223   3.941  15.393  0.0268 -0.0463  0.7217
  884MPD2    C412962   1.182   3.857  15.500  0.1962 -0.3462  0.5161
  884MPD2    C512963   1.271   3.810  15.604  0.4951 -0.3474 -0.3159
  884MPD2     H12964   1.399   4.000  15.291 -0.5454 -0.2229 -0.4455
  884MPD2    H112965   1.076   3.834  15.504  0.0763 -0.1466 -1.5361
  884MPD2    H212966   1.468   3.813  15.674 -1.4957 -1.1877  0.2158
  884MPD2    H312967   1.237   3.746  15.685  0.5692  0.6908  0.5321
  884MPD2     N12968   1.137   3.992  15.288  0.2184 -0.6014  0.0973
  884MPD2    H512969   1.188   4.037  15.212 -1.8689 -1.1596 -1.6396
  884MPD2    N112970   1.578   3.963  15.468 -0.3560 -0.0673 -0.2679
  884MPD2    H712971   1.588   4.024  15.388 -3.0911 -0.1852 -0.7003
  885MPD2     C12972   0.042   4.085   0.067  0.4917 -0.1023 -0.2141
  885MPD2    C112973   0.134   4.188   0.060  0.6029 -0.0261  0.2037
  885MPD2    C212974   0.139   4.266  17.626  0.5167  0.4356  0.1332
  885MPD2    C312975   0.075   4.224  17.515 -0.7401  0.1132 -0.3338
  885MPD2    C412976   4.707   4.115  17.527 -0.7114  0.0900 -0.0687
  885MPD2    C512977   4.687   4.056  17.646 -0.6114 -0.0558 -0.0829
  885MPD2     H12978   0.197   4.357  17.619  0.4672  0.4847  0.3530
  885MPD2    H112979   4.652   4.074  17.442  1.8169 -0.1714 -1.5911
  885MPD2    H212980   0.046   4.016   0.150  1.8034  0.1192 -0.0890
  885MPD2    H312981   4.615   3.976  17.651 -1.2985  0.5100 -0.9128
  885MPD2     N12982   0.085   4.289  17.398  0.5329  0.2668  0.7913
  885MPD2    H512983   0.124   4.382  17.412  1.4063  0.2248 -1.4155
  885MPD2    N112984   0.206   4.220   0.180  0.2400 -0.1344 -0.4100
  885MPD2    H712985   0.206   4.150   0.253  3.9007  1.3235  1.0031
  886MPD2     C12986   0.775   2.726  15.588  0.0711 -0.6531 -0.9480
  886MPD2    C112987   0.754   2.708  15.451 -0.4420 -0.6439 -0.3657
  886MPD2    C212988   0.734   2.831  15.378 -0.0390  0.1810  0.0273
  886MPD2    C312989   0.742   2.956  15.432  0.0879 -0.0336 -0.0554
  886MPD2    C412990   0.783   2.964  15.559  0.3089 -0.2528  0.0926
  886MPD2    C512991   0.800   2.853  15.635 -0.3629 -0.4448 -0.1034
  886MPD2     H12992   0.722   2.826  15.270 -0.1033  0.0150  0.0437
  886MPD2    H112993   0.785   3.064  15.601  0.0416 -2.0970  4.5295
  886MPD2    H212994   0.808   2.638  15.643  1.4539  0.2233 -0.3746
  886MPD2    H312995   0.823   2.865  15.740  1.7757 -2.0402 -0.3981
  886MPD2     N12996   0.716   3.076  15.354 -0.4921  0.0876  0.3016
  886MPD2    H512997   0.746   3.167  15.387 -0.1600  0.4911 -1.1339
  886MPD2    N112998   0.737   2.582  15.396  0.0621  0.4850 -0.1455
  886MPD2    H712999   0.721   2.585  15.295  0.4879  0.6530 -0.2095
  887MPD2     C13000   0.829   2.716  14.970  0.0086 -0.8999  0.2169
  887MPD2    C113001   0.902   2.642  15.062 -0.6607 -0.1024  0.3995
  887MPD2    C213002   0.977   2.713  15.154 -0.7649  0.0842  0.0567
  887MPD2    C313003   0.986   2.845  15.167  0.2250  0.2151  0.1462
  887MPD2    C413004   0.915   2.919  15.072 -0.2854 -0.0418 -0.6861
  887MPD2    C513005   0.838   2.857  14.974  0.3402 -0.1487 -0.4030
  887MPD2     H13006   1.032   2.651  15.223  0.0161  2.2994  1.4178
  887MPD2    H113007   0.926   3.026  15.065 -2.2160  0.0474 -2.4552
  887MPD2    H213008   0.774   2.663  14.893 -1.0690 -2.5876  2.1456
  887MPD2    H313009   0.778   2.919  14.907 -0.6160  2.3160  2.7274
  887MPD2     N13010   1.075   2.891  15.265  0.3493 -0.3526 -0.1748
  887MPD2    H513011   1.119   2.815  15.316  0.3420 -1.5100 -1.8906
  887MPD2    N113012   0.893   2.499  15.073 -0.1483  0.3023 -0.2481
  887MPD2    H713013   0.957   2.452  15.137  0.5155  0.7982 -0.5513
  888MPD2     C13014   3.583   2.766  14.615  0.4263 -0.3189 -0.3637
  888MPD2    C113015   3.478   2.831  14.677  0.2536  0.4917  0.6570
  888MPD2    C213016   3.510   2.960  14.732  0.6673  0.3143  0.3035
  888MPD2    C313017   3.647   2.995  14.746  0.2507  0.4439 -0.1545
  888MPD2    C413018   3.743   2.909  14.700  0.0798  0.2120  0.3476
  888MPD2    C513019   3.710   2.806  14.624 -0.1254  0.1044  0.4622
  888MPD2     H13020   3.440   3.025  14.784 -0.8539 -0.4404 -0.8091
  888MPD2    H113021   3.848   2.932  14.708 -0.0731  1.1553 -0.3797
  888MPD2    H213022   3.572   2.663  14.583  0.2197 -1.2584  2.6842
  888MPD2    H313023   3.779   2.743  14.568 -0.4955 -0.6576  0.8626
  888MPD2     N13024   3.675   3.118  14.806  0.2123  0.3314 -0.3398
  888MPD2    H513025   3.596   3.163  14.850  1.6010  1.4109  1.0813
  888MPD2    N113026   3.355   2.761  14.689  0.6373  0.2447 -0.0618
  888MPD2    H713027   3.359   2.667  14.651 -0.3300 -0.0626  0.6072
  889MPD2     C13028   2.407   2.555  12.681 -0.7898  0.1781 -0.1943
  889MPD2    C113029   2.539   2.550  12.646 -0.4855 -0.2164 -0.9700
  889MPD2    C213030   2.629   2.619  12.728  0.0001  0.6775  0.1078
  889MPD2    C313031   2.583   2.721  12.801 -0.3777 -0.2054 -0.9031
  889MPD2    C413032   2.445   2.749  12.804  0.2180 -0.9913 -0.6589
  889MPD2    C513033   2.355   2.658  12.754  0.2543  0.3350 -0.3187
  889MPD2     H13034   2.734   2.614  12.701  0.3213 -0.9867  1.6259
  889MPD2    H113035   2.409   2.835  12.859  0.8847 -1.0272 -0.1746
  889MPD2    H213036   2.336   2.505  12.615 -2.8502  2.4437  0.2815
  889MPD2    H313037   2.253   2.692  12.749  0.5442  1.1695 -0.5862
  889MPD2     N13038   2.684   2.804  12.852 -0.5246 -0.5133  0.1725
  889MPD2    H513039   2.779   2.768  12.849 -0.2706  0.1043  0.8011
  889MPD2    N113040   2.576   2.434  12.566  0.0799 -0.5236 -0.4489
  889MPD2    H713041   2.505   2.363  12.547  0.3589  0.1283 -3.8917
  890MPD2     C13042   2.027   4.156  15.076  0.5027 -0.1735 -0.0187
  890MPD2    C113043   2.152   4.162  15.136  0.9917  0.5383 -0.1777
  890MPD2    C213044   2.199   4.052  15.208  1.5340  0.2357  0.6173
  890MPD2    C313045   2.109   3.958  15.254  0.3502 -0.9459 -0.1475
  890MPD2    C413046   1.975   3.971  15.209  0.4224  0.6502 -0.1313
  890MPD2    C513047   1.943   4.067  15.117 -0.0080 -0.6153 -0.6066
  890MPD2     H13048   2.303   4.040  15.237  1.0469 -0.9595  1.8813
  890MPD2    H113049   1.899   3.895  15.223  0.7296  0.0750 -1.5897
  890MPD2    H213050   1.987   4.231  15.009 -0.3487  0.9988  1.7835
  890MPD2    H313051   1.844   4.054  15.074 -0.2962 -3.2030  0.8730
  890MPD2     N13052   2.150   3.842  15.324  0.2770  0.1584 -0.0022
  890MPD2    H513053   2.247   3.841  15.353  0.1069  1.5946  0.6162
  890MPD2    N113054   2.234   4.268  15.081 -0.5243 -0.3430 -0.0746
  890MPD2    H713055   2.186   4.334  15.020 -0.0601 -0.8581 -1.0042
  891MPD2     C13056   0.345   2.107  16.451 -0.6164 -0.3872  0.3297
  891MPD2    C113057   0.312   2.218  16.532 -0.2516  0.5345  0.4412
  891MPD2    C213058   0.409   2.315  16.559  0.3767 -1.2681 -0.2482
  891MPD2    C313059   0.536   2.307  16.504 -0.1348 -0.2457  0.0469
  891MPD2    C413060   0.562   2.205  16.419 -0.4545 -0.6582 -0.4803
  891MPD2    C513061   0.469   2.112  16.392  0.0061  0.5877  0.3481
  891MPD2     H13062   0.388   2.396  16.627 -1.9145 -0.0679 -2.3954
  891MPD2    H113063   0.656   2.214  16.364 -0.3120  0.1409 -0.1010
  891MPD2    H213064   0.282   2.021  16.430  0.2613 -1.3166  1.5081
  891MPD2    H313065   0.497   2.031  16.327  0.0510 -1.3130  2.7397
  891MPD2     N13066   0.630   2.402  16.549 -0.1826 -0.1311  0.0034
  891MPD2    H513067   0.601   2.467  16.621 -1.1731 -0.1533 -0.3718
  891MPD2    N113068   0.185   2.236  16.592  0.0207  0.5443  0.7731
  891MPD2    H713069   0.176   2.330  16.631  3.0494  1.2620 -0.2637
  892MPD2     C13070   1.445   3.625  14.757 -0.5360  0.4304 -0.2491
  892MPD2    C113071   1.351   3.580  14.661  1.3654  0.2697  0.1524
  892MPD2    C213072   1.396   3.505  14.552 -0.0076 -0.7236 -0.4119
  892MPD2    C313073   1.528   3.479  14.528 -0.1252 -0.2378  0.2820
  892MPD2    C413074   1.617   3.533  14.616  0.3375 -0.6277  0.4228
  892MPD2    C513075   1.576   3.604  14.726 -0.2183 -0.0508 -0.5891
  892MPD2     H13076   1.319   3.474  14.482  1.4706  0.2583 -2.4783
  892MPD2    H113077   1.723   3.535  14.592  0.1604 -1.3579 -0.4484
  892MPD2    H213078   1.422   3.708  14.822 -1.7237 -1.1923  1.3865
  892MPD2    H313079   1.651   3.660  14.781 -0.8017  1.9835 -1.8547
  892MPD2     N13080   1.576   3.420  14.405  0.1204 -0.1706  0.4605
  892MPD2    H513081   1.676   3.412  14.392  0.1158  0.5343 -0.0454
  892MPD2    N113082   1.209   3.598  14.673  0.5316 -0.2490  0.3508
  892MPD2    H713083   1.150   3.564  14.598  0.6719 -0.0747  0.1601
  893MPD2     C13084   3.620   1.946   0.727 -0.1988  0.0249 -1.0221
  893MPD2    C113085   3.548   2.038   0.800  0.1078 -0.1153 -0.4064
  893MPD2    C213086   3.411   2.025   0.809  0.4735  0.1455 -0.3075
  893MPD2    C313087   3.345   1.931   0.735 -1.0276  0.7496 -0.9679
  893MPD2    C413088   3.425   1.839   0.668  0.2094  0.4371 -0.0643
  893MPD2    C513089   3.556   1.846   0.660  0.3801  0.3717  0.1168
  893MPD2     H13090   3.348   2.083   0.875  2.3381 -0.9152  2.4228
  893MPD2    H113091   3.385   1.757   0.611  0.0796 -0.9181  1.9607
  893MPD2    H213092   3.728   1.941   0.725 -0.1375 -0.1796  1.8095
  893MPD2    H313093   3.611   1.782   0.593  1.1496  0.4206  0.7039
  893MPD2     N13094   3.202   1.932   0.717 -0.4877  0.0313 -0.5026
  893MPD2    H513095   3.166   1.846   0.678 -1.0005  1.3778 -3.0158
  893MPD2    N113096   3.627   2.129   0.872 -0.2199  0.0631  0.6635
  893MPD2    H713097   3.727   2.116   0.860 -0.0308  0.9874  1.2440
  894MPD2     C13098   1.761   0.117   0.636 -0.0449  0.3364 -0.5830
  894MPD2    C113099   1.766   0.169   0.762 -0.6424 -0.4239 -0.0022
  894MPD2    C213100   1.860   0.263   0.794 -0.7436  0.3880  0.8319
  894MPD2    C313101   1.959   0.288   0.698  0.0481 -0.4957  0.3120
  894MPD2    C413102   1.957   0.236   0.570 -0.1551  0.2541 -0.1260
  894MPD2    C513103   1.849   0.150   0.536  0.6395  0.2010  0.0960
  894MPD2     H13104   1.866   0.312   0.891 -0.7706 -1.4955  1.7774
  894MPD2    H113105   2.030   0.251   0.491 -0.2405 -1.6441 -0.5554
  894MPD2    H213106   1.701   0.035   0.598 -1.0356  2.0984 -2.7763
  894MPD2    H313107   1.853   0.098   0.441 -2.8150 -1.2353  0.7297
  894MPD2     N13108   2.056   0.382   0.738  0.0068 -0.6911 -0.1218
  894MPD2    H513109   2.039   0.418   0.831  1.1454  0.5518 -0.3899
  894MPD2    N113110   1.672   0.125   0.855  0.5193  0.3200  0.2231
  894MPD2    H713111   1.677   0.164   0.949 -2.3146  1.0327  0.0732
  895MPD2     C13112   0.486   3.196  13.355 -0.0177 -0.1408  0.3261
  895MPD2    C113113   0.456   3.145  13.237 -0.5828 -0.6180  0.1598
  895MPD2    C213114   0.553   3.080  13.163 -0.5368 -0.4560  0.6220
  895MPD2    C313115   0.674   3.061  13.210  0.1807  0.8950  0.3782
  895MPD2    C413116   0.700   3.100  13.334  0.6867  0.3210 -1.1709
  895MPD2    C513117   0.607   3.166  13.407  0.6845  0.8520  0.5786
  895MPD2     H13118   0.531   3.060  13.059 -0.1817 -1.6938  0.7821
  895MPD2    H113119   0.799   3.082  13.377 -0.4793 -0.9601  0.9794
  895MPD2    H213120   0.417   3.246  13.422 -1.5238 -1.7511 -0.0048
  895MPD2    H313121   0.635   3.203  13.504 -1.8252  0.9600  1.2505
  895MPD2     N13122   0.766   2.996  13.125  0.2813 -0.3164  0.0415
  895MPD2    H513123   0.738   2.988  13.027  2.2191 -1.2585 -0.4392
  895MPD2    N113124   0.333   3.157  13.169  0.4320  0.6219  0.1199
  895MPD2    H713125   0.327   3.124  13.073 -0.5244  0.7615  0.1336
  896MPD2     C13126   3.631   0.108   1.935 -0.3618 -0.7698 -0.5070
  896MPD2    C113127   3.599   0.132   1.802  0.4069 -0.4146 -0.4396
  896MPD2    C213128   3.465   0.149   1.762  0.2506  0.6592  0.4409
  896MPD2    C313129   3.366   0.132   1.861  0.0353 -0.3687 -0.5539
  896MPD2    C413130   3.396   0.100   1.992 -0.1009  0.7892 -0.3786
  896MPD2    C513131   3.529   0.089   2.020  0.3443  1.0776  0.4063
  896MPD2     H13132   3.440   0.165   1.658  1.9572  0.0040 -0.0540
  896MPD2    H113133   3.324   0.087   2.072 -1.8114  0.8794 -1.9150
  896MPD2    H213134   3.732   0.092   1.971 -0.1733 -0.4669 -0.9001
  896MPD2    H313135   3.552   0.073   2.125 -2.1487 -0.7401  0.6643
  896MPD2     N13136   3.226   0.135   1.817 -0.1829 -0.5538 -0.2312
  896MPD2    H513137   3.208   0.158   1.720  0.0059 -2.9289 -0.8351
  896MPD2    N113138   3.707   0.147   1.705  0.1057 -0.2520 -0.0766
  896MPD2    H713139   3.800   0.121   1.735  0.0312  0.7985  1.1049
  897MPD2     C13140   3.700   2.199  10.300 -0.2425 -0.2779 -0.0427
  897MPD2    C113141   3.780   2.298  10.355  0.5620  0.4466 -0.4540
  897MPD2    C213142   3.729   2.425  10.361 -0.3534 -0.0823  0.1702
  897MPD2    C313143   3.600   2.459  10.322 -0.0976 -0.4959 -0.1559
  897MPD2    C413144   3.535   2.363  10.245 -0.4146  0.4853  0.2481
  897MPD2    C513145   3.585   2.236  10.241 -0.7114  0.4099  0.5754
  897MPD2     H13146   3.780   2.510  10.404  0.4481  0.7097 -2.3296
  897MPD2    H113147   3.444   2.382  10.189 -0.6744 -2.4873 -0.3509
  897MPD2    H213148   3.734   2.097  10.286  1.6945  0.4396 -0.7085
  897MPD2    H313149   3.524   2.169  10.182  1.6187 -1.6151  0.4791
  897MPD2     N13150   3.550   2.590  10.349  0.2241  0.0561  0.1530
  897MPD2    H513151   3.626   2.652  10.376  1.1114 -0.8582 -0.2461
  897MPD2    N113152   3.912   2.266  10.397  0.4981  0.5072 -0.4154
  897MPD2    H713153   3.945   2.170  10.397  1.9570  1.0126 -2.3859
  898MPD2     C13154   1.040   3.363  17.261  0.3045  0.6543 -0.9953
  898MPD2    C113155   1.131   3.334  17.159 -0.2826  0.7957  0.8672
  898MPD2    C213156   1.115   3.389  17.037  0.0282  0.5208 -0.0266
  898MPD2    C313157   1.007   3.474  17.012  0.2005  0.3984  0.2345
  898MPD2    C413158   0.918   3.502  17.114 -0.4946  0.5105 -0.4415
  898MPD2    C513159   0.941   3.452  17.238 -0.4886 -0.0034  0.6229
  898MPD2     H13160   1.172   3.363  16.949  1.1242  0.4642  0.6947
  898MPD2    H113161   0.827   3.558  17.098 -0.6980  0.6369  1.0921
  898MPD2    H213162   1.063   3.331  17.362 -1.2131  1.1750 -0.4754
  898MPD2    H313163   0.886   3.502  17.317  0.7438  1.3504  0.6338
  898MPD2     N13164   0.997   3.534  16.881  0.2488  0.2302  0.3562
  898MPD2    H513165   1.068   3.503  16.816  0.2041 -1.1712  0.9787
  898MPD2    N113166   1.247   3.250  17.176  0.3522  0.7756 -0.1637
  898MPD2    H713167   1.321   3.262  17.107 -1.0703  0.0718 -1.8340
  899MPD2     C13168   1.986   3.895  17.091  0.2641 -0.3330  0.2098
  899MPD2    C113169   2.064   3.930  17.201 -0.8112 -0.4840  0.6643
  899MPD2    C213170   2.014   3.904  17.325  0.1404 -0.4458 -0.2635
  899MPD2    C313171   1.893   3.845  17.343  0.1501 -0.7246 -0.6727
  899MPD2    C413172   1.821   3.808  17.234 -0.1829 -0.4153  0.6810
  899MPD2    C513173   1.865   3.837  17.108  0.2598 -0.2200  0.3218
  899MPD2     H13174   2.076   3.928  17.411  2.4905 -0.8076 -1.8945
  899MPD2    H113175   1.727   3.755  17.252 -1.3421  1.8560  1.3133
  899MPD2    H213176   2.018   3.907  16.988  0.2817 -0.8276  0.1586
  899MPD2    H313177   1.813   3.799  17.021 -0.5033  1.2505  0.1395
  899MPD2     N13178   1.838   3.827  17.477 -0.3219 -0.2428 -0.3413
  899MPD2    H513179   1.744   3.791  17.492  0.2047 -1.3779  0.2535
  899MPD2    N113180   2.186   4.004  17.180  0.0171 -0.1450 -0.4873
  899MPD2    H713181   2.194   4.045  17.087 -0.2492  1.9060  0.3979
  900MPD2     C13182   1.677   1.078  12.391 -0.2133  0.3297 -0.5884
  900MPD2    C113183   1.586   0.993  12.336 -0.3493  0.3671 -0.0998
  900MPD2    C213184   1.482   1.046  12.261 -0.1530  0.9415 -0.5442
  900MPD2    C313185   1.462   1.184  12.265  0.0485  0.2399  0.0770
  900MPD2    C413186   1.541   1.266  12.340 -0.8053  0.0836  0.7292
  900MPD2    C513187   1.644   1.210  12.411 -0.1895 -0.1752 -0.1926
  900MPD2     H13188   1.421   0.980  12.201  0.3091 -0.3734  0.4329
  900MPD2    H113189   1.520   1.371  12.352  0.6283  0.0976  3.2127
  900MPD2    H213190   1.763   1.037  12.442 -0.5889 -0.3391 -0.5064
  900MPD2    H313191   1.713   1.273  12.466  0.0759 -0.4024 -0.2691
  900MPD2     N13192   1.356   1.251  12.201 -0.7432  0.2102  0.3297
  900MPD2    H513193   1.327   1.341  12.237  0.4389  0.4746  0.6265
  900MPD2    N113194   1.625   0.857  12.342 -0.7491  0.1381 -0.5049
  900MPD2    H713195   1.720   0.837  12.371 -1.0017 -0.1805  0.0881
  901MPD2     C13196   1.413   4.595  12.783 -0.0750  0.7577 -0.1493
  901MPD2    C113197   1.506   4.571  12.680 -0.2145  0.5679 -0.6810
  901MPD2    C213198   1.559   4.683  12.615  0.3380  0.0376  0.1894
  901MPD2    C313199   1.505   0.085  12.636  0.3081 -0.5919  0.7748
  901MPD2    C413200   1.419   0.105  12.745 -0.3679  0.0244 -0.2638
  901MPD2    C513201   1.373   4.719  12.814  0.9627 -0.6216  0.1262
  901MPD2     H13202   1.625   4.671  12.530 -2.9356  0.1343 -2.3510
  901MPD2    H113203   1.385   0.201  12.782 -1.9296 -1.2655  1.6320
  901MPD2    H213204   1.361   4.522  12.843  2.8692  0.5392  2.1743
  901MPD2    H313205   1.312   0.008  12.904  0.1630  0.9696 -0.6031
  901MPD2     N13206   1.542   0.192  12.550  0.2639 -0.4067  0.0869
  901MPD2    H513207   1.622   0.182  12.488  0.3515 -1.4156  0.3488
  901MPD2    N113208   1.536   4.446  12.631  0.3186 -1.0364 -0.2498
  901MPD2    H713209   1.587   4.441  12.543 -0.9215  2.0615 -1.1474
  902MPD2     C13210   0.515   3.499  13.156 -0.5697 -0.4595 -0.5591
  902MPD2    C113211   0.434   3.516  13.047  0.0191 -0.1066  0.4253
  902MPD2    C213212   0.463   3.443  12.935  0.5739  0.4406 -0.1405
  902MPD2    C313213   0.573   3.360  12.923 -0.0726  0.5168 -0.1909
  902MPD2    C413214   0.664   3.357  13.031  0.1515 -0.3524  0.3100
  902MPD2    C513215   0.628   3.422  13.146 -0.4172 -0.1802 -0.1434
  902MPD2     H13216   0.407   3.459  12.843  0.2349 -1.8935 -0.3458
  902MPD2    H113217   0.748   3.288  13.032 -0.2702 -0.8568  0.9375
  902MPD2    H213218   0.499   3.564  13.242 -0.0105  1.9626 -2.2714
  902MPD2    H313219   0.692   3.422  13.234 -2.4850 -1.4740  1.3465
  902MPD2     N13220   0.591   3.297  12.793 -0.4194  0.2381 -0.4617
  902MPD2    H513221   0.683   3.260  12.770 -2.3012 -3.0019 -2.8713
  902MPD2    N113222   0.321   3.603  13.067  0.3748  0.0611  0.0746
  902MPD2    H713223   0.322   3.658  13.153 -2.2199  0.8911 -0.4137
  903MPD2     C13224   0.662   3.361  11.906 -0.0971 -0.2911  0.5435
  903MPD2    C113225   0.564   3.364  12.006 -0.3875 -0.5335  0.5098
  903MPD2    C213226   0.444   3.428  11.978 -0.7843  0.2286  0.2369
  903MPD2    C313227   0.421   3.462  11.847 -0.3818 -0.5557 -0.1508
  903MPD2    C413228   0.511   3.447  11.744  0.6457 -0.5337 -0.0601
  903MPD2    C513229   0.637   3.400  11.773  0.8283  0.4638  0.6592
  903MPD2     H13230   0.373   3.450  12.057 -1.0408  0.7971 -0.1600
  903MPD2    H113231   0.482   3.485  11.647 -1.7506 -0.3759  0.7247
  903MPD2    H213232   0.755   3.308  11.924  2.5360  3.7455 -1.2601
  903MPD2    H313233   0.720   3.393  11.704 -0.9379 -0.7189 -1.3362
  903MPD2     N13234   0.297   3.530  11.826 -0.5659 -0.6752  0.0485
  903MPD2    H513235   0.250   3.563  11.910  1.1644  3.0144 -0.4079
  903MPD2    N113236   0.590   3.316  12.138  0.0781 -0.1210 -0.6725
  903MPD2    H713237   0.687   3.290  12.152 -0.3890 -1.4204  0.1165
  904MPD2     C13238   0.423   2.633  13.132 -0.2126 -0.2245  0.1780
  904MPD2    C113239   0.387   2.509  13.190 -0.2001 -0.0461 -0.2002
  904MPD2    C213240   0.468   2.444  13.282  0.7775 -1.0037  0.3518
  904MPD2    C313241   0.592   2.501  13.326  0.0174 -0.3666 -0.0827
  904MPD2    C413242   0.617   2.634  13.273  0.0242  0.4910  0.0339
  904MPD2    C513243   0.535   2.694  13.187 -0.4840  0.2924  0.7348
  904MPD2     H13244   0.438   2.349  13.325 -1.1324 -1.5802 -2.2857
  904MPD2    H113245   0.694   2.706  13.299 -0.7897  1.0989  0.7355
  904MPD2    H213246   0.361   2.684  13.059 -0.4300 -1.9698 -0.8446
  904MPD2    H313247   0.551   2.796  13.154  1.4714 -0.7437 -1.4957
  904MPD2     N13248   0.673   2.431  13.413  0.1052 -0.3101  0.3456
  904MPD2    H513249   0.644   2.339  13.447 -0.4477  0.2091  1.2700
  904MPD2    N113250   0.284   2.427  13.145  0.1254  0.2474  0.6836
  904MPD2    H713251   0.279   2.332  13.180 -2.7992 -0.2143 -0.9701
  905MPD2     C13252   0.283   2.768  12.527 -0.5444  0.0196  0.3831
  905MPD2    C113253   0.301   2.817  12.657 -0.3488  0.1602 -0.1660
  905MPD2    C213254   0.423   2.839  12.710 -1.0810  0.6477 -0.1828
  905MPD2    C313255   0.531   2.786  12.639 -0.6086  0.3382 -0.8180
  905MPD2    C413256   0.523   2.734  12.508  0.3353 -0.2869  0.4418
  905MPD2    C513257   0.396   2.729  12.448  0.0194  0.6595  0.2132
  905MPD2     H13258   0.437   2.871  12.812 -2.3768  0.1012  0.1606
  905MPD2    H113259   0.613   2.700  12.457 -1.2310 -1.3656 -1.6073
  905MPD2    H213260   0.185   2.740  12.492  0.1450 -2.1871  0.1998
  905MPD2    H313261   0.378   2.699  12.345  0.0145 -2.1099  1.0221
  905MPD2     N13262   0.661   2.772  12.699  0.1445  0.9266  0.8647
  905MPD2    H513263   0.724   2.705  12.655  1.7954  2.0833  1.4337
  905MPD2    N113264   0.185   2.829  12.735 -0.5655 -0.5675 -0.0072
  905MPD2    H713265   0.101   2.786  12.698 -0.8849 -0.6241  0.7841
  906MPD2     C13266   2.598   2.018  11.147 -0.5886  0.0530  0.2840
  906MPD2    C113267   2.565   1.945  11.028  0.3240 -0.1569 -0.1547
  906MPD2    C213268   2.518   1.817  11.043 -0.7826  0.2728  0.5630
  906MPD2    C313269   2.495   1.756  11.166 -0.4177 -0.4504 -0.0188
  906MPD2    C413270   2.526   1.824  11.276 -0.2415  0.6665  0.3193
  906MPD2    C513271   2.570   1.956  11.267  0.0351  0.4745  0.3298
  906MPD2     H13272   2.503   1.762  10.951 -1.5196  0.0323  0.8237
  906MPD2    H113273   2.520   1.776  11.373 -3.1799 -2.2842 -1.3036
  906MPD2    H213274   2.635   2.120  11.148  1.3799 -0.6570  0.4465
  906MPD2    H313275   2.600   2.014  11.353  2.1420  2.2252 -1.5831
  906MPD2     N13276   2.451   1.625  11.179 -0.1971  0.3014 -0.6455
  906MPD2    H513277   2.452   1.581  11.270 -0.4086  0.0941 -0.7445
  906MPD2    N113278   2.575   2.000  10.899  0.9515  0.0541 -0.4421
  906MPD2    H713279   2.552   1.931  10.829 -1.8008 -0.1714  0.7215
  907MPD2     C13280   1.991   1.679  15.339  0.4911 -0.4794 -1.0232
  907MPD2    C113281   2.002   1.546  15.374  0.0838 -0.3626 -0.3236
  907MPD2    C213282   2.089   1.502  15.472  0.1394  0.1206 -0.2042
  907MPD2    C313283   2.181   1.587  15.514  0.1158 -0.0214  0.2969
  907MPD2    C413284   2.178   1.722  15.479  0.5731 -0.4109  0.1510
  907MPD2    C513285   2.077   1.766  15.398 -0.0193  1.2011  0.6595
  907MPD2     H13286   2.091   1.399  15.504  0.2889  0.5138  1.0501
  907MPD2    H113287   2.237   1.795  15.534 -0.6326 -1.4806  2.8596
  907MPD2    H213288   1.913   1.712  15.271  0.5394  0.9674 -0.3826
  907MPD2    H313289   2.078   1.872  15.376 -2.7356  1.0754 -0.0887
  907MPD2     N13290   2.275   1.537  15.607  0.2553 -0.8564 -0.4287
  907MPD2    H513291   2.261   1.439  15.629 -1.7045 -0.0574  1.9304
  907MPD2    N113292   1.901   1.454  15.316 -0.2178  0.3256 -0.0965
  907MPD2    H713293   1.841   1.501  15.249  1.3573  0.0430 -1.6911
  908MPD2     C13294   4.337   1.538  10.311  0.2223 -0.1409  0.4310
  908MPD2    C113295   4.322   1.635  10.220  0.2759  0.6951 -0.4815
  908MPD2    C213296   4.278   1.759  10.259  0.2071  1.0806  0.4018
  908MPD2    C313297   4.281   1.781  10.396 -0.1260  0.4773  0.2166
  908MPD2    C413298   4.290   1.679  10.488 -0.4771 -0.4502 -0.8957
  908MPD2    C513299   4.313   1.557  10.444 -0.2286  0.2798 -0.2808
  908MPD2     H13300   4.259   1.835  10.185 -1.3049  1.4457  1.1550
  908MPD2    H113301   4.284   1.690  10.596  0.8136  1.2457 -0.9979
  908MPD2    H213302   4.355   1.434  10.288  2.8846  0.0489  1.6667
  908MPD2    H313303   4.334   1.479  10.517  2.6147 -0.6015 -2.0435
  908MPD2     N13304   4.250   1.909  10.432  0.3447  0.3831 -0.2167
  908MPD2    H513305   4.216   1.971  10.359 -2.8100 -2.0424 -0.7978
  908MPD2    N113306   4.369   1.601  10.088 -0.6454  0.0031 -0.7802
  908MPD2    H713307   4.390   1.503  10.071 -1.4955 -0.5790  1.6101
  909MPD2     C13308   4.375   4.605  12.030 -0.1413  0.1858  0.1012
  909MPD2    C113309   4.383   4.708  11.946 -0.2852  0.1023  0.3293
  909MPD2    C213310   4.304   0.102  11.963  0.2115  0.4154 -0.2574
  909MPD2    C313311   4.212   0.095  12.073  0.0473  0.3071 -0.6127
  909MPD2    C413312   4.212   4.708  12.162 -0.1681 -0.3313 -1.2951
  909MPD2    C513313   4.294   4.604  12.140 -0.8573 -0.2474 -0.1011
  909MPD2     H13314   4.305   0.186  11.895  0.9839  0.0602 -0.6908
  909MPD2    H113315   4.151   4.710  12.251  0.6015 -3.2729 -0.7192
  909MPD2    H213316   4.430   4.512  12.018  0.8256  0.7045  0.5707
  909MPD2    H313317   4.277   4.512  12.194 -1.7314 -0.6737 -1.1019
  909MPD2     N13318   4.117   0.203  12.085  0.3017  0.1109  0.2103
  909MPD2    H513319   4.123   0.276  12.015 -0.0406 -0.8143 -0.7692
  909MPD2    N113320   4.474   4.708  11.839  0.8952 -0.1070  0.3817
  909MPD2    H713321   4.481   0.076  11.792 -0.5929 -0.7847 -1.1188
  910MPD2     C13322   0.889   1.710  15.337  0.2085  0.5555 -0.0132
  910MPD2    C113323   1.007   1.704  15.262  1.4529 -0.4343 -0.3689
  910MPD2    C213324   1.000   1.745  15.131 -0.2141  0.2073  0.0731
  910MPD2    C313325   0.892   1.804  15.074  0.2178  0.6564 -0.5122
  910MPD2    C413326   0.776   1.805  15.153  0.1760  0.0611 -0.0557
  910MPD2    C513327   0.780   1.767  15.284  0.2331 -0.9701  0.1364
  910MPD2     H13328   1.083   1.729  15.064 -0.0790  0.0682  0.2729
  910MPD2    H113329   0.678   1.840  15.122 -0.5672 -1.3256  0.7118
  910MPD2    H213330   0.892   1.666  15.436  1.3949 -0.7410 -0.6111
  910MPD2    H313331   0.683   1.768  15.332  0.0485  1.8350 -0.3200
  910MPD2     N13332   0.872   1.818  14.930 -0.0429  0.4146 -0.4137
  910MPD2    H513333   0.774   1.830  14.905 -1.0193  0.2982  3.2639
  910MPD2    N113334   1.129   1.666  15.318  0.5111 -0.6607 -0.5142
  910MPD2    H713335   1.202   1.668  15.248  3.3500 -1.7697  2.4147
  911MPD2     C13336   3.760   1.154  15.862  0.0914 -0.2014  0.3306
  911MPD2    C113337   3.781   1.271  15.933 -0.1820  0.1491 -0.1813
  911MPD2    C213338   3.716   1.387  15.893  0.3548  0.0197 -0.7419
  911MPD2    C313339   3.626   1.380  15.787 -0.6008  0.5275  0.0896
  911MPD2    C413340   3.615   1.262  15.715 -0.4482 -0.3728  0.4182
  911MPD2    C513341   3.683   1.156  15.752  0.3944  0.1571 -0.4592
  911MPD2     H13342   3.717   1.475  15.957  0.3928 -0.9368  0.5683
  911MPD2    H113343   3.542   1.259  15.635 -0.5574  1.2675  0.4463
  911MPD2    H213344   3.812   1.064  15.893  1.1446  0.6852  1.1653
  911MPD2    H313345   3.684   1.066  15.692 -0.2977  0.8846 -1.5625
  911MPD2     N13346   3.543   1.492  15.753  0.0157  0.3715 -0.5345
  911MPD2    H513347   3.465   1.477  15.690 -0.5219  0.4043  0.1247
  911MPD2    N113348   3.861   1.259  16.048  0.4365  0.4100 -0.3264
  911MPD2    H713349   3.903   1.169  16.069  1.9238  1.0650 -0.4532
  912MPD2     C13350   2.732   1.793  15.850  0.6906  0.5780  0.0785
  912MPD2    C113351   2.829   1.715  15.893  0.6907  0.6858 -0.2357
  912MPD2    C213352   2.811   1.634  16.005  0.1399  0.3736 -0.8340
  912MPD2    C313353   2.692   1.638  16.078  0.5071  0.4265  0.1641
  912MPD2    C413354   2.592   1.724  16.032  0.3826 -0.3101 -0.2306
  912MPD2    C513355   2.614   1.795  15.917  0.8800  0.1475 -0.0791
  912MPD2     H13356   2.891   1.566  16.031 -0.3089 -0.0457 -0.5508
  912MPD2    H113357   2.491   1.736  16.070 -0.5688  0.0534 -2.8163
  912MPD2    H213358   2.739   1.864  15.768  0.7966 -1.4210 -1.6382
  912MPD2    H313359   2.535   1.864  15.891  2.5584  2.2203  0.4028
  912MPD2     N13360   2.679   1.560  16.207  0.3034  0.3726 -0.0334
  912MPD2    H513361   2.755   1.504  16.247  1.6006  0.2455 -2.6596
  912MPD2    N113362   2.959   1.734  15.838  0.0282 -0.2473  0.0951
  912MPD2    H713363   2.975   1.802  15.765 -0.5799 -1.5023 -1.2157
  913MPD2     C13364   3.523   3.868   9.966 -0.0402  0.8332  0.0991
  913MPD2    C113365   3.601   3.967  10.014  0.1878  0.1664 -0.1192
  913MPD2    C213366   3.631   4.074   9.926 -0.3264  0.0144 -0.7509
  913MPD2    C313367   3.584   4.067   9.794 -0.7101 -0.1350 -0.7088
  913MPD2    C413368   3.500   3.969   9.763  0.5663  0.3805  0.1113
  913MPD2    C513369   3.458   3.871   9.845 -0.9662 -0.2881 -0.2340
  913MPD2     H13370   3.686   4.161   9.959  0.2636 -0.9332  0.7419
  913MPD2    H113371   3.460   3.966   9.662  0.9143  1.1029 -0.0495
  913MPD2    H213372   3.484   3.790  10.031  1.2595 -1.3694 -1.7503
  913MPD2    H313373   3.390   3.791   9.819 -0.1552 -1.1823  0.3731
  913MPD2     N13374   3.614   4.162   9.694  0.3450 -0.0341  0.1241
  913MPD2    H513375   3.569   4.144   9.604  0.0285 -3.1257  0.8802
  913MPD2    N113376   3.644   3.962  10.147  0.3718  0.1601 -0.0216
  913MPD2    H713377   3.609   3.888  10.207  1.6003 -0.2716  0.1622
  914MPD2     C13378   1.696   4.367  11.808  0.6188  0.6397 -0.9150
  914MPD2    C113379   1.695   4.467  11.903 -0.6645 -0.1926 -0.0555
  914MPD2    C213380   1.680   4.430  12.035  0.5404  0.1485 -0.5327
  914MPD2    C313381   1.675   4.295  12.071 -0.6688 -0.8461 -0.1079
  914MPD2    C413382   1.690   4.198  11.970 -0.0230  0.2317  0.0962
  914MPD2    C513383   1.696   4.237  11.845 -0.1560 -0.2771 -0.2481
  914MPD2     H13384   1.656   4.511  12.103 -2.4182 -0.9652 -0.2094
  914MPD2    H113385   1.672   4.093  11.991  1.4543  0.1104  0.7907
  914MPD2    H213386   1.690   4.386  11.701 -1.9414 -1.7749 -1.2101
  914MPD2    H313387   1.694   4.160  11.769  1.9259  0.1876 -0.7905
  914MPD2     N13388   1.663   4.258  12.206 -0.8105 -0.0040  0.0381
  914MPD2    H513389   1.638   4.334  12.268  0.0519 -0.4234  0.8913
  914MPD2    N113390   1.710   4.599  11.863  0.0972 -0.0096 -0.3930
  914MPD2    H713391   1.695   4.613  11.763  0.0904  1.2721 -0.2141
  915MPD2     C13392   4.229   3.467  15.722 -0.5192 -0.3074  0.0672
  915MPD2    C113393   4.209   3.572  15.634 -0.3121 -0.3052  0.3717
  915MPD2    C213394   4.240   3.699  15.676 -0.0020 -0.8033  0.0389
  915MPD2    C313395   4.311   3.719  15.793  0.0994  0.8002 -0.2658
  915MPD2    C413396   4.346   3.610  15.874  0.0479 -0.1475 -1.3808
  915MPD2    C513397   4.300   3.484  15.836  0.9599 -0.4410 -0.0777
  915MPD2     H13398   4.213   3.787  15.619  1.3979 -0.6476 -0.4038
  915MPD2    H113399   4.384   3.611  15.976 -2.1413  1.4801 -0.5845
  915MPD2    H213400   4.219   3.363  15.694  0.1501 -1.8049  5.4225
  915MPD2    H313401   4.333   3.403  15.899  0.3499 -1.7856 -1.4961
  915MPD2     N13402   4.352   3.851  15.822  0.1836 -0.8137 -0.1470
  915MPD2    H513403   4.330   3.919  15.749 -1.3048  0.6664  1.6665
  915MPD2    N113404   4.149   3.538  15.507 -0.5049  0.3115  0.1742
  915MPD2    H713405   4.139   3.441  15.480 -0.4522  0.0562  1.0576
  916MPD2     C13406   2.894   2.510  15.216 -0.2270  0.2800  0.0125
  916MPD2    C113407   2.831   2.405  15.287  0.4736 -0.0527 -0.1959
  916MPD2    C213408   2.849   2.272  15.259 -0.1486 -0.3770  0.1961
  916MPD2    C313409   2.929   2.244  15.147 -0.0578  0.8221 -0.5002
  916MPD2    C413410   2.992   2.345  15.072  0.4411 -0.5077 -0.2370
  916MPD2    C513411   2.966   2.482  15.105 -0.6230  0.5452  0.1905
  916MPD2     H13412   2.821   2.193  15.328 -1.8174  1.4242  1.5897
  916MPD2    H113413   3.067   2.334  14.995  1.3709  1.9775  0.2976
  916MPD2    H213414   2.888   2.616  15.240 -2.2065 -0.1392  1.3476
  916MPD2    H313415   3.003   2.562  15.041 -0.6419  0.1982 -0.2591
  916MPD2     N13416   2.970   2.108  15.138 -0.1623  0.3633  0.1589
  916MPD2    H513417   2.929   2.047  15.208  0.1407 -0.5176 -0.4255
  916MPD2    N113418   2.763   2.448  15.401  0.0261 -0.5328 -0.3601
  916MPD2    H713419   2.773   2.547  15.422  1.3519 -0.0596 -3.2951
  917MPD2     C13420   3.213   4.475  10.739  0.2567 -0.3448 -0.1553
  917MPD2    C113421   3.258   4.554  10.833 -0.0734 -0.0258 -0.2653
  917MPD2    C213422   3.366   4.633  10.812 -0.2829  0.2256  0.3139
  917MPD2    C313423   3.420   4.645  10.681  0.0202 -0.4382 -0.2196
  917MPD2    C413424   3.367   4.577  10.577  0.2113 -0.0561  0.1936
  917MPD2    C513425   3.266   4.490  10.612  0.3513  0.0282 -0.2828
  917MPD2     H13426   3.416   4.686  10.892 -0.6713 -0.4517  1.0064
  917MPD2    H113427   3.402   4.592  10.475  0.5595  1.2658  0.5083
  917MPD2    H213428   3.135   4.401  10.754  1.5664 -1.4238  1.2665
  917MPD2    H313429   3.217   4.432  10.534 -0.0277 -0.0139 -0.0151
  917MPD2     N13430   3.528   0.010  10.660  0.8999 -0.3743 -0.3327
  917MPD2    H513431   3.559   0.069  10.737 -0.0657  0.9889 -0.9815
  917MPD2    N113432   3.209   4.537  10.963 -0.0418  0.1305  0.2732
  917MPD2    H713433   3.133   4.470  10.964 -0.4061  0.4627 -3.8026
  918MPD2     C13434   2.903   0.318  11.858  0.2584  1.0460 -0.0883
  918MPD2    C113435   3.026   0.254  11.852  0.0583  0.5130 -0.3050
  918MPD2    C213436   3.064   0.178  11.744 -1.0349 -0.4930 -0.2926
  918MPD2    C313437   2.973   0.146  11.652  0.3801  0.3652  0.7225
  918MPD2    C413438   2.845   0.198  11.650 -0.3210 -0.4527  0.3046
  918MPD2    C513439   2.812   0.290  11.755  0.0897 -0.5521 -0.1731
  918MPD2     H13440   3.157   0.122  11.748 -0.1398  1.0774  0.9540
  918MPD2    H113441   2.771   0.169  11.577 -0.0573 -0.7223  0.1422
  918MPD2    H213442   2.881   0.382  11.943  1.0504 -0.2123  1.0572
  918MPD2    H313443   2.714   0.337  11.760 -0.7468 -2.2689 -0.5886
  918MPD2     N13444   3.002   0.053  11.555 -0.0610 -0.1055 -0.2968
  918MPD2    H513445   2.926   0.026  11.493  0.5539  0.4949 -1.3159
  918MPD2    N113446   3.129   0.274  11.945  0.0279 -0.1287 -0.2966
  918MPD2    H713447   3.221   0.240  11.918  0.1955  0.0128  0.0862
  919MPD2     C13448   3.630   4.003  11.502 -0.4325 -0.1857  0.1457
  919MPD2    C113449   3.537   3.905  11.523 -0.4264 -0.7677 -0.3089
  919MPD2    C213450   3.466   3.864  11.415 -0.1789 -0.3779  0.3638
  919MPD2    C313451   3.471   3.930  11.291  0.0267  0.3907  0.4652
  919MPD2    C413452   3.565   4.034  11.279  0.0160  0.0429  0.2323
  919MPD2    C513453   3.640   4.068  11.385  0.6487 -0.2727  0.1293
  919MPD2     H13454   3.402   3.778  11.424  0.7028 -0.6293  4.2837
  919MPD2    H113455   3.581   4.081  11.183  1.6234  0.3713  0.6695
  919MPD2    H213456   3.694   4.041  11.581  0.2353 -0.3800 -0.3098
  919MPD2    H313457   3.724   4.134  11.367  1.6978 -1.6490 -0.0577
  919MPD2     N13458   3.396   3.892  11.184  0.1887  0.0322 -0.3015
  919MPD2    H513459   3.418   3.942  11.098 -0.3891 -0.5239 -0.7710
  919MPD2    N113460   3.516   3.840  11.644  0.3936 -0.3354 -0.1615
  919MPD2    H713461   3.458   3.757  11.638 -1.2990  1.1395 -4.4257
  920MPD2     C13462   3.277   3.784  10.207  0.7354  1.0958  0.7290
  920MPD2    C113463   3.182   3.690  10.262  0.1994  0.4610  0.0722
  920MPD2    C213464   3.175   3.670  10.400  0.1876  0.3865 -0.1277
  920MPD2    C313465   3.253   3.754  10.480 -0.6312  0.4580  0.0246
  920MPD2    C413466   3.332   3.854  10.423  0.0723 -0.5096 -0.7481
  920MPD2    C513467   3.339   3.871  10.287  0.3836 -0.1718  0.0173
  920MPD2     H13468   3.104   3.599  10.442 -0.0983 -0.7856 -2.5829
  920MPD2    H113469   3.369   3.938  10.481 -1.4139 -0.0508 -0.4814
  920MPD2    H213470   3.284   3.790  10.099 -1.5217 -2.6856  0.3702
  920MPD2    H313471   3.394   3.954  10.245 -0.2503 -0.4358 -1.3410
  920MPD2     N13472   3.261   3.724  10.618  0.2031 -0.0294  0.8216
  920MPD2    H513473   3.231   3.632  10.648  0.3280 -0.5969 -0.7760
  920MPD2    N113474   3.084   3.625  10.186 -0.0233  0.3499  0.9979
  920MPD2    H713475   3.016   3.574  10.242  0.1183 -0.9017  0.0294
  921MPD2     C13476   4.029   2.050  16.461  0.5336  0.9333 -0.0457
  921MPD2    C113477   4.141   1.981  16.513 -0.3972  0.4053  0.0593
  921MPD2    C213478   4.134   1.844  16.526 -0.4906 -0.6330 -0.4036
  921MPD2    C313479   4.019   1.774  16.479  0.4977 -0.3188  0.4590
  921MPD2    C413480   3.913   1.851  16.438 -0.2131 -0.7632  0.3809
  921MPD2    C513481   3.917   1.980  16.427 -0.0984 -0.2049 -0.1333
  921MPD2     H13482   4.211   1.787  16.577  0.2263  1.1979  0.5766
  921MPD2    H113483   3.811   1.819  16.416  0.1061  0.4634 -2.8599
  921MPD2    H213484   4.030   2.158  16.450 -0.4911  1.0623  1.0979
  921MPD2    H313485   3.831   2.038  16.394  0.0457 -0.3830 -0.8101
  921MPD2     N13486   3.998   1.630  16.473 -0.0594  0.4546  0.4109
  921MPD2    H513487   3.911   1.595  16.435 -0.0339  0.5514  0.2608
  921MPD2    N113488   4.250   2.063  16.545  0.5854  0.2351  0.3981
  921MPD2    H713489   4.251   2.162  16.524  0.1428 -0.3104 -2.1862
  922MPD2     C13490   1.054   4.641  17.518  0.4164  0.2818  0.3098
  922MPD2    C113491   1.046   4.688  17.386 -0.3542 -0.2374  0.5918
  922MPD2    C213492   0.930   4.671  17.315  0.2240  0.3861  0.4932
  922MPD2    C313493   0.816   4.615  17.367 -0.8311  0.6605  0.2683
  922MPD2    C413494   0.826   4.578  17.496  0.3125  0.2587 -0.0783
  922MPD2    C513495   0.940   4.584  17.565  0.5855 -0.4552 -0.6113
  922MPD2     H13496   0.907   0.003  17.223  1.3565  1.0218  0.5721
  922MPD2    H113497   0.738   4.550  17.553 -0.7521  2.6125 -0.5720
  922MPD2    H213498   1.128   4.665  17.592  1.5895  1.6037 -1.2939
  922MPD2    H313499   0.949   4.541  17.665  0.8351  1.5658  0.2397
  922MPD2     N13500   0.705   4.610  17.286 -0.1783  0.1378  0.6166
  922MPD2    H513501   0.724   4.643  17.192  0.1100 -0.9054  0.3129
  922MPD2    N113502   1.154   0.030  17.317  0.4010  0.5066 -0.7276
  922MPD2    H713503   1.124   0.094  17.244  1.7057  2.2010  0.2355
  923MPD2     C13504   1.823   1.198   8.901 -0.8490 -0.6405 -0.3837
  923MPD2    C113505   1.829   1.283   9.010 -0.0704  0.0282 -0.5915
  923MPD2    C213506   1.938   1.372   9.022  0.6164 -0.1119  0.5560
  923MPD2    C313507   2.031   1.370   8.917 -0.0757  0.3030 -0.3979
  923MPD2    C413508   2.017   1.281   8.814  0.4702 -0.9017 -0.1111
  923MPD2    C513509   1.915   1.193   8.807  0.3898  0.4315  0.5559
  923MPD2     H13510   1.944   1.444   9.103 -0.5381  0.0927  0.4641
  923MPD2    H113511   2.090   1.280   8.733  2.1603 -2.1543  1.4487
  923MPD2    H213512   1.740   1.130   8.885 -2.2868  1.4743 -1.9777
  923MPD2    H313513   1.898   1.138   8.716 -1.4321 -2.0434  2.3778
  923MPD2     N13514   2.157   1.429   8.929  0.7904 -0.2433 -0.1819
  923MPD2    H513515   2.232   1.404   8.865 -0.2898  0.6538 -1.7793
  923MPD2    N113516   1.727   1.279   9.110  0.5572  0.2117  0.0907
  923MPD2    H713517   1.664   1.200   9.117  0.8027 -0.1136 -1.2483
  924MPD2     C13518   2.479   0.957  15.399 -0.3437  0.0841 -0.2230
  924MPD2    C113519   2.437   0.949  15.531  0.6733  0.1582  0.1112
  924MPD2    C213520   2.486   1.041  15.619  0.4737  0.0348  0.3787
  924MPD2    C313521   2.575   1.142  15.583  0.2560  0.0030  0.1680
  924MPD2    C413522   2.612   1.158  15.447 -0.3850 -0.5307  0.3979
  924MPD2    C513523   2.557   1.067  15.359 -0.0307  0.0731  0.1204
  924MPD2     H13524   2.445   1.040  15.720  3.4474 -1.4672  1.5837
  924MPD2    H113525   2.678   1.238  15.416  0.1839 -0.7094  1.1354
  924MPD2    H213526   2.469   0.877  15.327  1.2822  0.0228 -0.3847
  924MPD2    H313527   2.600   1.075  15.260  0.4601 -0.1872  0.3108
  924MPD2     N13528   2.624   1.243  15.666  0.1443  0.3017  0.6529
  924MPD2    H513529   2.663   1.318  15.610 -0.4760  2.4027  3.0054
  924MPD2    N113530   2.352   0.854  15.583  0.2221  0.2422  0.9203
  924MPD2    H713531   2.327   0.865  15.681 -2.4585  0.1605  0.2653
  925MPD2     C13532   0.217   3.065  14.748  0.2261 -0.1393  0.3960
  925MPD2    C113533   0.091   3.071  14.683  0.9536 -0.1068 -0.1098
  925MPD2    C213534   4.702   3.023  14.754  0.3794 -0.5423  0.4192
  925MPD2    C313535   4.713   2.987  14.891 -0.1915 -0.2713  0.7595
  925MPD2    C413536   0.119   2.976  14.949 -0.7696 -0.7286  0.0145
  925MPD2    C513537   0.219   3.029  14.881  0.4087  0.6565  1.3557
  925MPD2     H13538   4.606   3.017  14.704  0.4043  2.0784  0.0485
  925MPD2    H113539   0.139   2.946  15.051  2.1453 -1.9806 -0.9346
  925MPD2    H213540   0.310   3.101  14.706  0.6959 -1.2199  0.5326
  925MPD2    H313541   0.316   3.040  14.929 -0.3238  1.3657  2.6417
  925MPD2     N13542   4.602   2.943  14.960  1.1204  0.2390  0.7529
  925MPD2    H513543   4.624   2.895  15.047 -1.4153 -0.5076  0.9811
  925MPD2    N113544   0.069   3.114  14.554  0.0378 -0.4146  0.1692
  925MPD2    H713545   4.695   3.112  14.517  0.2530  3.2689 -0.5986
  926MPD2     C13546   4.014   1.912  12.325  0.0283 -0.1012  0.5781
  926MPD2    C113547   3.890   1.872  12.281 -0.4961 -0.3564 -0.1507
  926MPD2    C213548   3.842   1.918  12.159  0.9343  0.1656  0.3696
  926MPD2    C313549   3.926   1.996  12.076  0.1104 -0.1521  0.4702
  926MPD2    C413550   4.052   2.015  12.121  0.3425 -0.8326  0.0074
  926MPD2    C513551   4.095   1.980  12.242  0.5691  0.1492 -0.0400
  926MPD2     H13552   3.739   1.897  12.132  1.5237 -1.5111 -0.5936
  926MPD2    H113553   4.130   2.052  12.055 -1.9281  0.4302 -1.9778
  926MPD2    H213554   4.050   1.891  12.425 -3.1590 -2.1495  1.2724
  926MPD2    H313555   4.194   1.988  12.284  0.3365  0.5485  0.4309
  926MPD2     N13556   3.884   2.066  11.955 -0.1126  0.4012 -0.0801
  926MPD2    H513557   3.946   2.136  11.914  2.3233 -0.3212  2.3639
  926MPD2    N113558   3.797   1.809  12.361 -0.5567 -0.0650 -0.0289
  926MPD2    H713559   3.708   1.785  12.318  0.1400 -0.5330 -1.2174
  927MPD2     C13560   4.310   3.751   0.063 -0.0301  0.0012  0.1272
  927MPD2    C113561   4.192   3.798   0.013  0.5065  0.6397  0.0739
  927MPD2    C213562   4.170   3.793  17.565  0.1516 -0.0293 -0.2300
  927MPD2    C313563   4.256   3.726  17.476  0.6083 -0.2153  0.3545
  927MPD2    C413564   4.371   3.679  17.526 -0.1394 -0.5364 -0.5372
  927MPD2    C513565   4.394   3.688  17.660  0.2585  0.1120  0.4015
  927MPD2     H13566   4.078   3.825  17.518 -0.3727 -1.0025  0.1396
  927MPD2    H113567   4.442   3.626  17.464  1.1168 -1.2258  1.4635
  927MPD2    H213568   4.339   3.735   0.166  0.1272 -0.6405 -0.0197
  927MPD2    H313569   4.480   3.637   0.017  1.4161  1.6963 -0.0233
  927MPD2     N13570   4.213   3.723  17.347 -0.1827 -0.2741 -0.5064
  927MPD2    H513571   4.123   3.760  17.320 -0.0645  1.2206  1.1353
  927MPD2    N113572   4.107   3.861   0.109 -0.0998 -0.4130  0.5790
  927MPD2    H713573   4.130   3.847   0.207  2.1455  1.0289  0.2423
  928MPD2     C13574   1.211   3.047   0.948  0.7335  0.4372 -0.2899
  928MPD2    C113575   1.335   3.108   0.965  0.2254  0.3554  0.2630
  928MPD2    C213576   1.442   3.079   0.890  0.5200 -0.0130  0.4009
  928MPD2    C313577   1.433   2.981   0.793 -0.2156  0.0816 -0.5710
  928MPD2    C413578   1.313   2.920   0.778 -0.1384  0.4781 -0.1993
  928MPD2    C513579   1.204   2.950   0.856  0.3784 -0.0918 -0.1269
  928MPD2     H13580   1.536   3.127   0.915 -1.0214  2.6009  1.1379
  928MPD2    H113581   1.293   2.850   0.698  0.4515 -0.4481  0.4599
  928MPD2    H213582   1.125   3.067   1.010  0.5898 -0.4692 -0.2032
  928MPD2    H313583   1.112   2.894   0.848  0.7036 -0.5267 -0.8953
  928MPD2     N13584   1.538   2.932   0.714  0.2108 -0.2494 -0.2716
  928MPD2    H513585   1.513   2.858   0.650 -1.4302 -0.2936  0.4340
  928MPD2    N113586   1.327   3.210   1.059  0.2255  0.1291 -0.6949
  928MPD2    H713587   1.239   3.239   1.101  0.2117 -0.8485 -0.0445
  929MPD2     C13588   2.258   1.923  10.115 -0.3034  0.1399  0.0302
  929MPD2    C113589   2.143   1.880  10.178  0.9600  0.7653 -0.2745
  929MPD2    C213590   2.026   1.908  10.117  0.4789  0.1095  0.5223
  929MPD2    C313591   2.016   1.980  10.000 -0.4069  0.2795 -0.1497
  929MPD2    C413592   2.131   2.019   9.944  0.3784  0.8657 -0.7533
  929MPD2    C513593   2.250   1.983   9.994  0.5147  0.1643  0.5300
  929MPD2     H13594   1.942   1.903  10.186  1.8627 -1.6256  2.0915
  929MPD2    H113595   2.129   2.063   9.845 -2.3802 -0.0018 -1.0831
  929MPD2    H213596   2.354   1.907  10.163 -0.2913  2.1273  0.6750
  929MPD2    H313597   2.345   2.014   9.951  0.7410  1.0437  1.6716
  929MPD2     N13598   1.886   2.025   9.953 -0.7702  0.6676  0.9419
  929MPD2    H513599   1.888   2.094   9.879 -0.9445 -0.5753 -0.2303
  929MPD2    N113600   2.153   1.819  10.307  0.6528  0.0252  0.8383
  929MPD2    H713601   2.245   1.815  10.350  0.6517  0.9535  0.9347
  930MPD2     C13602   3.271   0.079  14.360 -0.4966 -0.5131  0.6603
  930MPD2    C113603   3.253   0.025  14.236  0.9042 -0.8586  0.3316
  930MPD2    C213604   3.204   4.619  14.212 -0.7829  0.8498 -0.8160
  930MPD2    C313605   3.156   4.550  14.323  0.0711 -0.0066  0.2109
  930MPD2    C413606   3.168   4.607  14.450  0.3212  0.4133 -0.1261
  930MPD2    C513607   3.225   0.008  14.465  0.3614  0.3504  0.0524
  930MPD2     H13608   3.199   4.571  14.114 -0.3564  0.6454 -0.7391
  930MPD2    H113609   3.149   4.549  14.539  0.7949  0.3570 -0.0637
  930MPD2    H213610   3.319   0.176  14.374  2.8526 -1.9122 -1.2336
  930MPD2    H313611   3.231   0.049  14.565  0.7835 -0.6121  0.4273
  930MPD2     N13612   3.101   4.423  14.299 -0.1194  0.1952 -0.1520
  930MPD2    H513613   3.088   4.394  14.203  1.1830  0.5970 -0.4545
  930MPD2    N113614   3.304   0.098  14.125  0.3243  0.2775 -0.0597
  930MPD2    H713615   3.352   0.182  14.157 -2.3237  0.8529  2.4071
  931MPD2     C13616   3.464   3.830   0.667  0.0829  0.5408 -0.0416
  931MPD2    C113617   3.597   3.813   0.645  0.6266 -0.1547  0.6950
  931MPD2    C213618   3.670   3.740   0.731 -0.2281  0.6758  0.4436
  931MPD2    C313619   3.618   3.705   0.854 -0.2230  0.2778  0.1398
  931MPD2    C413620   3.482   3.723   0.879 -0.2193  0.8240 -0.1182
  931MPD2    C513621   3.406   3.780   0.785  0.1629 -0.6321  0.4095
  931MPD2     H13622   3.778   3.753   0.723 -0.0100 -3.0559 -2.3409
  931MPD2    H113623   3.444   3.696   0.977 -0.2191  2.1976  0.2495
  931MPD2    H213624   3.399   3.880   0.596 -0.2288 -0.7310 -0.6554
  931MPD2    H313625   3.303   3.803   0.810  0.2361  1.2179 -1.0303
  931MPD2     N13626   3.703   3.664   0.957  0.3401 -0.2247 -0.6129
  931MPD2    H513627   3.658   3.639   1.045  0.4449 -0.4880 -0.6329
  931MPD2    N113628   3.662   3.876   0.533 -1.0550  0.1355 -1.0953
  931MPD2    H713629   3.607   3.932   0.469 -1.0780  0.2955 -0.9356
  932MPD2     C13630   0.665   3.279  11.435  0.1418  0.4140 -0.3541
  932MPD2    C113631   0.783   3.236  11.389  0.2101  0.1132 -0.1909
  932MPD2    C213632   0.797   3.097  11.372  0.2897 -0.3388 -0.6743
  932MPD2    C313633   0.706   3.012  11.425 -0.6251 -0.4548  1.4380
  932MPD2    C413634   0.593   3.059  11.484 -0.3091  0.5714 -0.2244
  932MPD2    C513635   0.570   3.192  11.477 -0.2147  0.5094  0.2709
  932MPD2     H13636   0.887   3.061  11.324 -0.7245 -0.6176 -2.3500
  932MPD2    H113637   0.525   2.997  11.542  2.1469 -0.8107  1.1554
  932MPD2    H213638   0.637   3.383  11.451  2.1086  0.7990  0.5018
  932MPD2    H313639   0.496   3.236  11.544 -1.3726  0.6018 -1.0681
  932MPD2     N13640   0.731   2.877  11.447 -0.4505 -0.2190 -0.1171
  932MPD2    H513641   0.664   2.825  11.504  0.0502  0.6551  1.2673
  932MPD2    N113642   0.889   3.332  11.366  0.2765 -0.3475 -0.4771
  932MPD2    H713643   0.979   3.306  11.326 -0.2537  0.3218 -2.0743
  933MPD2     C13644   0.900   3.870   1.391  0.3323  0.8385 -0.1293
  933MPD2    C113645   0.936   3.775   1.297  0.5026 -0.4324 -1.0723
  933MPD2    C213646   0.845   3.749   1.198 -0.5453  0.2536  0.0798
  933MPD2    C313647   0.713   3.781   1.208 -0.8446  0.3451 -0.2497
  933MPD2    C413648   0.673   3.856   1.320 -0.1368  0.4158  0.2101
  933MPD2    C513649   0.769   3.910   1.401  0.1105  0.3710 -0.8558
  933MPD2     H13650   0.871   3.699   1.106 -0.4194  0.4088  0.0321
  933MPD2    H113651   0.569   3.884   1.335 -0.5492 -0.2511 -1.4363
  933MPD2    H213652   0.971   3.909   1.462 -1.5070  3.1724  0.4127
  933MPD2    H313653   0.747   3.976   1.483  1.4752 -0.2177 -0.0220
  933MPD2     N13654   0.625   3.732   1.107 -0.3561 -0.0458  0.9031
  933MPD2    H513655   0.679   3.694   1.030 -1.5935 -0.5789  0.2933
  933MPD2    N113656   1.064   3.713   1.315 -0.4202  0.7838 -0.2063
  933MPD2    H713657   1.122   3.736   1.395 -0.7038  0.4670  0.0966
  934MPD2     C13658   2.802   4.614   2.056  0.2708 -0.1417 -0.2541
  934MPD2    C113659   2.888   4.550   1.972  0.1062  0.4022 -0.4158
  934MPD2    C213660   2.830   4.497   1.856 -0.5856 -0.0370 -0.8301
  934MPD2    C313661   2.698   4.526   1.824 -0.1310 -0.5536  0.3073
  934MPD2    C413662   2.617   4.592   1.911  0.0776  0.3512 -1.0854
  934MPD2    C513663   2.674   4.634   2.022  0.1800  0.4356 -0.5434
  934MPD2     H13664   2.894   4.438   1.790 -0.4726 -1.0560  0.1893
  934MPD2    H113665   2.523   4.635   1.880 -1.1405 -0.7490  1.0992
  934MPD2    H213666   2.825   4.658   2.153  0.8583 -2.0850  0.4784
  934MPD2    H313667   2.627   4.699   2.094 -1.5735 -1.2284 -0.1805
  934MPD2     N13668   2.643   4.472   1.708  0.1676  0.0930 -0.3518
  934MPD2    H513669   2.546   4.498   1.692 -0.0350 -1.0999 -1.0713
  934MPD2    N113670   3.024   4.525   1.992 -0.3247  0.4054  0.1727
  934MPD2    H713671   3.070   4.477   1.915 -0.4210  1.0287 -0.2714
  935MPD2     C13672   2.837   3.745   1.090 -0.8022 -0.5772 -0.2450
  935MPD2    C113673   2.709   3.787   1.047  0.1824 -0.5211  0.5531
  935MPD2    C213674   2.671   3.912   1.078  0.2331 -0.3662 -0.3926
  935MPD2    C313675   2.749   3.990   1.160 -0.0553  0.3083 -0.1603
  935MPD2    C413676   2.871   3.939   1.199  0.1121  0.5063 -0.1400
  935MPD2    C513677   2.916   3.817   1.175  0.3579  0.1287  1.2151
  935MPD2     H13678   2.575   3.932   1.032  0.3098  1.1222  0.1178
  935MPD2    H113679   2.924   3.997   1.275 -0.1551  1.6356 -0.8141
  935MPD2    H213680   2.873   3.644   1.073  0.5660  0.0085 -0.8053
  935MPD2    H313681   3.012   3.775   1.204  0.5794 -0.4931 -0.4106
  935MPD2     N13682   2.706   4.108   1.222 -0.0993 -0.0787  0.4014
  935MPD2    H513683   2.773   4.141   1.290  0.2572  2.4798 -1.1937
  935MPD2    N113684   2.624   3.703   0.965  0.4316 -0.2139 -0.0766
  935MPD2    H713685   2.529   3.732   0.941  0.4927  0.5969  0.6528
  936MPD2     C13686   1.577   1.581  12.636 -0.5943  0.2332 -0.8766
  936MPD2    C113687   1.553   1.664  12.742  0.1174  0.3623 -0.5535
  936MPD2    C213688   1.525   1.798  12.721 -0.3109 -0.1945  0.5004
  936MPD2    C313689   1.538   1.847  12.593 -0.1899 -0.3313  0.9038
  936MPD2    C413690   1.574   1.766  12.484 -0.0133  0.6508  0.4225
  936MPD2    C513691   1.585   1.636  12.511 -0.8364  0.6421 -0.9620
  936MPD2     H13692   1.491   1.854  12.807 -2.6461 -0.5532 -0.1800
  936MPD2    H113693   1.593   1.809  12.386  1.2825  1.4110  1.0094
  936MPD2    H213694   1.622   1.482  12.642 -0.6655  0.1969 -0.9279
  936MPD2    H313695   1.612   1.573  12.427  1.5976 -0.6197  0.7643
  936MPD2     N13696   1.524   1.979  12.556 -0.1690 -0.0166 -0.5359
  936MPD2    H513697   1.545   2.009  12.461 -0.4489 -0.9627 -0.8994
  936MPD2    N113698   1.546   1.610  12.872  0.4687 -0.4257 -0.4372
  936MPD2    H713699   1.537   1.680  12.946 -2.2461  0.2213 -1.3663
  937MPD2     C13700   3.592   3.140  11.666  0.6052  0.4044 -0.0650
  937MPD2    C113701   3.672   3.249  11.649 -0.0236 -0.2762  0.5335
  937MPD2    C213702   3.755   3.265  11.539  0.0376  0.3190  0.1632
  937MPD2    C313703   3.749   3.167  11.437 -0.5440  0.0723  0.1546
  937MPD2    C413704   3.675   3.054  11.461  0.1663  0.6277  0.0489
  937MPD2    C513705   3.593   3.045  11.571  0.5546 -0.8797  0.4805
  937MPD2     H13706   3.818   3.353  11.538 -0.7799  0.9012 -0.4659
  937MPD2    H113707   3.663   2.982  11.382  0.5144  2.0383 -1.2882
  937MPD2    H213708   3.517   3.124  11.743  0.4693  0.5229 -0.1726
  937MPD2    H313709   3.527   2.961  11.590 -0.3503 -0.6881 -1.7713
  937MPD2     N13710   3.829   3.194  11.327  0.3661 -0.0444 -0.2997
  937MPD2    H513711   3.878   3.283  11.327  0.2396  0.0244  2.0581
  937MPD2    N113712   3.646   3.369  11.721 -0.4479 -0.2001 -0.1428
  937MPD2    H713713   3.685   3.449  11.672  0.1116 -0.9826 -0.9776
  938MPD2     C13714   2.112   4.662   0.465  0.2551  0.4788 -0.6601
  938MPD2    C113715   2.138   4.659   0.597 -0.1589 -0.6191  0.6384
  938MPD2    C213716   2.060   4.584   0.685  0.1951  0.1744  0.6571
  938MPD2    C313717   1.953   4.512   0.636  0.2021  0.8720 -0.1717
  938MPD2    C413718   1.939   4.512   0.498  0.4281 -0.3592 -0.4645
  938MPD2    C513719   2.013   4.581   0.405 -0.2637  0.5531  0.4992
  938MPD2     H13720   2.082   4.584   0.791 -0.4621 -0.2502  0.7906
  938MPD2    H113721   1.859   4.452   0.455 -0.4265  0.2694  0.2451
  938MPD2    H213722   2.175   4.709   0.391 -0.0728 -1.7970 -2.3952
  938MPD2    H313723   1.999   4.597   0.299  0.6820 -0.7025  0.1887
  938MPD2     N13724   1.865   4.440   0.719 -0.4834 -0.3759 -0.2361
  938MPD2    H513725   1.784   4.405   0.667  0.3185 -1.5778 -0.6738
  938MPD2    N113726   2.246   0.011   0.649 -0.5611 -0.3761 -0.1709
  938MPD2    H713727   2.266   4.713   0.747 -1.1465 -0.2587 -0.0292
  939MPD2     C13728   3.286   1.111   1.218 -0.1333 -0.6363 -0.7169
  939MPD2    C113729   3.398   1.170   1.172  0.4050 -1.0051  0.5038
  939MPD2    C213730   3.478   1.102   1.081  0.3772 -0.6367 -0.0297
  939MPD2    C313731   3.442   0.979   1.035 -0.0326  0.3599  0.2621
  939MPD2    C413732   3.325   0.913   1.078  0.3623  0.1971  0.0284
  939MPD2    C513733   3.246   0.988   1.160 -0.0558 -0.3154  0.4792
  939MPD2     H13734   3.560   1.148   1.027 -1.2507 -0.2572 -2.1902
  939MPD2    H113735   3.299   0.818   1.034  2.8907 -1.5213  2.2199
  939MPD2    H213736   3.227   1.158   1.295 -0.7482 -2.3439 -0.1432
  939MPD2    H313737   3.149   0.952   1.190 -0.8102  1.4201  0.1492
  939MPD2     N13738   3.528   0.922   0.933 -0.4962 -0.1615 -0.0395
  939MPD2    H513739   3.607   0.978   0.904 -0.0027 -1.8488 -1.9182
  939MPD2    N113740   3.420   1.295   1.228  0.2258  0.1570 -0.0713
  939MPD2    H713741   3.355   1.343   1.289 -1.4808  0.7615 -2.3516
  940MPD2     C13742   2.012   1.997  13.378  0.4396  0.4478  0.2223
  940MPD2    C113743   1.931   1.898  13.341  0.1816  0.3018 -0.3421
  940MPD2    C213744   1.912   1.872  13.206 -0.5024  0.4646 -1.1445
  940MPD2    C313745   1.992   1.934  13.109 -0.2243  0.0407 -0.6975
  940MPD2    C413746   2.085   2.023  13.155  0.0868  0.8306 -0.2819
  940MPD2    C513747   2.088   2.063  13.286 -0.4243  0.3120  0.8350
  940MPD2     H13748   1.841   1.796  13.177 -1.1238  1.4821 -2.2661
  940MPD2    H113749   2.144   2.080  13.085  2.0731  0.0882  0.7871
  940MPD2    H213750   2.024   2.032  13.480 -0.1518  0.7393  0.1918
  940MPD2    H313751   2.142   2.151  13.318  0.8666 -0.3068  0.3624
  940MPD2     N13752   1.999   1.896  12.978  0.0753 -0.5116  0.1034
  940MPD2    H513753   2.086   1.903  12.926  0.3878  2.1291  0.9795
  940MPD2    N113754   1.856   1.815  13.431  0.2095 -0.4833  0.3818
  940MPD2    H713755   1.798   1.746  13.383  0.8309 -2.6810  2.7838
  941MPD2     C13756   1.886   0.040   8.641  0.2197  0.4985  0.6025
  941MPD2    C113757   1.901   0.054   8.776 -0.2137  0.3483 -0.7315
  941MPD2    C213758   1.807   0.004   8.861 -0.1998 -0.5239 -0.3543
  941MPD2    C313759   1.695   4.660   8.810 -0.4726  0.0063 -0.1259
  941MPD2    C413760   1.672   4.659   8.675  0.0647 -0.6456  0.0956
  941MPD2    C513761   1.770   4.710   8.590  0.2890  0.0263 -0.0002
  941MPD2     H13762   1.839   0.006   8.965  0.8581  0.0005 -0.6894
  941MPD2    H113763   1.582   4.626   8.624 -1.0153  0.9541  0.9689
  941MPD2    H213764   1.965   0.071   8.574 -0.4093  0.9225  0.0586
  941MPD2    H313765   1.750   4.694   8.484 -0.2637  0.5697  0.0209
  941MPD2     N13766   1.598   4.599   8.899 -0.1185 -0.2027  0.1017
  941MPD2    H513767   1.515   4.564   8.853 -1.5504  0.1454  2.4274
  941MPD2    N113768   2.023   0.104   8.830  0.8197  0.3189  0.8897
  941MPD2    H713769   2.020   0.131   8.928  0.9030 -2.3090  1.5962
  942MPD2     C13770   1.057   0.165   9.989  0.3621 -0.5618  0.9179
  942MPD2    C113771   1.035   0.286  10.053  0.3294 -0.0669  0.3784
  942MPD2    C213772   1.117   0.397  10.031  0.2131  0.3027  0.5081
  942MPD2    C313773   1.227   0.381   9.945 -0.4805  0.8793 -0.2257
  942MPD2    C413774   1.251   0.255   9.889 -0.0926 -0.1765 -0.4077
  942MPD2    C513775   1.169   0.154   9.912 -0.1069  0.2542 -0.7048
  942MPD2     H13776   1.102   0.490  10.084 -0.8892  0.1408  0.4854
  942MPD2    H113777   1.333   0.232   9.821 -1.4008  0.3989 -2.1726
  942MPD2    H213778   0.995   0.077  10.003 -0.9772  0.1682 -0.3915
  942MPD2    H313779   1.184   0.053   9.875  0.3926  0.3984 -0.8905
  942MPD2     N13780   1.313   0.489   9.914  0.5899  0.2381 -0.4444
  942MPD2    H513781   1.400   0.467   9.867 -0.2567 -0.6471 -1.5881
  942MPD2    N113782   0.912   0.315  10.122  0.3690  0.0903  0.0668
  942MPD2    H713783   0.878   0.408  10.142  1.8764  0.6279  0.1574
  943MPD2     C13784   4.440   0.897   8.782  1.1073 -0.5936  0.2238
  943MPD2    C113785   4.348   0.824   8.851  0.1608 -0.2596 -0.0968
  943MPD2    C213786   4.217   0.842   8.816  0.4555 -0.6969  0.2088
  943MPD2    C313787   4.173   0.937   8.727  0.0570 -0.6646  0.1729
  943MPD2    C413788   4.273   1.013   8.663 -0.0244  0.2593 -0.1841
  943MPD2    C513789   4.403   0.996   8.691 -0.4498 -0.5590  0.3316
  943MPD2     H13790   4.143   0.787   8.874 -1.3802  0.9516 -0.5656
  943MPD2    H113791   4.245   1.082   8.584 -3.0039 -2.5068 -1.5453
  943MPD2    H213792   4.546   0.878   8.796  0.7573 -1.1789  2.0623
  943MPD2    H313793   4.484   1.050   8.642 -0.4666  0.2285  1.1585
  943MPD2     N13794   4.033   0.951   8.695  0.7441 -0.6451 -0.3322
  943MPD2    H513795   4.015   1.018   8.621  0.8314  1.5781  1.6245
  943MPD2    N113796   4.390   0.720   8.937 -0.5270  0.3902 -0.4395
  943MPD2    H713797   4.488   0.717   8.964 -0.0197  1.6680 -2.1566
  944MPD2     C13798   4.045   3.889  11.188 -1.4684 -0.1029 -0.0672
  944MPD2    C113799   4.098   3.995  11.126  0.1435 -0.1644 -0.4606
  944MPD2    C213800   4.101   4.117  11.187 -0.4791  0.6445 -0.4251
  944MPD2    C313801   4.038   4.133  11.312  0.3591 -0.5967  0.1169
  944MPD2    C413802   3.987   4.024  11.381 -0.6033  0.0389  0.2224
  944MPD2    C513803   3.986   3.903  11.310 -0.0687  0.0937  0.0392
  944MPD2     H13804   4.156   4.202  11.150  0.5453  0.5785  0.9663
  944MPD2    H113805   3.955   4.020  11.485  0.1091 -1.0440  0.4028
  944MPD2    H213806   4.046   3.790  11.142 -1.2842  0.0583 -0.4106
  944MPD2    H313807   3.962   3.812  11.363 -1.8323  1.2100  1.1826
  944MPD2     N13808   4.046   4.263  11.375 -0.0490  0.2532  0.8624
  944MPD2    H513809   4.105   4.334  11.332  1.3311 -0.6865  1.1811
  944MPD2    N113810   4.157   3.968  11.010  0.3132  0.5432  0.3956
  944MPD2    H713811   4.139   3.873  10.981  1.3349  0.6781 -0.7074
    1TCq1    O113812   2.230   0.407  14.378 -0.1487  0.0806 -0.1104
    1TCq1    C113813   2.277   0.532  14.392 -0.7395  0.8957 -0.2255
    1TCq1    O213814   2.238   0.598  14.484  0.4677 -0.1874 -0.0982
    1TCq1    C213815   2.412   0.532  14.340  0.8981 -0.3896 -0.5000
    1TCq1    C313816   2.458   0.471  14.225  0.9499 -1.2148 -0.0316
    1TCq1    C413817   2.591   0.486  14.191  0.0479 -0.4615  0.2062
    1TCq1    C513818   2.679   0.560  14.270  0.1706 -0.2430 -0.3323
    1TCq1    C613819   2.631   0.611  14.388  0.5758  0.0902 -0.0191
    1TCq1    C713820   2.500   0.602  14.420  0.3813  0.2134 -0.4679
    1TCq1    C813821   2.714   0.707  14.469  0.1533 -0.5589  0.0383
    1TCq1    O413822   2.801   0.657  14.538 -0.2859 -0.1645  0.4381
    1TCq1    C913823   2.649   0.439  14.068 -0.4322 -0.5551  0.0208
    1TCq1    O513824   2.772   0.432  14.061  0.1819 -0.0966 -0.1446
    1TCq1    O613825   2.572   0.421  13.971 -0.4644 -0.1554  0.3061
    1TCq1    H113826   2.267   0.369  14.296 -1.7550  0.0399 -0.8243
    1TCq1    H213827   2.383   0.431  14.158 -0.6354  0.3032  0.8288
    1TCq1    H313828   2.774   0.595  14.232 -0.3052  0.0219 -1.2865
    1TCq1    H413829   2.454   0.661  14.499  2.6482  1.5297 -0.1351
    2MPD2     C13830   2.850   1.195  14.578  0.0400  0.1775 -0.3483
    2MPD2    C113831   2.747   1.186  14.481 -0.1237  0.0789  1.0240
    2MPD2    C213832   2.684   1.068  14.453  0.0041  0.0572 -0.5483
    2MPD2    C313833   2.734   0.952  14.491 -0.0930 -0.2314  0.9382
    2MPD2    C413834   2.838   0.954  14.579  0.9318  0.2806  0.9527
    2MPD2    C513835   2.889   1.070  14.633 -0.3427 -0.1312 -0.0187
    2MPD2     H13836   2.610   1.069  14.374 -0.6110  1.7481  0.0477
    2MPD2    H113837   2.879   0.861  14.616 -1.7027 -2.0083 -1.8079
    2MPD2    H213838   2.885   1.291  14.616  0.7794  0.1413 -0.9425
    2MPD2    H313839   2.967   1.069  14.708 -0.0491  0.6093 -0.3177
    2MPD2     N13840   2.676   0.836  14.441  0.2211  0.5955  0.4199
    2MPD2    H513841   2.594   0.854  14.384  1.6296  3.3986 -0.7054
    2MPD2    N113842   2.708   1.309  14.428 -0.4300  0.7896  0.2041
    2MPD2    H713843   2.755   1.389  14.469  1.6690 -0.5652  0.4543
    3TMC2    C113844   2.609   1.474  14.287  0.1222 -0.0733 -0.1379
    3TMC2    C213845   2.715   1.557  14.310 -0.3973 -0.8679 -0.3116
    3TMC2    C313846   2.714   1.676  14.253 -0.4960  0.8720  0.0343
    3TMC2    C413847   2.503   1.509  14.205 -0.5580  0.4933 -1.2059
    3TMC2    C513848   2.513   1.634  14.147  0.0398 -0.3723 -0.6867
    3TMC2    C613849   2.614   1.715  14.171  0.5402 -0.3418  0.8627
    3TMC2     C13850   2.615   1.333  14.327  0.3950 -0.0328  0.0786
    3TMC2     O13851   2.559   1.247  14.262 -0.0566  0.1699 -0.6869
    3TMC2     H13852   2.793   1.531  14.382  0.3131 -0.6202 -0.9935
    3TMC2    H113853   2.425   1.442  14.168 -1.3700 -0.2071  1.7370
    3TMC2    H213854   2.600   1.818  14.140  1.7061 -0.0131  1.4157
    3TMC2    C713855   2.409   1.680  14.062  0.4763  0.2387 -0.1456
    3TMC2    C813856   2.837   1.743  14.238 -0.3558 -0.5520 -0.3302
    3TMC2    O113857   2.295   1.669  14.102 -0.3713  0.9662  0.1806
    3TMC2    O213858   2.834   1.852  14.195 -0.5820  0.5383  0.0028
    3TMC2    O513859   2.943   1.659  14.227  0.3832 -0.0587  0.9288
    3TMC2    H513860   2.911   1.573  14.262  0.0139 -0.5723 -0.6700
    4MPD2     C13861   2.025   2.501  13.025 -0.5334  0.1383  0.2885
    4MPD2    C113862   2.007   2.464  13.159 -0.2699  0.0273  0.6228
    4MPD2    C213863   2.118   2.412  13.227 -0.9241  0.3035 -0.0140
    4MPD2    C313864   2.246   2.413  13.164 -0.1360 -0.5244 -0.5360
    4MPD2    C413865   2.254   2.434  13.028  0.4089  0.8945  0.2640
    4MPD2    C513866   2.145   2.481  12.962  0.5103  0.2692  0.5775
    4MPD2     H13867   2.112   2.365  13.325  2.6344 -0.1151 -0.0188
    4MPD2    H113868   2.348   2.428  12.975  1.0550 -1.7265  1.7129
    4MPD2    H213869   1.940   2.532  12.966 -1.7655  1.7451  2.9288
    4MPD2    H313870   2.154   2.496  12.855 -0.1119 -2.5401  0.1377
    4MPD2     N13871   2.357   2.367  13.231  0.7045  0.0258  0.1711
    4MPD2    H513872   2.351   2.336  13.327 -0.5202  2.3713  0.8568
    4MPD2    N113873   1.873   2.479  13.201  0.0772 -0.0952  0.3870
    4MPD2    H713874   1.807   2.508  13.129  0.6990 -0.8430 -0.4842
    5TCq2    C113875   2.485   2.369  13.188  0.2767 -0.6624  0.7291
    5TCq2    O213876   2.540   2.421  13.097 -0.2958 -0.1937  0.3921
    5TCq2    C213877   2.573   2.309  13.281 -0.1255 -0.0423 -0.1464
    5TCq2    C313878   2.713   2.337  13.278 -0.6651  0.3077 -0.6286
    5TCq2    C413879   2.797   2.270  13.358  0.0725  0.1610 -0.5348
    5TCq2    C513880   2.748   2.186  13.450  0.2818  0.3983  1.0399
    5TCq2    C613881   2.613   2.160  13.452 -0.0532 -0.1738 -0.4103
    5TCq2    C713882   2.523   2.210  13.363 -0.2577  0.1300  0.0044
    5TCq2    C813883   2.567   2.065  13.554 -0.2761 -0.0574  0.6403
    5TCq2    O413884   2.649   1.981  13.592  0.0391  0.1424 -0.0313
    5TCq2    C913885   2.939   2.301  13.344  0.4783  0.6936  0.1350
    5TCq2    O513886   3.020   2.202  13.339 -0.3817  0.0233 -0.0182
    5TCq2    O613887   2.972   2.418  13.313  0.0074  0.4278 -0.0745
    5TCq2    H213888   2.757   2.409  13.211 -2.3141  0.3412 -1.6783
    5TCq2    H313889   2.819   2.118  13.496  0.1838  0.3986  1.1909
    5TCq2    H413890   2.422   2.173  13.353  0.6496 -1.8031 -2.1231
    6MPD1     C13891   1.194   1.643  12.125 -0.3776 -0.2603  0.6481
    6MPD1    C113892   1.260   1.637  12.245 -0.7148  0.1281 -0.7369
    6MPD1    C213893   1.225   1.725  12.346 -0.9005 -0.3488  0.7761
    6MPD1    C313894   1.138   1.819  12.326 -0.2296 -0.6681  0.5174
    6MPD1    C413895   1.081   1.840  12.204  0.5474 -0.5053  0.1439
    6MPD1    C513896   1.103   1.747  12.104 -0.8674  0.1537 -0.2744
    6MPD1     H13897   1.273   1.724  12.443 -0.7111 -1.2056  0.6790
    6MPD1    H113898   1.006   1.918  12.197  1.8695  1.0144  3.1489
    6MPD1    H213899   1.219   1.576  12.043  1.0235 -0.5421  1.3008
    6MPD1    H313900   1.045   1.753  12.013 -1.0284  2.1529 -0.0384
    6MPD1     N13901   1.116   1.916  12.430  0.6048 -0.7258 -0.1581
    6MPD1    H513902   1.056   1.995  12.406 -0.6020 -2.5682 -3.1223
    6MPD1    N113903   1.362   1.541  12.265  0.6072 -0.4177  0.7639
    6MPD1    H613904   1.413   1.567  12.349 -0.8152  0.0931  1.4726
    6MPD1    H713905   1.423   1.542  12.184 -0.5920  0.2257 -0.1386
    7MPD2     C13906   1.284   2.645  12.714 -0.3254 -0.1643 -1.0303
    7MPD2    C113907   1.251   2.555  12.815 -0.1404 -0.3060  0.0002
    7MPD2    C213908   1.298   2.586  12.945  0.0851 -0.2948 -0.3848
    7MPD2    C313909   1.379   2.697  12.973 -0.2115  0.1179 -0.0644
    7MPD2    C413910   1.407   2.784  12.869 -0.0739  0.2649  0.0208
    7MPD2    C513911   1.353   2.762  12.739 -0.1469 -0.1974 -0.3961
    7MPD2     H13912   1.292   2.503  13.015  0.5112  0.6510  0.7716
    7MPD2    H113913   1.459   2.876  12.891  1.4025 -0.4777 -0.2884
    7MPD2    H213914   1.246   2.627  12.614 -0.1666 -2.2804 -0.7038
    7MPD2    H313915   1.364   2.839  12.664  0.1663 -1.0615 -1.2281
    7MPD2     N13916   1.452   2.710  13.090 -0.0311  0.4853  0.0227
    7MPD2    H513917   1.530   2.773  13.098  0.7694 -0.3016 -1.5953
    7MPD2    N113918   1.184   2.433  12.800 -1.0219  0.3646  0.7171
    7MPD2    H713919   1.171   2.375  12.882  1.1539 -1.0295  0.0804
    8TMC3    C113920   1.514   2.653  13.309 -0.3993  0.7672 -0.7906
    8TMC3    C213921   1.630   2.602  13.276  0.2701 -0.5265 -0.7628
    8TMC3    C313922   1.694   2.512  13.359  0.6357  0.1204  0.0125
    8TMC3    C413923   1.458   2.618  13.429  0.2697  0.0932 -0.1671
    8TMC3    C513924   1.521   2.521  13.510 -0.0515 -0.3043  1.1014
    8TMC3    C613925   1.642   2.474  13.478 -0.1963 -0.4299 -0.0257
    8TMC3     C13926   1.414   2.645  13.208 -0.1509  0.2562  1.1685
    8TMC3     O13927   1.310   2.580  13.230  0.4485 -0.1647 -0.6934
    8TMC3     H13928   1.669   2.608  13.175  0.9772  2.0272 -0.3437
    8TMC3    H113929   1.365   2.658  13.467 -0.0386 -2.0678  1.3030
    8TMC3    H213930   1.682   2.388  13.530 -2.0005 -1.7491 -0.8400
    8TMC3    C713931   1.429   2.416  13.546  0.2166 -0.3616 -0.0592
    8TMC3    C813932   1.833   2.466  13.332  0.5691  0.6702 -0.7280
    8TMC3    O113933   1.479   2.324  13.610 -0.2945  0.1635  0.7135
    8TMC3    O213934   1.885   2.402  13.419  0.0879  0.2023  0.7729
    9TMC3    C113935   1.127   2.004  12.659  0.0469  0.4932 -0.2265
    9TMC3    C213936   1.122   1.982  12.789 -0.0535 -0.1814  0.2250
    9TMC3    C313937   1.093   2.084  12.876 -0.1588 -0.2796 -0.0189
    9TMC3    C413938   1.133   2.135  12.608 -0.9848 -0.5717 -0.4039
    9TMC3    C513939   1.110   2.239  12.697  0.1783 -0.3188 -0.0017
    9TMC3    C613940   1.089   2.216  12.828 -0.5282 -0.1814 -0.4946
    9TMC3     C13941   1.136   1.888  12.564  0.0765  0.7157  0.1744
    9TMC3     O13942   1.153   1.783  12.617  0.2923  0.1660 -0.6189
    9TMC3     H13943   1.131   1.879  12.822  0.2189 -0.0901  0.4328
    9TMC3    H113944   1.171   2.158  12.510 -2.5180 -2.5763 -1.4701
    9TMC3    H213945   1.031   2.285  12.887  0.0710 -1.0286  1.0672
    9TMC3    C713946   1.171   2.369  12.676  0.5442  0.8220  0.1415
    9TMC3    C813947   1.097   2.054  13.014  0.2664  0.1134 -0.3735
    9TMC3    O113948   1.204   2.406  12.566  0.2324  0.2048 -0.3003
    9TMC3    O213949   1.116   1.935  13.045 -0.5968  0.4568  0.5217
   10MPD2     C13950   1.277   2.166  13.491 -0.8286 -0.0891  0.2591
   10MPD2    C113951   1.291   2.272  13.400  0.5251  0.2929 -0.1941
   10MPD2    C213952   1.233   2.272  13.276 -0.1310 -0.1269  0.9891
   10MPD2    C313953   1.175   2.154  13.225  0.2013 -0.0265 -0.2790
   10MPD2    C413954   1.172   2.045  13.312  0.5211 -0.5654  0.4418
   10MPD2    C513955   1.217   2.051  13.444 -0.1108  0.5468  0.3655
   10MPD2     H13956   1.249   2.350  13.203  0.1986 -0.2579  0.9178
   10MPD2    H113957   1.132   1.946  13.291 -0.9830  0.1037  0.1226
   10MPD2    H213958   1.323   2.164  13.589  1.5019 -1.6441 -0.8570
   10MPD2    H313959   1.183   1.971  13.508 -0.0601  1.5070  1.6009
   10MPD2     N13960   1.127   2.164  13.092  0.7163 -0.0754 -0.1626
   10MPD2    H513961   1.137   2.250  13.040  2.4315 -1.1912 -1.6899
   10MPD2    N113962   1.340   2.401  13.447 -0.3972  0.6452 -0.1024
   10MPD2    H713963   1.331   2.476  13.379 -2.3013 -1.0405 -1.7086
   11MPD2     C13964   2.244   1.815  13.863  0.4946 -0.4772 -0.3966
   11MPD2    C113965   2.385   1.824  13.862 -0.0660 -0.0266  0.1323
   11MPD2    C213966   2.447   1.907  13.772 -0.0631  0.2220 -0.2241
   11MPD2    C313967   2.374   1.987  13.689  0.1015 -0.4531 -0.7241
   11MPD2    C413968   2.238   1.998  13.699 -0.0818 -0.1967 -0.0693
   11MPD2    C513969   2.183   1.913  13.788  0.6871 -0.6197  0.3486
   11MPD2     H13970   2.555   1.905  13.774 -0.0800  0.2317  0.6865
   11MPD2    H113971   2.178   2.069  13.643  0.9741  0.4901 -0.3346
   11MPD2    H213972   2.189   1.743  13.922 -0.6835 -0.3514 -1.3554
   11MPD2    H313973   2.075   1.918  13.797  0.6809  0.2306 -0.1398
   11MPD2     N13974   2.432   2.071  13.589  0.1084 -0.7171 -0.1096
   11MPD2    H513975   2.368   2.141  13.552  0.0511 -0.3293  0.7148
   11MPD2    N113976   2.460   1.752  13.956 -0.2625 -0.0948 -0.9647
   11MPD2    H713977   2.561   1.752  13.950 -0.3385  0.3094 -2.3177
    1MPD1     C13978   0.103   3.104  16.426  0.5922 -0.1074 -0.6204
    1MPD1    C113979   0.159   3.181  16.325 -0.1361  0.4485 -0.1413
    1MPD1    C213980   0.297   3.181  16.317  0.4831 -0.0874  0.5749
    1MPD1    C313981   0.379   3.107  16.397  0.4011 -0.8309  0.1212
    1MPD1    C413982   0.315   3.047  16.508 -0.2135 -0.8083  0.0302
    1MPD1    C513983   0.179   3.045  16.520  0.1019 -0.0524 -0.2180
    1MPD1     H13984   0.343   3.230  16.232 -1.5969  0.4986 -0.2226
    1MPD1    H113985   0.370   2.989  16.582 -1.7400 -1.1095  0.9176
    1MPD1    H213986   4.717   3.105  16.448  0.4002  0.2156 -1.5726
    1MPD1    H313987   0.143   2.984  16.603  0.7926  1.9602  1.5627
    1MPD1     N13988   0.516   3.083  16.379 -0.0854 -0.0032 -0.2722
    1MPD1    H513989   0.556   3.011  16.438 -0.8492 -0.5752 -0.4610
    1MPD1    N113990   0.078   3.217  16.214  0.0781 -0.6900 -0.0134
    1MPD1    H613991   0.116   3.302  16.172  0.2353 -1.4470 -1.3824
    1MPD1    H713992   4.704   3.236  16.244  0.4062 -0.7634  1.0707
    2MPD1     C13993   1.305   2.897  16.917  0.8063  0.0764  0.4430
    2MPD1    C113994   1.374   2.954  16.807 -0.0749  0.1237  0.5528
    2MPD1    C213995   1.298   2.979  16.693  0.1686 -0.2603  0.7058
    2MPD1    C313996   1.157   2.961  16.688  0.2173  0.1461  0.6315
    2MPD1    C413997   1.099   2.899  16.795  0.4423  0.2051 -0.8805
    2MPD1    C513998   1.175   2.859  16.900  0.4414 -0.0387 -0.4193
    2MPD1     H13999   1.349   3.024  16.609 -2.4411  0.3360 -0.5402
    2MPD1    H114000   0.999   2.856  16.788 -0.0840  1.2675  0.2377
    2MPD1    H214001   1.350   2.875  17.012  0.2372  0.1750  0.7384
    2MPD1    H314002   1.129   2.811  16.986 -2.1867  1.6977 -0.8431
    2MPD1     N14003   1.083   2.993  16.567  0.1026 -0.2921  0.3279
    2MPD1    H514004   1.130   3.040  16.491 -0.6142  0.7245  0.5002
    2MPD1    N114005   1.507   3.000  16.821  0.3641 -0.0539 -0.8475
    2MPD1    H614006   1.550   3.013  16.730  1.3026 -1.8721 -0.6709
    2MPD1    H714007   1.562   2.940  16.883 -1.9480  0.1581  1.3912
    3TMC3    C114008   0.898   3.018  16.425  0.4480 -0.7570 -0.9653
    3TMC3    C214009   0.976   3.002  16.317 -0.5274  0.4136 -0.7142
    3TMC3    C314010   0.932   3.033  16.194  0.6105 -0.0534  0.5266
    3TMC3    C414011   0.773   3.055  16.417 -0.2221 -0.1676 -0.0099
    3TMC3    C514012   0.724   3.074  16.288 -0.5287  0.1988 -1.7184
    3TMC3    C614013   0.803   3.072  16.182 -0.3245  0.3336 -0.3679
    3TMC3     C14014   0.941   2.972  16.555  0.0699 -0.1257  0.3890
    3TMC3     O14015   0.850   2.944  16.635 -0.2026  0.6404  0.2260
    3TMC3     H14016   1.078   2.968  16.330 -0.8363 -0.4121 -0.4077
    3TMC3    H114017   0.718   3.098  16.500  0.0839 -0.2946  0.2589
    3TMC3    H214018   0.771   3.102  16.082 -1.7429 -0.7983 -0.2456
    3TMC3    C714019   0.591   3.128  16.273 -0.2994  0.2556 -0.1049
    3TMC3    C814020   0.972   2.954  16.075 -0.5277  0.6267  0.8337
    3TMC3    O114021   0.572   3.200  16.178 -0.2235  0.3592 -0.2810
    3TMC3    O214022   0.885   2.930  15.995 -0.4902 -0.8681  0.2272
    4MPD1     C14023   1.294   2.659  15.797 -0.6534 -0.9939 -0.4039
    4MPD1    C114024   1.361   2.717  15.902  1.5299 -0.1759 -0.0193
    4MPD1    C214025   1.296   2.786  16.002  0.2383 -0.4554  0.2160
    4MPD1    C314026   1.161   2.821  15.991 -0.1116 -0.0732 -0.6433
    4MPD1    C414027   1.096   2.768  15.877  0.4830 -0.5516  0.3707
    4MPD1    C514028   1.165   2.695  15.785 -0.9939 -0.3607 -0.6078
    4MPD1     H14029   1.350   2.818  16.090 -0.9769  2.0842  0.0356
    4MPD1    H114030   0.990   2.784  15.866  0.8983  0.1587 -2.6435
    4MPD1    H214031   1.338   2.596  15.721  1.7585  2.4757 -1.8807
    4MPD1    H314032   1.116   2.656  15.697 -0.4911  2.0041 -1.9313
    4MPD1     N14033   1.092   2.898  16.089  0.6117 -0.3555  0.1853
    4MPD1    H514034   1.148   2.931  16.167  1.1163  1.3817 -0.9357
    4MPD1    N114035   1.491   2.670  15.929  0.1043 -0.0042 -0.5648
    4MPD1    H614036   1.530   2.641  15.840 -1.0541 -1.3726 -0.6323
    4MPD1    H714037   1.556   2.735  15.970  1.6134 -0.1049 -2.7840
    1TCq1    O114038   2.370   2.977  10.591 -0.0663 -0.3263  0.1503
    1TCq1    C114039   2.283   2.875  10.580 -0.7283 -0.8427 -0.4958
    1TCq1    O214040   2.272   2.794  10.490 -0.6912 -0.3484  0.2655
    1TCq1    C214041   2.198   2.862  10.698  0.5423 -0.4886 -0.0146
    1TCq1    C314042   2.158   2.978  10.762 -0.0244  0.0191  0.9724
    1TCq1    C414043   2.044   2.973  10.841 -0.1171  0.3227  0.3923
    1TCq1    C514044   1.960   2.866  10.836 -0.1279 -0.3010 -0.4642
    1TCq1    C614045   1.998   2.755  10.768  0.7365 -0.2655  0.1204
    1TCq1    C714046   2.116   2.748  10.701 -0.6864 -0.3123 -0.8065
    1TCq1    C814047   1.914   2.635  10.760 -0.4490  0.0896  0.1966
    1TCq1    O414048   1.963   2.532  10.707 -0.2416  0.0050 -0.2843
    1TCq1    C914049   1.995   3.105  10.859 -0.1931 -0.4412  0.3806
    1TCq1    O514050   1.958   3.128  10.970 -0.0695  0.5214 -0.4795
    1TCq1    O614051   2.031   3.197  10.779  0.1983 -0.2543 -0.9758
    1TCq1    H114052   2.375   3.035  10.670  1.9792  1.4120 -1.2313
    1TCq1    H214053   2.207   3.073  10.743 -1.1040  0.3656 -0.0547
    1TCq1    H314054   1.859   2.879  10.873  0.3240  1.4989  0.1205
    1TCq1    H414055   2.148   2.659  10.648  1.5587  1.5721 -2.6432
    2MPD1     C14056   1.450   2.422  10.698 -0.3751  0.0583 -0.0525
    2MPD1    C114057   1.436   2.562  10.712 -0.5778 -0.3138  0.6667
    2MPD1    C214058   1.547   2.646  10.721  0.0882 -0.7849 -0.2832
    2MPD1    C314059   1.671   2.587  10.741 -0.0415 -0.5368  0.1939
    2MPD1    C414060   1.683   2.444  10.734  1.0220 -0.6490 -0.8004
    2MPD1    C514061   1.578   2.366  10.708  0.0283 -0.3590 -0.0273
    2MPD1     H14062   1.539   2.754  10.724  2.3610 -0.5869 -1.1578
    2MPD1    H114063   1.780   2.399  10.755  1.1683  0.0896  0.0911
    2MPD1    H214064   1.372   2.354  10.666 -0.4547  0.6114 -1.0438
    2MPD1    H314065   1.593   2.261  10.686 -0.4388 -0.4525  0.1054
    2MPD1     N14066   1.782   2.668  10.774 -0.0334  0.1749 -0.1459
    2MPD1    H514067   1.762   2.765  10.796 -2.9736  0.3404 -3.5331
    2MPD1    N114068   1.314   2.619  10.664 -0.3369 -0.6515  0.4534
    2MPD1    H614069   1.233   2.559  10.647 -2.0064  1.1030  2.2261
    2MPD1    H714070   1.296   2.712  10.702  2.6701 -0.2628  0.9277
    1TCq1    O114071   0.498   4.710   1.131  0.1023  0.6252  0.3241
    1TCq1    C114072   0.577   0.073   1.061 -0.7065  0.5487  0.4649
    1TCq1    O214073   0.559   0.103   0.944 -0.1353 -0.0114 -0.0514
    1TCq1    C214074   0.709   0.065   1.121  0.7464 -0.5612  1.5204
    1TCq1    C314075   0.714   0.106   1.254 -0.4774  0.4197 -0.4869
    1TCq1    C414076   0.828   0.171   1.297 -0.2454 -0.0727 -0.0672
    1TCq1    C514077   0.934   0.187   1.212 -0.3036  0.4790  0.5129
    1TCq1    C614078   0.927   0.146   1.077 -0.3667  0.3153 -0.9147
    1TCq1    C714079   0.810   0.096   1.028  0.9942 -0.3757  0.5218
    1TCq1    C814080   1.031   0.186   0.978 -0.7268  0.3650  0.2797
    1TCq1    O414081   1.005   0.158   0.859 -0.4182 -0.7364 -0.6409
    1TCq1    C914082   0.808   0.258   1.420 -0.2102 -0.8906  0.3389
    1TCq1    O514083   0.698   0.245   1.484 -0.0616  0.4078 -0.4582
    1TCq1    O614084   0.911   0.323   1.463  0.2609  0.2743 -0.0936
    1TCq1    H114085   0.526   4.685   1.222  0.1413  2.1797  0.7434
    1TCq1    H214086   0.629   0.124   1.319  0.5952 -0.6046  1.1937
    1TCq1    H314087   1.022   0.240   1.246 -0.0240 -0.4950  1.2800
    1TCq1    H414088   0.799   0.081   0.921  0.5242 -1.7974  0.7717
    2MPD1     C14089   1.464   0.427   0.835  0.0458  0.1254  0.0221
    2MPD1    C114090   1.469   0.409   0.970 -0.4975 -0.2643 -0.0813
    2MPD1    C214091   1.355   0.355   1.031 -1.0371 -0.0263  0.2392
    2MPD1    C314092   1.253   0.299   0.955  0.2739 -0.3304 -0.0654
    2MPD1    C414093   1.250   0.316   0.819 -0.0776 -0.3510 -0.3743
    2MPD1    C514094   1.354   0.387   0.765  0.8835 -0.1573  0.0317
    2MPD1     H14095   1.362   0.339   1.138 -0.1001 -1.1523  0.0107
    2MPD1    H114096   1.173   0.286   0.750 -1.6077  2.2771  0.1768
    2MPD1    H214097   1.539   0.473   0.772  0.9504 -0.9094  0.3379
    2MPD1    H314098   1.364   0.417   0.661 -0.2331  3.1315  0.8922
    2MPD1     N14099   1.143   0.238   1.028 -0.0711 -0.2708 -0.3189
    2MPD1    H514100   1.157   0.219   1.126 -2.4980  1.4128  0.3620
    2MPD1    N114101   1.574   0.466   1.041 -0.4361  0.7399 -0.3467
    2MPD1    H614102   1.658   0.463   0.983 -1.0118  0.7634 -1.1855
    2MPD1    H714103   1.588   0.403   1.120  0.1304  0.1642 -0.8914
    1MPD1     C14104   2.370   3.048  12.236 -1.1052 -0.7043 -0.0764
    1MPD1    C114105   2.399   3.114  12.117  0.7410 -0.0808  0.0500
    1MPD1    C214106   2.531   3.130  12.082 -0.0285 -0.4730  1.1832
    1MPD1    C314107   2.638   3.069  12.153 -0.4730  0.4583 -0.2525
    1MPD1    C414108   2.604   3.007  12.274  0.8776  0.0426  0.2284
    1MPD1    C514109   2.478   3.008  12.317  0.7833  0.1586  0.1319
    1MPD1     H14110   2.561   3.205  12.010  0.9645 -0.1241  1.9612
    1MPD1    H114111   2.677   2.979  12.350  0.9115 -1.3427 -0.3256
    1MPD1    H214112   2.269   3.037  12.276 -0.5650 -2.0646  0.9013
    1MPD1    H314113   2.443   2.961  12.409  0.1074 -0.4435 -0.4362
    1MPD1     N14114   2.775   3.074  12.115  0.0703  0.2462  0.0260
    1MPD1    H514115   2.806   3.123  12.031  1.7219  0.8959  1.0251
    1MPD1    N114116   2.293   3.173  12.046 -0.1868  0.6963 -0.6266
    1MPD1    H614117   2.198   3.137  12.053 -0.4326  1.1493 -1.6352
    1MPD1    H714118   2.314   3.182  11.947 -1.9235 -1.1566 -1.1538
    2MPD1     C14119   2.036   2.442  12.018  0.2845  0.2732  0.1984
    2MPD1    C114120   2.116   2.549  11.984  0.0286  0.0536  0.3609
    2MPD1    C214121   2.172   2.544  11.855  0.4240  0.5246  0.5547
    2MPD1    C314122   2.168   2.430  11.775  0.0692 -0.2390 -0.2341
    2MPD1    C414123   2.092   2.323  11.816 -0.0922  0.1434 -0.0197
    2MPD1    C514124   2.030   2.331  11.940  0.0281 -0.2267 -0.7453
    2MPD1     H14125   2.224   2.634  11.823 -1.3076  1.6934  1.0246
    2MPD1    H114126   2.075   2.232  11.759  0.4709 -1.2580  2.0538
    2MPD1    H214127   1.982   2.428  12.111  2.5225 -2.2182  1.1105
    2MPD1    H314128   1.971   2.248  11.976  0.4211  0.0182  0.4775
    2MPD1     N14129   2.230   2.411  11.653  0.2930  0.7450 -0.1671
    2MPD1    H514130   2.217   2.322  11.605  1.5627 -0.4431  1.6874
    2MPD1    N114131   2.122   2.666  12.061 -0.6452  0.3841 -0.1826
    2MPD1    H614132   2.132   2.650  12.161 -2.4307 -0.0526 -0.0690
    2MPD1    H714133   2.204   2.719  12.032  0.1051 -0.9381 -0.4537
    3MPD1     C14134   2.036   1.745  11.216  0.3763  0.7938 -0.5017
    3MPD1    C114135   2.028   1.857  11.134 -0.2840 -0.2025 -0.0288
    3MPD1    C214136   2.107   1.970  11.163  0.0897 -0.9235 -0.0144
    3MPD1    C314137   2.193   1.964  11.272 -1.1011 -0.5703 -0.2661
    3MPD1    C414138   2.202   1.848  11.344  0.2940 -0.0821 -0.6167
    3MPD1    C514139   2.115   1.750  11.323 -0.3412 -0.5098  0.0860
    3MPD1     H14140   2.092   2.053  11.095  0.1412 -1.8399 -1.1386
    3MPD1    H114141   2.269   1.844  11.429  1.1628 -0.5928 -1.3288
    3MPD1    H214142   1.981   1.654  11.199  1.0021 -0.0421  1.9208
    3MPD1    H314143   2.126   1.659  11.382  0.1582 -0.7721 -0.4085
    3MPD1     N14144   2.286   2.062  11.313  0.5131 -0.1957 -0.3094
    3MPD1    H514145   2.332   2.053  11.403  1.9233  2.8242 -0.7021
    3MPD1    N114146   1.943   1.858  11.023  0.0480  0.3271 -0.5099
    3MPD1    H614147   1.858   1.805  11.044 -0.0295  0.2892 -0.9306
    3MPD1    H714148   1.922   1.954  10.995  2.1305  0.9121 -0.0415
    4MPD2     C14149   3.060   3.516  11.701  0.0700  0.8799  0.1513
    4MPD2    C114150   3.121   3.391  11.712  0.3313 -0.0714 -0.2339
    4MPD2    C214151   3.169   3.322  11.601 -0.4972 -0.7562 -0.4038
    4MPD2    C314152   3.143   3.368  11.475  0.6214 -0.4151 -0.5386
    4MPD2    C414153   3.078   3.491  11.467 -0.1194  0.3054 -0.3638
    4MPD2    C514154   3.037   3.562  11.578  0.4868 -0.4516  1.2100
    4MPD2     H14155   3.224   3.229  11.613 -1.1556 -1.3769 -2.3100
    4MPD2    H114156   3.072   3.525  11.364  2.6393 -0.7764 -0.9030
    4MPD2    H214157   3.027   3.584  11.779  4.0065 -0.7852  3.2726
    4MPD2    H314158   2.987   3.658  11.575 -1.1873 -1.3307  0.8073
    4MPD2     N14159   3.181   3.282  11.369 -0.2579 -0.1604 -0.0683
    4MPD2    H514160   3.219   3.192  11.398 -0.8505 -0.1679  0.6971
    4MPD2    N114161   3.144   3.324  11.837 -0.3474 -0.2033 -0.0210
    4MPD2    H714162   3.214   3.251  11.838 -1.0096 -0.8003  3.2275
    5TMC3    C114163   3.127   3.251  12.052  0.4489 -0.4275 -0.1242
    5TMC3    C214164   3.009   3.194  12.112 -0.1068 -0.6502 -1.2281
    5TMC3    C314165   3.005   3.061  12.126  0.3184 -0.0807 -0.3308
    5TMC3    C414166   3.223   3.164  12.007 -0.3335  0.0030  0.2953
    5TMC3    C514167   3.198   3.032  12.003  0.0708  0.2575  0.0663
    5TMC3    C614168   3.093   2.979  12.070  0.2667  0.0514  0.2664
    5TMC3     C14169   3.086   3.354  11.957  0.0895  0.3042 -0.7700
    5TMC3     O14170   2.986   3.422  11.976 -0.2939  0.4776  0.4755
    5TMC3     H14171   2.926   3.256  12.145  1.4701  0.8946 -0.1389
    5TMC3    H114172   3.315   3.198  11.961  0.1748 -0.3278  1.0892
    5TMC3    H214173   3.076   2.872  12.069  1.7160 -0.1734  1.3461
    5TMC3    C714174   3.240   2.968  11.882  0.3007  0.4641  0.7279
    5TMC3    C814175   2.881   3.002  12.168 -0.8404 -0.5055 -0.3817
    5TMC3    O114176   3.279   3.051  11.799 -0.2661  0.6371  0.3026
    5TMC3    O214177   2.879   2.903  12.241  0.2203  0.1389  0.3670
    6TMC3    C114178   2.387   2.430  11.470 -0.8272  0.0620 -0.0415
    6TMC3    C214179   2.353   2.303  11.431 -0.8298  0.0587 -0.4873
    6TMC3    C314180   2.388   2.266  11.311 -0.3133 -0.1015  0.3683
    6TMC3    C414181   2.461   2.513  11.392 -0.5110 -0.0899 -0.5253
    6TMC3    C514182   2.510   2.466  11.278 -0.1084  0.1615 -0.1234
    6TMC3    C614183   2.457   2.350  11.227 -0.6511  0.1963 -0.5113
    6TMC3     C14184   2.328   2.488  11.595 -0.1852 -0.7595 -0.1116
    6TMC3     O14185   2.362   2.600  11.631  0.4748  0.2968  0.2569
    6TMC3     H14186   2.307   2.235  11.502 -0.4112  2.0750  1.7321
    6TMC3    H114187   2.479   2.614  11.425 -1.0840 -0.1953  0.1219
    6TMC3    H214188   2.495   2.306  11.135  1.9338  3.1745 -0.8649
    6TMC3    C714189   2.592   2.556  11.193  0.1090  0.5969 -0.8834
    6TMC3    C814190   2.302   2.177  11.242 -1.0656  0.7008  0.1159
    6TMC3    O114191   2.600   2.673  11.224  0.2828 -0.0348 -0.5984
    6TMC3    O214192   2.270   2.207  11.127 -0.6075  0.3729 -0.1071
    7MPD2     C14193   3.400   2.635  11.533 -0.1226 -0.0248  0.4490
    7MPD2    C114194   3.352   2.761  11.522 -0.2255  0.0466  0.2427
    7MPD2    C214195   3.297   2.818  11.633  0.0971 -0.7575  0.6320
    7MPD2    C314196   3.286   2.760  11.762 -0.2555 -0.6325  0.1357
    7MPD2    C414197   3.330   2.630  11.771 -0.2252 -0.3564 -0.7192
    7MPD2    C514198   3.389   2.574  11.660  0.3468 -0.1903  0.0291
    7MPD2     H14199   3.241   2.911  11.623  2.8535  0.8843  0.6219
    7MPD2    H114200   3.308   2.571  11.859  0.8718  0.6829  0.2583
    7MPD2    H214201   3.446   2.574  11.457 -1.3770 -0.7908  0.3071
    7MPD2    H314202   3.427   2.472  11.663  1.7697  0.3450  0.4127
    7MPD2     N14203   3.238   2.829  11.880  0.2291 -0.6220  0.0191
    7MPD2    H514204   3.228   2.770  11.962  2.2983 -1.9209 -0.6502
    7MPD2    N114205   3.356   2.824  11.398 -0.0003  0.5379  0.2765
    7MPD2    H714206   3.405   2.774  11.325  0.9401  0.6929  0.7932
    8TMC3    C114207   3.311   2.984  11.216 -0.2183 -0.0576 -0.4405
    8TMC3    C214208   3.215   2.921  11.152 -0.6072  0.2393  0.5831
    8TMC3    C314209   3.114   2.985  11.076 -0.7314 -0.3882 -0.2489
    8TMC3    C414210   3.301   3.121  11.204  0.1385 -0.6290  0.8042
    8TMC3    C514211   3.193   3.184  11.154 -0.1693  0.2014  0.1191
    8TMC3    C614212   3.097   3.122  11.086  0.4453 -0.5048 -0.3176
    8TMC3     C14213   3.308   2.949  11.361 -0.7306 -0.1821 -0.3470
    8TMC3     O14214   3.256   3.039  11.428 -0.2850  0.1725 -0.6421
    8TMC3     H14215   3.213   2.812  11.148 -0.0208  0.2010  1.3250
    8TMC3    H114216   3.379   3.177  11.254  1.8537 -1.6361 -0.7277
    8TMC3    H214217   3.010   3.175  11.050  1.2459  0.7038 -0.4660
    8TMC3    C714218   3.149   3.297  11.237  0.9379 -0.3614 -0.1662
    8TMC3    C814219   2.988   2.908  11.053  0.3033  0.0356 -0.7001
    8TMC3    O114220   3.057   3.368  11.193  0.3381 -0.0142  0.0588
    8TMC3    O214221   2.877   2.953  11.076 -0.0716 -0.1834  0.1666
    9MPD2     C14222   3.007   2.583  10.878  0.1047  0.5285  0.6360
    9MPD2    C114223   2.946   2.684  10.955  0.6397  1.0571  0.4207
    9MPD2    C214224   2.824   2.657  11.018  0.6084 -0.5400  0.6597
    9MPD2    C314225   2.771   2.530  11.017 -0.4831  0.1453 -0.2686
    9MPD2    C414226   2.845   2.433  10.955 -0.3772 -0.6192  0.4504
    9MPD2    C514227   2.943   2.464  10.869  0.1905 -0.6818 -0.8563
    9MPD2     H14228   2.781   2.735  11.080 -1.2316 -0.6112 -0.5407
    9MPD2    H114229   2.814   2.330  10.953 -2.4360 -0.0126  1.4737
    9MPD2    H214230   3.105   2.595  10.832 -0.3799 -3.2663 -1.2979
    9MPD2    H314231   2.985   2.385  10.808  0.9448  0.3626 -1.6767
    9MPD2     N14232   2.655   2.490  11.084  0.2898 -0.1753 -0.2333
    9MPD2    H514233   2.635   2.391  11.071 -1.2718  0.3317 -1.7177
    9MPD2    N114234   3.029   2.796  10.987 -0.1988  0.6715 -0.0798
    9MPD2    H714235   3.125   2.800  10.955  0.4049  0.8904  1.7097
    1MPD1     C14236   0.612   0.414   0.022 -0.1187 -0.4135  0.4138
    1MPD1    C114237   0.614   0.464   0.153 -0.7675  0.2615  0.6258
    1MPD1    C214238   0.585   0.600   0.180 -0.1217 -0.6395  0.2216
    1MPD1    C314239   0.575   0.686   0.073  0.3855  0.6143 -0.1880
    1MPD1    C414240   0.602   0.636  17.629  1.2248  0.5048  0.1774
    1MPD1    C514241   0.609   0.500  17.605 -0.1437  0.4716 -0.0973
    1MPD1     H14242   0.584   0.631   0.284  2.7917 -1.7811  0.5919
    1MPD1    H114243   0.590   0.696  17.540 -0.2716  0.1247  0.1236
    1MPD1    H214244   0.623   0.309  17.684 -2.3939 -0.2408 -1.4353
    1MPD1    H314245   0.631   0.469  17.504  0.6889  0.3995  0.1056
    1MPD1     N14246   0.559   0.827   0.090  0.2916 -0.1664 -0.4570
    1MPD1    H514247   0.563   0.879   0.003  0.3417 -0.4858 -0.6426
    1MPD1    N114248   0.606   0.368   0.257 -0.3863  0.3083  0.0235
    1MPD1    H614249   0.674   0.292   0.253 -1.6344 -0.8875  1.2300
    1MPD1    H714250   0.637   0.409   0.344 -0.5983  0.5872 -0.0347
    2MPD1     C14251   0.538   1.466   0.936  0.5681  0.0694 -0.2334
    2MPD1    C114252   0.456   1.354   0.917 -0.4240  0.0811 -0.1126
    2MPD1    C214253   0.451   1.292   0.790 -0.3933  1.3182 -0.7809
    2MPD1    C314254   0.537   1.336   0.688  0.4119  0.0088 -0.9769
    2MPD1    C414255   0.620   1.448   0.712  1.1848 -0.8878 -0.2076
    2MPD1    C514256   0.612   1.506   0.831  0.3427 -0.1727  0.4075
    2MPD1     H14257   0.379   1.216   0.764  1.1897  0.6326 -3.1097
    2MPD1    H114258   0.684   1.484   0.632  2.3332 -0.0496  1.0999
    2MPD1    H214259   0.536   1.524   1.028  0.5979 -1.1140  0.5138
    2MPD1    H314260   0.684   1.584   0.855  0.9730 -0.2084 -1.4250
    2MPD1     N14261   0.525   1.270   0.564 -0.0519  0.2739 -0.6071
    2MPD1    H514262   0.466   1.188   0.556 -1.4379  1.3737 -1.7706
    2MPD1    N114263   0.356   1.324   1.012  0.1137 -0.0849 -0.1875
    2MPD1    H614264   0.332   1.226   1.001 -0.9604  0.0700  0.7286
    2MPD1    H714265   0.385   1.339   1.109  1.5274 -0.8497 -0.5007
    3TCq2    C114266   0.588   1.307   0.447 -0.4295  0.0483 -0.0458
    3TCq2    O214267   0.656   1.408   0.421  0.3731 -0.5673  0.2489
    3TCq2    C214268   0.539   1.239   0.332  0.3020  0.4538 -0.5918
    3TCq2    C314269   0.534   1.304   0.212  0.2198 -0.0193  0.5214
    3TCq2    C414270   0.533   1.232   0.096  0.2381  1.5264 -0.9596
    3TCq2    C514271   0.526   1.099   0.097 -0.0652 -0.3933  0.5455
    3TCq2    C614272   0.539   1.036   0.212  0.2636 -0.4630 -0.3070
    3TCq2    C714273   0.550   1.102   0.331 -0.8425 -0.1353 -0.2263
    3TCq2    C814274   0.548   0.890   0.211 -0.2319  1.1243 -0.2259
    3TCq2    O414275   0.546   0.851   0.325  0.1698 -0.3348  0.3310
    3TCq2    C914276   0.524   1.295  17.651  0.0964  0.6210  0.0647
    3TCq2    O514277   0.563   1.233  17.545  0.3913  0.2959 -0.1654
    3TCq2    O614278   0.526   1.418  17.651 -0.7634  0.4638  0.8355
    3TCq2    H214279   0.549   1.411   0.203 -0.3789  0.0537  0.3865
    3TCq2    H314280   0.498   1.040   0.011 -0.2737  0.1998  0.1998
    3TCq2    H414281   0.564   1.046   0.423 -2.9421 -1.4188 -0.6797
    1TCq1    O114282   0.011   1.045  12.154  0.5732 -0.2366 -0.0981
    1TCq1    C114283   4.636   0.984  12.227 -0.1869  0.4899  0.4439
    1TCq1    O214284   4.518   0.972  12.198  0.1199  0.0959 -0.1855
    1TCq1    C214285   4.691   0.974  12.362 -0.4816 -0.0876 -0.6909
    1TCq1    C314286   4.612   0.915  12.456 -1.1152  0.1597  0.1195
    1TCq1    C414287   4.669   0.890  12.578  0.2642  0.1618 -0.4369
    1TCq1    C514288   0.080   0.917  12.606 -0.3760 -0.1408  0.3261
    1TCq1    C614289   0.144   0.983  12.514  0.7486 -0.3313 -0.7826
    1TCq1    C714290   0.098   1.020  12.387  0.9465 -0.1042 -0.1871
    1TCq1    C814291   0.288   1.004  12.520  0.4348  0.3393 -0.2886
    1TCq1    O414292   0.352   1.038  12.419  0.0993 -0.0409 -0.5861
    1TCq1    C914293   4.581   0.831  12.679  0.5761  0.6571  0.0938
    1TCq1    O514294   4.467   0.788  12.641 -0.0407  0.5577  0.5668
    1TCq1    O614295   4.619   0.818  12.797  0.0744 -0.8107 -0.0979
    1TCq1    H114296   4.696   1.067  12.065  0.9694  0.2775 -0.1268
    1TCq1    H214297   4.515   0.884  12.418 -0.3575 -1.4822 -0.4359
    1TCq1    H314298   0.117   0.889  12.704 -0.4077 -0.3729  0.2723
    1TCq1    H414299   0.150   1.091  12.323 -0.1627 -0.5005 -1.5341
    2MPD2     C14300   0.543   1.116  12.624 -0.5514 -0.0597  0.5257
    2MPD2    C114301   0.472   1.009  12.681 -0.4853 -0.0979 -0.3503
    2MPD2    C214302   0.529   0.950  12.792  0.2955  0.3497 -1.1929
    2MPD2    C314303   0.654   0.990  12.844  0.4770  0.4408 -1.0211
    2MPD2    C414304   0.723   1.096  12.785 -0.1978 -0.0033 -0.0599
    2MPD2    C514305   0.663   1.151  12.681  0.4746 -0.1934 -0.3485
    2MPD2     H14306   0.460   0.884  12.842  0.6376  1.1033  0.2712
    2MPD2    H114307   0.814   1.141  12.822 -1.2074  1.9786  0.0330
    2MPD2    H214308   0.509   1.171  12.537  0.5379  1.5068  1.1050
    2MPD2    H314309   0.704   1.241  12.636 -0.2187 -0.3771 -1.3414
    2MPD2     N14310   0.696   0.939  12.970  0.2741 -0.2673  0.3704
    2MPD2    H514311   0.627   0.888  13.024 -1.0736 -0.4499 -1.5157
    2MPD2    N114312   0.339   0.977  12.647 -0.3312  0.1221 -1.0731
    2MPD2    H714313   0.285   0.924  12.714  0.0841  0.1183 -0.7407
    3TCq1    O114314   0.634   0.800  13.574  0.1617 -0.3093 -0.1417
    3TCq1    C114315   0.596   0.831  13.447 -0.1962 -0.3526 -0.6682
    3TCq1    O214316   0.484   0.809  13.407  0.1507  0.2262 -0.1289
    3TCq1    C214317   0.720   0.844  13.364  0.0374  0.0816  0.5404
    3TCq1    C314318   0.840   0.798  13.410 -0.2899 -0.0390  0.8942
    3TCq1    C414319   0.948   0.787  13.327 -0.3474  0.0471 -0.6873
    3TCq1    C514320   0.939   0.843  13.202 -0.5569 -0.6899 -0.0774
    3TCq1    C614321   0.822   0.903  13.161 -0.3645 -0.6480  0.4669
    3TCq1    C714322   0.709   0.896  13.233  0.5693 -0.6363 -0.6391
    3TCq1    C814323   0.820   0.968  13.030 -0.2697 -0.4764 -0.0631
    3TCq1    O414324   0.925   0.988  12.975  0.3263 -0.6097  0.2954
    3TCq1    C914325   1.059   0.706  13.367  0.2146  0.2293  0.2899
    3TCq1    O514326   1.070   0.677  13.489 -0.1812 -0.3235  0.1704
    3TCq1    O614327   1.138   0.666  13.281 -0.1782  0.1191  0.4370
    3TCq1    H114328   0.714   0.841  13.613  0.3193 -1.3013  0.6001
    3TCq1    H214329   0.852   0.759  13.510  1.4686  0.0679  0.7339
    3TCq1    H314330   1.015   0.826  13.127  0.8727  0.8288  1.0407
    3TCq1    H414331   0.609   0.923  13.201  0.3715 -1.4762 -0.7061
    1MPD2     C14332   0.113   1.990  14.805 -0.1954  0.3942 -0.4881
    1MPD2    C114333   0.068   1.866  14.823 -0.8020  0.5928  0.1836
    1MPD2    C214334   0.162   1.773  14.865  0.2484  0.6712  0.4870
    1MPD2    C314335   0.299   1.796  14.878  0.1217 -0.3540  0.3174
    1MPD2    C414336   0.345   1.924  14.852  1.0346  0.0215 -0.6397
    1MPD2    C514337   0.246   2.020  14.823  0.3280 -0.2802 -0.1756
    1MPD2     H14338   0.138   1.668  14.879  1.6762 -0.0058 -2.1550
    1MPD2    H114339   0.446   1.960  14.866  0.6021  0.2036  1.9864
    1MPD2    H214340   0.049   2.074  14.780 -0.9458 -0.2991 -0.9206
    1MPD2    H314341   0.279   2.119  14.796  0.5368 -1.0593 -2.7360
    1MPD2     N14342   0.381   1.688  14.917  0.4914 -0.4230 -0.9157
    1MPD2    H514343   0.332   1.604  14.944 -1.6834  0.5283 -1.9097
    1MPD2    N114344   4.652   1.829  14.807  0.3782  0.4253  0.2106
    1MPD2    H714345   4.589   1.902  14.777 -1.7587 -2.2177 -1.7181
    2TMC3    C114346   4.476   1.692  14.779 -0.3944 -0.5436  0.1520
    2TMC3    C214347   4.405   1.587  14.833  0.3707  0.2730 -0.0090
    2TMC3    C314348   4.340   1.499  14.754  0.1295  0.3699  0.3692
    2TMC3    C414349   4.470   1.709  14.640  0.8560 -0.6005  0.1387
    2TMC3    C514350   4.400   1.620  14.566 -0.6025  0.2023 -0.1634
    2TMC3    C614351   4.328   1.514  14.620  0.3911 -0.5543  0.1328
    2TMC3     C14352   4.602   1.708  14.839  0.4661 -0.4411  0.7544
    2TMC3     O14353   4.641   1.606  14.892 -0.2595  0.0091 -0.6539
    2TMC3     H14354   4.407   1.574  14.941  0.1128 -3.0593 -0.4000
    2TMC3    H114355   4.506   1.802  14.599 -0.4266 -0.4436 -0.6334
    2TMC3    H214356   4.253   1.455  14.568  1.0723 -1.4260  0.1316
    2TMC3    C714357   4.402   1.640  14.426 -0.2513  0.7005 -0.5365
    2TMC3    C814358   4.382   1.366  14.788 -0.4449  0.4182  0.0608
    2TMC3    O114359   4.303   1.601  14.373 -0.0393 -0.2287  0.3531
    2TMC3    O214360   4.305   1.273  14.755 -0.5074 -0.2568  0.1866
    3TCq1    O114361   0.563   2.190  13.722  0.0128 -0.2209  0.6782
    3TCq1    C114362   0.483   2.117  13.644  0.0915 -0.7398 -0.2566
    3TCq1    O214363   0.419   2.159  13.546  0.0041  0.0260  0.6681
    3TCq1    C214364   0.430   2.016  13.735 -0.2069  0.5692  0.2633
    3TCq1    C314365   0.523   1.966  13.820  1.0094  0.5695  0.3502
    3TCq1    C414366   0.480   1.893  13.935  1.1228 -0.4127 -0.3979
    3TCq1    C514367   0.351   1.876  13.952 -0.2625 -0.6024 -0.2576
    3TCq1    C614368   0.257   1.937  13.873  0.3171 -0.6454 -0.7684
    3TCq1    C714369   0.292   2.008  13.761 -0.2289  0.4418  0.4245
    3TCq1    C814370   0.119   1.904  13.887 -0.3857 -0.1680 -0.1097
    3TCq1    O414371   0.047   1.938  13.795  0.2457 -0.2798 -0.1707
    3TCq1    C914372   0.571   1.823  14.017 -0.3197  0.6205 -0.1153
    3TCq1    O514373   0.532   1.803  14.135  0.1047 -0.2720  0.5747
    3TCq1    O614374   0.670   1.770  13.959 -0.3262 -0.4162  0.5395
    3TCq1    H114375   0.574   2.166  13.817 -1.1178  0.6643  1.0312
    3TCq1    H214376   0.629   1.961  13.795  0.9580 -0.7962  0.4100
    3TCq1    H314377   0.318   1.798  14.020  1.4412 -1.8230 -0.8420
    3TCq1    H414378   0.221   2.041  13.687 -0.8759 -0.0698  0.8216
    4MPD2     C14379   4.584   1.768  13.961  0.2060  0.5360  0.2774
    4MPD2    C114380   4.685   1.788  14.048 -0.3969 -0.1452  0.4975
    4MPD2    C214381   4.668   1.751  14.187 -0.3993 -0.2285 -0.0342
    4MPD2    C314382   4.548   1.693  14.237  0.0595  0.8032 -0.1961
    4MPD2    C414383   4.454   1.662  14.140 -0.1855 -0.5055  0.2443
    4MPD2    C514384   4.473   1.700  14.009 -0.2677 -0.4103 -0.3063
    4MPD2     H14385   0.026   1.766  14.260 -0.9414  0.7858  0.3401
    4MPD2    H114386   4.353   1.632  14.165 -0.4025 -0.0944 -0.1389
    4MPD2    H214387   4.591   1.786  13.854  0.5845 -1.5246 -0.0492
    4MPD2    H314388   4.404   1.669  13.931  0.8621  1.2902 -1.9905
    4MPD2     N14389   4.525   1.671  14.375  0.2277  0.1709  0.5210
    4MPD2    H514390   4.604   1.682  14.438 -0.2003  0.0109  1.0886
    4MPD2    N114391   0.091   1.843  14.008  0.0793 -0.2384 -0.4155
    4MPD2    H714392   0.157   1.846  14.086  0.9093  1.0752 -1.1675
    5TMC2    C114393   0.412   1.352  14.992 -0.6227  0.3041 -0.3646
    5TMC2    C214394   0.476   1.300  14.882  0.1747  0.3432 -0.0719
    5TMC2    C314395   0.578   1.366  14.818 -0.9772  0.3630 -0.3626
    5TMC2    C414396   0.448   1.480  15.019 -0.7805 -0.5245 -0.4744
    5TMC2    C514397   0.554   1.550  14.956  0.4760  0.8487  0.4860
    5TMC2    C614398   0.625   1.488  14.852 -0.1253  0.5702  0.0665
    5TMC2     C14399   0.264   1.347  14.999 -0.4448  0.5239  0.2274
    5TMC2     O14400   0.216   1.456  14.976  0.1439  0.2221 -0.1484
    5TMC2     H14401   0.433   1.205  14.849  0.6719 -0.0836  0.5152
    5TMC2    H114402   0.405   1.530  15.106 -1.5807  0.5281 -1.4771
    5TMC2    H214403   0.696   1.548  14.796  0.7809  2.5236  3.3522
    5TMC2    C714404   0.515   1.686  14.923 -0.2944  0.1723  0.7768
    5TMC2    C814405   0.660   1.286  14.732 -0.8992  1.4071  0.1978
    5TMC2    O114406   0.598   1.763  14.876 -0.0752  0.2036 -0.2235
    5TMC2    O214407   0.678   1.169  14.760  0.2327  0.2132 -0.1635
    5TMC2    O514408   0.749   1.364  14.678  0.2445 -0.2588 -0.1109
    5TMC2    H514409   0.696   1.437  14.640  1.5486  0.4654 -0.5194
    6MPD2     C14410   4.556   1.134  14.855 -0.2563 -0.8482 -0.3331
    6MPD2    C114411   4.589   1.266  14.882  0.0067  0.2067  0.1926
    6MPD2    C214412   4.708   1.292  14.937  0.3192  0.6552 -0.5942
    6MPD2    C314413   0.088   1.194  14.940  0.0392 -0.4394 -0.1029
    6MPD2    C414414   0.053   1.064  14.906 -0.1706 -0.4283 -0.1614
    6MPD2    C514415   4.646   1.040  14.886  0.3542  0.2921  0.4535
    6MPD2     H14416   0.011   1.393  14.967 -1.1791  0.8101  0.0867
    6MPD2    H114417   0.125   0.985  14.922 -0.1419 -0.4577 -0.4395
    6MPD2    H214418   4.460   1.109  14.812 -0.1457 -0.9004 -0.5489
    6MPD2    H314419   4.628   0.938  14.852 -1.3537  0.3680  1.1400
    6MPD2     N14420   0.214   1.222  14.993  0.7952 -0.5130  0.2914
    6MPD2    H514421   0.282   1.147  15.003  0.3153 -0.8951  0.7564
    6MPD2    N114422   4.500   1.372  14.853  0.0953  0.5493 -0.2749
    6MPD2    H714423   4.539   1.459  14.886 -0.9862  0.7189  0.5570
  945NH4     N114424   4.545   1.434   1.312  0.0511  0.6064  0.1922
  945NH4     H214425   4.530   1.457   1.212  0.2672  1.5430  0.3733
  945NH4     H314426   4.472   1.491   1.358 -0.2684  0.4001 -0.0658
  945NH4     H414427   4.643   1.462   1.336  0.2925 -0.0042 -0.0802
  945NH4     H514428   4.529   1.333   1.329  0.0586  0.9855  2.4727
  946SOD     NA14429   0.580   1.272   9.722 -0.0751  0.1744  0.0877
  947SOD     NA14430   0.477   1.890  14.320 -0.2086  0.3771  0.4113
  948SOD     NA14431   2.300   1.323  17.436 -0.1120 -0.1990 -0.3334
  949SOD     NA14432   0.686   1.380  17.450 -0.2714  0.1961 -0.2183
  950SOD     NA14433   0.507   4.388  10.059 -0.1486  0.2668  0.5814
  951SOD     NA14434   4.101   1.174   9.896  0.2439 -0.0133 -0.1837
  952SOD     NA14435   2.631   0.418  13.769  0.0679 -0.0236  0.3435
  953SOD     NA14436   0.393   0.762  10.096  0.7035  0.1901 -0.2968
  954SOD     NA14437   0.602   4.438   8.262  0.1462  0.2745 -0.5805
  955SOD     NA14438   4.062   0.356  11.015  0.5465  0.2324  0.2783
  956SOD     NA14439   1.502   4.361  14.441 -0.2335 -0.3632  0.3973
  957SOD     NA14440   1.345   2.304  11.575 -0.2101 -0.0609  0.2775
  958SOD     NA14441   1.302   1.905  14.727 -0.0192 -0.0448 -0.5610
  959SOD     NA14442   4.085   3.105   4.564  0.0107  0.3166 -0.7695
  960SOD     NA14443   0.889   1.463  12.465 -0.0879  0.2526 -0.4429
  961SOD     NA14444   4.026   1.143   0.668 -0.5296  0.1904  0.5194
  962SOD     NA14445   2.200   0.492   0.319 -0.1634 -0.1450  0.0945
  963SOD     NA14446   3.112   0.418   1.036  0.3448  0.0662  0.0794
  964SOD     NA14447   2.989   2.588  13.187  0.6096 -0.4155 -0.5174
  965SOD     NA14448   2.801   2.740  11.564  0.1052 -0.3566 -0.0982
  966SOD     NA14449   3.210   0.320   0.706 -0.1399 -0.3960  0.1446
  967SOD     NA14450   1.025   2.037   8.252 -0.2769 -0.2686  0.1480
  968SOD     NA14451   1.164   0.658  11.501 -0.8107  0.3907  0.0514
  969SOD     NA14452   1.058   2.415  10.408  0.0580 -0.1225  0.0648
  970SOD     NA14453   1.166   0.024  10.673  0.3137  0.2668 -0.4281
  971SOD     NA14454   1.367   0.679  12.077  0.2482 -0.0628  0.0298
  972SOD     NA14455   2.234   3.328  14.365  0.3185  0.0906 -0.1923
  973SOD     NA14456   0.811   0.352   1.656 -0.3794 -0.4982  0.1525
  974SOD     NA14457   4.121   3.928  12.742 -0.0132  0.3467 -0.1015
  975SOD     NA14458   1.056   4.716  10.367  0.2349  0.2541 -0.0627
  976SOD     NA14459   1.792   0.737  14.354  0.0814  0.0728 -0.1804
  977SOD     NA14460   0.554   1.612  14.218 -0.3365 -0.1629 -0.3167
  978SOD     NA14461   3.972   0.592   8.956  0.2057  0.3057 -0.3093
  979SOD     NA14462   1.384   0.330  12.073  0.1236  0.1617 -0.1052
  980SOD     NA14463   1.712   1.083  13.879 -0.2171  0.7657  0.5174
  981SOD     NA14464   2.956   4.412   8.974  0.1645 -0.1316 -0.0839
  982SOD     NA14465   0.324   3.404   1.756  0.2722  0.5976  0.0687
  983SOD     NA14466   2.017   0.488   3.086  0.0870 -0.4297  0.8256
  984SOD     NA14467   3.423   0.609  17.421  0.1058 -0.1264 -0.1329
  985SOD     NA14468   3.783   1.748  10.832 -0.0939 -0.3262  0.4673
  986SOD     NA14469   3.953   3.865  13.877  0.1134 -0.7083 -0.8380
  987SOD     NA14470   1.158   2.081  14.941  0.3094  0.0497 -0.4088
  988SOD     NA14471   4.021   3.638   0.650  0.3105  0.2085  0.8518
  989SOD     NA14472   1.967   1.955   4.656  0.1742 -0.3697 -0.0122
  990SOD     NA14473   0.709   1.552  11.705 -0.1820 -0.1628 -0.5680
  991SOD     NA14474   3.947   3.251   5.080  0.3233  0.0962 -0.0172
  992SOD     NA14475   4.340   0.620  12.689  0.1632 -0.4746  0.6556
  993SOD     NA14476   2.082   1.586  14.869 -0.0048 -0.2262  0.6887
  994SOD     NA14477   0.871   1.720  14.040 -0.3696  0.2673 -0.3695
  995SOD     NA14478   4.539   4.331   1.923  0.1787 -0.2782 -0.3283
  996SOD     NA14479   4.489   0.880  12.976  0.2968  0.0928  0.1410
  997SOD     NA14480   3.522   4.358   2.628  0.2505  0.2129  0.0531
  998SOD     NA14481   3.308   2.776   0.028 -0.2733  0.2651 -0.1228
  999SOD     NA14482   0.141   2.796   2.252  0.2212 -0.7164 -0.4220
 1000SOD     NA14483   2.927   0.066  12.762  0.5360 -0.0534 -0.1250
 1001SOD     NA14484   1.923   0.604  13.060  0.3192  0.0873 -0.1051
 1002SOD     NA14485   1.415   1.983   1.528 -0.4159  0.3494  0.3202
 1003SOD     NA14486   1.655   3.797   6.740  0.0839  0.0409  0.4016
 1004SOD     NA14487   3.128   1.487  13.576  0.5419  0.3909 -0.3506
 1005SOD     NA14488   0.486   1.994   9.955  0.3216  0.0384 -0.7091
 1006SOD     NA14489   0.380   4.673   9.495  0.0954  0.0532  0.1258
 1007SOD     NA14490   3.299   1.753  14.580 -0.0096 -0.7273 -0.1857
 1008SOD     NA14491   4.474   4.279  10.945  0.4719 -0.2639  0.0610
 1009SOD     NA14492   2.508   1.592  10.736  0.0544 -0.1350  0.4179
 1010SOD     NA14493   2.370   3.208  16.633 -0.3625 -0.0055  0.0574
 1011SOL     OW14494   2.537   4.109  15.404 -0.0770 -0.1886 -0.2657
 1011SOL    HW114495   2.568   4.196  15.430  1.6550 -1.2090  1.0909
 1011SOL    HW214496   2.506   4.135  15.318 -2.5739 -1.4086  0.2609
 1012SOL     OW14497   2.888   3.101   0.642 -0.2568 -0.4101 -0.2241
 1012SOL    HW114498   2.829   3.169   0.608  0.6382  1.6544  2.3332
 1012SOL    HW214499   2.845   3.039   0.584  1.2930 -1.3241 -0.3816
 1013SOL     OW14500   1.540   3.029   4.106 -0.0857 -0.0040 -0.1622
 1013SOL    HW114501   1.600   3.033   4.031 -1.3792  2.4710 -1.0643
 1013SOL    HW214502   1.486   3.107   4.100  0.9150  0.7298  0.3400
 1014SOL     OW14503   3.295   0.624  17.609  0.3624 -0.0038  0.0950
 1014SOL    HW114504   3.277   0.548  17.665  0.0430 -1.0852 -1.4660
 1014SOL    HW214505   3.294   0.692  17.677  0.0789  0.0984 -0.0136
 1015SOL     OW14506   1.277   3.095  14.112  0.3335 -0.6007  0.4996
 1015SOL    HW114507   1.303   3.068  14.200  1.0201  1.3178  0.8985
 1015SOL    HW214508   1.268   3.012  14.067  1.7865 -1.2951  1.4860
 1016SOL     OW14509   1.554   2.580   4.378 -0.1496  0.2004  0.0477
 1016SOL    HW114510   1.486   2.559   4.314  0.6011 -2.2475  0.0520
 1016SOL    HW214511   1.562   2.673   4.356  2.5726 -0.2243 -0.7456
 1017SOL     OW14512   1.589   0.129  13.725  0.1958  0.2560  0.5298
 1017SOL    HW114513   1.521   0.195  13.740 -0.4469  0.1039 -1.7968
 1017SOL    HW214514   1.571   0.110  13.633 -1.4131 -0.8060  1.0787
 1018SOL     OW14515   1.906   2.293   3.731 -0.0332  0.3909 -0.1743
 1018SOL    HW114516   1.942   2.332   3.811 -2.0107 -2.1594  1.9727
 1018SOL    HW214517   1.831   2.346   3.705  1.3504  2.1952 -0.4391
 1019SOL     OW14518   1.190   3.012   4.605 -0.5186 -0.4890 -0.6238
 1019SOL    HW114519   1.154   2.935   4.649 -0.3018  0.6588  1.5908
 1019SOL    HW214520   1.170   3.087   4.660  1.3421 -1.1359  0.9355
 1020SOL     OW14521   1.824   0.243   6.009  0.1421  0.5373 -0.4398
 1020SOL    HW114522   1.918   0.233   5.995 -0.1210  0.1414 -2.0232
 1020SOL    HW214523   1.813   0.197   6.092  3.8804 -0.7948 -0.6730
 1021SOL     OW14524   0.543   3.747   8.134 -0.3303  0.0766  0.0491
 1021SOL    HW114525   0.504   3.778   8.052 -1.5831 -2.6406 -0.3756
 1021SOL    HW214526   0.601   3.680   8.098 -0.3361  1.6031 -2.7847
 1022SOL     OW14527   1.332   1.753   2.323 -0.2697 -0.2693 -0.0827
 1022SOL    HW114528   1.362   1.759   2.233  3.3886  0.1046  1.1580
 1022SOL    HW214529   1.335   1.845   2.349 -0.9992 -0.4374  0.5999
 1023SOL     OW14530   3.425   2.672  15.100  0.1600 -0.1810  0.4373
 1023SOL    HW114531   3.387   2.758  15.082 -0.6160 -0.7160 -0.4544
 1023SOL    HW214532   3.391   2.667  15.189 -1.0440  1.3902  0.0629
 1024SOL     OW14533   0.984   0.855  12.204  0.2367 -0.0995 -0.5383
 1024SOL    HW114534   0.929   0.777  12.206 -0.3245  0.4030  2.6459
 1024SOL    HW214535   0.920   0.920  12.234 -0.7266 -1.3230  0.0198
 1025SOL     OW14536   3.689   4.214  11.868 -0.6321 -0.1229 -0.4874
 1025SOL    HW114537   3.675   4.270  11.791  0.1740 -1.3369 -1.5016
 1025SOL    HW214538   3.648   4.134  11.835  0.5360 -1.4772  1.3474
 1026SOL     OW14539   2.241   2.097  14.424 -0.2308  0.0876 -0.1461
 1026SOL    HW114540   2.262   2.010  14.387 -2.1883 -1.0205  1.3710
 1026SOL    HW214541   2.312   2.124  14.483 -0.9121  3.8240 -1.0741
 1027SOL     OW14542   1.849   4.700   4.711  0.1275  0.0262  0.2396
 1027SOL    HW114543   1.903   4.624   4.731  0.2647  0.2655  0.7787
 1027SOL    HW214544   1.759   4.669   4.698  0.5513 -0.3062 -1.8168
 1028SOL     OW14545   0.202   1.470  14.691  0.3344 -0.3337  0.3533
 1028SOL    HW114546   0.166   1.396  14.642  2.5926 -1.2942  0.1689
 1028SOL    HW214547   0.181   1.456  14.783 -2.8677 -0.4124 -0.3753
 1029SOL     OW14548   3.224   2.535  16.654  0.4337  0.1501  0.0523
 1029SOL    HW114549   3.274   2.457  16.632  0.7011 -0.0051  1.2097
 1029SOL    HW214550   3.294   2.598  16.636 -1.2031  1.2981 -2.3075
 1030SOL     OW14551   3.325   3.448   1.966  0.0525  0.1593  0.2025
 1030SOL    HW114552   3.387   3.436   1.893 -0.9253  3.9066 -1.2145
 1030SOL    HW214553   3.386   3.471   2.036 -1.0367  1.3161  0.7510
 1031SOL     OW14554   4.383   0.298  15.982 -0.3805 -0.8525 -0.5031
 1031SOL    HW114555   4.469   0.284  15.942 -0.7775  1.9619 -2.3647
 1031SOL    HW214556   4.359   0.388  15.959 -1.9618 -1.1815 -0.1030
 1032SOL     OW14557   2.792   0.510  10.511 -0.0649 -0.4437 -0.4389
 1032SOL    HW114558   2.699   0.532  10.508  0.6556  2.8272  1.4018
 1032SOL    HW214559   2.828   0.583  10.561 -0.2687 -1.2377  0.8724
 1033SOL     OW14560   2.565   3.244   2.416 -0.5315  0.3854 -0.3540
 1033SOL    HW114561   2.642   3.268   2.364 -0.6553 -1.5007 -1.4064
 1033SOL    HW214562   2.505   3.217   2.346 -1.2817  2.3068 -0.4430
 1034SOL     OW14563   1.196   3.078  14.450 -0.1836  0.0912  0.0633
 1034SOL    HW114564   1.160   3.137  14.384 -0.3149 -0.7957 -0.6697
 1034SOL    HW214565   1.275   3.126  14.472  0.4383 -1.2107  0.6927
 1035SOL     OW14566   3.380   4.349  14.255  0.7805 -0.6200  0.2173
 1035SOL    HW114567   3.326   4.403  14.313  3.2924 -0.8920  2.7738
 1035SOL    HW214568   3.461   4.399  14.241  0.5799 -0.2329  0.4424
 1036SOL     OW14569   0.024   3.034   6.701  0.3852 -0.2025  0.1931
 1036SOL    HW114570   0.110   3.005   6.671 -0.1100 -0.6842 -0.7625
 1036SOL    HW214571   0.017   2.965   6.767 -0.7391  0.7071  1.0292
 1037SOL     OW14572   4.188   2.220   3.378 -0.2670 -0.2929  0.4102
 1037SOL    HW114573   4.210   2.306   3.412 -3.9154  0.1877  1.6300
 1037SOL    HW214574   4.098   2.241   3.352 -0.6709 -0.2596  1.8196
 1038SOL     OW14575   0.400   4.203  12.280  0.1326 -0.3294 -0.7710
 1038SOL    HW114576   0.390   4.265  12.352  1.7105 -2.5250  1.3110
 1038SOL    HW214577   0.471   4.144  12.304 -0.2059 -0.0965  0.7565
 1039SOL     OW14578   2.993   2.194   8.481  0.4665  0.2928  0.2248
 1039SOL    HW114579   2.985   2.277   8.433  0.9962 -0.6757 -1.4988
 1039SOL    HW214580   2.901   2.168   8.488  0.5130  0.1176  0.1730
 1040SOL     OW14581   3.573   1.183   3.981 -0.2502 -0.0920 -0.0720
 1040SOL    HW114582   3.605   1.234   4.055 -0.2017 -0.0670 -0.1097
 1040SOL    HW214583   3.533   1.116   4.037 -0.7401  1.0410  0.9139
 1041SOL     OW14584   3.578   1.740   7.772  0.3119 -0.9849  0.2019
 1041SOL    HW114585   3.538   1.655   7.789  0.5042 -1.0696  0.2382
 1041SOL    HW214586   3.514   1.806   7.797  0.6164 -0.8803  0.7049
 1042SOL     OW14587   1.765   0.605   2.745  1.0596  0.5238 -0.6662
 1042SOL    HW114588   1.691   0.658   2.715  0.4034 -0.0515 -0.0852
 1042SOL    HW214589   1.750   0.533   2.684 -0.6924 -0.6824  1.1701
 1043SOL     OW14590   4.384   4.166   5.013 -0.3787 -0.2656  0.0165
 1043SOL    HW114591   4.455   4.218   4.974  1.0718 -1.8426  0.5334
 1043SOL    HW214592   4.389   4.086   4.961  0.7947  0.6987 -1.3951
 1044SOL     OW14593   4.709   4.092  16.731  0.5749  0.5996 -0.0493
 1044SOL    HW114594   4.650   4.054  16.795  1.2313  0.5855  0.5411
 1044SOL    HW214595   0.065   4.042  16.759 -0.3954 -1.2213 -0.6319
 1045SOL     OW14596   2.501   1.294  17.525  0.6004  0.2104  0.1990
 1045SOL    HW114597   2.535   1.383  17.519 -0.2013  0.5626  0.9269
 1045SOL    HW214598   2.579   1.250  17.561  1.9888  1.4633 -1.2765
 1046SOL     OW14599   0.007   2.624  15.026 -0.4914 -0.5103  0.0959
 1046SOL    HW114600   4.657   2.580  15.071 -1.3600  1.7315  0.9511
 1046SOL    HW214601   0.023   2.701  15.081  0.7499 -1.2231  0.7375
 1047SOL     OW14602   2.091   3.719  12.019  0.9006  0.1043  0.1035
 1047SOL    HW114603   2.120   3.631  12.042 -0.8422 -0.5555 -0.1724
 1047SOL    HW214604   1.998   3.714  12.044  0.5798  0.8295 -0.9267
 1048SOL     OW14605   2.433   1.994   1.872  0.2049  0.3159  0.3642
 1048SOL    HW114606   2.480   1.956   1.947 -1.2317 -1.2669  0.4553
 1048SOL    HW214607   2.386   1.916   1.844 -0.7168  1.3172 -0.8915
 1049SOL     OW14608   0.694   3.878  12.650  0.0277  0.3291  0.3065
 1049SOL    HW114609   0.724   3.900  12.738  1.1698 -1.7502  0.4362
 1049SOL    HW214610   0.642   3.801  12.671 -1.6155  1.0292 -1.1590
 1050SOL     OW14611   3.550   2.989  17.000  0.0893 -0.4162 -0.3557
 1050SOL    HW114612   3.624   2.929  17.014  0.5278 -0.0933 -1.3213
 1050SOL    HW214613   3.480   2.947  17.049  1.7166 -3.2411 -0.4470
 1051SOL     OW14614   4.594   3.142   1.845  0.2978 -0.0710 -0.0610
 1051SOL    HW114615   4.527   3.075   1.830 -0.9648  0.9829  0.7710
 1051SOL    HW214616   4.644   3.145   1.764 -0.5732  2.8991 -0.5153
 1052SOL     OW14617   3.459   2.773   0.897  0.0029 -0.8307  0.0337
 1052SOL    HW114618   3.441   2.691   0.851  2.5013 -0.3305 -1.8153
 1052SOL    HW214619   3.554   2.779   0.896  0.0414 -1.6548 -1.0356
 1053SOL     OW14620   2.422   0.196  10.184  0.2734 -0.5779  0.1107
 1053SOL    HW114621   2.382   0.173  10.268  1.4034  1.2168  1.1298
 1053SOL    HW214622   2.461   0.280  10.209 -0.1615 -1.2332  2.9957
 1054SOL     OW14623   2.685   1.153   5.599  0.3461 -0.2919  0.1678
 1054SOL    HW114624   2.682   1.087   5.530  3.3978  1.1040 -1.3349
 1054SOL    HW214625   2.600   1.187   5.573  0.6123  0.8180  0.7199
 1055SOL     OW14626   2.374   0.406  15.507 -0.3126 -0.0984 -0.1517
 1055SOL    HW114627   2.345   0.417  15.416  1.2587  0.9625 -0.5369
 1055SOL    HW214628   2.444   0.471  15.514 -0.2079 -0.2619  0.2786
 1056SOL     OW14629   4.585   4.024   9.580  0.3601  0.0275 -0.0090
 1056SOL    HW114630   4.510   4.082   9.592 -0.0424 -0.1520 -1.6751
 1056SOL    HW214631   4.626   4.080   9.514  2.7603 -1.7449  0.0157
 1057SOL     OW14632   1.585   3.513   2.542 -0.1228  0.2190 -0.4706
 1057SOL    HW114633   1.606   3.592   2.592 -2.8755 -0.2601  1.4719
 1057SOL    HW214634   1.676   3.498   2.517 -0.9989 -1.5734 -2.5858
 1058SOL     OW14635   3.499   0.160   5.018 -0.5882 -0.4556 -0.1892
 1058SOL    HW114636   3.489   0.237   4.962 -2.2417  0.2960  1.1100
 1058SOL    HW214637   3.408   0.141   5.039 -0.6328  1.6111  1.5248
 1059SOL     OW14638   0.016   1.561   4.125 -0.1626  0.2300 -0.6509
 1059SOL    HW114639   0.066   1.635   4.092  1.3674 -0.6386 -0.2666
 1059SOL    HW214640   0.053   1.491   4.071 -0.7326 -2.0713  1.9513
 1060SOL     OW14641   3.008   2.624   8.477 -0.3308  0.1311  0.1092
 1060SOL    HW114642   2.923   2.580   8.477  0.5505 -1.5807  2.1964
 1060SOL    HW214643   2.991   2.692   8.542 -1.3119  0.2108 -0.2347
 1061SOL     OW14644   2.873   2.625   9.573 -0.2333  0.3792  0.1819
 1061SOL    HW114645   2.803   2.669   9.527 -0.8496 -0.0912  0.6674
 1061SOL    HW214646   2.881   2.681   9.651 -0.7712  0.8580 -0.1129
 1062SOL     OW14647   2.255   1.914   0.816  0.0689  0.1379 -0.0717
 1062SOL    HW114648   2.310   1.849   0.772 -0.2792  0.3277 -0.7827
 1062SOL    HW214649   2.318   1.956   0.875 -0.1058 -0.9439  0.8812
 1063SOL     OW14650   3.184   1.337  17.079  0.5031 -0.3920  0.0458
 1063SOL    HW114651   3.247   1.385  17.132  0.7254 -0.8381  0.1887
 1063SOL    HW214652   3.233   1.333  16.997  0.6513 -3.4683  0.2913
 1064SOL     OW14653   1.646   2.996  16.578  0.2112  0.0339 -0.5726
 1064SOL    HW114654   1.738   3.011  16.597  0.5344 -1.5026 -0.9891
 1064SOL    HW214655   1.632   3.054  16.503 -1.0717 -1.5131 -1.5143
 1065SOL     OW14656   1.913   1.483  17.487  0.4377  0.0830  0.6466
 1065SOL    HW114657   1.826   1.443  17.484  0.1628  0.7323 -0.2265
 1065SOL    HW214658   1.896   1.563  17.536  0.4368 -0.7181  1.9471
 1066SOL     OW14659   2.260   2.833  16.330 -0.7862 -0.3955 -0.6786
 1066SOL    HW114660   2.269   2.755  16.274  1.3201 -1.5425  1.2923
 1066SOL    HW214661   2.242   2.908  16.274 -1.8872  0.6356  1.0620
 1067SOL     OW14662   0.190   3.483   8.223  0.2455  0.1151  0.0669
 1067SOL    HW114663   0.267   3.512   8.272  2.1211 -1.6433 -1.8640
 1067SOL    HW214664   0.157   3.570   8.198  1.9422  1.1463  1.4132
 1068SOL     OW14665   4.291   2.839   5.271 -0.5910 -0.3931  0.5918
 1068SOL    HW114666   4.205   2.803   5.291 -1.2901  2.0643  1.9950
 1068SOL    HW214667   4.296   2.910   5.336  1.5146  0.0579 -0.0524
 1069SOL     OW14668   2.689   2.754   6.283 -0.2435 -0.6831  0.0396
 1069SOL    HW114669   2.776   2.777   6.315 -0.5653  0.6089 -0.0313
 1069SOL    HW214670   2.700   2.756   6.188  1.0503 -1.7812  0.1652
 1070SOL     OW14671   1.913   2.512   2.520  0.1085 -0.1280 -0.3508
 1070SOL    HW114672   1.885   2.529   2.430  1.5191  3.1681 -0.1547
 1070SOL    HW214673   2.008   2.508   2.520  0.1471  0.6812 -1.5851
 1071SOL     OW14674   4.496   4.334   7.902 -0.9912 -0.5244 -0.1476
 1071SOL    HW114675   4.465   4.244   7.896 -0.1322 -0.7110 -1.7229
 1071SOL    HW214676   4.560   4.343   7.973 -1.3885 -3.0528  0.5103
 1072SOL     OW14677   3.449   2.322   2.502  0.0520  0.4275 -0.6372
 1072SOL    HW114678   3.422   2.233   2.482 -3.1050  1.4476 -0.8439
 1072SOL    HW214679   3.537   2.327   2.464 -0.0893 -0.4324 -1.0699
 1073SOL     OW14680   3.140   4.580  11.809  0.2707 -0.0569  0.0429
 1073SOL    HW114681   3.065   4.618  11.854  0.1413  1.7738 -1.7366
 1073SOL    HW214682   3.104   4.526  11.739  1.1763 -0.9476  0.2585
 1074SOL     OW14683   3.888   3.332   5.961  0.1680 -0.2020  0.0753
 1074SOL    HW114684   3.959   3.375   5.914 -0.8386  1.3077 -0.0628
 1074SOL    HW214685   3.937   3.261   6.002 -0.4256 -0.5159  0.2448
 1075SOL     OW14686   1.760   3.578   7.034 -0.4174 -0.2591 -1.0105
 1075SOL    HW114687   1.849   3.593   7.065 -0.9498 -0.8085  0.8121
 1075SOL    HW214688   1.773   3.584   6.940  3.5344 -0.9378 -0.5114
 1076SOL     OW14689   2.225   1.239  15.643  0.4600  0.2218  0.1422
 1076SOL    HW114690   2.294   1.207  15.701  0.4519  0.0870  0.0757
 1076SOL    HW214691   2.162   1.255  15.713 -0.0266  3.4664 -1.0528
 1077SOL     OW14692   1.290   1.597  11.743 -0.8891  0.4408  0.0265
 1077SOL    HW114693   1.355   1.532  11.716 -1.0497 -0.5348  1.9979
 1077SOL    HW214694   1.210   1.545  11.741 -0.5076 -0.1140 -0.6469
 1078SOL     OW14695   2.274   2.440  15.361 -0.0672  0.2002  0.1347
 1078SOL    HW114696   2.197   2.400  15.400 -0.0440  1.5601  1.5624
 1078SOL    HW214697   2.270   2.531  15.391  3.3074  0.6985 -0.8973
 1079SOL     OW14698   0.063   1.582   8.253 -0.0435  0.6652  0.3495
 1079SOL    HW114699   0.052   1.538   8.169  1.1596  1.9716 -0.4951
 1079SOL    HW214700   0.113   1.660   8.228  2.1868 -1.4147 -1.7217
 1080SOL     OW14701   3.171   1.815   8.036  0.1843 -0.6209  0.2666
 1080SOL    HW114702   3.251   1.868   8.034 -1.2881  1.5799 -0.4094
 1080SOL    HW214703   3.140   1.809   8.126  4.3543 -0.6728  1.7116
 1081SOL     OW14704   3.010   1.414   5.792 -0.0580  0.2212  0.0461
 1081SOL    HW114705   2.992   1.469   5.868 -0.5870  1.5797 -1.0592
 1081SOL    HW214706   3.081   1.461   5.748 -1.5397  1.2646 -1.2376
 1082SOL     OW14707   3.419   1.850  10.386 -0.5715 -0.0215  0.1396
 1082SOL    HW114708   3.494   1.832  10.442 -0.3880 -0.2448 -0.1723
 1082SOL    HW214709   3.408   1.938  10.422  1.4718  0.0231  0.6527
 1083SOL     OW14710   0.222   1.808   2.164  0.8498 -0.1891 -0.0020
 1083SOL    HW114711   0.200   1.879   2.104 -1.1183  0.6921  1.7756
 1083SOL    HW214712   0.304   1.845   2.197  0.8502 -0.9455  0.8369
 1084SOL     OW14713   1.573   3.230   3.470  0.3461 -0.4445  0.0456
 1084SOL    HW114714   1.650   3.177   3.492  1.0254  0.7199  0.4347
 1084SOL    HW214715   1.563   3.274   3.555 -2.6125  0.6098 -0.8550
 1085SOL     OW14716   2.244   3.246   0.372 -0.5342  0.1482 -0.5978
 1085SOL    HW114717   2.334   3.262   0.402 -0.6945  0.4809 -0.2968
 1085SOL    HW214718   2.253   3.253   0.277  0.0173  2.4221 -0.3616
 1086SOL     OW14719   0.839   3.576   7.318  0.4034  0.0145 -0.4915
 1086SOL    HW114720   0.895   3.538   7.386  0.8155 -0.7557 -1.2598
 1086SOL    HW214721   0.759   3.572   7.370  0.7343 -0.9600 -0.0639
 1087SOL     OW14722   1.222   0.554  15.621  0.1827 -0.3461  0.1643
 1087SOL    HW114723   1.311   0.530  15.597  0.6024  0.3500  1.0380
 1087SOL    HW214724   1.181   0.481  15.668  0.1502  0.0023  0.6730
 1088SOL     OW14725   3.241   1.369   1.475 -0.3339  0.7707 -0.3527
 1088SOL    HW114726   3.244   1.409   1.562  3.8936 -2.0969  0.8063
 1088SOL    HW214727   3.227   1.278   1.499  2.6843 -0.2417 -2.3390
 1089SOL     OW14728   3.667   3.752   3.334 -0.2902 -0.1795 -0.6052
 1089SOL    HW114729   3.603   3.694   3.375 -0.6419  1.2054  0.8308
 1089SOL    HW214730   3.714   3.788   3.410 -0.4927  0.6853 -0.8930
 1090SOL     OW14731   0.821   1.538   6.377  0.4529  0.3498 -0.8575
 1090SOL    HW114732   0.726   1.548   6.369  0.2992  0.2408  0.8873
 1090SOL    HW214733   0.835   1.506   6.466  2.0652  2.6139 -0.3029
 1091SOL     OW14734   4.040   3.179   3.558 -0.3658 -0.0045 -0.3575
 1091SOL    HW114735   3.945   3.189   3.565 -0.3445  0.6322 -1.0596
 1091SOL    HW214736   4.077   3.265   3.573  0.7614 -0.1722 -2.1070
 1092SOL     OW14737   1.383   0.298  14.866 -0.2560  0.1057 -0.4904
 1092SOL    HW114738   1.322   0.266  14.933  0.8560  0.0802  0.5003
 1092SOL    HW214739   1.460   0.246  14.888  0.3552  1.3429  0.2915
 1093SOL     OW14740   0.460   3.481   6.504 -0.7685 -0.7893 -0.3318
 1093SOL    HW114741   0.381   3.522   6.538 -0.0443 -1.1823  1.8048
 1093SOL    HW214742   0.531   3.513   6.559 -1.2007  0.2226 -0.3712
 1094SOL     OW14743   3.748   2.075  17.020 -0.0693 -0.3651 -0.1638
 1094SOL    HW114744   3.664   2.036  16.998  0.1105  0.6654 -2.6669
 1094SOL    HW214745   3.777   2.014  17.088 -0.0291  0.2882  0.3945
 1095SOL     OW14746   1.812   0.778  14.832  0.3009  0.2050  0.1625
 1095SOL    HW114747   1.737   0.742  14.785  0.6323  0.6117 -0.6701
 1095SOL    HW214748   1.797   0.747  14.922 -3.3001  1.8467  0.1368
 1096SOL     OW14749   4.416   3.247   3.816 -0.1727  0.0554  0.5516
 1096SOL    HW114750   4.430   3.192   3.739  3.1691  2.3778 -0.4988
 1096SOL    HW214751   4.329   3.216   3.842  0.0768  0.2339  1.5829
 1097SOL     OW14752   0.020   2.238  12.267  0.0728 -0.3385 -0.5202
 1097SOL    HW114753   0.086   2.192  12.319 -0.0513 -0.4645 -0.4753
 1097SOL    HW214754   4.673   2.171  12.266  2.3141 -2.6286 -0.1019
 1098SOL     OW14755   3.434   4.124   8.502 -0.0486 -0.1420 -0.1407
 1098SOL    HW114756   3.402   4.199   8.452 -1.1294 -0.6227 -0.1660
 1098SOL    HW214757   3.453   4.156   8.590 -2.6563  2.9578 -0.7194
 1099SOL     OW14758   0.926   2.591   0.614  0.0542 -0.0858  0.9299
 1099SOL    HW114759   0.908   2.588   0.708  0.4005  0.8684  1.0225
 1099SOL    HW214760   0.974   2.508   0.614 -0.3024 -0.2661 -1.9472
 1100SOL     OW14761   1.429   2.669  10.384  0.2339  0.0078 -0.5586
 1100SOL    HW114762   1.392   2.638  10.467 -1.4327  0.5336 -1.1169
 1100SOL    HW214763   1.512   2.620  10.384  1.2542  1.7536 -1.8320
 1101SOL     OW14764   4.300   3.893   4.528  0.1189  0.5951  0.2047
 1101SOL    HW114765   4.245   3.899   4.605  1.0398  1.9181  0.7587
 1101SOL    HW214766   4.336   3.805   4.539 -0.1102  0.4635 -0.0881
 1102SOL     OW14767   0.856   1.490   7.629 -0.3043  0.4434 -0.0746
 1102SOL    HW114768   0.876   1.428   7.558 -0.9741 -0.5564  0.6104
 1102SOL    HW214769   0.768   1.522   7.611 -0.8988 -0.3843  1.3827
 1103SOL     OW14770   0.878   1.898   5.421  0.0683 -0.2537  0.6947
 1103SOL    HW114771   0.916   1.985   5.409 -0.2361 -0.2043  0.0685
 1103SOL    HW214772   0.791   1.930   5.446 -0.5769 -0.2169 -1.6093
 1104SOL     OW14773   3.102   0.524  17.088 -0.1078  0.3569  0.4199
 1104SOL    HW114774   3.069   0.587  17.024  0.6269  2.1825  1.8208
 1104SOL    HW214775   3.021   0.475  17.105  1.3320 -2.1005  0.2428
 1105SOL     OW14776   0.094   4.718   1.310 -0.1153  0.1864  0.4225
 1105SOL    HW114777   0.084   4.623   1.307  1.2105  0.0955 -0.7649
 1105SOL    HW214778   0.008   0.013   1.349 -0.3002 -0.7783  0.3952
 1106SOL     OW14779   1.877   4.455  12.765 -0.1764  0.1891  0.2013
 1106SOL    HW114780   1.843   4.536  12.804  1.0020  0.3921  0.8151
 1106SOL    HW214781   1.916   4.424  12.847  0.4854 -1.6539 -0.8285
 1107SOL     OW14782   4.171   2.119   4.542 -0.6959 -0.6043 -0.1562
 1107SOL    HW114783   4.092   2.133   4.491 -0.9279  0.1244  0.3897
 1107SOL    HW214784   4.167   2.024   4.544  2.1120 -0.7022  1.3315
 1108SOL     OW14785   3.023   4.501   7.205  0.1470 -0.5760  0.2367
 1108SOL    HW114786   3.045   4.441   7.133 -0.3068  0.1713 -0.5313
 1108SOL    HW214787   2.931   4.526   7.192  0.5478  0.8584  0.1364
 1109SOL     OW14788   0.981   2.169   4.425 -0.2690 -0.6859  0.0338
 1109SOL    HW114789   1.051   2.194   4.484 -0.8119 -1.3597  0.9531
 1109SOL    HW214790   0.909   2.214   4.469 -1.4306 -2.8951  0.3980
 1110SOL     OW14791   1.996   1.719  15.035  0.4695 -0.1968 -0.1484
 1110SOL    HW114792   2.024   1.811  15.043 -1.9611  0.3399  2.0752
 1110SOL    HW214793   1.904   1.726  15.059  0.5309  1.5005 -0.3859
 1111SOL     OW14794   4.699   4.596  10.198 -0.0263 -0.0554  0.4076
 1111SOL    HW114795   4.634   4.561  10.137  0.6155  0.6757 -0.7077
 1111SOL    HW214796   0.050   4.605  10.135 -0.2284 -1.9679 -0.1051
 1112SOL     OW14797   4.053   4.399   3.580 -0.0513  0.0255 -0.2758
 1112SOL    HW114798   4.057   4.403   3.676  3.3257  1.6460 -0.4677
 1112SOL    HW214799   4.046   4.492   3.559 -1.8077 -0.2408 -0.8535
 1113SOL     OW14800   3.763   2.988   5.377 -0.3233  0.2273 -0.1256
 1113SOL    HW114801   3.710   2.928   5.429 -0.2371 -0.4243 -0.7913
 1113SOL    HW214802   3.720   2.967   5.294 -0.6184 -0.3304  0.1660
 1114SOL     OW14803   3.350   1.122   6.811  0.6664  0.2231 -0.4123
 1114SOL    HW114804   3.278   1.063   6.789  0.3167 -0.0075  1.3465
 1114SOL    HW214805   3.383   1.077   6.888  0.2906 -4.7492 -3.1396
 1115SOL     OW14806   2.757   1.514   0.228  0.2199 -0.1706 -0.7882
 1115SOL    HW114807   2.793   1.476   0.308 -1.6798  0.5206  0.3850
 1115SOL    HW214808   2.830   1.569   0.199  0.3023  0.0467 -0.1790
 1116SOL     OW14809   0.504   2.956   1.579 -0.1155 -0.3354  0.1551
 1116SOL    HW114810   0.428   2.905   1.550 -0.7207 -0.1787  1.4783
 1116SOL    HW214811   0.568   2.889   1.601 -0.0659 -0.6665 -0.9953
 1117SOL     OW14812   4.374   0.667   1.921 -0.1504  0.1604 -0.4688
 1117SOL    HW114813   4.298   0.619   1.955 -0.5037  1.6338  0.8297
 1117SOL    HW214814   4.348   0.690   1.832 -0.0284 -0.8766 -0.7694
 1118SOL     OW14815   3.527   3.625   1.195  0.6250  0.3620  0.0778
 1118SOL    HW114816   3.450   3.682   1.207  1.5341  1.1229  2.3793
 1118SOL    HW214817   3.484   3.547   1.230  2.7675  0.3096  2.5793
 1119SOL     OW14818   1.779   1.660   1.029 -0.2104  0.4010 -0.7044
 1119SOL    HW114819   1.812   1.675   1.118 -0.9737 -0.0670 -0.3496
 1119SOL    HW214820   1.693   1.623   1.047 -0.1192  0.5661  0.0831
 1120SOL     OW14821   1.054   2.204   2.624 -0.0343 -0.4467  0.8348
 1120SOL    HW114822   1.035   2.125   2.572 -0.3157  0.5630 -0.6046
 1120SOL    HW214823   0.995   2.182   2.697 -1.1531 -1.7787 -0.4535
 1121SOL     OW14824   4.600   4.192   6.539  0.0772 -0.2470 -0.3788
 1121SOL    HW114825   4.636   4.120   6.487  2.1259  0.7152 -0.2862
 1121SOL    HW214826   4.654   4.265   6.508  1.9490 -1.9729 -1.1680
 1122SOL     OW14827   1.024   1.743  13.850  0.9621 -0.0746 -0.3178
 1122SOL    HW114828   1.045   1.667  13.796  1.0241 -1.3746  1.5534
 1122SOL    HW214829   1.068   1.819  13.811  2.1952  0.2941  1.8013
 1123SOL     OW14830   3.166   3.512   7.676 -0.1840 -0.1502 -0.0554
 1123SOL    HW114831   3.098   3.568   7.639  0.2855  0.2195 -0.3496
 1123SOL    HW214832   3.222   3.494   7.600 -0.6862  0.7683 -0.6288
 1124SOL     OW14833   1.298   4.648   5.539  0.6468  0.4688  0.1633
 1124SOL    HW114834   1.227   4.688   5.489 -0.8917 -1.4406  0.8279
 1124SOL    HW214835   1.375   4.702   5.520  2.0528 -1.6446 -0.1523
 1125SOL     OW14836   3.468   3.430   2.208  0.4532  0.1169 -0.0771
 1125SOL    HW114837   3.381   3.456   2.239  1.3378  3.8018 -0.7552
 1125SOL    HW214838   3.522   3.468   2.277 -0.9325  1.6203  0.1822
 1126SOL     OW14839   3.345   1.530  17.207  0.1609  0.0261  0.2640
 1126SOL    HW114840   3.269   1.537  17.266 -0.6189  1.7711 -0.9472
 1126SOL    HW214841   3.372   1.618  17.178 -1.2604 -0.5251 -2.7421
 1127SOL     OW14842   4.240   3.378   3.247  0.0776  0.6098  0.1992
 1127SOL    HW114843   4.148   3.402   3.255  0.6000  2.9108 -0.8833
 1127SOL    HW214844   4.283   3.441   3.189 -1.0587 -1.4966 -2.9796
 1128SOL     OW14845   1.756   1.887   8.728 -0.4485 -0.2750  0.1063
 1128SOL    HW114846   1.753   1.856   8.819  2.6757 -0.5173  0.1161
 1128SOL    HW214847   1.756   1.802   8.683  1.8712  0.3379 -1.0269
 1129SOL     OW14848   2.430   0.886  14.300  0.4483  0.1927  0.0619
 1129SOL    HW114849   2.350   0.834  14.295  0.9433 -0.5229 -0.3511
 1129SOL    HW214850   2.456   0.899  14.209  1.8903  2.4453  0.8114
 1130SOL     OW14851   4.031   4.327  13.321  0.0633 -0.1158 -0.2617
 1130SOL    HW114852   4.062   4.413  13.346  0.8685 -0.3685 -0.4100
 1130SOL    HW214853   4.004   4.298  13.409  1.0726  0.4918  0.2368
 1131SOL     OW14854   1.145   1.835   1.142  0.1375 -0.6907  0.4407
 1131SOL    HW114855   1.208   1.897   1.104  0.1888 -0.6161  0.6501
 1131SOL    HW214856   1.139   1.768   1.073  0.3239 -0.6095  0.3440
 1132SOL     OW14857   0.764   2.963   3.107 -0.1873  0.4484  0.6272
 1132SOL    HW114858   0.701   2.923   3.168 -2.2777  0.0127 -1.8203
 1132SOL    HW214859   0.739   3.053   3.086  3.0090  0.5155 -2.9052
 1133SOL     OW14860   4.538   4.585   3.013  0.2021 -0.0342 -0.0000
 1133SOL    HW114861   4.628   4.555   2.999  0.2449 -0.1988  0.6531
 1133SOL    HW214862   4.507   4.504   3.052 -0.7065 -0.1548 -0.9969
 1134SOL     OW14863   4.545   0.124  12.938 -0.4468 -0.8628  0.4251
 1134SOL    HW114864   4.540   0.201  12.880  2.8801 -0.6210  0.4611
 1134SOL    HW214865   4.632   0.088  12.922  0.1482  0.2094  1.2902
 1135SOL     OW14866   2.386   0.944   5.201  0.4778 -0.5093 -0.4795
 1135SOL    HW114867   2.472   0.985   5.213 -0.9503  2.4475 -0.5368
 1135SOL    HW214868   2.406   0.924   5.110  1.3703 -0.0950 -0.3716
 1136SOL     OW14869   3.251   2.035   2.622 -0.7689  0.1872  0.5881
 1136SOL    HW114870   3.333   2.031   2.573 -0.0283  0.0950  1.8286
 1136SOL    HW214871   3.280   2.067   2.707 -0.9718  0.5647  0.5119
 1137SOL     OW14872   1.125   2.027  16.229  0.2041 -0.2776 -0.0548
 1137SOL    HW114873   1.181   2.104  16.222 -0.6944  0.2822 -0.9031
 1137SOL    HW214874   1.101   2.015  16.137  0.5254 -1.0078 -0.0433
 1138SOL     OW14875   3.407   2.723   6.312  0.3866  0.0075 -0.1484
 1138SOL    HW114876   3.432   2.666   6.385 -1.2301  1.1412  1.2786
 1138SOL    HW214877   3.355   2.789   6.357  0.0293  0.0605 -0.6414
 1139SOL     OW14878   2.429   0.898   9.959 -0.1287  0.1777  0.1297
 1139SOL    HW114879   2.440   0.807   9.984  2.3115  1.1267  2.5582
 1139SOL    HW214880   2.518   0.925   9.936  0.5324  1.1557  3.8094
 1140SOL     OW14881   1.266   0.072   4.646 -0.1039  0.2865 -0.5065
 1140SOL    HW114882   1.235   0.162   4.636 -0.1238  0.4832  1.2605
 1140SOL    HW214883   1.190   0.021   4.616 -1.1207  1.5711 -0.1270
 1141SOL     OW14884   0.680   3.449   3.179 -0.2110 -0.5574 -0.3741
 1141SOL    HW114885   0.623   3.395   3.233 -0.7345  1.0172  0.6572
 1141SOL    HW214886   0.760   3.412   3.217  0.3032  1.8669  0.9087
 1142SOL     OW14887   2.234   0.766   7.501 -0.2966  0.0842 -0.3708
 1142SOL    HW114888   2.305   0.817   7.540 -2.0534  0.6664  2.0578
 1142SOL    HW214889   2.268   0.677   7.493 -0.5807 -0.2817  2.4347
 1143SOL     OW14890   4.088   2.867   4.939  0.0150 -0.0127 -0.1292
 1143SOL    HW114891   4.180   2.893   4.933  0.0890 -0.0658  0.7157
 1143SOL    HW214892   4.096   2.783   4.986 -2.8063 -1.0193 -1.4806
 1144SOL     OW14893   3.605   3.406  15.646  0.3149 -0.2965  0.2222
 1144SOL    HW114894   3.517   3.375  15.667  1.5130 -2.9972  1.2282
 1144SOL    HW214895   3.589   3.440  15.558  1.0149 -1.2978 -0.2936
 1145SOL     OW14896   4.244   0.733   1.421 -0.0510 -0.2638 -0.0469
 1145SOL    HW114897   4.323   0.766   1.378  0.7657  0.3516  1.9460
 1145SOL    HW214898   4.205   0.683   1.349 -0.1268  0.4162 -0.4847
 1146SOL     OW14899   3.614   2.353   3.706  0.3948  0.2334 -0.2499
 1146SOL    HW114900   3.559   2.371   3.630 -1.1844  1.8063  1.2478
 1146SOL    HW214901   3.605   2.438   3.750  0.2242  0.8724 -1.5037
 1147SOL     OW14902   1.214   4.101   2.005  0.1461  0.2931  0.2567
 1147SOL    HW114903   1.256   4.185   2.024 -1.8640  0.9265  1.9930
 1147SOL    HW214904   1.234   4.045   2.079  0.7790 -2.6612 -2.1649
 1148SOL     OW14905   4.601   2.850   8.576 -0.2947  0.3155 -0.1221
 1148SOL    HW114906   4.598   2.939   8.541  1.3414 -0.5405 -2.4556
 1148SOL    HW214907   4.697   2.844   8.583 -0.0264  3.9769 -0.6188
 1149SOL     OW14908   2.511   0.525  10.511  0.1266 -0.0777 -0.3000
 1149SOL    HW114909   2.422   0.509  10.479 -0.3782 -1.7517  1.9455
 1149SOL    HW214910   2.492   0.525  10.604  1.4962 -0.0813 -0.0158
 1150SOL     OW14911   4.425   4.595   1.443 -0.2953 -0.2601  0.0060
 1150SOL    HW114912   4.446   4.507   1.474  3.8589  0.3608 -1.0699
 1150SOL    HW214913   4.424   4.654   1.518 -0.7959 -0.8259  0.4479
 1151SOL     OW14914   4.325   0.550   4.620  0.3776 -0.0448 -0.4976
 1151SOL    HW114915   4.293   0.608   4.688  0.0119  1.3696 -1.8793
 1151SOL    HW214916   4.377   0.614   4.572  2.6918 -0.8423  0.9374
 1152SOL     OW14917   0.683   2.026   1.815 -0.0800  0.3285  0.2957
 1152SOL    HW114918   0.776   2.016   1.836  0.6148  0.9354 -2.4745
 1152SOL    HW214919   0.676   2.048   1.722  1.5411  2.4326  0.6593
 1153SOL     OW14920   2.730   3.270   2.189  0.3636  0.0305  0.2644
 1153SOL    HW114921   2.786   3.348   2.185  0.3445  0.0007 -0.4631
 1153SOL    HW214922   2.795   3.210   2.225 -0.6133 -0.3176  1.4557
 1154SOL     OW14923   2.917   1.343   2.425 -0.4032 -0.3157  0.1230
 1154SOL    HW114924   2.967   1.296   2.491 -1.4108 -2.8221 -0.8918
 1154SOL    HW214925   2.909   1.273   2.361 -2.3626  0.0723 -0.0726
 1155SOL     OW14926   3.556   3.357   1.009 -0.2317  0.1195  0.2740
 1155SOL    HW114927   3.484   3.414   1.035  0.5804  0.7175  1.2286
 1155SOL    HW214928   3.514   3.272   1.021 -0.1412  0.2526  1.5810
 1156SOL     OW14929   1.029   3.352   6.721  0.6115  0.5426 -0.4556
 1156SOL    HW114930   1.093   3.311   6.778 -0.0519 -0.0205 -0.1257
 1156SOL    HW214931   1.050   3.305   6.640 -2.3419  3.1334 -2.7608
 1157SOL     OW14932   1.221   4.512   2.830 -0.0422 -0.2134  0.1099
 1157SOL    HW114933   1.243   4.509   2.737 -0.0053  0.1907  0.1063
 1157SOL    HW214934   1.259   4.594   2.860  0.0921 -0.5628  0.9195
 1158SOL     OW14935   1.741   3.127   5.888  0.6217  0.4363  0.1279
 1158SOL    HW114936   1.756   3.169   5.803 -0.6462  1.4784  0.4281
 1158SOL    HW214937   1.651   3.153   5.908  0.4739  1.6594 -2.1470
 1159SOL     OW14938   4.670   3.439  15.360  0.1712  0.3786 -0.4641
 1159SOL    HW114939   4.693   3.477  15.276  2.5365 -1.0877 -0.4645
 1159SOL    HW214940   0.036   3.423  15.397  0.5730 -0.5131 -1.8168
 1160SOL     OW14941   1.778   2.364   1.974  0.0694 -0.3676  0.3500
 1160SOL    HW114942   1.869   2.350   1.998  0.2573  0.1030 -0.0880
 1160SOL    HW214943   1.750   2.386   2.063 -0.0810 -2.0676  0.7316
 1161SOL     OW14944   3.493   2.782   4.786  0.0969 -0.3812  0.0175
 1161SOL    HW114945   3.587   2.766   4.780  0.0618  0.5993 -2.8985
 1161SOL    HW214946   3.476   2.844   4.715 -0.4385 -2.6336 -1.8390
 1162SOL     OW14947   1.090   1.902  15.995  0.0608 -0.2892  0.2738
 1162SOL    HW114948   1.153   1.926  15.926 -1.7926 -0.9272 -1.6645
 1162SOL    HW214949   1.071   1.814  15.963 -1.0909  0.3623 -0.8423
 1163SOL     OW14950   4.224   1.133   4.748 -0.0509 -0.2265 -0.0115
 1163SOL    HW114951   4.137   1.162   4.722 -0.8303  0.4658  3.3955
 1163SOL    HW214952   4.238   1.154   4.841  0.5485 -2.7959  0.4822
 1164SOL     OW14953   2.421   2.755   5.960  0.4021 -0.0910  0.1740
 1164SOL    HW114954   2.365   2.792   5.892  0.5812 -0.7438 -0.3175
 1164SOL    HW214955   2.477   2.687   5.923  0.9242 -0.0754  0.9239
 1165SOL     OW14956   1.093   2.730   1.438 -0.5961 -0.6596  0.2850
 1165SOL    HW114957   1.078   2.772   1.522 -1.5880 -0.2980 -0.0766
 1165SOL    HW214958   1.183   2.696   1.447 -0.7842 -1.0045  0.8173
 1166SOL     OW14959   4.054   0.671   7.296  0.5729  0.6048  0.2257
 1166SOL    HW114960   4.121   0.739   7.301  0.6268  0.7444 -2.3049
 1166SOL    HW214961   4.091   0.619   7.368  0.5235  1.9134  1.1910
 1167SOL     OW14962   0.408   3.595   8.335  0.0376 -0.2428  0.5001
 1167SOL    HW114963   0.444   3.684   8.343  2.3376 -1.0519 -0.7714
 1167SOL    HW214964   0.484   3.541   8.356 -1.2730 -2.8154 -1.3916
 1168SOL     OW14965   4.667   2.922  11.944 -0.8537  0.4072  0.1715
 1168SOL    HW114966   4.713   2.841  11.923 -3.2750 -1.3354  1.5689
 1168SOL    HW214967   0.010   2.992  11.959  0.5365 -0.7198 -0.5223
 1169SOL     OW14968   3.294   0.495   2.341 -0.3671 -0.0949  0.4353
 1169SOL    HW114969   3.389   0.498   2.327 -0.4259 -2.6630 -0.4582
 1169SOL    HW214970   3.269   0.443   2.264  1.2478 -0.0964 -0.0788
 1170SOL     OW14971   0.786   0.688   6.021 -0.3538 -0.3018  0.3426
 1170SOL    HW114972   0.816   0.682   6.112  1.2470  1.4983 -0.0783
 1170SOL    HW214973   0.699   0.647   6.027 -1.0492  1.1105 -0.1851
 1171SOL     OW14974   2.678   3.428   6.136 -0.1790 -0.3071 -0.5342
 1171SOL    HW114975   2.637   3.497   6.188  0.0304 -0.5000 -0.1162
 1171SOL    HW214976   2.698   3.355   6.194 -0.7002  0.7511  0.9792
 1172SOL     OW14977   0.299   2.058  10.449 -0.2916  0.8775 -0.4001
 1172SOL    HW114978   0.230   2.024  10.506 -0.6936  1.5713 -0.4734
 1172SOL    HW214979   0.375   2.012  10.484 -0.6844  0.2324 -0.3863
 1173SOL     OW14980   1.455   3.918   4.908 -0.4426  0.1295 -0.7972
 1173SOL    HW114981   1.479   3.827   4.894  2.1784  0.8387 -0.8322
 1173SOL    HW214982   1.542   3.955   4.899  0.0249 -0.3238  1.7340
 1174SOL     OW14983   1.090   2.829   5.485 -0.4456 -0.2194  0.1556
 1174SOL    HW114984   1.122   2.794   5.568 -0.1675  1.8815  0.9410
 1174SOL    HW214985   1.145   2.907   5.483 -0.1207 -0.4964 -2.1093
 1175SOL     OW14986   1.469   1.587   3.441 -0.0996  0.1451  0.0074
 1175SOL    HW114987   1.543   1.648   3.443  0.7240 -0.8806  0.9913
 1175SOL    HW214988   1.425   1.622   3.364  0.9648 -2.6575 -1.9043
 1176SOL     OW14989   3.232   2.210   6.742 -0.1465  0.4459 -0.0258
 1176SOL    HW114990   3.208   2.270   6.671  2.7544  2.2333  0.4864
 1176SOL    HW214991   3.208   2.127   6.702  0.7767  0.4454 -0.5932
 1177SOL     OW14992   3.066   3.466   6.017  0.1467  0.4760 -0.4116
 1177SOL    HW114993   3.019   3.501   5.941 -1.3517 -0.1303  0.2251
 1177SOL    HW214994   3.100   3.546   6.057 -0.6771 -0.5040  2.2553
 1178SOL     OW14995   3.595   4.152   9.409 -0.5351  0.2052 -0.0593
 1178SOL    HW114996   3.656   4.212   9.367 -1.3351 -0.4816 -2.2150
 1178SOL    HW214997   3.620   4.066   9.375 -1.8708 -0.1577 -0.1086
 1179SOL     OW14998   1.249   2.475   8.760 -0.1512  0.5817  0.5919
 1179SOL    HW114999   1.267   2.385   8.732  1.3543  1.3528 -0.8945
 1179SOL    HW215000   1.332   2.522   8.754  0.2705 -0.1290  0.8567
 1180SOL     OW15001   4.399   3.517   3.826  0.4934 -0.3949  0.3572
 1180SOL    HW115002   4.392   3.428   3.793  0.7438 -0.8749  1.5781
 1180SOL    HW215003   4.336   3.524   3.898 -2.4168 -0.1328 -2.2066
 1181SOL     OW15004   1.543   0.182   8.479 -0.3136 -0.1846 -0.2007
 1181SOL    HW115005   1.474   0.249   8.473 -2.2065 -2.2268 -0.9575
 1181SOL    HW215006   1.607   0.207   8.413  0.8046  3.8551  2.3965
 1182SOL     OW15007   1.383   1.552  16.376 -0.0991  0.4855 -0.2081
 1182SOL    HW115008   1.441   1.480  16.354  0.5790  1.2661 -0.9687
 1182SOL    HW215009   1.379   1.599  16.292 -0.6491 -1.9084 -1.5182
 1183SOL     OW15010   3.070   0.025   2.970  0.0631  0.0736  0.0266
 1183SOL    HW115011   2.976   0.041   2.966  0.2082  1.2621  1.1891
 1183SOL    HW215012   3.090   0.002   2.879  0.0470  2.8328 -0.6948
 1184SOL     OW15013   3.290   4.639   6.168 -0.0211  0.0108  0.5242
 1184SOL    HW115014   3.258   0.007   6.158  0.0550  0.2202  2.2516
 1184SOL    HW215015   3.227   4.604   6.231  2.2691 -1.7203  1.8159
 1185SOL     OW15016   2.091   1.504   7.793 -0.1253 -0.0519 -0.2824
 1185SOL    HW115017   2.101   1.597   7.769 -1.6760 -0.0768 -1.0462
 1185SOL    HW215018   2.098   1.467   7.705  1.1906 -0.4236 -0.0264
 1186SOL     OW15019   3.663   3.206   2.177  0.4722 -0.1021  0.3953
 1186SOL    HW115020   3.659   3.201   2.082 -3.7310  1.0370  0.5329
 1186SOL    HW215021   3.588   3.263   2.191 -0.1633 -0.8275 -0.0794
 1187SOL     OW15022   4.333   4.670  14.285  0.0138 -0.1655 -0.0352
 1187SOL    HW115023   4.309   4.691  14.195 -1.4274  0.8626  0.6038
 1187SOL    HW215024   4.243   4.649  14.308  0.1389 -2.1505 -1.3434
 1188SOL     OW15025   3.311   4.302   8.908  0.1225  0.7367  0.2934
 1188SOL    HW115026   3.273   4.324   8.994  1.4268  1.9818  0.5526
 1188SOL    HW215027   3.231   4.258   8.878  1.0988 -0.6464 -0.2442
 1189SOL     OW15028   2.244   4.139   2.035  0.1192 -0.6933  0.1926
 1189SOL    HW115029   2.295   4.098   2.104  0.3572 -0.2094  0.3075
 1189SOL    HW215030   2.199   4.062   2.002  1.1661 -1.3864  0.3973
 1190SOL     OW15031   0.216   0.206   7.218  0.5074 -0.2921 -0.7256
 1190SOL    HW115032   0.309   0.224   7.232  0.2861 -0.2799  0.7159
 1190SOL    HW215033   0.177   0.280   7.171 -1.1778 -0.5591  0.2497
 1191SOL     OW15034   1.359   3.481   6.651 -0.1172 -0.6682  0.5174
 1191SOL    HW115035   1.295   3.526   6.706  0.7779  1.0773  0.1241
 1191SOL    HW215036   1.347   3.388   6.672  0.0929 -0.6189  0.8637
 1192SOL     OW15037   1.698   2.817   7.935  0.1672  0.3318 -0.2315
 1192SOL    HW115038   1.706   2.893   7.876 -1.5779  0.6734 -0.0296
 1192SOL    HW215039   1.603   2.806   7.946  0.1765 -1.5149 -2.0807
 1193SOL     OW15040   3.364   3.321   5.384 -0.4668  0.1948 -0.2151
 1193SOL    HW115041   3.356   3.248   5.446 -2.7321  0.3782 -0.2928
 1193SOL    HW215042   3.296   3.382   5.414  2.6406  3.0160  1.0363
 1194SOL     OW15043   0.861   4.664   3.576 -0.4281  0.6555  0.8054
 1194SOL    HW115044   0.874   4.658   3.670 -0.2709 -0.8333  0.6757
 1194SOL    HW215045   0.861   0.039   3.565  0.2563  0.5010 -0.5940
 1195SOL     OW15046   2.465   4.451   8.695  0.2848 -0.0894  0.1968
 1195SOL    HW115047   2.498   4.531   8.735  1.6728 -0.3806 -0.3868
 1195SOL    HW215048   2.541   4.395   8.681  0.8431  0.4161  1.2112
 1196SOL     OW15049   1.865   0.988   0.202  0.2288  0.4385  0.3500
 1196SOL    HW115050   1.897   0.993   0.291 -0.6385  0.9820  0.6380
 1196SOL    HW215051   1.941   1.028   0.161 -0.2219  0.1183 -0.8065
 1197SOL     OW15052   1.068   3.551   1.942  0.4528  0.5783 -0.2844
 1197SOL    HW115053   1.080   3.644   1.963 -3.0964  1.6042 -2.7420
 1197SOL    HW215054   1.042   3.512   2.025  3.2347  1.0680  0.8178
 1198SOL     OW15055   1.674   2.680   2.089  0.4553 -0.2570 -0.3345
 1198SOL    HW115056   1.663   2.660   1.996 -0.4465 -1.6000  0.0488
 1198SOL    HW215057   1.763   2.716   2.092  0.1905  0.2308  1.5260
 1199SOL     OW15058   1.127   1.081   7.730 -0.5281 -0.3466  0.3567
 1199SOL    HW115059   1.146   1.174   7.732 -0.8867 -0.2363 -1.7671
 1199SOL    HW215060   1.041   1.088   7.688 -0.4087  1.9906  0.5096
 1200SOL     OW15061   1.335   2.676   7.225  0.0797 -0.0332  0.4958
 1200SOL    HW115062   1.288   2.599   7.256  0.0020 -0.7300 -1.3186
 1200SOL    HW215063   1.384   2.627   7.158 -2.5500 -1.4235 -0.4089
 1201SOL     OW15064   0.448   4.613  16.112  0.2228  0.1111 -0.0497
 1201SOL    HW115065   0.400   4.695  16.110  1.5219  0.8889  0.4200
 1201SOL    HW215066   0.395   4.563  16.173  0.4940 -0.5637 -0.3620
 1202SOL     OW15067   0.636   4.189  10.121  0.0364  0.0476  0.2531
 1202SOL    HW115068   0.707   4.179  10.184  1.3406 -1.8757 -1.5175
 1202SOL    HW215069   0.582   4.112  10.138 -0.0148 -0.1378 -0.7267
 1203SOL     OW15070   3.347   1.312   2.957 -0.7787 -0.4936  0.1440
 1203SOL    HW115071   3.270   1.368   2.946 -1.6370 -1.3831  1.6761
 1203SOL    HW215072   3.377   1.315   2.866  1.9073 -1.0082  1.0045
 1204SOL     OW15073   1.104   2.291   9.849 -0.1236  0.1428 -0.3368
 1204SOL    HW115074   1.087   2.204   9.885  2.6621 -0.3671 -0.2111
 1204SOL    HW215075   1.131   2.336   9.929  0.5908 -0.5029 -0.2098
 1205SOL     OW15076   1.652   1.039   6.408 -0.0589 -0.1576 -0.3993
 1205SOL    HW115077   1.736   1.069   6.372  0.5082 -0.4648  0.6576
 1205SOL    HW215078   1.687   0.966   6.459  1.6786  2.4334  2.1192
 1206SOL     OW15079   3.674   3.159   7.991 -0.1355  0.0777 -0.8289
 1206SOL    HW115080   3.663   3.162   8.086  1.4011 -1.0006 -0.6094
 1206SOL    HW215081   3.586   3.136   7.962 -0.7726 -1.3589  2.1766
 1207SOL     OW15082   4.396   4.465   5.161 -0.3265 -0.4984 -0.2506
 1207SOL    HW115083   4.451   4.475   5.239  0.1809 -1.7209 -0.4555
 1207SOL    HW215084   4.442   4.390   5.122  0.7476  0.7595 -1.3749
 1208SOL     OW15085   3.790   0.827  15.297 -0.5185 -0.4561  0.1435
 1208SOL    HW115086   3.833   0.786  15.222 -0.7901 -1.0326  0.2989
 1208SOL    HW215087   3.714   0.871  15.260 -1.2000 -0.7620  1.1523
 1209SOL     OW15088   3.225   0.196   1.517 -0.1050 -0.1141  0.1723
 1209SOL    HW115089   3.284   0.266   1.491 -0.4620 -0.6063 -1.9544
 1209SOL    HW215090   3.237   0.130   1.448 -1.0735  2.6581 -2.6271
 1210SOL     OW15091   1.426   0.181   0.058  0.3770  0.3437  0.3413
 1210SOL    HW115092   1.372   0.244   0.009 -0.3376  0.7059  1.6141
 1210SOL    HW215093   1.495   0.240   0.089  0.1498  1.4857 -1.3141
 1211SOL     OW15094   3.839   4.566  13.789  0.1789  0.0697 -0.7138
 1211SOL    HW115095   3.867   4.632  13.726  0.7479  0.2599 -0.2563
 1211SOL    HW215096   3.912   4.508  13.810  0.1429  0.4880  0.5195
 1212SOL     OW15097   0.227   2.238   3.122  0.4435  0.2835  0.4331
 1212SOL    HW115098   0.212   2.188   3.042 -0.2219  0.7838  0.2485
 1212SOL    HW215099   0.196   2.179   3.191 -0.2946  1.2490  0.9188
 1213SOL     OW15100   2.957   2.418   1.465 -0.6496 -0.2494 -0.4525
 1213SOL    HW115101   2.979   2.486   1.529  3.0453 -1.4714 -0.4594
 1213SOL    HW215102   3.019   2.416   1.392  1.3323 -0.1717  1.2494
 1214SOL     OW15103   4.669   2.636   5.929 -0.1003 -0.1110 -0.5544
 1214SOL    HW115104   4.688   2.649   5.836 -0.8201  2.7498 -0.3193
 1214SOL    HW215105   0.022   2.585   5.962  0.0343  0.3228 -0.1787
 1215SOL     OW15106   0.311   3.126   3.246  0.1661 -1.0198 -0.3673
 1215SOL    HW115107   0.268   3.155   3.327  0.4494  2.1331 -1.3389
 1215SOL    HW215108   0.249   3.127   3.173  0.7089  0.2312 -0.8066
 1216SOL     OW15109   2.274   1.686   5.972  0.3450 -0.0982  0.5085
 1216SOL    HW115110   2.224   1.734   5.906  2.9964  3.5763  1.1639
 1216SOL    HW215111   2.353   1.737   5.990  0.1554  0.5854 -0.5773
 1217SOL     OW15112   4.428   3.888   8.871  0.0599  0.3283 -0.6167
 1217SOL    HW115113   4.456   3.797   8.857 -3.3686 -0.9493  0.7121
 1217SOL    HW215114   4.500   3.924   8.923 -0.7560  0.5856  0.3500
 1218SOL     OW15115   2.679   0.110  12.362  0.0457 -0.5294 -0.2095
 1218SOL    HW115116   2.644   0.126  12.449  1.7874  0.7539  0.2459
 1218SOL    HW215117   2.720   0.196  12.356 -0.2098 -0.2868  1.7177
 1219SOL     OW15118   2.126   2.580   7.750 -0.2038 -0.1636  0.2384
 1219SOL    HW115119   2.148   2.656   7.804 -1.5833 -0.0535  0.6635
 1219SOL    HW215120   2.034   2.581   7.775 -0.0135  1.8625  0.8432
 1220SOL     OW15121   3.276   1.757   8.571  0.5884  0.4574 -0.0965
 1220SOL    HW115122   3.195   1.711   8.591 -0.6322  1.8844 -1.6145
 1220SOL    HW215123   3.311   1.694   8.508 -1.1373 -3.2778  2.7397
 1221SOL     OW15124   4.684   3.726   8.147  0.2075 -0.0907  0.7045
 1221SOL    HW115125   0.001   3.805   8.187 -0.5794 -0.5245  2.3196
 1221SOL    HW215126   4.610   3.699   8.201  0.7988 -2.2271  0.4401
 1222SOL     OW15127   4.571   2.260   5.783 -0.3586  0.4859 -0.2562
 1222SOL    HW115128   4.538   2.181   5.742  1.7774 -1.4462  1.7774
 1222SOL    HW215129   4.666   2.246   5.772 -0.2474  1.6032 -0.7805
 1223SOL     OW15130   4.560   1.545  15.147  0.0631  0.5029 -0.4471
 1223SOL    HW115131   4.596   1.483  15.210  2.6690 -0.4300 -2.8596
 1223SOL    HW215132   4.624   1.540  15.076  0.1732 -2.2843 -0.1417
 1224SOL     OW15133   1.157   0.068   0.635  0.0170 -0.0503 -0.4272
 1224SOL    HW115134   1.134   0.095   0.546 -0.9593 -2.5565 -0.9540
 1224SOL    HW215135   1.081   0.092   0.688  0.1949 -1.0244  0.2696
 1225SOL     OW15136   0.479   1.702   8.030 -0.2918  0.1178 -0.0510
 1225SOL    HW115137   0.501   1.712   8.123 -2.7875 -1.2241  0.6889
 1225SOL    HW215138   0.394   1.745   8.027 -0.2372  0.0703 -1.9252
 1226SOL     OW15139   1.408   2.609  15.307 -0.7642  0.5078 -0.1491
 1226SOL    HW115140   1.453   2.529  15.333  1.0087  1.0944 -1.3973
 1226SOL    HW215141   1.435   2.681  15.364  0.3422 -1.2881  1.5782
 1227SOL     OW15142   1.845   3.082   9.393  0.2176  0.0467  0.0050
 1227SOL    HW115143   1.793   3.080   9.473  0.5528 -0.8592  0.2038
 1227SOL    HW215144   1.933   3.066   9.429  0.2983  0.2728 -0.0910
 1228SOL     OW15145   3.003   3.317   5.207 -0.3276 -0.1820 -0.4822
 1228SOL    HW115146   3.006   3.385   5.275  1.6690  0.2455 -0.9926
 1228SOL    HW215147   2.990   3.374   5.131 -0.1350  2.3076  1.3238
 1229SOL     OW15148   4.312   1.162   8.316 -0.3102 -0.2636  0.3863
 1229SOL    HW115149   4.329   1.092   8.253  0.4247 -0.7992  1.1979
 1229SOL    HW215150   4.395   1.209   8.319  0.1494 -1.0648 -0.0633
 1230SOL     OW15151   2.846   4.422  14.942 -0.0631  0.0590  0.8530
 1230SOL    HW115152   2.932   4.442  14.905 -0.1549 -3.4318 -1.2419
 1230SOL    HW215153   2.851   4.449  15.034 -0.3333  2.3424  0.1887
 1231SOL     OW15154   2.813   0.841   3.734  0.0886 -0.4423  0.2397
 1231SOL    HW115155   2.782   0.838   3.824 -0.7415  0.2891 -0.0282
 1231SOL    HW215156   2.908   0.828   3.736  0.0902 -0.5589 -0.6356
 1232SOL     OW15157   3.384   0.257   8.236  0.9368 -0.0816 -0.1624
 1232SOL    HW115158   3.327   0.182   8.254  0.0439  0.5294 -0.4624
 1232SOL    HW215159   3.332   0.322   8.283 -0.6324 -0.8951 -0.7397
 1233SOL     OW15160   0.351   0.404   8.745 -0.1297 -0.4835  0.0276
 1233SOL    HW115161   0.267   0.448   8.732 -1.6951 -3.2508  0.9928
 1233SOL    HW215162   0.364   0.406   8.840  1.2991 -0.8041 -0.1635
 1234SOL     OW15163   0.635   3.928   3.474  0.1339  0.3146 -0.1097
 1234SOL    HW115164   0.555   3.877   3.467  0.4034  0.4386 -4.2410
 1234SOL    HW215165   0.602   4.017   3.486  0.9746  0.8989 -1.9959
 1235SOL     OW15166   0.439   4.700   7.834  0.0530 -0.2287 -0.0554
 1235SOL    HW115167   0.370   0.009   7.774  0.5931  0.6747 -0.2211
 1235SOL    HW215168   0.484   4.645   7.771 -0.3458  1.2134 -1.6016
 1236SOL     OW15169   2.939   0.663   0.526  0.6762  0.0742 -0.3754
 1236SOL    HW115170   2.866   0.705   0.480 -0.1507 -0.4079  0.4952
 1236SOL    HW215171   2.895   0.587   0.564 -0.5332 -0.9466 -3.8067
 1237SOL     OW15172   3.527   4.043  10.933 -0.0392 -0.0815  0.5495
 1237SOL    HW115173   3.472   4.004  10.866  0.3608 -0.9947  0.7535
 1237SOL    HW215174   3.504   4.136  10.931  1.2006  0.1898 -0.6497
 1238SOL     OW15175   3.223   3.228  14.150 -0.2363  0.0757  0.0427
 1238SOL    HW115176   3.311   3.254  14.124  0.5347 -2.5772  0.0388
 1238SOL    HW215177   3.174   3.230  14.067 -0.2580 -0.2772  0.0477
 1239SOL     OW15178   1.050   2.281  10.194 -0.1926  0.4884 -0.1758
 1239SOL    HW115179   1.089   2.336  10.126  2.9967 -1.6917 -0.1467
 1239SOL    HW215180   1.128   2.231  10.217 -1.3901 -0.9566  0.7157
 1240SOL     OW15181   2.602   0.890   2.325 -0.9251 -0.3488  0.5247
 1240SOL    HW115182   2.664   0.936   2.382  1.5119 -0.6549 -1.8850
 1240SOL    HW215183   2.658   0.816   2.305 -0.1604  0.6715 -1.0785
 1241SOL     OW15184   3.579   1.057   4.673  0.1495  0.0101 -0.3899
 1241SOL    HW115185   3.665   1.024   4.651  0.7342 -0.2034  2.1499
 1241SOL    HW215186   3.566   1.011   4.756 -0.8750  1.4225  0.2535
 1242SOL     OW15187   1.482   4.505   2.247  0.3023 -0.1246  0.4073
 1242SOL    HW115188   1.420   4.512   2.320  2.3519 -0.2363  2.1430
 1242SOL    HW215189   1.563   4.518   2.295  0.7844  2.0793 -0.9828
 1243SOL     OW15190   1.914   1.984  17.597  0.2097 -0.2209 -0.3380
 1243SOL    HW115191   1.944   1.893  17.592  1.6934  0.2185  0.6160
 1243SOL    HW215192   1.843   1.985  17.533  0.1713 -0.5198 -0.3026
 1244SOL     OW15193   2.384   1.164   7.396 -0.4948  0.4464  0.2874
 1244SOL    HW115194   2.384   1.258   7.377 -3.0845  0.8572  2.2383
 1244SOL    HW215195   2.301   1.155   7.444 -0.4467 -0.3131  0.2257
 1245SOL     OW15196   1.868   3.858   8.628 -0.4320 -0.1575 -0.0316
 1245SOL    HW115197   1.886   3.778   8.678 -1.5722 -2.2923 -3.0450
 1245SOL    HW215198   1.874   3.926   8.695  1.6746 -0.3508 -0.0357
 1246SOL     OW15199   1.347   2.120   4.933  0.5486  0.3719  0.6565
 1246SOL    HW115200   1.333   2.179   5.007 -1.0135 -3.2046  3.1954
 1246SOL    HW215201   1.436   2.146   4.909 -0.2104  3.5406  1.3402
 1247SOL     OW15202   4.485   0.646   6.270  0.5352  0.0941  0.7271
 1247SOL    HW115203   4.505   0.590   6.345 -1.5813 -2.0577 -0.3117
 1247SOL    HW215204   4.483   0.735   6.306  1.1519  0.0408  0.8828
 1248SOL     OW15205   2.015   2.524   8.702 -0.1608  0.5363 -0.3621
 1248SOL    HW115206   2.005   2.438   8.660 -1.4239 -0.0342  1.1020
 1248SOL    HW215207   1.924   2.554   8.703 -0.6727 -0.9405 -1.2032
 1249SOL     OW15208   4.498   0.569   7.469 -0.7092  0.3910  0.5456
 1249SOL    HW115209   4.510   0.627   7.394  0.4563  0.8864  1.1140
 1249SOL    HW215210   4.406   0.576   7.496 -0.8939  2.7325 -0.7745
 1250SOL     OW15211   1.733   2.294   4.107 -0.1269  0.3327  0.0640
 1250SOL    HW115212   1.640   2.293   4.129  0.1012  2.4387  1.1522
 1250SOL    HW215213   1.734   2.231   4.035 -0.9651 -0.4966  0.7739
 1251SOL     OW15214   1.794   4.124   2.017  0.3302  0.5154  0.3430
 1251SOL    HW115215   1.767   4.182   2.088 -0.8668  0.5156 -0.1086
 1251SOL    HW215216   1.859   4.072   2.064  0.8927  0.4806 -0.4749
 1252SOL     OW15217   3.707   0.108   8.885  0.7619  0.4845  0.2753
 1252SOL    HW115218   3.749   0.039   8.834 -0.2801  1.9705 -2.5946
 1252SOL    HW215219   3.729   0.080   8.974  0.7126  0.9799  0.4410
 1253SOL     OW15220   1.877   4.282  12.582 -0.6016  0.1786 -0.0872
 1253SOL    HW115221   1.867   4.345  12.653  1.2624  0.7480 -0.3290
 1253SOL    HW215222   1.851   4.200  12.624 -0.4942  0.0970 -0.1800
 1254SOL     OW15223   4.362   4.253   8.596 -0.4763  0.3470 -0.7629
 1254SOL    HW115224   4.395   4.240   8.507 -1.1580 -3.4304 -0.4594
 1254SOL    HW215225   4.397   4.342   8.600  1.3070 -0.5645  3.8943
 1255SOL     OW15226   0.896   1.895  11.363  0.4047  0.0748 -0.0969
 1255SOL    HW115227   0.983   1.929  11.384  0.2665  0.1096  0.4160
 1255SOL    HW215228   0.895   1.837  11.439 -1.0919  1.1400  0.6958
 1256SOL     OW15229   2.532   3.727   8.835  0.6892 -0.0689  0.6439
 1256SOL    HW115230   2.497   3.756   8.751  1.7970  0.1900  0.2690
 1256SOL    HW215231   2.625   3.739   8.815  0.0647  1.0244 -1.5562
 1257SOL     OW15232   4.409   2.958   1.778 -0.6322  0.1188 -0.1727
 1257SOL    HW115233   4.416   2.918   1.692  0.4594 -1.0061  0.4452
 1257SOL    HW215234   4.371   3.039   1.743  1.6598  0.7767 -1.1169
 1258SOL     OW15235   3.239   1.358   5.556 -0.3307  1.0941 -0.2270
 1258SOL    HW115236   3.320   1.342   5.605 -2.0850 -2.8483  1.3353
 1258SOL    HW215237   3.265   1.433   5.502 -2.2886  2.2367  0.4033
 1259SOL     OW15238   1.708   2.518   0.395  0.4107 -0.6969 -0.2456
 1259SOL    HW115239   1.687   2.468   0.474 -1.8907  0.8607  0.1527
 1259SOL    HW215240   1.621   2.520   0.353 -0.0848 -1.5203  0.7569
 1260SOL     OW15241   3.653   3.114  14.104 -0.3124  0.2567 -0.7058
 1260SOL    HW115242   3.665   3.208  14.114  0.0551  0.2358 -0.9459
 1260SOL    HW215243   3.737   3.083  14.071  0.7305  0.5252  1.7049
 1261SOL     OW15244   3.858   4.277  16.145 -0.2965 -0.9432  0.4108
 1261SOL    HW115245   3.877   4.367  16.171 -3.4754  0.0277 -0.6624
 1261SOL    HW215246   3.936   4.231  16.177  1.4255  1.8532  0.1984
 1262SOL     OW15247   2.862   0.132  11.308 -0.4913  0.3473 -0.0619
 1262SOL    HW115248   2.893   0.222  11.319 -0.9185  0.1760  2.5190
 1262SOL    HW215249   2.770   0.138  11.333 -0.8482  0.7227 -1.4442
 1263SOL     OW15250   2.710   1.220   6.441  0.0669 -0.2113  0.1806
 1263SOL    HW115251   2.614   1.223   6.433 -0.1524 -2.1411  1.9146
 1263SOL    HW215252   2.742   1.160   6.374  1.7375  1.2793 -0.3471
 1264SOL     OW15253   0.445   3.576   4.801  0.2798  0.0427 -0.1006
 1264SOL    HW115254   0.366   3.608   4.845 -0.0758  1.8320 -2.0057
 1264SOL    HW215255   0.508   3.634   4.846 -0.7445  0.6711  0.5328
 1265SOL     OW15256   0.183   3.137   1.395  0.0786 -0.1932 -0.1346
 1265SOL    HW115257   0.204   3.060   1.343 -0.8976 -0.2155 -0.4986
 1265SOL    HW215258   0.237   3.198   1.345  1.0399  1.0029  2.3442
 1266SOL     OW15259   4.443   2.951  12.133 -0.4894  0.4110 -0.3066
 1266SOL    HW115260   4.521   2.935  12.080 -0.4732  0.0689 -0.1797
 1266SOL    HW215261   4.384   2.955  12.057  1.1198 -1.9084 -1.6921
 1267SOL     OW15262   3.409   4.304   3.673  0.4706 -0.0583  0.1943
 1267SOL    HW115263   3.402   4.251   3.594  0.4506 -0.4124  0.4335
 1267SOL    HW215264   3.411   4.227   3.731  1.9242 -0.6492 -0.6368
 1268SOL     OW15265   4.543   0.061  15.892  0.0964 -0.6196 -0.1872
 1268SOL    HW115266   4.615   0.032  15.948 -0.2577 -1.2010 -0.0292
 1268SOL    HW215267   4.539   4.708  15.830 -0.0988 -0.8986  0.1554
 1269SOL     OW15268   4.649   3.037  16.064  0.0391  0.6575  0.9188
 1269SOL    HW115269   4.710   3.077  16.125  0.9220  1.5890 -0.5566
 1269SOL    HW215270   4.652   3.108  15.999  0.2212 -0.5211 -0.3790
 1270SOL     OW15271   4.052   1.510   1.176  0.5465  0.2074  0.3776
 1270SOL    HW115272   4.029   1.540   1.264  0.0479 -0.1211  0.3630
 1270SOL    HW215273   4.014   1.578   1.121 -2.8763 -2.0030  0.0143
 1271SOL     OW15274   2.142   0.257   2.041 -0.4522  0.4364  0.0381
 1271SOL    HW115275   2.189   0.338   2.020 -2.3596  1.9150  1.5049
 1271SOL    HW215276   2.125   0.219   1.954  0.9025  1.2701 -0.5922
 1272SOL     OW15277   0.227   4.658   4.103  0.2073  0.0460 -0.0579
 1272SOL    HW115278   0.264   4.612   4.178  0.6049  0.9281  0.2908
 1272SOL    HW215279   0.134   4.648   4.120 -0.0703 -0.2832 -1.7535
 1273SOL     OW15280   1.569   2.361   1.249 -0.0942 -0.1510  0.0954
 1273SOL    HW115281   1.578   2.382   1.342 -0.8213 -1.2003  0.3960
 1273SOL    HW215282   1.649   2.402   1.215  1.3701 -1.5626  1.8264
 1274SOL     OW15283   1.323   3.839   5.160 -0.0718 -0.3157  0.3246
 1274SOL    HW115284   1.389   3.770   5.171 -0.1063 -0.5767 -1.2021
 1274SOL    HW215285   1.336   3.862   5.068 -2.0178  1.0337  0.3928
 1275SOL     OW15286   1.177   2.570   5.567  0.5930  0.1634  0.4381
 1275SOL    HW115287   1.204   2.646   5.516 -1.7129  0.6215 -0.1199
 1275SOL    HW215288   1.198   2.607   5.653 -0.0750 -1.8126  1.4361
 1276SOL     OW15289   0.592   1.962   8.442 -0.5885 -0.3331  0.4021
 1276SOL    HW115290   0.603   1.928   8.531 -1.0346 -1.5538 -0.0044
 1276SOL    HW215291   0.569   2.054   8.458 -0.7708 -0.5639  1.4311
 1277SOL     OW15292   0.187   1.552   7.954  0.2523 -0.1392 -0.0039
 1277SOL    HW115293   0.181   1.628   7.896 -1.7571 -1.2356 -1.2430
 1277SOL    HW215294   0.097   1.521   7.968  0.4391 -1.1793 -1.0647
 1278SOL     OW15295   2.154   2.296   4.371  0.0435 -0.0924 -0.7460
 1278SOL    HW115296   2.207   2.275   4.294  1.0865  0.4526 -0.1717
 1278SOL    HW215297   2.078   2.338   4.330 -0.8741 -0.1915  0.8346
 1279SOL     OW15298   3.607   3.625   3.855  0.1328  0.2314  0.2351
 1279SOL    HW115299   3.553   3.619   3.933 -1.1863  0.9236 -0.6314
 1279SOL    HW215300   3.582   3.709   3.816  1.2148  1.4143  2.1138
 1280SOL     OW15301   2.696   2.581   7.163  0.0022 -0.3654 -0.1239
 1280SOL    HW115302   2.637   2.654   7.147  2.0745  1.1824 -0.6885
 1280SOL    HW215303   2.782   2.612   7.135  0.7667 -0.0931  2.5027
 1281SOL     OW15304   2.966   3.859   3.674 -0.5024  0.2662 -0.2119
 1281SOL    HW115305   3.029   3.924   3.702  0.3830 -0.1325 -1.2716
 1281SOL    HW215306   3.027   3.795   3.636  0.6324  1.0587  0.3199
 1282SOL     OW15307   0.061   3.009   2.158 -0.0095 -0.0982  0.1967
 1282SOL    HW115308   0.099   2.994   2.071 -0.3044 -0.0855  0.0654
 1282SOL    HW215309   4.691   2.989   2.139  0.3208  0.7273 -2.2345
 1283SOL     OW15310   2.206   4.100   1.126 -0.3311 -0.5399 -0.1113
 1283SOL    HW115311   2.189   4.139   1.212  0.3024 -2.4540  0.8800
 1283SOL    HW215312   2.301   4.101   1.115 -0.4807  0.2901 -1.2987
 1284SOL     OW15313   1.562   4.412   7.189 -0.3802  0.1895  0.2516
 1284SOL    HW115314   1.507   4.488   7.207  0.2437  0.6036  0.4199
 1284SOL    HW215315   1.498   4.342   7.198  0.3144 -0.1786  2.2525
 1285SOL     OW15316   1.565   1.719   6.985  0.0311  0.5468 -0.1822
 1285SOL    HW115317   1.536   1.750   7.071 -2.1686 -1.4445 -0.1879
 1285SOL    HW215318   1.656   1.708   7.010  0.1896  2.4502  0.1126
 1286SOL     OW15319   3.637   4.523  13.941  0.1281  0.3085 -0.4379
 1286SOL    HW115320   3.569   4.526  13.873 -0.3497 -0.5510 -0.0021
 1286SOL    HW215321   3.706   4.536  13.876  2.4288  0.0651  1.9516
 1287SOL     OW15322   2.529   0.677   2.750 -0.3074  0.0968 -0.1062
 1287SOL    HW115323   2.552   0.751   2.807  1.4884 -0.3704 -0.2311
 1287SOL    HW215324   2.437   0.675   2.776 -0.0095 -1.7123  0.7693
 1288SOL     OW15325   3.883   3.338  16.537 -0.1259 -0.4310  0.6954
 1288SOL    HW115326   3.858   3.408  16.598 -3.1075 -0.1961 -0.7647
 1288SOL    HW215327   3.949   3.379  16.482 -0.9241  0.1161  0.1404
 1289SOL     OW15328   0.797   4.338   5.367  0.5985 -0.0976  0.4642
 1289SOL    HW115329   0.776   4.363   5.277  0.9663  1.1242  0.7216
 1289SOL    HW215330   0.893   4.345   5.373  0.6458  0.8830 -1.4473
 1290SOL     OW15331   1.322   3.637   3.048  0.7723  0.3515  0.6566
 1290SOL    HW115332   1.377   3.646   3.125  2.2025  1.5008 -0.5058
 1290SOL    HW215333   1.385   3.645   2.977  0.1796  1.4287  0.2374
 1291SOL     OW15334   3.223   0.168   5.014 -0.5216 -0.4708 -0.0657
 1291SOL    HW115335   3.201   0.080   5.045  0.4835 -0.2980  1.1440
 1291SOL    HW215336   3.141   0.190   4.970  0.6948 -0.1490 -2.1761
 1292SOL     OW15337   0.586   4.525  10.498 -0.1060  0.6856  0.1183
 1292SOL    HW115338   0.552   4.615  10.493 -0.0096  0.8294  1.7310
 1292SOL    HW215339   0.672   4.543  10.537  0.0066 -1.0296  0.6275
 1293SOL     OW15340   4.615   3.185   8.956 -0.1502  0.0494 -0.5300
 1293SOL    HW115341   4.559   3.140   8.893  0.8791 -1.3218 -0.4562
 1293SOL    HW215342   4.655   3.106   8.992  2.7570  1.9259  0.4325
 1294SOL     OW15343   4.338   1.711   3.401  0.4133 -0.2538  0.5573
 1294SOL    HW115344   4.364   1.802   3.413 -2.1039  0.4063  0.9252
 1294SOL    HW215345   4.420   1.671   3.373  0.3255  0.9197 -1.4237
 1295SOL     OW15346   1.767   4.427   6.629 -0.0379 -0.3844 -0.1172
 1295SOL    HW115347   1.688   4.441   6.575 -0.0742  1.5614  0.4211
 1295SOL    HW215348   1.803   4.515   6.618 -0.4592 -0.2604 -0.4971
 1296SOL     OW15349   0.944   4.273   6.419 -0.0046  0.3141  0.2901
 1296SOL    HW115350   1.028   4.301   6.383  0.8942 -1.5836  0.8633
 1296SOL    HW215351   0.901   4.279   6.334 -1.0564  2.0293  0.9585
 1297SOL     OW15352   4.032   1.764   4.196  0.0323  0.6256 -0.2811
 1297SOL    HW115353   4.090   1.777   4.271 -1.1919  0.3106  0.7135
 1297SOL    HW215354   4.087   1.712   4.138  1.0365  0.7682  0.5342
 1298SOL     OW15355   1.042   3.182   3.288 -0.4358 -0.6420 -0.2514
 1298SOL    HW115356   1.104   3.220   3.226 -3.0761  0.7896 -2.0594
 1298SOL    HW215357   1.104   3.148   3.353  1.0118  2.3034 -0.1009
 1299SOL     OW15358   0.133   0.205   5.953 -0.2259 -0.2553  0.7945
 1299SOL    HW115359   0.172   0.247   6.030  0.2301  0.9292 -0.0846
 1299SOL    HW215360   0.046   0.205   5.992 -1.1709  3.6107 -1.3247
 1300SOL     OW15361   2.291   2.725   2.302 -0.1541 -0.2830 -0.0155
 1300SOL    HW115362   2.384   2.704   2.303  0.0728  0.7660  0.8966
 1300SOL    HW215363   2.253   2.645   2.341 -2.3644  1.5452  1.5848
 1301SOL     OW15364   4.480   3.800   6.824  0.0301 -0.7515 -0.4513
 1301SOL    HW115365   4.561   3.779   6.778  0.7130  1.0744 -0.0781
 1301SOL    HW215366   4.432   3.863   6.770 -0.2988 -0.7627 -0.1732
 1302SOL     OW15367   1.796   2.466   1.151 -0.0912  0.2466 -0.2277
 1302SOL    HW115368   1.745   2.514   1.086  0.2397  1.0332  0.0896
 1302SOL    HW215369   1.856   2.536   1.175  2.0616 -1.4798 -0.6054
 1303SOL     OW15370   0.659   1.504  13.928  0.7100  0.7265  0.3688
 1303SOL    HW115371   0.678   1.486  14.020 -1.4746 -0.2626  0.6184
 1303SOL    HW215372   0.644   1.597  13.944 -1.4508  0.0174  2.3729
 1304SOL     OW15373   3.586   1.787   9.105  0.2049  0.5087 -0.3496
 1304SOL    HW115374   3.512   1.731   9.130  0.3367  0.5041  0.0302
 1304SOL    HW215375   3.552   1.876   9.115 -2.0051 -0.4224  0.5464
 1305SOL     OW15376   0.654   2.170   6.314  0.3468 -0.4936 -0.4565
 1305SOL    HW115377   0.602   2.185   6.392 -0.3542  0.8248 -1.1697
 1305SOL    HW215378   0.650   2.076   6.298 -0.2626 -0.9940  2.6905
 1306SOL     OW15379   1.404   0.789   4.504  0.3726 -0.6035 -0.0517
 1306SOL    HW115380   1.391   0.803   4.410 -2.2708 -0.4565  0.3223
 1306SOL    HW215381   1.322   0.831   4.532  0.7196  0.8198 -1.1856
 1307SOL     OW15382   1.102   3.245   8.058 -0.4132 -0.0137 -0.2237
 1307SOL    HW115383   1.179   3.252   8.114  0.0827  0.5325 -0.9870
 1307SOL    HW215384   1.042   3.224   8.130 -1.3608 -1.5773 -1.4472
 1308SOL     OW15385   0.053   1.441   4.897 -0.2555 -0.3033  0.4098
 1308SOL    HW115386   0.097   1.366   4.859 -0.4488 -0.4198  0.4155
 1308SOL    HW215387   0.046   1.495   4.818 -0.1745  1.9668  1.9465
 1309SOL     OW15388   2.748   3.955   5.713 -0.0983 -0.2906 -0.0559
 1309SOL    HW115389   2.761   4.050   5.709 -1.6837  0.0014  1.7494
 1309SOL    HW215390   2.741   3.932   5.805 -2.0885 -1.8449 -0.5973
 1310SOL     OW15391   3.641   0.170   5.644  0.1666  0.0645  0.7037
 1310SOL    HW115392   3.704   0.098   5.645  0.1229  0.0625  2.5205
 1310SOL    HW215393   3.601   0.153   5.729  0.6885 -0.5843  0.8210
 1311SOL     OW15394   2.207   4.208  12.915  0.4813  0.0784 -0.5750
 1311SOL    HW115395   2.155   4.288  12.920  3.4662  1.9682 -0.0746
 1311SOL    HW215396   2.233   4.195  13.006  0.3404 -1.0746 -0.7055
 1312SOL     OW15397   2.519   3.797   7.669  0.2351 -0.2862  0.2010
 1312SOL    HW115398   2.498   3.868   7.609 -1.3293 -0.4995  0.5122
 1312SOL    HW215399   2.558   3.852   7.736  1.5563  0.8872 -1.5124
 1313SOL     OW15400   3.258   2.211   9.435 -0.2043 -0.0855 -0.3563
 1313SOL    HW115401   3.248   2.304   9.413  2.1777 -0.1672 -1.8120
 1313SOL    HW215402   3.300   2.217   9.521  0.7309  1.1648 -0.8940
 1314SOL     OW15403   2.089   4.566   4.514  0.1555  0.1348  0.2055
 1314SOL    HW115404   2.106   4.581   4.421  1.6351  0.0733  0.4792
 1314SOL    HW215405   2.102   4.655   4.546 -0.1876 -0.3359  1.6382
 1315SOL     OW15406   0.404   0.333  13.833  0.4165 -0.1158  0.0118
 1315SOL    HW115407   0.315   0.320  13.801 -0.1862  1.9258  0.8990
 1315SOL    HW215408   0.466   0.317  13.762  0.2119 -0.3596 -0.1125
 1316SOL     OW15409   2.778   1.931   6.805 -0.3518 -0.1524  0.2347
 1316SOL    HW115410   2.813   1.869   6.868  1.8168  1.7659  0.9125
 1316SOL    HW215411   2.739   2.001   6.857 -2.1967 -1.9358  1.2494
 1317SOL     OW15412   0.844   0.942   8.740  0.1884  0.5047 -0.3292
 1317SOL    HW115413   0.903   0.875   8.774 -0.4955 -0.4124 -0.9722
 1317SOL    HW215414   0.764   0.905   8.704  0.2870 -0.4075  0.4078
 1318SOL     OW15415   1.112   0.942   5.556  0.4308  0.2355  0.2255
 1318SOL    HW115416   1.052   0.977   5.622  2.1307  0.4865  1.6015
 1318SOL    HW215417   1.123   1.017   5.497 -0.3171  1.0059  1.0693
 1319SOL     OW15418   1.098   1.887   3.083 -0.1541  0.8836 -0.3174
 1319SOL    HW115419   1.010   1.868   3.116 -0.0655  0.2378 -0.4589
 1319SOL    HW215420   1.096   1.981   3.067  1.8311  0.9089 -0.4004
 1320SOL     OW15421   4.053   3.424  11.940 -0.2112  0.2048  0.3476
 1320SOL    HW115422   4.061   3.455  12.030 -1.0087 -1.0884  0.8635
 1320SOL    HW215423   3.959   3.406  11.943 -0.5505  2.2315  1.8502
 1321SOL     OW15424   2.119   1.413  14.725  0.3547  0.0070  0.4352
 1321SOL    HW115425   2.056   1.360  14.676 -1.2940  0.6549  1.8317
 1321SOL    HW215426   2.190   1.350  14.741 -1.4595 -2.3892 -0.9241
 1322SOL     OW15427   3.084   2.802   0.060 -0.2619 -0.0034  0.2542
 1322SOL    HW115428   3.012   2.790   0.121 -0.8395 -2.7522 -0.9623
 1322SOL    HW215429   3.036   2.790  17.664  0.0766  1.3882 -0.1485
 1323SOL     OW15430   3.310   1.384  15.024 -0.8986  0.2087 -0.0912
 1323SOL    HW115431   3.263   1.429  14.954  0.1065 -0.3935 -1.1426
 1323SOL    HW215432   3.392   1.355  14.984  0.3550  0.8622  2.0141
 1324SOL     OW15433   4.336   3.284   9.073 -0.6592  0.3965  0.0148
 1324SOL    HW115434   4.402   3.228   9.114 -4.3397 -1.5150  3.1949
 1324SOL    HW215435   4.251   3.252   9.101 -0.4243 -0.8664 -0.7094
 1325SOL     OW15436   3.075   2.764   5.940 -0.2776  0.0027  0.2506
 1325SOL    HW115437   3.082   2.859   5.933  0.3981 -0.1709 -1.5077
 1325SOL    HW215438   3.169   2.749   5.951 -0.6924 -1.5913  1.7409
 1326SOL     OW15439   3.100   3.897   4.991 -0.0332  0.0025 -0.6231
 1326SOL    HW115440   3.029   3.836   4.970 -0.9138 -0.2240  3.0279
 1326SOL    HW215441   3.117   3.882   5.084  2.5640  2.3535 -0.7307
 1327SOL     OW15442   3.502   0.629   7.702 -0.3370  0.2714 -0.0070
 1327SOL    HW115443   3.565   0.699   7.682  0.9439 -1.0118 -0.4974
 1327SOL    HW215444   3.448   0.629   7.624 -1.8151 -1.4500  1.0417
 1328SOL     OW15445   3.698   3.971   2.730  0.1093 -0.3191  0.0967
 1328SOL    HW115446   3.781   3.969   2.778 -1.2722  2.1678  2.5608
 1328SOL    HW215447   3.709   3.891   2.678 -0.1463  0.7456 -1.5893
 1329SOL     OW15448   1.446   1.137   5.980  0.0874 -0.0547 -0.2380
 1329SOL    HW115449   1.480   1.157   5.892 -0.8127 -1.4728 -0.9241
 1329SOL    HW215450   1.357   1.104   5.967  0.1189 -0.5878  0.9057
 1330SOL     OW15451   2.675   2.437   7.858 -0.2404 -0.0606 -0.1721
 1330SOL    HW115452   2.715   2.505   7.804  0.1765 -0.5198 -0.4298
 1330SOL    HW215453   2.619   2.383   7.802 -0.0238 -0.1055 -0.3422
 1331SOL     OW15454   1.320   2.924   8.087  0.4237 -0.0689 -0.1115
 1331SOL    HW115455   1.341   2.997   8.145  0.2054 -0.5193  0.5418
 1331SOL    HW215456   1.226   2.912   8.106  0.3020 -3.8227 -3.0528
 1332SOL     OW15457   0.508   3.596   6.884  0.2025  0.0001  0.1240
 1332SOL    HW115458   0.573   3.612   6.953  0.6389  1.1467 -0.5569
 1332SOL    HW215459   0.558   3.624   6.808  0.0166 -0.2383 -0.0892
 1333SOL     OW15460   2.470   0.095  13.413 -0.0516 -0.2550  0.4378
 1333SOL    HW115461   2.498   0.049  13.334  0.0379 -2.0372  1.4986
 1333SOL    HW215462   2.556   0.096  13.455  0.6977 -1.2055 -1.0822
 1334SOL     OW15463   3.142   1.599  16.691 -0.0550  0.7687 -0.3431
 1334SOL    HW115464   3.219   1.580  16.636 -0.1759  0.6217 -0.4609
 1334SOL    HW215465   3.178   1.621  16.777 -0.3627 -0.4400  0.0976
 1335SOL     OW15466   1.882   3.349   5.479  0.3561 -0.0532 -0.1222
 1335SOL    HW115467   1.908   3.325   5.390  0.9745  1.8937 -0.4716
 1335SOL    HW215468   1.822   3.421   5.458 -3.4534 -2.4129  2.6874
 1336SOL     OW15469   0.543   0.053   1.651 -0.4331  0.4154 -0.6576
 1336SOL    HW115470   0.472   0.082   1.594 -1.2030  1.0012  0.5815
 1336SOL    HW215471   0.618   0.076   1.596 -1.4100  1.0707 -1.7085
 1337SOL     OW15472   0.422   3.617   2.059 -0.3269  0.3525 -0.0203
 1337SOL    HW115473   0.357   3.593   1.993 -0.9928  1.5711  0.1838
 1337SOL    HW215474   0.466   3.532   2.062 -3.1826 -1.1528 -1.3235
 1338SOL     OW15475   2.237   3.791  13.322 -0.3753  0.3456 -0.6042
 1338SOL    HW115476   2.331   3.796  13.306 -0.3825  0.0684 -0.7296
 1338SOL    HW215477   2.207   3.842  13.246 -1.4432 -1.7313 -1.5654
 1339SOL     OW15478   0.293   1.326   7.546  0.4082  0.1755 -0.0772
 1339SOL    HW115479   0.316   1.355   7.458  0.9128  1.3305  0.4378
 1339SOL    HW215480   0.321   1.403   7.596  0.8750 -0.9973  1.4535
 1340SOL     OW15481   1.911   3.261   2.686  0.3212 -0.0126 -0.1746
 1340SOL    HW115482   1.859   3.292   2.761  0.2846 -1.6061  0.4656
 1340SOL    HW215483   1.874   3.305   2.610 -1.0680  1.3200  1.2745
 1341SOL     OW15484   1.997   3.276   6.296 -0.2631 -0.6586  0.1400
 1341SOL    HW115485   2.030   3.219   6.365  0.2257  1.1590  1.3888
 1341SOL    HW215486   1.980   3.214   6.225 -2.0351  0.8716 -0.7877
 1342SOL     OW15487   1.337   4.324  14.826 -0.2280 -0.2893 -0.3460
 1342SOL    HW115488   1.265   4.341  14.766 -0.1040  0.8399 -0.1854
 1342SOL    HW215489   1.287   4.315  14.906 -1.0403  1.4993 -0.6641
 1343SOL     OW15490   3.503   3.965   5.906 -0.0369 -0.2400 -0.7196
 1343SOL    HW115491   3.573   3.903   5.926 -2.1808 -1.9581  1.5437
 1343SOL    HW215492   3.528   4.040   5.961 -0.7045 -0.6201  0.0949
 1344SOL     OW15493   1.271   2.190   1.171 -0.0652 -0.0040  0.1801
 1344SOL    HW115494   1.266   2.280   1.204 -0.2986  0.4428 -1.0662
 1344SOL    HW215495   1.284   2.138   1.250  0.4635  2.0704  1.4651
 1345SOL     OW15496   0.045   4.618   9.653 -0.1022  0.0136  0.3665
 1345SOL    HW115497   0.077   4.705   9.629 -0.5794  0.3087  0.8104
 1345SOL    HW215498   4.697   4.602   9.588 -0.3609 -0.9187  0.8741
 1346SOL     OW15499   2.180   4.619   3.857 -0.3378  0.2765 -0.1561
 1346SOL    HW115500   2.162   4.549   3.795 -1.2328 -0.0661  0.4841
 1346SOL    HW215501   2.276   4.617   3.854 -0.3017 -1.6888  1.8038
 1347SOL     OW15502   1.869   0.770   4.221  0.2780 -0.2985  0.3811
 1347SOL    HW115503   1.909   0.701   4.169  2.1070  0.0913  1.2478
 1347SOL    HW215504   1.879   0.741   4.312  2.5181 -1.6503 -0.3070
 1348SOL     OW15505   0.513   2.378   2.356 -0.1322  0.4353 -0.6788
 1348SOL    HW115506   0.568   2.301   2.344 -1.7462 -0.7446 -0.6667
 1348SOL    HW215507   0.438   2.355   2.300 -0.1277 -1.5466  0.1068
 1349SOL     OW15508   2.021   3.636   7.068  0.1505  0.3175 -0.5758
 1349SOL    HW115509   2.076   3.622   7.145  0.1870  2.7333 -0.1495
 1349SOL    HW215510   2.085   3.645   6.997 -0.6650  2.4884 -1.0547
 1350SOL     OW15511   0.315   0.640  16.613 -0.3314 -0.3449 -0.1968
 1350SOL    HW115512   0.325   0.593  16.531  1.1075  0.6027 -0.5680
 1350SOL    HW215513   0.236   0.694  16.605  0.4865  0.7108 -1.0821
 1351SOL     OW15514   1.954   2.676   1.206 -0.5903 -0.0276 -0.4121
 1351SOL    HW115515   1.922   2.686   1.296  0.2140  0.5168 -0.1826
 1351SOL    HW215516   2.027   2.616   1.225 -0.3340  0.4558  0.1501
 1352SOL     OW15517   3.378   0.029  11.919 -1.2399 -0.4987 -0.1540
 1352SOL    HW115518   3.308   4.686  11.909 -1.1780 -0.7131  0.7551
 1352SOL    HW215519   3.444   4.688  11.949 -1.5888 -0.0337  1.5613
 1353SOL     OW15520   2.099   0.308   7.977  0.5412 -0.3172 -0.6174
 1353SOL    HW115521   2.109   0.226   7.929 -0.7672 -1.7582  1.5698
 1353SOL    HW215522   2.182   0.356   7.975  1.0258 -1.1160  0.5982
 1354SOL     OW15523   2.923   3.142   4.044 -0.2371 -0.4274  0.9593
 1354SOL    HW115524   2.868   3.150   3.966 -1.7625 -1.0664  1.9702
 1354SOL    HW215525   2.983   3.082   3.999 -0.1079  1.0726 -0.8401
 1355SOL     OW15526   0.143   2.275   5.751  0.2194  0.2489  0.1879
 1355SOL    HW115527   0.226   2.289   5.705 -0.0190 -1.1048 -0.6474
 1355SOL    HW215528   0.166   2.324   5.830 -0.3406  2.4634 -1.0127
 1356SOL     OW15529   0.976   0.182  16.867 -0.2418 -0.3786  0.0921
 1356SOL    HW115530   1.063   0.160  16.902  0.2771  1.3072 -0.1627
 1356SOL    HW215531   0.966   0.271  16.900  0.4020  0.0745 -0.9379
 1357SOL     OW15532   0.610   4.444   4.123 -0.3018  0.2681 -0.5097
 1357SOL    HW115533   0.549   4.448   4.196 -2.1844 -0.2831 -2.0308
 1357SOL    HW215534   0.575   4.508   4.061 -1.0243  0.7130  0.3668
 1358SOL     OW15535   4.372   2.453  10.311 -0.2653 -0.4191  0.1334
 1358SOL    HW115536   4.375   2.528  10.370  0.8000  0.2797 -0.7985
 1358SOL    HW215537   4.431   2.398  10.362 -0.7985 -0.4055  0.7615
 1359SOL     OW15538   2.272   4.102   5.341 -0.6322  0.2160 -0.3742
 1359SOL    HW115539   2.272   4.097   5.245  1.3377 -0.9939 -0.3327
 1359SOL    HW215540   2.247   4.012   5.362  1.6140 -0.2851  0.2018
 1360SOL     OW15541   0.303   4.490   2.607  0.0207 -0.1413 -0.0015
 1360SOL    HW115542   0.381   4.449   2.643  0.4058  1.7821  1.3890
 1360SOL    HW215543   0.237   4.421   2.600 -0.0663  0.0133 -0.7104
 1361SOL     OW15544   1.561   4.348   1.873  0.0051 -0.6608 -0.0205
 1361SOL    HW115545   1.602   4.415   1.818 -1.0476  0.9952  1.2154
 1361SOL    HW215546   1.621   4.274   1.870  1.0104  0.1461 -0.0662
 1362SOL     OW15547   1.665   1.230   2.791  0.0680  0.0707 -0.1474
 1362SOL    HW115548   1.702   1.273   2.868 -0.6774 -1.4836  1.0690
 1362SOL    HW215549   1.627   1.304   2.744  0.4965 -0.0675 -0.7050
 1363SOL     OW15550   3.731   2.580   5.976  0.1457  0.1963 -0.0181
 1363SOL    HW115551   3.720   2.505   6.034  0.5325  1.2332  1.4135
 1363SOL    HW215552   3.826   2.584   5.967 -0.0559  0.1966 -2.0195
 1364SOL     OW15553   1.983   4.073   1.804  0.0735  0.0817 -0.5569
 1364SOL    HW115554   1.910   4.118   1.847  0.2678 -1.6638  1.6098
 1364SOL    HW215555   1.983   3.993   1.856 -0.7435 -2.0038 -3.7495
 1365SOL     OW15556   0.534   1.087   8.883  0.0926  0.1115  0.0814
 1365SOL    HW115557   0.594   1.121   8.817 -0.6493 -2.5797 -1.9456
 1365SOL    HW215558   0.588   1.046   8.951 -0.1295 -1.1805 -0.5338
 1366SOL     OW15559   3.197   1.113   7.784 -0.1455 -0.3019  0.2308
 1366SOL    HW115560   3.158   1.114   7.871  1.3068 -0.5548  0.8774
 1366SOL    HW215561   3.232   1.024   7.780 -1.5122 -0.9092  1.9925
 1367SOL     OW15562   3.138   0.029   4.651 -0.2331  0.0478  0.3858
 1367SOL    HW115563   3.172   4.674   4.699  0.1922  0.4205  0.6690
 1367SOL    HW215564   3.203   0.097   4.668 -0.3379 -0.0197  1.0561
 1368SOL     OW15565   0.392   4.588  15.607 -0.2652 -0.3392  0.4029
 1368SOL    HW115566   0.420   4.664  15.659 -0.2719  0.5848 -0.9399
 1368SOL    HW215567   0.481   4.559  15.592  0.2769  1.6049 -0.0510
 1369SOL     OW15568   2.111   2.453   3.371  0.2885 -0.0335 -0.3623
 1369SOL    HW115569   2.085   2.401   3.448  0.5876  0.7842  0.2904
 1369SOL    HW215570   2.040   2.513   3.348  1.4671  0.8523 -1.6554
 1370SOL     OW15571   3.290   3.306   8.821  0.1295 -0.0494  0.2076
 1370SOL    HW115572   3.327   3.297   8.734 -2.3768  1.5896 -1.0266
 1370SOL    HW215573   3.366   3.303   8.879  0.0163 -1.3733  0.3017
 1371SOL     OW15574   0.615   2.653   7.370  0.1721 -0.7987 -0.0920
 1371SOL    HW115575   0.709   2.670   7.363  0.1533 -0.7111 -0.1355
 1371SOL    HW215576   0.601   2.724   7.433  2.2545  0.1086 -0.6705
 1372SOL     OW15577   1.815   1.518   2.799 -0.1288 -0.2338 -0.9811
 1372SOL    HW115578   1.857   1.599   2.772  0.0512 -0.3748 -1.1209
 1372SOL    HW215579   1.853   1.458   2.735 -3.1256 -1.9839 -1.1188
 1373SOL     OW15580   0.188   2.032   6.492  0.5713  0.2775 -0.0256
 1373SOL    HW115581   0.187   2.115   6.443  4.0639  0.4001  0.0998
 1373SOL    HW215582   0.134   1.969   6.444  0.0951  0.7091 -0.0509
 1374SOL     OW15583   3.998   0.630   3.803  0.0164  0.4779  0.3917
 1374SOL    HW115584   3.999   0.544   3.845 -0.7520 -1.1689 -2.9897
 1374SOL    HW215585   4.036   0.607   3.718 -2.9743  1.2536 -1.1662
 1375SOL     OW15586   1.448   2.167  10.441 -0.3162 -0.2220 -0.1315
 1375SOL    HW115587   1.511   2.095  10.448  0.2237  0.3253  0.7427
 1375SOL    HW215588   1.381   2.130  10.384 -1.5442  1.6661  0.1194
 1376SOL     OW15589   0.351   3.646   4.105  0.1528 -0.4625  0.5323
 1376SOL    HW115590   0.328   3.685   4.021  0.1874  1.0128  1.2149
 1376SOL    HW215591   0.385   3.724   4.147  1.7814 -0.5679 -0.5988
 1377SOL     OW15592   4.628   0.964   7.034 -0.0336 -0.6497  0.3235
 1377SOL    HW115593   4.631   1.051   6.994 -1.8584 -0.4660  0.5610
 1377SOL    HW215594   4.643   0.993   7.124 -0.1821 -1.5842  0.6481
 1378SOL     OW15595   1.424   3.958  17.337 -0.7671 -0.0410  0.2815
 1378SOL    HW115596   1.419   3.877  17.388  0.0711  0.6832  1.5224
 1378SOL    HW215597   1.439   4.024  17.404 -0.8135  0.6207 -0.3652
 1379SOL     OW15598   1.634   3.204   6.744 -0.3174  0.5174 -0.6684
 1379SOL    HW115599   1.582   3.210   6.664 -1.8451  0.9271  0.3422
 1379SOL    HW215600   1.721   3.198   6.704 -0.9213 -0.0796 -1.8889
 1380SOL     OW15601   0.484   3.333   7.456  0.3595  0.1544 -0.2811
 1380SOL    HW115602   0.547   3.281   7.506 -2.5465 -1.1969  1.9154
 1380SOL    HW215603   0.469   3.277   7.380  0.9170 -2.2502  1.3787
 1381SOL     OW15604   2.257   0.008  15.539 -0.6896  0.0739 -0.5399
 1381SOL    HW115605   2.255   4.708  15.446 -1.9004  1.1932 -0.7652
 1381SOL    HW215606   2.206   0.089  15.536 -1.8457 -0.7393 -2.7396
 1382SOL     OW15607   3.707   0.125   5.194 -0.1638 -0.9715  0.2793
 1382SOL    HW115608   3.641   0.144   5.128  0.6301  0.1382 -0.2035
 1382SOL    HW215609   3.774   0.077   5.145 -0.1771 -3.8938  3.0767
 1383SOL     OW15610   0.505   2.675   9.137 -0.0130 -0.3708  0.3967
 1383SOL    HW115611   0.493   2.598   9.081 -1.1719  1.5492 -1.9868
 1383SOL    HW215612   0.577   2.644   9.192 -1.1772 -1.2289  1.4271
 1384SOL     OW15613   4.286   1.305   5.933  0.3214 -0.0128  0.1224
 1384SOL    HW115614   4.358   1.319   5.871 -0.0255 -1.3391 -0.5974
 1384SOL    HW215615   4.232   1.383   5.933  0.8301  0.3655 -3.4164
 1385SOL     OW15616   4.615   4.318   3.673  0.0618  0.0880 -0.1894
 1385SOL    HW115617   4.574   4.232   3.675 -1.1788  0.7268  1.7728
 1385SOL    HW215618   4.592   4.342   3.583  0.9767  0.7775 -0.2398
 1386SOL     OW15619   1.848   1.045  16.804  0.3113 -0.5887  0.2139
 1386SOL    HW115620   1.843   1.115  16.868  0.7454 -1.0046  0.7059
 1386SOL    HW215621   1.837   0.970  16.863  0.8212  0.6888  1.9286
 1387SOL     OW15622   4.673   1.031  14.181 -0.2847  0.5462 -0.2339
 1387SOL    HW115623   4.640   1.024  14.092 -0.8378  0.7203 -0.0447
 1387SOL    HW215624   4.608   0.978  14.228  1.5406 -0.3841  1.2514
 1388SOL     OW15625   0.420   4.145   3.965  0.0512  0.4975  0.5087
 1388SOL    HW115626   0.481   4.141   4.039  0.3183 -2.2278  0.1292
 1388SOL    HW215627   0.357   4.213   3.991 -0.8150 -0.2285  0.2912
 1389SOL     OW15628   0.623   1.199  14.062  0.4095  0.6390 -0.1365
 1389SOL    HW115629   0.697   1.139  14.059 -0.4027 -0.4459  2.0508
 1389SOL    HW215630   0.569   1.139  14.011  1.1557 -0.5666  0.5075
 1390SOL     OW15631   3.681   1.871   7.474  0.0797  0.1139  0.0216
 1390SOL    HW115632   3.642   1.955   7.497 -0.2525  0.1868 -0.8042
 1390SOL    HW215633   3.772   1.894   7.491  0.1610 -0.4141  0.3097
 1391SOL     OW15634   4.125   2.671   8.513 -0.1548  0.1580  0.2938
 1391SOL    HW115635   4.165   2.719   8.441 -1.8525  1.4201  0.1695
 1391SOL    HW215636   4.034   2.702   8.520  0.1968  1.9880 -3.4446
 1392SOL     OW15637   1.932   4.013  13.539  0.4021 -0.4925  0.1942
 1392SOL    HW115638   1.898   4.022  13.628 -0.2584  0.3681 -0.1537
 1392SOL    HW215639   1.943   3.919  13.524  0.2642 -0.5133  0.2198
 1393SOL     OW15640   0.578   2.796   7.866 -0.5221  0.3473 -0.2776
 1393SOL    HW115641   0.558   2.884   7.898  0.1779 -0.2520  1.7617
 1393SOL    HW215642   0.663   2.776   7.905 -0.2371  0.5718 -0.7823
 1394SOL     OW15643   4.224   4.270   6.277  0.9546 -0.0131  0.3309
 1394SOL    HW115644   4.228   4.363   6.295 -2.8029  0.8058 -2.9778
 1394SOL    HW215645   4.196   4.271   6.185 -2.0761  1.0670  1.2623
 1395SOL     OW15646   2.947   2.933  11.587 -0.5480  0.4801 -0.2867
 1395SOL    HW115647   2.933   3.019  11.547 -0.4086  0.0205 -1.3319
 1395SOL    HW215648   3.042   2.917  11.584 -0.8460 -1.0658 -1.3323
 1396SOL     OW15649   2.905   3.801   5.542 -0.2418 -0.1964  0.7304
 1396SOL    HW115650   2.863   3.848   5.614 -1.2019  0.8466 -0.5345
 1396SOL    HW215651   2.912   3.716   5.587  2.4807 -0.0511  0.5982
 1397SOL     OW15652   4.302   0.820  15.774  0.2194  0.3339  0.2320
 1397SOL    HW115653   4.233   0.814  15.709 -0.5716  2.3975  0.9037
 1397SOL    HW215654   4.332   0.911  15.769  1.1973 -0.0236 -0.4908
 1398SOL     OW15655   4.598   0.511   4.071  0.4036  0.0220  0.5185
 1398SOL    HW115656   4.600   0.509   3.975  1.2002  0.1194  0.5336
 1398SOL    HW215657   4.516   0.462   4.076 -0.8856  1.9803 -1.1003
 1399SOL     OW15658   1.893   0.560   6.101 -0.5985 -0.4503  0.1960
 1399SOL    HW115659   1.928   0.608   6.176 -0.2718  0.6466 -0.6650
 1399SOL    HW215660   1.925   0.474   6.128 -0.2269 -0.0632  1.0108
 1400SOL     OW15661   0.326   0.752   8.489 -0.0302  0.1334 -0.1589
 1400SOL    HW115662   0.235   0.757   8.458 -0.0300  3.0356  0.3264
 1400SOL    HW215663   0.316   0.799   8.571 -2.3586 -1.2741  0.3799
 1401SOL     OW15664   1.976   4.626   7.968 -0.2922 -0.8951  0.3558
 1401SOL    HW115665   1.884   4.651   7.958  0.3656  1.4458  0.1772
 1401SOL    HW215666   1.964   4.597   8.059  2.0149 -2.8757  0.0053
 1402SOL     OW15667   2.625   1.656   6.921  0.1503  0.1385 -0.0398
 1402SOL    HW115668   2.565   1.716   6.964  1.3279  0.7916  0.6634
 1402SOL    HW215669   2.707   1.669   6.967 -0.2137  2.8853 -0.2073
 1403SOL     OW15670   1.822   0.666   1.180  0.0957 -0.3467 -0.5413
 1403SOL    HW115671   1.768   0.740   1.153  2.0843  1.6160  0.8295
 1403SOL    HW215672   1.795   0.650   1.270 -1.7096  1.2878 -0.7895
 1404SOL     OW15673   4.480   1.321   5.752  0.3282  0.4152  0.2084
 1404SOL    HW115674   4.571   1.299   5.730  1.0460  1.7694  1.8505
 1404SOL    HW215675   4.468   1.403   5.705  1.4252  0.2361 -0.3818
 1405SOL     OW15676   2.877   0.219   7.274 -0.5601  0.3823 -0.4224
 1405SOL    HW115677   2.846   0.166   7.200 -1.6394 -2.5211  2.1177
 1405SOL    HW215678   2.837   0.175   7.350 -1.1309 -2.7545 -2.5075
 1406SOL     OW15679   0.098   4.479   6.749  0.1015 -0.1601  0.3233
 1406SOL    HW115680   0.105   4.548   6.815  0.8911 -0.1343  0.2139
 1406SOL    HW215681   0.005   4.476   6.726  0.0385  0.3512  0.5271
 1407SOL     OW15682   0.050   4.223  16.524  0.0511 -0.4584 -0.0477
 1407SOL    HW115683   0.133   4.238  16.570 -0.1698  2.9507 -0.7541
 1407SOL    HW215684   0.016   4.159  16.587 -0.7344 -1.5422 -1.5755
 1408SOL     OW15685   1.607   4.006   3.873  0.3538  0.5239  0.2698
 1408SOL    HW115686   1.692   3.972   3.903  0.0020 -0.9550 -0.4070
 1408SOL    HW215687   1.631   4.023   3.782 -0.4952 -1.6479 -0.3576
 1409SOL     OW15688   0.799   3.073   3.432  0.4389  0.6305  0.0140
 1409SOL    HW115689   0.866   3.106   3.372  0.1647  1.7817  0.3452
 1409SOL    HW215690   0.815   2.978   3.425 -0.8666  0.5940 -2.3614
 1410SOL     OW15691   3.075   3.281   0.932 -0.1993  0.6725 -0.0920
 1410SOL    HW115692   3.097   3.188   0.925 -2.1502  0.2610 -0.7601
 1410SOL    HW215693   2.980   3.280   0.941 -0.1473  0.9003  0.5244
 1411SOL     OW15694   4.553   4.361   4.132 -0.1800  0.2006  0.4526
 1411SOL    HW115695   4.600   4.380   4.051 -0.8395  1.4769  0.3723
 1411SOL    HW215696   4.612   4.400   4.196  0.1219  0.4482  0.0177
 1412SOL     OW15697   0.961   4.606   9.691  0.2798  0.1375  0.2645
 1412SOL    HW115698   1.024   4.555   9.640 -0.1058 -0.8400  0.7719
 1412SOL    HW215699   0.879   4.565   9.664 -0.6026  1.9249  0.2076
 1413SOL     OW15700   1.212   2.902   8.444 -0.1582  0.3739  0.0150
 1413SOL    HW115701   1.260   2.962   8.387  0.2954  0.6772  0.7233
 1413SOL    HW215702   1.138   2.867   8.394  1.2011 -2.0616 -0.3105
 1414SOL     OW15703   2.447   1.559  11.461 -0.2453  0.0423  0.6364
 1414SOL    HW115704   2.396   1.624  11.510 -1.7220  0.3101 -1.2469
 1414SOL    HW215705   2.418   1.476  11.500 -0.1387 -0.1247  0.3632
 1415SOL     OW15706   2.037   0.259  11.160 -0.1121 -0.3952 -1.0264
 1415SOL    HW115707   2.103   0.191  11.148 -0.9767 -1.6070  1.0643
 1415SOL    HW215708   2.027   0.285  11.069 -0.9834  0.5348 -0.6721
 1416SOL     OW15709   0.128   2.200  17.205 -0.0582 -0.1857  0.4166
 1416SOL    HW115710   0.212   2.242  17.221 -0.0806  0.9347 -2.3081
 1416SOL    HW215711   0.100   2.174  17.293  0.5133  0.4011  0.7683
 1417SOL     OW15712   2.584   4.139   2.831  0.4314 -0.1597  0.3438
 1417SOL    HW115713   2.667   4.187   2.824 -0.2483  0.8040 -1.1332
 1417SOL    HW215714   2.522   4.196   2.785 -2.0872 -3.3904 -0.2374
 1418SOL     OW15715   0.363   0.727   6.651  0.2918 -0.0875  0.3409
 1418SOL    HW115716   0.440   0.778   6.625 -0.0218 -0.1780 -0.7688
 1418SOL    HW215717   0.397   0.637   6.657  1.9108  0.5703  1.0339
 1419SOL     OW15718   1.174   1.657   1.978 -0.3091  0.1607 -0.3102
 1419SOL    HW115719   1.178   1.587   2.044 -0.9485  1.0661  0.7007
 1419SOL    HW215720   1.237   1.619   1.917 -3.1535 -1.8201 -1.9803
 1420SOL     OW15721   3.292   1.972  10.806  0.3630  0.4336  0.2826
 1420SOL    HW115722   3.284   2.059  10.768 -0.6604  0.8636  1.4835
 1420SOL    HW215723   3.200   1.948  10.814  0.3326  0.4803  0.0710
 1421SOL     OW15724   3.924   1.707  16.010 -0.1843  0.3849  0.1288
 1421SOL    HW115725   3.858   1.694  15.942 -0.7658  1.5374  0.4797
 1421SOL    HW215726   3.905   1.633  16.068 -0.1216 -0.7332 -1.2730
 1422SOL     OW15727   2.008   2.033  14.574 -0.1446 -0.0043  0.6639
 1422SOL    HW115728   2.089   2.055  14.528 -0.3104 -2.5856 -0.8514
 1422SOL    HW215729   2.050   1.980  14.641  2.1745  1.9301  0.7058
 1423SOL     OW15730   1.412   3.771   6.382 -0.0196 -0.2495  0.8115
 1423SOL    HW115731   1.457   3.771   6.297 -0.6266  1.7033  0.5038
 1423SOL    HW215732   1.363   3.852   6.371 -0.1303 -0.3488  0.5625
 1424SOL     OW15733   0.032   0.175  17.342 -0.4755  0.1571  0.0330
 1424SOL    HW115734   0.119   0.211  17.362 -1.3533  0.2167  3.7036
 1424SOL    HW215735   0.052   0.108  17.276 -0.4136  0.6473 -0.4503
 1425SOL     OW15736   0.736   2.784   6.961  0.3055  0.1211 -0.0947
 1425SOL    HW115737   0.642   2.774   6.971  0.2882 -0.6009 -0.9817
 1425SOL    HW215738   0.783   2.706   6.993  0.4628 -1.1736 -3.5109
 1426SOL     OW15739   4.437   2.704   5.093 -0.2120  0.3136 -0.3095
 1426SOL    HW115740   4.476   2.764   5.029  0.4099 -0.4048 -0.6011
 1426SOL    HW215741   4.401   2.763   5.159  0.0825  0.0901  0.0540
 1427SOL     OW15742   1.843   1.799   4.491 -0.3087  0.3263  0.0002
 1427SOL    HW115743   1.775   1.844   4.442 -0.1493  0.4893 -0.0708
 1427SOL    HW215744   1.920   1.849   4.464  0.0323 -0.4438 -0.4582
 1428SOL     OW15745   1.379   3.661   3.346  0.2965  0.4827  0.6796
 1428SOL    HW115746   1.315   3.730   3.328 -1.2336 -0.6925  1.6543
 1428SOL    HW215747   1.320   3.587   3.359 -0.6825  0.9136 -1.3174
 1429SOL     OW15748   2.126   1.352   5.648  0.1073  0.0628 -0.4454
 1429SOL    HW115749   2.054   1.404   5.686  0.3075  1.3610 -1.8566
 1429SOL    HW215750   2.181   1.425   5.620  2.0340 -1.1434  0.2472
 1430SOL     OW15751   1.547   2.627  11.896  0.4062  0.6858  0.7210
 1430SOL    HW115752   1.608   2.574  11.845  0.4035 -0.1834  1.6191
 1430SOL    HW215753   1.568   2.714  11.864  0.4235  1.5773  3.1606
 1431SOL     OW15754   1.904   3.823   7.341  0.5331 -0.4978  0.5422
 1431SOL    HW115755   1.992   3.786   7.340  0.8562  0.2819 -0.3645
 1431SOL    HW215756   1.930   3.914   7.354  1.8595 -0.8746  0.4971
 1432SOL     OW15757   1.324   3.110   8.293 -0.0652  0.1441 -0.3468
 1432SOL    HW115758   1.286   3.197   8.303 -2.5713 -1.0585  0.5462
 1432SOL    HW215759   1.415   3.136   8.275  0.1618 -0.3946  0.0352
 1433SOL     OW15760   1.150   0.440  11.425  1.0499  0.4004 -0.2959
 1433SOL    HW115761   1.128   0.358  11.470  1.0061  0.1886 -0.7102
 1433SOL    HW215762   1.147   0.402  11.338  1.7549  1.2693 -0.7032
 1434SOL     OW15763   1.269   2.926   2.462 -0.7633  0.6855  0.4170
 1434SOL    HW115764   1.338   2.928   2.528  0.3788 -0.7102 -0.7473
 1434SOL    HW215765   1.301   2.893   2.378 -0.0588  1.1315  0.5162
 1435SOL     OW15766   0.994   4.343   2.384 -0.2307  0.3169 -0.5405
 1435SOL    HW115767   0.991   4.428   2.341 -3.8558  0.5730  0.1679
 1435SOL    HW215768   0.966   4.288   2.311 -3.3224  0.7514  0.3074
 1436SOL     OW15769   0.418   2.009  14.509  1.0768  0.2419 -0.7285
 1436SOL    HW115770   0.446   1.998  14.600 -1.3209  1.3542  0.1147
 1436SOL    HW215771   0.349   2.075  14.510  0.8091 -0.0353 -1.1527
 1437SOL     OW15772   3.312   3.453   3.075  0.1849  0.1838 -0.1123
 1437SOL    HW115773   3.377   3.390   3.045  0.3239  0.4561 -0.3872
 1437SOL    HW215774   3.324   3.518   3.005 -1.1300  0.5980  0.0424
 1438SOL     OW15775   2.026   0.800  17.051 -0.0900 -0.0101  0.3000
 1438SOL    HW115776   2.083   0.724  17.052 -1.9819 -1.4451 -1.6966
 1438SOL    HW215777   1.967   0.757  16.989  1.3543 -2.5197  0.6741
 1439SOL     OW15778   1.682   1.705   8.255 -0.1116  0.1549  0.5146
 1439SOL    HW115779   1.621   1.654   8.308 -1.2209  0.2601 -0.6753
 1439SOL    HW215780   1.765   1.707   8.302  1.3634  0.9384 -2.1306
 1440SOL     OW15781   0.802   2.809   6.410  0.0373 -0.2269 -0.1885
 1440SOL    HW115782   0.817   2.871   6.339  0.4897  0.9546  0.9336
 1440SOL    HW215783   0.789   2.874   6.479 -0.5006  2.9579 -3.2898
 1441SOL     OW15784   0.903   2.425   7.338  0.2431  0.3029  0.3369
 1441SOL    HW115785   0.872   2.358   7.399  0.6852 -0.1609  0.0464
 1441SOL    HW215786   0.937   2.492   7.397  0.4907  0.5391 -0.0712
 1442SOL     OW15787   1.294   3.630   9.999  0.6301  0.5564  0.1537
 1442SOL    HW115788   1.337   3.608  10.082 -1.7762 -2.7075  0.5143
 1442SOL    HW215789   1.289   3.542   9.961 -0.9750  0.7049  0.0407
 1443SOL     OW15790   3.753   0.119   3.509  0.0560 -0.0490  0.2760
 1443SOL    HW115791   3.706   0.200   3.488 -0.3405 -0.1707  0.7193
 1443SOL    HW215792   3.781   0.104   3.418 -1.3956 -0.4954 -0.0907
 1444SOL     OW15793   1.460   1.399   4.938 -0.0025 -0.2033  0.1746
 1444SOL    HW115794   1.523   1.347   4.987  1.2901  0.6660 -0.5637
 1444SOL    HW215795   1.399   1.426   5.007 -2.2432 -0.4144 -1.6965
 1445SOL     OW15796   3.725   1.884   5.394 -0.1210  0.3406 -0.1087
 1445SOL    HW115797   3.652   1.894   5.333 -0.1776  0.0162 -0.0927
 1445SOL    HW215798   3.715   1.789   5.402 -1.9704  0.5710  0.3331
 1446SOL     OW15799   1.462   2.641   0.270  0.1890 -0.3796 -0.3536
 1446SOL    HW115800   1.538   2.699   0.264 -1.1966  1.4012 -0.7958
 1446SOL    HW215801   1.403   2.676   0.203 -0.1871 -0.3368 -0.0010
 1447SOL     OW15802   0.741   2.110   2.382  0.3053  0.0345 -0.0667
 1447SOL    HW115803   0.790   2.030   2.401 -1.1845 -1.2040 -1.4649
 1447SOL    HW215804   0.694   2.089   2.301  2.0260 -2.6167 -0.3527
 1448SOL     OW15805   1.120   1.626  15.834  0.2697 -0.4436 -0.3752
 1448SOL    HW115806   1.024   1.622  15.840  0.0451  1.5501 -2.4717
 1448SOL    HW215807   1.124   1.644  15.740 -2.4856 -0.1670 -0.4394
 1449SOL     OW15808   3.154   3.969   2.509  0.1088 -1.1296 -0.2687
 1449SOL    HW115809   3.222   3.937   2.568 -2.1132  0.4782  3.1024
 1449SOL    HW215810   3.102   4.021   2.570  1.5005  0.2103 -0.2243
 1450SOL     OW15811   2.250   2.180  12.289  0.3219 -0.3446  1.0641
 1450SOL    HW115812   2.171   2.186  12.344 -0.3577 -0.6713  0.1086
 1450SOL    HW215813   2.281   2.096  12.322 -1.6541 -0.4677  2.6124
 1451SOL     OW15814   3.703   1.936   8.873 -0.0492  0.4300  0.3963
 1451SOL    HW115815   3.678   1.867   8.935  1.9553 -0.2296  0.4539
 1451SOL    HW215816   3.676   1.898   8.790 -0.0617 -0.8465  0.9832
 1452SOL     OW15817   0.845   0.332   9.807 -0.2347  0.6234  0.0335
 1452SOL    HW115818   0.935   0.319   9.837  0.1159  1.2730 -0.7450
 1452SOL    HW215819   0.833   0.254   9.752  1.2743  1.1822 -1.0831
 1453SOL     OW15820   3.246   4.678   1.352  0.2516 -0.1522 -0.7640
 1453SOL    HW115821   3.245   4.629   1.269  0.8634 -0.6724 -0.4654
 1453SOL    HW215822   3.167   4.644   1.394 -0.2709  1.9921 -0.0397
 1454SOL     OW15823   4.408   0.066   2.780  0.3180  0.0764 -0.2500
 1454SOL    HW115824   4.432   0.157   2.798  0.4220  0.1114 -0.5610
 1454SOL    HW215825   4.420   0.021   2.864 -1.1962  1.5831  0.7844
 1455SOL     OW15826   2.419   3.267   5.086  0.0089 -0.4447  0.1428
 1455SOL    HW115827   2.476   3.312   5.149 -1.5109  0.7621  0.6395
 1455SOL    HW215828   2.336   3.315   5.082  0.0281 -0.2456  1.9391
 1456SOL     OW15829   3.845   2.092   3.174  0.3167  0.1220  0.0469
 1456SOL    HW115830   3.767   2.131   3.134 -0.9070  0.1610  2.4520
 1456SOL    HW215831   3.918   2.116   3.117 -0.0994  0.1586 -0.4691
 1457SOL     OW15832   4.276   0.046  16.898  0.4616  0.3337 -0.1204
 1457SOL    HW115833   4.217   0.120  16.886 -0.9285 -0.5304  1.3038
 1457SOL    HW215834   4.267   0.043  16.994 -0.8749 -2.7763 -0.3416
 1458SOL     OW15835   0.183   1.962   8.577 -0.2601  0.5243  0.0665
 1458SOL    HW115836   0.111   1.956   8.640 -1.0744 -2.1381 -1.1098
 1458SOL    HW215837   0.264   1.988   8.619  1.6718 -2.4288 -1.8180
 1459SOL     OW15838   1.214   4.353   4.063  0.0790  0.3135 -0.5034
 1459SOL    HW115839   1.214   4.449   4.061  1.1297  0.3106 -0.8061
 1459SOL    HW215840   1.307   4.338   4.083 -0.2842  0.2279  1.1186
 1460SOL     OW15841   2.241   1.617  16.732 -0.1150  0.0066 -0.2563
 1460SOL    HW115842   2.163   1.638  16.784 -0.6413 -1.9292 -0.2831
 1460SOL    HW215843   2.256   1.528  16.762 -3.6025 -0.9593 -1.2982
 1461SOL     OW15844   3.896   3.095   4.391  0.0923 -0.0191  0.4287
 1461SOL    HW115845   3.871   3.031   4.324  0.8316  0.3576 -0.2110
 1461SOL    HW215846   3.821   3.152   4.375 -0.0708  0.1333  1.7175
 1462SOL     OW15847   3.279   3.512   9.796  0.2825 -0.1035  0.5759
 1462SOL    HW115848   3.226   3.565   9.856 -0.8305  0.8261 -1.2532
 1462SOL    HW215849   3.279   3.421   9.827  0.8749 -0.7012 -1.2075
 1463SOL     OW15850   0.140   1.997   5.128  0.3462  0.0447  0.1582
 1463SOL    HW115851   0.123   2.076   5.076  0.4856  0.8057  1.2563
 1463SOL    HW215852   0.130   1.929   5.062  2.0469  0.7527 -0.8221
 1464SOL     OW15853   3.664   1.867   3.224  0.4440 -0.3570 -0.2535
 1464SOL    HW115854   3.738   1.925   3.207  0.2663 -0.4776 -1.4653
 1464SOL    HW215855   3.647   1.890   3.315  1.0809 -1.2787  0.0901
 1465SOL     OW15856   2.736   2.298   7.211  0.1693 -0.1082 -0.3201
 1465SOL    HW115857   2.683   2.278   7.289  0.2862  0.9061  0.0253
 1465SOL    HW215858   2.724   2.393   7.204 -1.1078 -0.3826 -1.8491
 1466SOL     OW15859   1.274   1.320  17.017  0.5875 -0.0902  0.3656
 1466SOL    HW115860   1.261   1.227  17.001 -1.6491  0.0477  1.3892
 1466SOL    HW215861   1.340   1.349  16.953 -0.1275  0.5115 -0.1035
 1467SOL     OW15862   1.682   3.864  11.601  0.4204 -0.6052 -0.3377
 1467SOL    HW115863   1.746   3.870  11.672  1.3371  0.5144 -1.2353
 1467SOL    HW215864   1.733   3.852  11.520  1.3738 -1.3628  0.3762
 1468SOL     OW15865   3.641   2.170  10.627  0.0825  1.3192  0.1003
 1468SOL    HW115866   3.717   2.226  10.640  1.7684 -1.2971  1.6078
 1468SOL    HW215867   3.664   2.088  10.672  0.2409  0.6981 -1.0908
 1469SOL     OW15868   1.573   2.155   8.756  0.3164 -0.0642 -0.0576
 1469SOL    HW115869   1.594   2.178   8.665  1.5071  2.7303  0.9193
 1469SOL    HW215870   1.634   2.084   8.774 -0.3692 -1.0233 -1.5244
 1470SOL     OW15871   0.777   0.798   8.454  0.0933 -0.0584  0.0212
 1470SOL    HW115872   0.863   0.837   8.437 -1.0001  2.7670  0.9443
 1470SOL    HW215873   0.798   0.706   8.437 -4.0801 -0.9054 -0.4581
 1471SOL     OW15874   4.115   4.088  10.265 -0.1226  0.0372  0.1581
 1471SOL    HW115875   4.080   4.129  10.186 -0.5083 -1.1317 -0.2726
 1471SOL    HW215876   4.204   4.071  10.232 -0.0200 -1.3152  1.1197
 1472SOL     OW15877   3.385   0.905   8.238  0.2906 -0.2453  0.0115
 1472SOL    HW115878   3.347   0.963   8.172  0.1750  0.2699  0.5223
 1472SOL    HW215879   3.476   0.935   8.233 -1.1943  3.8257 -3.0166
 1473SOL     OW15880   1.996   1.536  17.158  0.3523 -0.2999 -0.3721
 1473SOL    HW115881   1.905   1.557  17.179  0.2285  0.2109 -1.4102
 1473SOL    HW215882   1.988   1.524  17.063  0.9612 -1.0678 -0.3292
 1474SOL     OW15883   3.939   3.311   9.019  0.5667  0.1957 -0.3437
 1474SOL    HW115884   3.900   3.231   9.054  0.3081  1.2474  1.7749
 1474SOL    HW215885   3.959   3.272   8.933  1.9735 -1.1531  0.5937
 1475SOL     OW15886   3.417   1.323   0.415  0.0035 -0.0149 -0.0477
 1475SOL    HW115887   3.326   1.352   0.415  0.2190  0.6814  1.7728
 1475SOL    HW215888   3.453   1.389   0.474  1.5318 -1.2901  0.4373
 1476SOL     OW15889   1.288   3.970   2.253 -0.2146  0.2667 -0.7077
 1476SOL    HW115890   1.313   3.877   2.254 -0.6866  0.1580  1.0242
 1476SOL    HW215891   1.304   3.985   2.346  0.5365  1.0252 -0.9683
 1477SOL     OW15892   4.185   2.615   6.655  0.6645  0.5869  0.6829
 1477SOL    HW115893   4.236   2.542   6.691  0.8773 -0.2209 -1.2280
 1477SOL    HW215894   4.186   2.671   6.732  0.2883  2.8835 -0.9918
 1478SOL     OW15895   4.119   0.423   6.835 -0.5264  0.6574 -0.0746
 1478SOL    HW115896   4.190   0.463   6.784  0.7529  1.7958  2.5821
 1478SOL    HW215897   4.159   0.421   6.923  1.1241 -0.2087 -0.8445
 1479SOL     OW15898   1.466   0.426  14.371 -0.0578  0.1417 -0.1702
 1479SOL    HW115899   1.442   0.455  14.458 -2.6667  2.5057 -1.6755
 1479SOL    HW215900   1.557   0.401  14.389 -0.3068  0.0555  0.9609
 1480SOL     OW15901   0.685   3.065   7.889 -0.0403  0.4097 -0.0531
 1480SOL    HW115902   0.716   3.105   7.970 -0.4780  0.1079  0.2622
 1480SOL    HW215903   0.772   3.054   7.849  0.0608  2.1969 -0.3201
 1481SOL     OW15904   0.599   2.022   1.268 -0.3879  0.1257 -0.1775
 1481SOL    HW115905   0.679   2.005   1.318 -1.4303  0.3229  1.5939
 1481SOL    HW215906   0.624   2.083   1.199  1.6372 -0.4376  0.0684
 1482SOL     OW15907   3.309   2.918   6.443 -0.4951 -0.2394  0.2584
 1482SOL    HW115908   3.219   2.936   6.473 -1.3028 -2.3642 -0.9399
 1482SOL    HW215909   3.323   3.004   6.403 -0.0071 -0.1476  0.6309
 1483SOL     OW15910   0.981   3.661   3.234 -0.4174 -0.2827 -0.3902
 1483SOL    HW115911   0.963   3.578   3.277  0.1472 -0.3872 -0.3574
 1483SOL    HW215912   0.893   3.697   3.223 -0.0274  1.0978  1.0535
 1484SOL     OW15913   4.056   2.956   9.609 -0.3750  0.2714 -0.2417
 1484SOL    HW115914   3.978   2.912   9.640 -0.7043 -0.6494 -2.3563
 1484SOL    HW215915   4.074   3.013   9.684  2.9897  0.1200 -0.9118
 1485SOL     OW15916   2.611   3.634   6.569  0.2911 -0.0019 -0.2098
 1485SOL    HW115917   2.587   3.717   6.609  0.8830 -0.5811  1.3782
 1485SOL    HW215918   2.539   3.616   6.509 -0.4425  2.0673  0.0749
 1486SOL     OW15919   1.609   1.302  10.219  0.2078 -0.3338 -0.3268
 1486SOL    HW115920   1.704   1.301  10.207  0.0805 -0.0748 -1.3752
 1486SOL    HW215921   1.580   1.337  10.135 -1.7354  0.1496  0.5594
 1487SOL     OW15922   3.139   1.391   0.421 -0.2178 -0.0537 -0.0893
 1487SOL    HW115923   3.049   1.413   0.398 -0.1088 -0.3074 -0.7792
 1487SOL    HW215924   3.153   1.454   0.492 -0.2293 -1.6603  1.3360
 1488SOL     OW15925   1.811   0.403  13.162  0.4413  0.0342  0.1724
 1488SOL    HW115926   1.821   0.393  13.257 -0.6364  2.1336  0.4950
 1488SOL    HW215927   1.725   0.368  13.140  0.6592 -0.3371 -0.0993
 1489SOL     OW15928   4.209   4.664   5.090  0.1543 -0.1611 -0.2992
 1489SOL    HW115929   4.176   4.652   5.001 -1.1224  2.6777 -0.2161
 1489SOL    HW215930   4.263   4.586   5.102  0.5770 -0.0895 -1.8081
 1490SOL     OW15931   4.261   2.306  16.371 -0.0966  0.6584 -0.3420
 1490SOL    HW115932   4.325   2.324  16.302  0.1039 -0.1269 -0.3688
 1490SOL    HW215933   4.187   2.277  16.316  1.5302 -2.8877 -0.6991
 1491SOL     OW15934   3.730   4.490   9.034 -0.3365  0.5784  0.0473
 1491SOL    HW115935   3.733   4.398   9.059 -0.2658  0.8481  1.0297
 1491SOL    HW215936   3.637   4.492   9.015 -0.6762  0.0777  1.6998
 1492SOL     OW15937   4.381   2.097   9.157  0.0475 -0.2929 -0.7970
 1492SOL    HW115938   4.338   2.158   9.097 -1.3150 -0.1849  0.2640
 1492SOL    HW215939   4.357   2.013   9.117 -0.6188 -1.1983  1.4958
 1493SOL     OW15940   4.396   1.687   2.677 -0.6290  0.1034 -0.4241
 1493SOL    HW115941   4.380   1.714   2.587 -0.4083  1.0006 -0.1949
 1493SOL    HW215942   4.380   1.593   2.672  0.4525 -0.2413  2.8006
 1494SOL     OW15943   2.918   1.034   7.703 -0.0714  0.9671  0.1054
 1494SOL    HW115944   2.999   1.008   7.747 -0.5319  1.3559  1.1802
 1494SOL    HW215945   2.855   1.041   7.775  0.9986  0.6504  1.0870
 1495SOL     OW15946   3.614   0.105   8.181 -0.4371  0.6316  0.5422
 1495SOL    HW115947   3.606   0.076   8.090  1.4607  4.1590 -0.7530
 1495SOL    HW215948   3.528   0.144   8.197 -1.9889 -1.6978 -2.0787
 1496SOL     OW15949   4.291   1.739   6.127 -0.2210  0.0676  0.5646
 1496SOL    HW115950   4.335   1.680   6.067 -0.6639  0.2962  0.0130
 1496SOL    HW215951   4.219   1.759   6.067 -0.9778  0.9574  1.7831
 1497SOL     OW15952   2.009   2.710   4.388 -0.0591 -0.3881  0.1307
 1497SOL    HW115953   2.068   2.769   4.435 -0.4636 -1.1858  1.6378
 1497SOL    HW215954   1.946   2.765   4.342 -0.0451  0.3888  1.0592
 1498SOL     OW15955   2.136   4.515   6.893 -0.3557  0.3150 -0.3144
 1498SOL    HW115956   2.072   4.449   6.922 -0.5022  0.2228 -0.8445
 1498SOL    HW215957   2.104   4.590   6.942 -0.6911 -0.3751  0.5323
 1499SOL     OW15958   1.097   2.055   8.801  0.1742  0.1436  0.1383
 1499SOL    HW115959   1.087   1.962   8.783  2.0228 -0.4670  2.2744
 1499SOL    HW215960   1.093   2.052   8.897 -1.4921 -2.7848 -0.0443
 1500SOL     OW15961   1.584   1.277  11.371 -0.0898  0.0693  0.1366
 1500SOL    HW115962   1.528   1.234  11.305  1.0459  0.2502 -0.9443
 1500SOL    HW215963   1.658   1.217  11.375 -0.3071 -0.2479 -0.4745
 1501SOL     OW15964   0.959   3.614   6.628 -0.4078 -0.0308  0.1652
 1501SOL    HW115965   1.036   3.669   6.643  0.3747 -0.9501 -0.4967
 1501SOL    HW215966   0.976   3.539   6.686  1.9568  0.1206 -0.3198
 1502SOL     OW15967   4.453   0.348   4.443 -0.5436 -0.2875  0.0277
 1502SOL    HW115968   4.392   0.414   4.476 -0.3855  0.4446 -1.1179
 1502SOL    HW215969   4.457   0.364   4.348  0.3346 -3.3427 -0.4604
 1503SOL     OW15970   4.677   2.343   4.216 -0.5054  0.2217  0.9883
 1503SOL    HW115971   4.657   2.249   4.210  0.1645  0.1857 -0.7802
 1503SOL    HW215972   0.047   2.341   4.246  0.0294 -0.5116 -0.6692
 1504SOL     OW15973   2.767   0.336   2.257  0.3129  0.0913 -0.0032
 1504SOL    HW115974   2.717   0.317   2.336 -1.8898 -1.6963 -1.8406
 1504SOL    HW215975   2.840   0.277   2.276 -0.0349 -0.4551 -0.3890
 1505SOL     OW15976   2.452   3.865  15.309 -0.3809 -0.2977  0.3366
 1505SOL    HW115977   2.519   3.840  15.246 -0.0148 -0.0090  0.6087
 1505SOL    HW215978   2.489   3.942  15.353 -0.9035  0.7939 -1.1362
 1506SOL     OW15979   4.071   1.795  14.247 -0.0569 -0.1771  0.1799
 1506SOL    HW115980   4.052   1.778  14.155 -0.0502 -0.0357  0.1519
 1506SOL    HW215981   4.128   1.870  14.227 -0.5974  0.3249  0.5054
 1507SOL     OW15982   0.138   3.630  15.614  0.7678  0.5516 -0.0766
 1507SOL    HW115983   0.130   3.541  15.580  0.1692  0.1986  0.9962
 1507SOL    HW215984   0.051   3.668  15.600  0.0431 -0.9864  0.2265
 1508SOL     OW15985   2.308   4.250   6.480 -0.3525 -0.2019  0.6693
 1508SOL    HW115986   2.219   4.268   6.512 -0.4285  0.3983  0.1116
 1508SOL    HW215987   2.336   4.334   6.445  2.5911 -1.3024  0.3964
 1509SOL     OW15988   3.836   2.770  15.316  0.4618  0.1951  0.2109
 1509SOL    HW115989   3.814   2.731  15.401  0.0410  2.1916  1.0247
 1509SOL    HW215990   3.922   2.807  15.337  0.8452  0.7212 -2.3857
 1510SOL     OW15991   0.213   3.169   4.580  0.5332  0.0672 -0.9053
 1510SOL    HW115992   0.207   3.074   4.568  0.0738  0.0892 -0.8550
 1510SOL    HW215993   0.259   3.193   4.499 -1.4669 -2.1898 -2.7190
 1511SOL     OW15994   1.573   2.891  11.791  0.2239 -0.9194  0.3769
 1511SOL    HW115995   1.585   2.918  11.700  0.8825 -1.4121  0.3151
 1511SOL    HW215996   1.559   2.969  11.845 -1.9665 -1.8033  1.0512
 1512SOL     OW15997   1.160   1.342   8.414  0.5154  0.5447  0.1238
 1512SOL    HW115998   1.089   1.290   8.377 -0.1877  2.1112 -0.7227
 1512SOL    HW215999   1.231   1.324   8.353  0.3711 -1.2627  0.4934
 1513SOL     OW16000   1.345   1.898   8.016 -0.5496  0.0346  0.1506
 1513SOL    HW116001   1.328   1.805   8.003  0.5299 -0.3106  1.1646
 1513SOL    HW216002   1.260   1.935   8.037 -1.5267 -1.1541 -1.7518
 1514SOL     OW16003   2.800   4.173  15.083  0.0964 -0.2007  0.1137
 1514SOL    HW116004   2.795   4.226  15.003 -0.0507 -1.5124 -0.7579
 1514SOL    HW216005   2.827   4.235  15.151  1.7444  0.0757 -0.7908
 1515SOL     OW16006   4.059   4.512  13.548 -0.4575  0.3747  0.4799
 1515SOL    HW116007   4.128   4.479  13.606  0.9808  1.4548 -0.6445
 1515SOL    HW216008   4.056   4.607  13.554 -0.0548  0.4171 -0.0054
 1516SOL     OW16009   0.847   0.290   7.042  0.5148  0.4377 -0.0221
 1516SOL    HW116010   0.864   0.348   7.116  0.8414 -0.9670  0.9886
 1516SOL    HW216011   0.922   0.302   6.984  0.3680 -2.5418 -0.8074
 1517SOL     OW16012   0.602   4.262   3.017 -0.0772  0.0227 -0.2920
 1517SOL    HW116013   0.550   4.197   3.064  0.9093 -1.0672 -0.7169
 1517SOL    HW216014   0.564   4.252   2.929  0.3111  0.1787 -0.4779
 1518SOL     OW16015   0.000   3.266  11.754 -0.2848  0.2498 -0.6609
 1518SOL    HW116016   0.047   3.236  11.832  1.4072  1.1299 -1.3479
 1518SOL    HW216017   0.074   3.251  11.695  0.2490 -1.0301  0.3203
 1519SOL     OW16018   1.808   0.573   0.646  0.0085 -0.6613 -0.3383
 1519SOL    HW116019   1.808   0.478   0.662 -4.0056 -1.0379 -2.4739
 1519SOL    HW216020   1.889   0.595   0.691 -0.4545 -0.3353  0.3441
 1520SOL     OW16021   1.250   0.504   8.048  0.0406 -0.0165  0.2475
 1520SOL    HW116022   1.174   0.524   8.104  1.7687  4.5525  0.9470
 1520SOL    HW216023   1.229   0.550   7.967 -0.5856  0.3083  0.5941
 1521SOL     OW16024   4.171   4.694   2.120  0.2307 -0.8797 -0.6693
 1521SOL    HW116025   4.147   0.064   2.143  1.6009 -0.2750 -1.6351
 1521SOL    HW216026   4.085   4.662   2.094 -0.8373  0.9260  0.6634
 1522SOL     OW16027   3.951   0.521   7.092 -0.0291  0.0762 -0.1269
 1522SOL    HW116028   3.980   0.573   7.167 -0.2905 -1.2077  0.8688
 1522SOL    HW216029   3.992   0.436   7.106  1.1075  0.6796  0.1582
 1523SOL     OW16030   4.366   1.123  11.732 -1.0751  0.3239  0.1398
 1523SOL    HW116031   4.434   1.189  11.721 -0.6577  0.1014  1.2823
 1523SOL    HW216032   4.312   1.144  11.657  0.2644  0.0281 -0.9058
 1524SOL     OW16033   1.581   4.436   2.537 -0.1220 -0.2669 -0.1867
 1524SOL    HW116034   1.541   4.520   2.562  1.7531  0.3162  0.8328
 1524SOL    HW216035   1.535   4.383   2.601  0.8980  0.2576  0.9726
 1525SOL     OW16036   2.503   3.467   8.970 -0.1842  0.1245 -0.0495
 1525SOL    HW116037   2.502   3.513   8.887 -3.3409 -0.5112 -0.3538
 1525SOL    HW216038   2.581   3.497   9.017  0.0380 -1.7582  0.8052
 1526SOL     OW16039   2.105   0.132   7.350  0.6340 -0.3061 -0.5488
 1526SOL    HW116040   2.132   0.153   7.439 -2.4076 -3.9907  1.2820
 1526SOL    HW216041   2.177   0.178   7.308  0.2582 -0.1981 -1.0756
 1527SOL     OW16042   1.492   2.521   1.793 -0.0271  0.0526 -0.0935
 1527SOL    HW116043   1.450   2.601   1.825 -2.0231 -1.0257 -0.0485
 1527SOL    HW216044   1.583   2.550   1.802 -0.5213  2.1705 -1.8813
 1528SOL     OW16045   0.790   1.384   8.471 -0.3285  1.3182 -0.2801
 1528SOL    HW116046   0.713   1.327   8.478  0.8430 -0.0913  1.1521
 1528SOL    HW216047   0.800   1.395   8.376 -0.5431 -0.5616 -0.5309
 1529SOL     OW16048   0.856   2.818   7.375 -0.4857  1.1533  0.1124
 1529SOL    HW116049   0.856   2.897   7.321 -2.0607  1.2796  0.2787
 1529SOL    HW216050   0.948   2.792   7.380 -0.6906  0.2633 -0.6976
 1530SOL     OW16051   4.193   4.598   2.677 -0.0152 -0.1624  0.1997
 1530SOL    HW116052   4.219   4.521   2.727 -0.0311 -1.3380 -1.6077
 1530SOL    HW216053   4.247   4.666   2.717 -0.1410  0.2707 -0.3747
 1531SOL     OW16054   1.116   3.054   4.338  0.8699  0.0635 -0.3076
 1531SOL    HW116055   1.088   3.139   4.373 -1.6553 -0.6414 -0.6140
 1531SOL    HW216056   1.169   3.021   4.410 -1.2741 -1.7066  0.4231
 1532SOL     OW16057   0.597   3.202  15.751  0.6086 -0.1346  0.5143
 1532SOL    HW116058   0.540   3.167  15.683 -1.0090  0.9139  1.3393
 1532SOL    HW216059   0.634   3.120  15.785  1.5374 -0.1558 -0.5168
 1533SOL     OW16060   0.609   4.017   5.999 -0.2523 -0.3091 -0.2788
 1533SOL    HW116061   0.676   4.044   5.936 -0.5748  0.6047 -0.2334
 1533SOL    HW216062   0.615   3.922   5.989  1.0897 -0.4642  2.0530
 1534SOL     OW16063   1.995   0.981  15.597 -0.2592 -0.7318  0.3005
 1534SOL    HW116064   2.023   1.068  15.569  1.9342 -1.9370 -1.2211
 1534SOL    HW216065   2.041   0.979  15.681 -0.0203  1.5439  0.2204
 1535SOL     OW16066   2.845   2.579   7.632  0.1598  0.1223  0.6108
 1535SOL    HW116067   2.774   2.568   7.568  0.7642 -0.6505  0.0859
 1535SOL    HW216068   2.903   2.509   7.604  0.5125  0.2853  0.9309
 1536SOL     OW16069   0.605   1.422  10.628 -0.6049 -0.0200  0.2283
 1536SOL    HW116070   0.661   1.433  10.551 -1.7606 -1.1395 -0.7724
 1536SOL    HW216071   0.660   1.372  10.687  2.1084 -0.0055 -2.2593
 1537SOL     OW16072   1.422   0.586   2.877  0.3934  0.2834  0.2402
 1537SOL    HW116073   1.518   0.582   2.876  0.3449 -1.2622  2.0764
 1537SOL    HW216074   1.409   0.636   2.796  0.6132  1.1235  0.7221
 1538SOL     OW16075   1.676   4.594  11.556  0.6126  1.2663 -0.1928
 1538SOL    HW116076   1.583   4.578  11.569  0.5602  0.1192 -2.0149
 1538SOL    HW216077   1.690   4.542  11.477 -2.6465 -0.6988  0.5483
 1539SOL     OW16078   1.583   1.601   8.024  0.5500 -0.4672  0.1833
 1539SOL    HW116079   1.625   1.618   8.108  0.7511  3.2902 -0.6922
 1539SOL    HW216080   1.488   1.612   8.037  0.8342  0.1562  1.7779
 1540SOL     OW16081   1.460   3.289   2.602  0.0454 -0.1319 -0.2497
 1540SOL    HW116082   1.519   3.363   2.589  1.1522 -1.5908 -3.6020
 1540SOL    HW216083   1.399   3.316   2.533  0.4355 -1.3040 -1.0665
 1541SOL     OW16084   1.776   0.772   2.249  0.7460  0.0475 -0.8077
 1541SOL    HW116085   1.823   0.855   2.257  0.3089  0.1065  1.2413
 1541SOL    HW216086   1.843   0.704   2.260  0.6197  0.3293  1.6147
 1542SOL     OW16087   0.992   0.304   8.050 -0.5870 -0.7554  0.3317
 1542SOL    HW116088   1.061   0.276   8.110 -0.5001 -0.4605  0.3717
 1542SOL    HW216089   0.949   0.381   8.086  1.3043  0.9129 -0.9780
 1543SOL     OW16090   0.450   1.403  11.396 -0.6944 -1.0000  0.2142
 1543SOL    HW116091   0.500   1.432  11.319 -2.8204  0.2621 -0.6960
 1543SOL    HW216092   0.400   1.483  11.415 -0.9709 -1.2507  0.5251
 1544SOL     OW16093   4.214   1.526   6.395  0.4648  0.0028 -0.6173
 1544SOL    HW116094   4.187   1.478   6.473 -1.1405  0.0979 -1.1103
 1544SOL    HW216095   4.137   1.578   6.372 -0.0565  0.2453  1.7099
 1545SOL     OW16096   1.091   0.646   7.327 -0.1050 -0.3017  0.3321
 1545SOL    HW116097   1.080   0.705   7.401  1.5272 -0.3672  0.6211
 1545SOL    HW216098   1.184   0.634   7.345 -0.1583 -0.0281  0.8026
 1546SOL     OW16099   4.675   0.601   9.902  0.3372 -0.4200 -0.0973
 1546SOL    HW116100   4.635   0.542   9.838  1.4796 -2.3746  1.0113
 1546SOL    HW216101   0.021   0.639   9.845 -0.8654  0.6554 -0.8038
 1547SOL     OW16102   3.323   3.627  16.628  0.1890 -0.0796 -0.6154
 1547SOL    HW116103   3.308   3.541  16.589  0.3024  0.0182 -0.8738
 1547SOL    HW216104   3.408   3.649  16.590 -0.7963 -0.8680 -3.2623
 1548SOL     OW16105   3.030   2.474  10.406  0.7654  0.1246 -0.4740
 1548SOL    HW116106   2.936   2.470  10.422  1.0236 -2.1239  0.3478
 1548SOL    HW216107   3.050   2.568  10.410 -0.0049  0.3210 -1.1102
 1549SOL     OW16108   3.849   2.419   1.829 -0.3614 -0.3369 -0.1854
 1549SOL    HW116109   3.885   2.443   1.915  0.2980 -0.9602 -0.2870
 1549SOL    HW216110   3.893   2.485   1.775  0.8553 -1.9003 -1.0923
 1550SOL     OW16111   0.893   4.062   6.686  0.1172  0.2561  0.0393
 1550SOL    HW116112   0.962   4.020   6.738 -1.2871 -2.2954 -0.2013
 1550SOL    HW216113   0.891   4.149   6.727  0.1317  0.7138 -0.9223
 1551SOL     OW16114   3.529   0.753   4.596 -0.5191  0.0424 -0.1477
 1551SOL    HW116115   3.534   0.810   4.673  0.1857 -0.4981  0.2098
 1551SOL    HW216116   3.612   0.706   4.608 -1.3508 -1.1175  0.9802
 1552SOL     OW16117   0.605   2.362   6.955  0.1992 -0.9191  0.0800
 1552SOL    HW116118   0.573   2.440   6.910  2.9442 -1.0500 -2.0945
 1552SOL    HW216119   0.524   2.318   6.981 -0.3974  0.2791  0.2128
 1553SOL     OW16120   2.675   0.214   5.528 -0.5312 -0.7072 -0.0739
 1553SOL    HW116121   2.605   0.172   5.578 -1.8252  0.8475 -0.5700
 1553SOL    HW216122   2.732   0.243   5.598 -1.5701  0.2041  0.3986
 1554SOL     OW16123   0.320   1.664   8.737 -0.1633 -0.3046  0.3114
 1554SOL    HW116124   0.310   1.726   8.810 -1.6798 -0.4383  0.2206
 1554SOL    HW216125   0.273   1.585   8.765  0.4139 -0.6374  0.3297
 1555SOL     OW16126   1.666   2.542   3.950 -0.2320  0.2025  0.2538
 1555SOL    HW116127   1.704   2.485   4.018  0.1367  1.1441  0.8303
 1555SOL    HW216128   1.699   2.628   3.974 -0.5178 -0.1359  1.9195
 1556SOL     OW16129   3.977   1.054   3.689  0.4309  0.1300 -0.3836
 1556SOL    HW116130   4.012   0.989   3.750  1.3153 -1.4999 -2.6359
 1556SOL    HW216131   3.973   1.135   3.739 -1.0372  0.1293 -0.4977
 1557SOL     OW16132   3.335   0.460   4.806  0.1584 -0.0112  0.3129
 1557SOL    HW116133   3.358   0.473   4.898  1.8258  1.4901 -0.3164
 1557SOL    HW216134   3.365   0.544   4.773 -0.2238 -0.5175 -1.3317
 1558SOL     OW16135   0.193   2.107   7.892  0.4988  0.0771  0.0221
 1558SOL    HW116136   0.239   2.189   7.912  0.8776  0.0724 -0.8461
 1558SOL    HW216137   0.146   2.095   7.975 -2.2257 -0.2228 -1.5753
 1559SOL     OW16138   0.608   2.771  14.333 -0.0678 -0.2393 -0.2052
 1559SOL    HW116139   0.692   2.817  14.332  1.0817 -2.3953 -2.0548
 1559SOL    HW216140   0.562   2.853  14.352  1.0904  0.3370  0.1488
 1560SOL     OW16141   0.023   2.310   9.476  1.0102  0.1637  0.2194
 1560SOL    HW116142   4.650   2.323   9.486  0.7273 -0.7191 -1.2306
 1560SOL    HW216143   0.048   2.316   9.568  1.1894 -1.5770  0.2968
 1561SOL     OW16144   0.571   4.373   5.502 -0.0142  0.7440 -0.3631
 1561SOL    HW116145   0.659   4.379   5.464  0.2279 -0.3988  0.0271
 1561SOL    HW216146   0.569   4.287   5.544  1.6255  0.0194 -1.7828
 1562SOL     OW16147   0.789   3.603   2.445 -0.3565  0.6213 -0.1073
 1562SOL    HW116148   0.745   3.654   2.512  1.1851  1.2604  0.4155
 1562SOL    HW216149   0.787   3.663   2.370  0.2272 -0.1363 -0.7422
 1563SOL     OW16150   3.594   0.567   8.819  0.3814 -0.4057 -0.1216
 1563SOL    HW116151   3.665   0.605   8.871 -1.1210  0.4110  1.3266
 1563SOL    HW216152   3.554   0.517   8.890  1.5778 -0.6053  0.4070
 1564SOL     OW16153   1.394   0.973   0.260 -0.0832  0.4683 -0.5238
 1564SOL    HW116154   1.465   1.029   0.292 -0.2839  0.9428 -0.9187
 1564SOL    HW216155   1.359   1.015   0.182 -0.7459  2.5308  0.8994
 1565SOL     OW16156   2.073   4.692  16.942 -0.2750  0.1679  0.3381
 1565SOL    HW116157   2.157   4.651  16.923 -0.0153  0.4948  0.7776
 1565SOL    HW216158   2.021   4.681  16.862  0.4013  1.7062 -0.3234
 1566SOL     OW16159   0.493   0.649   6.008 -0.3397 -0.3721  0.1587
 1566SOL    HW116160   0.509   0.555   6.023  1.9295  0.0871  0.6217
 1566SOL    HW216161   0.398   0.642   5.995 -0.2306  1.1514 -1.4869
 1567SOL     OW16162   4.008   2.634   5.078  0.1826 -0.4269  0.4069
 1567SOL    HW116163   4.081   2.576   5.057  0.8233  0.9279 -1.0018
 1567SOL    HW216164   3.936   2.601   5.024 -0.8203  0.7558  1.0120
 1568SOL     OW16165   1.154   0.475   8.981  0.4826  0.6066  0.1113
 1568SOL    HW116166   1.108   0.457   9.062  0.1362  0.9051 -0.0188
 1568SOL    HW216167   1.225   0.412   8.990  0.2522  0.1525 -1.1575
 1569SOL     OW16168   4.359   1.422  12.708  0.8524 -0.4353 -0.2586
 1569SOL    HW116169   4.278   1.394  12.751 -0.0668  0.6034 -1.2867
 1569SOL    HW216170   4.413   1.443  12.784  0.3925 -0.3967  0.0548
 1570SOL     OW16171   4.643   0.896   2.887  0.2466 -0.6405  0.0223
 1570SOL    HW116172   4.578   0.855   2.945  0.9343 -1.1907  0.4034
 1570SOL    HW216173   4.647   0.987   2.915 -0.8450 -0.5568 -0.0805
 1571SOL     OW16174   0.636   1.848   1.015  0.5484 -0.1955  0.0607
 1571SOL    HW116175   0.697   1.821   1.084 -0.9503  1.3447  1.9882
 1571SOL    HW216176   0.699   1.878   0.949  1.0763  3.6802  2.2835
 1572SOL     OW16177   2.898   1.056   1.583 -0.4447  0.1814  0.3394
 1572SOL    HW116178   2.925   0.981   1.637  2.0318  0.2335 -0.8391
 1572SOL    HW216179   2.877   1.110   1.660  0.7411 -0.4282  1.0996
 1573SOL     OW16180   2.582   4.639   7.494 -0.0009 -0.3295 -0.3350
 1573SOL    HW116181   2.533   4.606   7.569  1.0612  0.3403  0.6422
 1573SOL    HW216182   2.567   4.570   7.428  1.8944  0.0459 -1.1650
 1574SOL     OW16183   1.434   1.444   0.112  0.1913 -0.0563 -0.5346
 1574SOL    HW116184   1.469   1.389   0.042  1.4627  0.0259  0.0401
 1574SOL    HW216185   1.410   1.525   0.067 -0.9659  0.0993  0.3667
 1575SOL     OW16186   4.162   1.766  15.009  0.0075  0.0244  0.0298
 1575SOL    HW116187   4.219   1.735  15.079  0.7168  0.3023 -0.4302
 1575SOL    HW216188   4.164   1.862  15.012  1.1682  0.0378 -1.2840
 1576SOL     OW16189   3.080   1.668   5.670 -0.3990 -0.5371  1.1022
 1576SOL    HW116190   3.163   1.692   5.710 -0.3804  1.1385  0.0846
 1576SOL    HW216191   3.032   1.745   5.701 -0.4401 -0.2260  0.2755
 1577SOL     OW16192   2.570   4.449   5.577 -0.2861 -0.3363 -0.2482
 1577SOL    HW116193   2.494   4.452   5.519 -0.9969 -1.2392  0.6312
 1577SOL    HW216194   2.647   4.471   5.525  1.1056  0.6547  2.2204
 1578SOL     OW16195   4.477   3.176  15.360  0.0255  0.1463 -0.3469
 1578SOL    HW116196   4.566   3.166  15.327 -0.0454 -2.0391  0.0869
 1578SOL    HW216197   4.495   3.235  15.433 -0.7046 -1.4854  1.1525
 1579SOL     OW16198   0.744   3.786   2.227  0.0680 -1.0123  0.7208
 1579SOL    HW116199   0.778   3.875   2.232 -2.3599 -0.1619  2.4177
 1579SOL    HW216200   0.780   3.765   2.141  0.3076  3.0565 -0.1570
 1580SOL     OW16201   2.990   0.702   2.992  0.1602  0.2935  0.2713
 1580SOL    HW116202   3.027   0.623   2.953 -0.9415 -0.7223  1.2942
 1580SOL    HW216203   3.062   0.756   3.025  1.7417  0.4359 -3.3775
 1581SOL     OW16204   2.233   3.247  17.282 -0.5758  0.2752 -0.5049
 1581SOL    HW116205   2.177   3.283  17.213 -2.0538  1.0900  1.1184
 1581SOL    HW216206   2.294   3.321  17.295 -1.0217  0.6370 -0.4708
 1582SOL     OW16207   3.929   0.634   7.889  0.4045  0.7551 -0.4157
 1582SOL    HW116208   3.847   0.634   7.939  0.9370  0.3035  0.4691
 1582SOL    HW216209   3.887   0.615   7.805  1.3135 -0.2324 -0.6348
 1583SOL     OW16210   2.979   4.266   4.323  0.1882  0.3239  0.3254
 1583SOL    HW116211   2.967   4.332   4.391  0.3046  0.7286 -0.0442
 1583SOL    HW216212   3.070   4.274   4.292  0.2003  1.6904  0.7140
 1584SOL     OW16213   4.202   3.325   6.164 -0.3598 -0.0944  0.0643
 1584SOL    HW116214   4.129   3.273   6.131 -1.2936 -0.5799  2.9589
 1584SOL    HW216215   4.207   3.280   6.248  2.2149 -0.7402 -0.4388
 1585SOL     OW16216   2.252   0.582   6.929 -0.0042  0.2141 -0.2767
 1585SOL    HW116217   2.327   0.541   6.973 -1.2228 -1.3722  0.3151
 1585SOL    HW216218   2.212   0.614   7.010 -1.2852  0.1962 -0.9067
 1586SOL     OW16219   0.514   1.173   5.330 -0.0410  0.4393 -0.3571
 1586SOL    HW116220   0.544   1.107   5.393 -0.1360  0.2775 -0.4787
 1586SOL    HW216221   0.591   1.227   5.316 -0.6606  0.6151 -3.0780
 1587SOL     OW16222   3.786   4.411   5.691  0.0272 -0.2799 -0.0773
 1587SOL    HW116223   3.856   4.434   5.629  0.0791  1.3023  0.5628
 1587SOL    HW216224   3.717   4.438   5.630  0.7915 -0.6125 -1.0991
 1588SOL     OW16225   3.926   3.065   3.168  0.3907  0.7235  0.2085
 1588SOL    HW116226   4.019   3.080   3.184  0.5588 -0.5127  0.3996
 1588SOL    HW216227   3.907   3.022   3.252 -2.7860  0.8531 -0.4456
 1589SOL     OW16228   4.119   0.102   0.842 -0.0419  0.4667  0.7099
 1589SOL    HW116229   4.062   0.118   0.917 -2.9514 -2.0390 -0.9737
 1589SOL    HW216230   4.185   0.045   0.880 -0.1221  0.0869  0.2825
 1590SOL     OW16231   0.359   2.842   1.874 -0.2468  0.0614  0.6495
 1590SOL    HW116232   0.435   2.786   1.891 -0.4824  0.1460  1.9579
 1590SOL    HW216233   0.339   2.804   1.788  0.8217 -0.4822  0.6481
 1591SOL     OW16234   4.337   2.941   0.500  0.3022 -0.3808  0.1765
 1591SOL    HW116235   4.325   2.962   0.592 -0.1412 -0.4960  0.1426
 1591SOL    HW216236   4.394   3.010   0.465 -0.6967 -0.1818 -1.0447
 1592SOL     OW16237   0.464   2.948   4.109 -0.3478 -0.3665  0.2981
 1592SOL    HW116238   0.441   3.012   4.042  0.7503  1.3345  1.5420
 1592SOL    HW216239   0.558   2.964   4.116 -0.5615  0.0242  2.4680
 1593SOL     OW16240   0.533   2.632   5.717 -0.3099  0.6761 -0.5263
 1593SOL    HW116241   0.581   2.569   5.664 -1.1948 -1.2034  0.9066
 1593SOL    HW216242   0.525   2.583   5.799  2.4835  1.4570  0.2036
 1594SOL     OW16243   3.587   1.857   4.217 -0.0233  0.2123  0.4247
 1594SOL    HW116244   3.650   1.873   4.287  0.7845 -0.3124 -0.1802
 1594SOL    HW216245   3.586   1.950   4.195 -0.1447 -0.0022 -0.4590
 1595SOL     OW16246   1.465   4.131   3.340 -0.6885 -0.7814 -0.1788
 1595SOL    HW116247   1.386   4.148   3.390 -1.0524 -0.3567 -0.9009
 1595SOL    HW216248   1.530   4.181   3.389  0.0886 -2.3682  0.4018
 1596SOL     OW16249   4.156   0.361  15.709 -0.3276  0.1820 -0.0067
 1596SOL    HW116250   4.124   0.318  15.630  0.0572  3.5997 -2.0100
 1596SOL    HW216251   4.246   0.330  15.714 -0.1847  0.4131 -1.2870
 1597SOL     OW16252   3.024   2.552  15.933 -0.4767  0.2466  0.5552
 1597SOL    HW116253   3.084   2.595  15.993  0.5610  0.4856 -0.6427
 1597SOL    HW216254   2.944   2.540  15.983 -0.3026  1.5357  1.1453
 1598SOL     OW16255   1.657   2.365   7.424  0.1397  0.2089  0.3445
 1598SOL    HW116256   1.606   2.308   7.366  0.1177  1.0862 -0.5031
 1598SOL    HW216257   1.632   2.446   7.380  0.2678  0.6098  1.0166
 1599SOL     OW16258   1.886   4.562   7.396  0.2494  0.1033 -0.2827
 1599SOL    HW116259   1.837   4.643   7.413  0.4195 -0.0720  0.9899
 1599SOL    HW216260   1.977   4.578   7.423  1.1260 -2.0749 -1.9725
 1600SOL     OW16261   3.796   3.154  13.416 -0.0576 -0.9296 -0.0168
 1600SOL    HW116262   3.818   3.216  13.485  1.5303  0.3964 -1.6981
 1600SOL    HW216263   3.880   3.123  13.381  0.8422 -0.4937  1.7847
 1601SOL     OW16264   2.161   4.235   1.371 -0.0059  0.7145  0.0322
 1601SOL    HW116265   2.106   4.194   1.438 -0.4115  0.5903 -0.3708
 1601SOL    HW216266   2.152   4.329   1.384 -1.1656  0.2647  2.4547
 1602SOL     OW16267   2.486   3.826  17.563  0.0717  0.7476 -0.1449
 1602SOL    HW116268   2.576   3.827  17.594  0.5416 -3.0252 -1.2934
 1602SOL    HW216269   2.434   3.768  17.619  1.0037 -1.4203 -1.4952
 1603SOL     OW16270   4.038   2.824   9.110 -0.1209  0.0283  0.0037
 1603SOL    HW116271   4.003   2.735   9.114 -0.3047  0.0219 -1.4873
 1603SOL    HW216272   4.094   2.825   9.187  0.6983 -0.3055 -0.5825
 1604SOL     OW16273   3.340   3.278   4.502  0.4700  0.2382  0.1195
 1604SOL    HW116274   3.334   3.189   4.467  0.4149 -0.5159  2.0354
 1604SOL    HW216275   3.265   3.320   4.460  2.3146  2.0280 -1.4097
 1605SOL     OW16276   0.849   0.535   2.016  0.3111  0.2071  0.5015
 1605SOL    HW116277   0.840   0.497   2.104 -1.8288  0.6683  0.4647
 1605SOL    HW216278   0.843   0.454   1.964 -0.1407  0.6431 -0.1225
 1606SOL     OW16279   2.809   3.503   3.486 -0.7031 -0.3929  0.3162
 1606SOL    HW116280   2.773   3.519   3.399 -1.8874  1.6344  1.1757
 1606SOL    HW216281   2.889   3.457   3.461  0.2691  0.1880  2.3218
 1607SOL     OW16282   2.920   0.700  10.670 -0.4837  0.1269  0.1168
 1607SOL    HW116283   2.889   0.774  10.722  0.3536 -0.8027  1.9283
 1607SOL    HW216284   3.002   0.738  10.638  0.1039 -1.1292  0.1278
 1608SOL     OW16285   0.768   1.195   8.765  0.4214 -0.3934  0.2391
 1608SOL    HW116286   0.803   1.109   8.741 -2.3677 -1.7031  0.9767
 1608SOL    HW216287   0.836   1.229   8.824  2.1745 -1.0073 -1.3973
 1609SOL     OW16288   3.080   2.174   4.796  0.5896 -0.1183 -0.0271
 1609SOL    HW116289   3.103   2.265   4.818  0.5423 -0.1576  0.1902
 1609SOL    HW216290   3.097   2.170   4.702  0.0847  2.6283 -0.2344
 1610SOL     OW16291   2.252   2.285   6.442  0.1025 -0.1568  0.3258
 1610SOL    HW116292   2.215   2.216   6.387 -0.0826  1.0001 -1.0229
 1610SOL    HW216293   2.222   2.361   6.392  0.3030 -0.4729 -0.2738
 1611SOL     OW16294   2.095   2.014   7.053  0.0060  0.4752 -0.0349
 1611SOL    HW116295   2.053   1.946   7.000  0.5237 -0.6617  1.0107
 1611SOL    HW216296   2.067   2.095   7.010  1.5958  0.2624 -1.5003
 1612SOL     OW16297   0.974   4.401   6.690  0.2243  0.1502 -0.1603
 1612SOL    HW116298   0.961   4.359   6.605 -3.4963  0.2325  0.3634
 1612SOL    HW216299   1.012   4.482   6.657 -0.4632 -0.3807 -2.3126
 1613SOL     OW16300   0.175   2.038   2.915  0.1154  0.0122 -0.0730
 1613SOL    HW116301   0.255   1.986   2.923  0.0702 -0.1733 -0.8180
 1613SOL    HW216302   0.144   2.008   2.829  1.5562  1.6278 -1.1423
 1614SOL     OW16303   1.747   0.181   2.608 -0.2779 -0.1246 -0.6183
 1614SOL    HW116304   1.840   0.187   2.588  0.4753 -0.2861  2.7988
 1614SOL    HW216305   1.736   0.110   2.671 -0.4949  2.8338  2.6806
 1615SOL     OW16306   4.329   3.641  14.992 -0.1620 -0.0833  0.2773
 1615SOL    HW116307   4.371   3.633  15.077 -0.5508 -0.2849  0.4533
 1615SOL    HW216308   4.270   3.565  14.988  0.8351 -0.7434 -2.0695
 1616SOL     OW16309   2.281   3.959   3.722 -0.8582  0.0352 -0.1491
 1616SOL    HW116310   2.346   4.011   3.769 -1.8421  0.6414  0.5221
 1616SOL    HW216311   2.236   4.030   3.677  0.9329  1.5975  0.5149
 1617SOL     OW16312   0.347   2.912  10.554 -0.3192 -0.1007 -0.0465
 1617SOL    HW116313   0.398   2.935  10.477 -2.9268  0.4797 -1.5952
 1617SOL    HW216314   0.345   3.001  10.591  2.9292 -0.0280 -0.0191
 1618SOL     OW16315   0.650   3.717   9.123 -0.0531  0.1227  0.2656
 1618SOL    HW116316   0.733   3.740   9.165 -0.1405  1.5065 -0.3310
 1618SOL    HW216317   0.595   3.746   9.195 -0.3693 -0.6412  0.3321
 1619SOL     OW16318   1.666   4.151  10.079 -0.1665 -0.0381  0.3256
 1619SOL    HW116319   1.740   4.155  10.019  0.8758 -5.0759  1.2864
 1619SOL    HW216320   1.612   4.081  10.042 -0.5578 -0.0441  0.8980
 1620SOL     OW16321   4.004   1.741   0.571  0.6619  0.1986  0.2670
 1620SOL    HW116322   4.049   1.782   0.645  1.3686  0.3716 -0.2613
 1620SOL    HW216323   3.952   1.810   0.530 -1.2554 -1.2043  0.3134
 1621SOL     OW16324   1.147   4.329   3.775 -0.2636 -0.2182 -0.0725
 1621SOL    HW116325   1.187   4.264   3.833 -2.5066 -1.0302  0.5408
 1621SOL    HW216326   1.153   4.407   3.830 -1.0650 -0.4140  0.2804
 1622SOL     OW16327   4.223   0.334  16.268  0.7507 -0.2245 -0.0713
 1622SOL    HW116328   4.257   0.318  16.180 -0.6709 -1.3943 -0.4199
 1622SOL    HW216329   4.249   0.252  16.309  0.5075  0.3981  1.3505
 1623SOL     OW16330   1.039   4.650   8.442  0.3388  0.5409  0.4964
 1623SOL    HW116331   1.098   4.706   8.493  0.9637  2.6547 -2.5055
 1623SOL    HW216332   1.019   4.586   8.511  0.1310 -0.3432 -0.3868
 1624SOL     OW16333   0.852   1.500   1.781  0.1835 -0.1592 -0.4537
 1624SOL    HW116334   0.905   1.465   1.709  2.8090 -0.2790  1.5316
 1624SOL    HW216335   0.850   1.425   1.840  1.2046 -1.3802 -1.9489
 1625SOL     OW16336   3.618   4.005   3.138  0.1873  0.7083 -0.1121
 1625SOL    HW116337   3.664   4.046   3.210  0.0504  0.3801  0.1642
 1625SOL    HW216338   3.611   3.915   3.170  1.3657  0.8732  0.6119
 1626SOL     OW16339   1.444   3.477   0.009 -0.2691 -0.1791 -0.4318
 1626SOL    HW116340   1.458   3.387   0.040 -1.2312  0.3284  1.4804
 1626SOL    HW216341   1.426   3.513   0.096  1.6992 -1.1036  0.3592
 1627SOL     OW16342   0.605   1.128   4.221 -0.1921 -0.0183  0.2051
 1627SOL    HW116343   0.674   1.087   4.272  0.3385  0.6193  0.0037
 1627SOL    HW216344   0.531   1.067   4.228 -0.5719  0.6181  1.6693
 1628SOL     OW16345   3.620   0.833   9.098  0.5697  0.1295  0.0471
 1628SOL    HW116346   3.671   0.861   9.174 -0.3436  4.7493 -1.0219
 1628SOL    HW216347   3.534   0.866   9.124  1.0926  2.3409 -1.0441
 1629SOL     OW16348   0.306   2.550   6.200 -0.2044 -0.1489 -0.0462
 1629SOL    HW116349   0.279   2.538   6.291  3.5326 -2.8475  0.7282
 1629SOL    HW216350   0.359   2.630   6.203  1.1682 -0.9915 -1.8139
 1630SOL     OW16351   0.852   0.387   3.281 -0.1190 -0.6819 -0.5306
 1630SOL    HW116352   0.928   0.360   3.229  0.4440 -0.0309 -0.0402
 1630SOL    HW216353   0.867   0.349   3.368  2.6225  1.9749  0.1272
 1631SOL     OW16354   2.828   3.112   5.459 -0.1225  0.3933  0.1364
 1631SOL    HW116355   2.802   3.165   5.535  1.9749  1.3279  0.1837
 1631SOL    HW216356   2.827   3.021   5.491 -2.7062  0.5975  0.6964
 1632SOL     OW16357   0.095   1.546   6.860  0.7148  0.1884 -0.4048
 1632SOL    HW116358   0.049   1.622   6.825 -1.8596 -0.0888  2.3420
 1632SOL    HW216359   0.180   1.589   6.867 -0.1032  1.9377 -1.2870
 1633SOL     OW16360   3.446   0.962   7.500 -0.0499  0.7718  0.3063
 1633SOL    HW116361   3.420   0.877   7.465  0.3197  0.0661  1.7656
 1633SOL    HW216362   3.524   0.977   7.447  0.6677 -0.0141  1.1478
 1634SOL     OW16363   1.170   3.225   4.814 -0.6632  0.4101  0.5905
 1634SOL    HW116364   1.131   3.303   4.775  1.3880  0.2432 -1.8413
 1634SOL    HW216365   1.234   3.263   4.874 -0.0594 -2.0847  1.5423
 1635SOL     OW16366   1.006   2.747   9.307 -0.1172  0.3851  0.0047
 1635SOL    HW116367   1.096   2.718   9.320 -1.0348 -2.2950  0.4161
 1635SOL    HW216368   1.003   2.773   9.215  0.2983 -1.8819 -0.6401
 1636SOL     OW16369   2.086   1.765   6.174 -0.1765 -0.4723  0.0160
 1636SOL    HW116370   2.120   1.806   6.094 -1.1992  1.0962  0.3881
 1636SOL    HW216371   1.996   1.751   6.147 -1.3973  0.6172  3.5676
 1637SOL     OW16372   3.220   4.247   6.441  0.1128  0.3620  0.0311
 1637SOL    HW116373   3.172   4.306   6.500  0.2539  3.3338 -2.8625
 1637SOL    HW216374   3.304   4.292   6.446  0.8987 -1.1474  0.3158
 1638SOL     OW16375   1.407   0.380   2.501 -0.4038  0.4948  0.2300
 1638SOL    HW116376   1.480   0.421   2.455  0.3939  1.3601  2.2973
 1638SOL    HW216377   1.442   0.369   2.589  1.5440  3.4906 -0.1679
 1639SOL     OW16378   2.298   3.009   8.703  0.4579 -0.3193 -0.2992
 1639SOL    HW116379   2.302   3.069   8.778 -1.0790 -2.8858  1.8362
 1639SOL    HW216380   2.225   2.956   8.736 -1.5034  2.4788 -0.0693
 1640SOL     OW16381   3.997   4.059   6.672  0.6204 -0.3572 -0.0125
 1640SOL    HW116382   4.010   3.968   6.699 -3.3140 -0.7201  0.6875
 1640SOL    HW216383   4.054   4.059   6.595  1.0968 -2.6026  0.3388
 1641SOL     OW16384   2.674   4.106   7.037 -0.1479 -0.6284  0.3350
 1641SOL    HW116385   2.646   4.020   7.006  1.3832 -1.4680  1.3008
 1641SOL    HW216386   2.750   4.089   7.091  1.2027 -0.1918 -1.4322
 1642SOL     OW16387   3.046   3.536  17.649 -0.6584  0.4166 -0.2650
 1642SOL    HW116388   2.963   3.488  17.647 -0.4717  0.1923 -1.8987
 1642SOL    HW216389   3.107   3.463  17.649 -1.3308 -0.1443  0.1675
 1643SOL     OW16390   2.792   1.753  13.466 -0.6433 -0.6180  0.4679
 1643SOL    HW116391   2.711   1.782  13.423  0.1185 -1.2352 -1.3752
 1643SOL    HW216392   2.795   1.813  13.540 -0.6434  0.8735 -0.7278
 1644SOL     OW16393   1.873   0.409   3.515 -0.5711 -0.1305 -0.8433
 1644SOL    HW116394   1.931   0.460   3.458 -0.3619  1.8755  1.1904
 1644SOL    HW216395   1.798   0.463   3.492 -0.3676 -0.3795 -2.1368
 1645SOL     OW16396   3.859   3.331   1.549  0.8301  0.0370  0.0639
 1645SOL    HW116397   3.938   3.286   1.520  0.3488 -1.5366  1.1947
 1645SOL    HW216398   3.822   3.325   1.461  1.9773 -2.3409 -0.2540
 1646SOL     OW16399   3.988   3.497   0.449 -0.2328  0.3054  0.4325
 1646SOL    HW116400   3.923   3.479   0.518  0.1030 -0.5586  0.5279
 1646SOL    HW216401   3.959   3.429   0.389  0.7359  1.0512 -0.8678
 1647SOL     OW16402   1.207   1.388   7.937 -0.2450  0.6314 -0.2720
 1647SOL    HW116403   1.119   1.416   7.910  0.0026  0.8325 -0.8640
 1647SOL    HW216404   1.235   1.348   7.855 -1.4544 -2.0792  0.6452
 1648SOL     OW16405   0.842   3.797  17.608 -0.1418 -0.4691  0.1603
 1648SOL    HW116406   0.851   3.704  17.587  0.4399 -1.2667  3.9637
 1648SOL    HW216407   0.832   3.829  17.519 -1.1654 -0.0471  0.4238
 1649SOL     OW16408   1.218   4.246   3.511  0.1744  0.0778 -0.4296
 1649SOL    HW116409   1.222   4.284   3.599 -3.1107 -0.9909  0.1765
 1649SOL    HW216410   1.163   4.169   3.519  0.9358 -0.4975 -0.8235
 1650SOL     OW16411   0.236   1.579   0.919 -0.1441 -0.1384  0.1846
 1650SOL    HW116412   0.229   1.555   0.827  1.5091 -1.8518  0.5060
 1650SOL    HW216413   0.290   1.506   0.950 -1.9929 -1.9837 -0.9961
 1651SOL     OW16414   1.640   2.879   8.231  0.5524  0.4097  0.6257
 1651SOL    HW116415   1.673   2.842   8.149 -1.1339  1.6997 -0.6609
 1651SOL    HW216416   1.619   2.970   8.208 -2.6439 -0.2167  1.1226
 1652SOL     OW16417   2.682   1.443  13.725  0.6555  0.2715  0.3218
 1652SOL    HW116418   2.638   1.508  13.671  3.0729  2.2699  0.7783
 1652SOL    HW216419   2.610   1.411  13.778  0.3255 -1.7571 -1.3363
 1653SOL     OW16420   2.181   2.108   6.081  0.1265  0.2684 -0.3884
 1653SOL    HW116421   2.135   2.089   6.163  1.1342 -0.8407 -0.0740
 1653SOL    HW216422   2.270   2.092   6.112 -0.8736 -4.1209  0.3079
 1654SOL     OW16423   2.027   1.962  15.657 -0.2257  0.1670 -0.4589
 1654SOL    HW116424   2.029   1.887  15.716 -1.2207  0.7632  0.3399
 1654SOL    HW216425   1.973   2.023  15.707  0.3159  0.2242  0.0465
 1655SOL     OW16426   3.209   1.782   9.129  0.5422  0.2373  0.0969
 1655SOL    HW116427   3.167   1.766   9.214 -1.6608 -0.6997 -1.1642
 1655SOL    HW216428   3.284   1.723   9.134  0.4352  0.0711 -0.2797
 1656SOL     OW16429   3.872   2.874   2.763 -0.3919  0.0607 -0.2405
 1656SOL    HW116430   3.856   2.817   2.688 -1.0890 -2.0019  1.4904
 1656SOL    HW216431   3.938   2.819   2.805 -0.9935  0.4742  1.2177
 1657SOL     OW16432   1.697   2.132   5.164  0.0810  0.5701 -0.2470
 1657SOL    HW116433   1.663   2.174   5.085 -0.6156  0.6440  0.0849
 1657SOL    HW216434   1.752   2.066   5.122 -0.2373  0.8506 -1.1121
 1658SOL     OW16435   3.291   1.634  13.632 -0.5913 -0.6965 -0.0113
 1658SOL    HW116436   3.302   1.702  13.565 -0.4427  0.8587  1.5991
 1658SOL    HW216437   3.378   1.630  13.670 -0.1814 -0.2690 -0.9017
 1659SOL     OW16438   0.310   3.460   1.544  0.1874  0.8609  0.2673
 1659SOL    HW116439   0.313   3.404   1.467 -1.1118  0.6378  0.3768
 1659SOL    HW216440   0.343   3.534   1.493  2.1381 -0.2321 -0.0520
 1660SOL     OW16441   0.959   2.857   8.849  0.2796  0.2329  0.7491
 1660SOL    HW116442   1.037   2.864   8.793 -1.4737  0.5176 -1.6669
 1660SOL    HW216443   0.999   2.819   8.926 -1.6553 -1.1707  1.0496
 1661SOL     OW16444   1.237   2.462   7.375  0.1836  0.0112 -0.0279
 1661SOL    HW116445   1.250   2.387   7.318  2.2174  0.4576 -0.1606
 1661SOL    HW216446   1.199   2.418   7.451 -0.7985  0.4117 -0.2930
 1662SOL     OW16447   4.637   2.193  14.968  0.2689 -0.3828 -0.2165
 1662SOL    HW116448   4.577   2.119  14.956  0.9019 -0.9126 -0.0692
 1662SOL    HW216449   4.635   2.223  15.059  0.8613  1.6545 -0.8948
 1663SOL     OW16450   1.929   1.451   6.095 -0.3039 -0.2636  0.1792
 1663SOL    HW116451   1.878   1.437   6.174  2.1905  1.8256  2.1544
 1663SOL    HW216452   2.021   1.460   6.121 -0.3100 -0.3734  0.2386
 1664SOL     OW16453   3.358   3.887   1.148 -0.5610  0.0083 -0.0111
 1664SOL    HW116454   3.452   3.904   1.139 -0.8288 -0.1902 -3.0902
 1664SOL    HW216455   3.315   3.948   1.088  0.3096  0.4469 -0.1952
 1665SOL     OW16456   0.710   1.413   6.610  0.3761 -0.1290  0.5184
 1665SOL    HW116457   0.767   1.451   6.676 -1.1269 -0.1121  1.8085
 1665SOL    HW216458   0.654   1.349   6.654 -0.3114 -0.2119 -0.4716
 1666SOL     OW16459   0.460   3.109   4.364  0.3282  0.3388  0.1247
 1666SOL    HW116460   0.537   3.152   4.327 -0.3676  1.3101 -0.2145
 1666SOL    HW216461   0.424   3.056   4.293  0.5760 -0.3979  0.5478
 1667SOL     OW16462   0.459   0.160   6.015  0.0181  0.2627 -0.3475
 1667SOL    HW116463   0.498   0.074   6.033 -0.3541  0.5916  2.0759
 1667SOL    HW216464   0.368   0.147   6.041  0.1296  2.4191  1.0701
 1668SOL     OW16465   4.000   1.296   2.983 -0.1966  0.2226  0.3688
 1668SOL    HW116466   3.965   1.214   3.016  1.4692 -0.6801 -0.1040
 1668SOL    HW216467   4.054   1.264   2.910  0.2443  0.8295  0.4272
 1669SOL     OW16468   2.607   3.122   9.080  0.6410 -0.4252  0.2191
 1669SOL    HW116469   2.647   3.098   8.996  1.3159 -0.3087  0.5089
 1669SOL    HW216470   2.684   3.136   9.135  0.8224  1.4712 -0.5167
 1670SOL     OW16471   0.882   4.366   7.361 -0.4620  0.2300 -0.1222
 1670SOL    HW116472   0.879   4.391   7.269 -0.9762 -0.8726 -0.4061
 1670SOL    HW216473   0.919   4.443   7.404 -2.1296  0.3939  0.9914
 1671SOL     OW16474   0.664   4.228   7.419  0.0031  0.7851  0.0301
 1671SOL    HW116475   0.741   4.277   7.390 -1.3858  0.6794 -3.7185
 1671SOL    HW216476   0.655   4.168   7.346  2.5369  0.5402 -0.0925
 1672SOL     OW16477   4.325   2.307   2.382 -0.3029  0.4804  0.1776
 1672SOL    HW116478   4.383   2.261   2.442 -1.4488 -0.1228  0.8296
 1672SOL    HW216479   4.359   2.287   2.295  4.0445 -0.8892  2.1910
 1673SOL     OW16480   4.668   4.454   3.320 -0.2691 -0.0385  0.7375
 1673SOL    HW116481   0.019   4.412   3.368  0.9534  1.6722  0.4213
 1673SOL    HW216482   4.669   4.399   3.242  0.5268  1.2482 -0.1694
 1674SOL     OW16483   3.001   2.236   7.220  0.0357 -0.0357  0.1376
 1674SOL    HW116484   2.908   2.256   7.213  0.1349  1.0778  1.8574
 1674SOL    HW216485   3.032   2.276   7.139 -1.0603  1.4097  0.4317
 1675SOL     OW16486   1.177   2.922  17.547  0.4600  0.3271  0.1884
 1675SOL    HW116487   1.154   3.006  17.507 -0.4251  0.0962  0.2089
 1675SOL    HW216488   1.092   2.877  17.549 -0.1859  1.4522 -1.6836
 1676SOL     OW16489   0.427   3.769   3.440  0.1168 -0.0532 -0.0996
 1676SOL    HW116490   0.464   3.682   3.454  2.5237  0.6813 -1.7561
 1676SOL    HW216491   0.348   3.748   3.391 -0.3700  0.5240  0.4422
 1677SOL     OW16492   2.277   0.660   2.820  0.3068 -0.6860 -0.1564
 1677SOL    HW116493   2.201   0.710   2.848 -0.9945 -1.2985 -2.5474
 1677SOL    HW216494   2.261   0.572   2.853 -0.3785 -0.1706  0.8499
 1678SOL     OW16495   1.791   4.566   5.882 -0.3200  0.0261 -0.9327
 1678SOL    HW116496   1.815   4.492   5.826 -0.1694 -0.7552  0.1541
 1678SOL    HW216497   1.723   4.603   5.826  0.0752  2.6282  0.2921
 1679SOL     OW16498   1.159   4.567  15.977  0.3579 -0.2440  0.5546
 1679SOL    HW116499   1.104   4.489  15.975  3.5788 -2.5087  0.8657
 1679SOL    HW216500   1.092   4.631  16.002  1.9056  1.2262  0.9471
 1680SOL     OW16501   2.391   1.880  13.104  0.1408 -0.4405  0.0176
 1680SOL    HW116502   2.374   1.969  13.074  2.5678  0.5779  1.6544
 1680SOL    HW216503   2.359   1.826  13.032 -1.0489 -0.0289  0.2489
 1681SOL     OW16504   3.356   0.436   6.876 -0.2130  0.0356  0.4458
 1681SOL    HW116505   3.415   0.420   6.802 -0.8694 -2.0137  0.3518
 1681SOL    HW216506   3.382   0.524   6.902 -0.1336 -0.2639  1.3794
 1682SOL     OW16507   0.304   0.430   3.324  0.9041  0.4593 -0.0741
 1682SOL    HW116508   0.297   0.482   3.244  1.1031 -0.8744 -0.9641
 1682SOL    HW216509   0.326   0.341   3.296 -0.8538  0.2067 -0.6805
 1683SOL     OW16510   2.476   1.061  11.923  0.5075 -0.6568  0.6292
 1683SOL    HW116511   2.434   0.978  11.904  0.1800 -0.6893  1.5081
 1683SOL    HW216512   2.413   1.079  11.993  0.7625 -1.6590  1.1112
 1684SOL     OW16513   3.440   3.575   3.345  0.4387  0.1698 -0.0431
 1684SOL    HW116514   3.472   3.529   3.267 -0.7720  1.1812 -1.1143
 1684SOL    HW216515   3.383   3.504   3.376 -1.6423  1.3840 -1.1239
 1685SOL     OW16516   0.749   3.665   7.632  0.0745  0.0940 -0.0440
 1685SOL    HW116517   0.705   3.689   7.550 -0.2430 -0.1034  0.0688
 1685SOL    HW216518   0.807   3.596   7.598  1.8176  2.2091 -1.4148
 1686SOL     OW16519   0.005   2.943   3.989 -0.5360 -0.0666  0.1802
 1686SOL    HW116520   4.681   3.027   4.000  0.7033  0.2859  2.3567
 1686SOL    HW216521   4.701   2.902   4.071  1.1907  0.1420  0.8090
 1687SOL     OW16522   4.162   2.812   6.053  0.6175  0.1256  0.6758
 1687SOL    HW116523   4.153   2.790   6.146  0.3504  1.0848  0.8710
 1687SOL    HW216524   4.248   2.771   6.037  0.1094  0.4401 -2.9757
 1688SOL     OW16525   2.560   3.593   8.495  0.4831  0.1585  0.2098
 1688SOL    HW116526   2.580   3.519   8.553 -0.8770 -1.5015 -1.4307
 1688SOL    HW216527   2.515   3.657   8.550  0.7718 -0.1211  0.7758
 1689SOL     OW16528   1.902   4.056   3.486 -0.2861 -0.0423 -0.5696
 1689SOL    HW116529   1.917   4.120   3.555  2.9494 -2.2939  0.7885
 1689SOL    HW216530   1.906   4.101   3.401 -1.2764 -1.3542 -1.3129
 1690SOL     OW16531   3.586   1.700  13.332  0.1863  0.6272  0.2518
 1690SOL    HW116532   3.627   1.683  13.417 -0.5468 -0.0012  0.4755
 1690SOL    HW216533   3.524   1.767  13.361 -0.3589 -0.2473  1.0880
 1691SOL     OW16534   4.013   0.699   9.172  0.2271 -0.1273 -0.2028
 1691SOL    HW116535   3.981   0.789   9.161  1.9337  0.5882  0.5874
 1691SOL    HW216536   4.091   0.712   9.227  0.4537 -1.5413 -0.1991
 1692SOL     OW16537   1.009   0.012  15.748  0.0968  0.6710 -0.0525
 1692SOL    HW116538   0.990   0.042  15.837  0.4249  0.4150  0.1053
 1692SOL    HW216539   1.101   4.704  15.748  0.3702  1.5504 -0.4829
 1693SOL     OW16540   3.684   2.018   8.423 -0.0061  0.0723 -0.5274
 1693SOL    HW116541   3.630   2.098   8.428 -0.9099 -0.5137 -0.9190
 1693SOL    HW216542   3.688   2.011   8.328  0.4921 -0.0974 -0.4896
 1694SOL     OW16543   3.318   4.719   7.011  0.0636 -0.1106  0.4163
 1694SOL    HW116544   3.242   0.027   6.960  1.1566  1.7948 -0.1512
 1694SOL    HW216545   3.304   0.049   7.091 -0.4330  1.8970 -0.9587
 1695SOL     OW16546   0.689   1.514   4.644 -0.0232 -0.1908 -0.1009
 1695SOL    HW116547   0.634   1.461   4.587 -0.2772 -0.2758  0.2254
 1695SOL    HW216548   0.645   1.524   4.728  2.0378 -1.7580  1.1592
 1696SOL     OW16549   3.223   2.058   4.156 -0.2665 -0.1815  0.3616
 1696SOL    HW116550   3.130   2.081   4.153 -0.1393  0.4497  1.0838
 1696SOL    HW216551   3.263   2.108   4.085 -1.0650 -1.2351 -0.8179
 1697SOL     OW16552   2.183   0.149  12.489 -0.2509  0.6297 -0.1423
 1697SOL    HW116553   2.257   0.211  12.494  0.3102  0.1330 -2.3272
 1697SOL    HW216554   2.134   0.194  12.558 -2.7961 -0.0775 -1.4901
 1698SOL     OW16555   4.015   0.716  16.603  0.0403 -0.8531 -0.2039
 1698SOL    HW116556   4.031   0.628  16.638  0.0535 -1.2619 -1.2461
 1698SOL    HW216557   4.055   0.772  16.669 -0.2991 -1.3630  0.4362
 1699SOL     OW16558   3.284   4.280   5.652 -0.3675  0.4071 -0.6036
 1699SOL    HW116559   3.285   4.195   5.697 -0.6524  0.1237 -1.1291
 1699SOL    HW216560   3.201   4.275   5.605 -1.2749  0.8770  0.9781
 1700SOL     OW16561   1.264   3.362   2.432 -0.3374 -0.3164  0.4905
 1700SOL    HW116562   1.178   3.405   2.434  0.7364  1.7657  1.3715
 1700SOL    HW216563   1.278   3.353   2.338 -1.5362  1.9429  0.1043
 1701SOL     OW16564   4.715   3.436   9.355  0.4255 -0.5075 -1.1297
 1701SOL    HW116565   0.069   3.493   9.339  0.2662  0.9258  3.3453
 1701SOL    HW216566   0.024   3.370   9.292  0.5504 -1.7035  0.1997
 1702SOL     OW16567   0.930   1.532   8.883 -0.5822  0.6342 -0.0440
 1702SOL    HW116568   0.947   1.510   8.792 -0.9687 -0.7858  0.2263
 1702SOL    HW216569   1.014   1.573   8.901  0.5122 -1.2061 -0.8843
 1703SOL     OW16570   1.838   2.457   5.823  0.4454 -0.1968  0.1115
 1703SOL    HW116571   1.843   2.371   5.865  2.1104 -0.6231 -0.9155
 1703SOL    HW216572   1.857   2.511   5.899 -0.1737 -0.2906  0.3312
 1704SOL     OW16573   3.984   3.349   7.104 -0.2053 -0.6736  0.2562
 1704SOL    HW116574   3.960   3.441   7.091  2.3861  0.2698  2.1349
 1704SOL    HW216575   4.075   3.371   7.120 -0.3979  0.4400 -0.1751
 1705SOL     OW16576   0.541   0.695   2.494  0.4774 -0.7023  0.1044
 1705SOL    HW116577   0.445   0.687   2.497  0.4425 -1.7661 -3.0225
 1705SOL    HW216578   0.543   0.720   2.402  0.2089 -1.6360 -0.1570
 1706SOL     OW16579   4.386   4.016  17.550  0.6912  0.0544  0.4342
 1706SOL    HW116580   4.398   3.921  17.560 -0.6530 -0.2652 -0.9379
 1706SOL    HW216581   4.402   4.024  17.456  2.4461  1.5668  0.8577
 1707SOL     OW16582   3.394   1.952   8.087  0.1075  0.7183  0.3582
 1707SOL    HW116583   3.480   1.912   8.097 -0.5062  0.1434  3.2955
 1707SOL    HW216584   3.409   2.044   8.111  0.8549  0.4435  0.9377
 1708SOL     OW16585   4.435   0.300  10.744  0.3295 -0.3514  0.0590
 1708SOL    HW116586   4.445   0.339  10.657  0.3776 -0.5678 -0.0342
 1708SOL    HW216587   4.524   0.305  10.779  0.4179 -0.5339 -0.1339
 1709SOL     OW16588   1.961   1.154  14.934  0.3101  0.0497  0.2070
 1709SOL    HW116589   2.032   1.090  14.935 -0.6458 -0.9983  0.6996
 1709SOL    HW216590   1.902   1.132  14.862 -0.8256 -0.3858  1.2598
 1710SOL     OW16591   1.304   1.668   0.035 -0.1482  0.1503 -0.2761
 1710SOL    HW116592   1.246   1.626  17.658 -0.5949  0.3625 -0.0051
 1710SOL    HW216593   1.247   1.688   0.109  0.5678  2.9807 -0.4775
 1711SOL     OW16594   3.351   0.754   5.027 -0.2286 -0.0683  0.1002
 1711SOL    HW116595   3.274   0.701   5.005  0.3486 -0.8836  0.0267
 1711SOL    HW216596   3.370   0.727   5.116  1.5361 -1.9953 -0.8493
 1712SOL     OW16597   3.577   1.137   5.239 -0.0664 -0.5647 -0.2247
 1712SOL    HW116598   3.588   1.231   5.250 -1.0540 -0.2673 -1.7357
 1712SOL    HW216599   3.583   1.131   5.143 -2.1471 -0.1151 -0.3804
 1713SOL     OW16600   3.355   3.468   8.116 -0.0217 -0.6864  0.2766
 1713SOL    HW116601   3.436   3.440   8.075 -0.6090  1.0609 -2.1456
 1713SOL    HW216602   3.381   3.495   8.204 -3.3301  1.3540  0.6421
 1714SOL     OW16603   4.215   3.081   3.865 -0.3353 -0.4416 -0.5081
 1714SOL    HW116604   4.266   3.001   3.860  0.7212  0.1392  1.0075
 1714SOL    HW216605   4.129   3.047   3.891  0.0144 -0.1270  1.1024
 1715SOL     OW16606   1.670   4.569   7.680  0.0831  0.2503  0.0455
 1715SOL    HW116607   1.732   4.496   7.677  0.0845  0.2412  0.3081
 1715SOL    HW216608   1.675   4.586   7.774 -2.6841 -1.5338  0.4979
 1716SOL     OW16609   1.657   2.905   1.187 -0.6827 -0.0870  0.0994
 1716SOL    HW116610   1.589   2.860   1.136  1.0545 -1.7214 -0.7403
 1716SOL    HW216611   1.729   2.908   1.125  0.3311 -0.6331  1.2595
 1717SOL     OW16612   2.959   0.348   1.501 -0.6350 -0.5188 -0.1145
 1717SOL    HW116613   2.990   0.287   1.434 -1.4402 -1.7882  0.6720
 1717SOL    HW216614   3.036   0.372   1.551  1.4652 -2.2123 -2.5313
 1718SOL     OW16615   4.113   4.357   0.087  0.1592 -0.3923  0.0128
 1718SOL    HW116616   4.035   4.393   0.045  0.9248 -1.0689 -1.9791
 1718SOL    HW216617   4.137   4.287   0.026 -1.5519 -0.7524 -0.2286
 1719SOL     OW16618   2.416   3.650   3.653 -0.0663  0.0578  0.6471
 1719SOL    HW116619   2.400   3.727   3.599  0.9449 -0.9816 -1.1250
 1719SOL    HW216620   2.510   3.657   3.640  0.0325 -0.7470  0.9291
 1720SOL     OW16621   0.347   4.007  13.558 -0.4192  0.3266  0.0158
 1720SOL    HW116622   0.269   4.062  13.555 -1.0319 -0.6457 -2.1233
 1720SOL    HW216623   0.301   3.936  13.603 -0.2543 -0.6910 -1.4266
 1721SOL     OW16624   0.898   0.200   5.622  0.4698 -0.1054 -0.6604
 1721SOL    HW116625   0.865   0.269   5.565 -2.5440  0.7043  2.0509
 1721SOL    HW216626   0.848   0.222   5.701  0.2338  0.0470 -0.8543
 1722SOL     OW16627   0.654   0.099   3.859  0.3988 -0.2845  0.4103
 1722SOL    HW116628   0.738   0.056   3.840  0.0736 -0.4270 -0.7120
 1722SOL    HW216629   0.589   0.029   3.860 -1.5234  1.5393  1.0631
 1723SOL     OW16630   4.394   0.535  17.485 -0.4372  0.3659 -0.9529
 1723SOL    HW116631   4.340   0.487  17.549  0.6656  1.5355  0.8613
 1723SOL    HW216632   4.462   0.565  17.545  0.2382 -1.4709 -0.8192
 1724SOL     OW16633   2.601   0.589  10.926  0.1962 -0.1292  0.3713
 1724SOL    HW116634   2.550   0.646  10.983 -0.5561 -1.4118  0.9823
 1724SOL    HW216635   2.691   0.609  10.951  0.0676 -1.1345  1.6376
 1725SOL     OW16636   1.110   0.890   7.469 -0.4259 -0.7911 -0.1389
 1725SOL    HW116637   1.138   0.921   7.555 -1.9162 -0.6937  0.3067
 1725SOL    HW216638   1.184   0.893   7.408  0.2421 -0.3665  0.6996
 1726SOL     OW16639   2.026   4.475   2.766  0.5901  0.5590  0.0882
 1726SOL    HW116640   1.957   4.497   2.702  1.8952  1.1028 -1.1238
 1726SOL    HW216641   2.100   4.524   2.732 -1.0717  2.4760 -0.7570
 1727SOL     OW16642   1.169   2.524   2.736 -0.4668  0.4070 -0.3898
 1727SOL    HW116643   1.146   2.596   2.678  0.6547 -1.0070 -2.5890
 1727SOL    HW216644   1.146   2.448   2.682  1.5426 -1.3744  1.2404
 1728SOL     OW16645   1.137   0.206   8.261  0.8657 -0.0737  0.2600
 1728SOL    HW116646   1.188   0.126   8.275 -0.0244 -0.4214  1.4430
 1728SOL    HW216647   1.088   0.222   8.341 -1.2519  2.8821 -1.6441
 1729SOL     OW16648   2.133   1.371   8.495  0.7080 -0.5077 -0.5074
 1729SOL    HW116649   2.128   1.306   8.425 -2.0369  0.0512 -0.8157
 1729SOL    HW216650   2.146   1.447   8.439 -0.7928  1.2348  1.5189
 1730SOL     OW16651   1.810   2.047  16.388  0.3781 -0.1636 -0.1979
 1730SOL    HW116652   1.767   1.991  16.453 -0.9649  0.0877 -0.8772
 1730SOL    HW216653   1.895   2.033  16.430  0.3514 -0.4560 -0.2369
 1731SOL     OW16654   3.921   1.949   7.564  0.2335  0.2394  0.9869
 1731SOL    HW116655   3.884   2.037   7.567 -2.1691 -0.7295 -0.2384
 1731SOL    HW216656   4.006   1.959   7.607  1.1989 -0.3666 -0.7619
 1732SOL     OW16657   1.832   2.159   6.213  0.4095 -0.5704 -0.3480
 1732SOL    HW116658   1.911   2.152   6.268  0.2287 -0.6604 -0.0999
 1732SOL    HW216659   1.764   2.114   6.264  0.6828 -1.6994 -0.9704
 1733SOL     OW16660   1.068   0.727   2.610 -0.4479 -0.6600 -0.4207
 1733SOL    HW116661   1.102   0.755   2.525  0.5170  1.7945  0.7819
 1733SOL    HW216662   1.089   0.634   2.611 -1.4959 -0.9050 -0.6021
 1734SOL     OW16663   3.155   1.972   6.652  0.0513 -0.5149 -0.5353
 1734SOL    HW116664   3.188   1.899   6.704  0.9644  1.1069  1.1791
 1734SOL    HW216665   3.142   1.935   6.565  0.8319 -0.8935 -0.4918
 1735SOL     OW16666   1.468   1.141   5.537  0.0268 -0.4043  0.0089
 1735SOL    HW116667   1.391   1.153   5.483  1.8709  3.1455 -1.8149
 1735SOL    HW216668   1.470   1.048   5.560  0.9514  0.0756  1.9171
 1736SOL     OW16669   4.559   1.955   5.362 -0.0862  0.2765 -0.1765
 1736SOL    HW116670   4.486   1.933   5.420 -0.8469  0.9745 -0.8796
 1736SOL    HW216671   4.630   1.968   5.425 -0.3747  3.0462 -0.4221
 1737SOL     OW16672   3.612   4.219  12.998 -0.8474  0.6398 -0.2059
 1737SOL    HW116673   3.678   4.188  13.060 -0.2930  1.4159 -0.3957
 1737SOL    HW216674   3.627   4.314  13.000  0.0356  0.5248 -1.4012
 1738SOL     OW16675   2.212   3.337  11.776  0.3050  0.3324 -0.4842
 1738SOL    HW116676   2.292   3.288  11.758 -0.6627 -0.9236 -1.4671
 1738SOL    HW216677   2.193   3.366  11.686  2.0003 -0.4830 -1.0998
 1739SOL     OW16678   3.567   2.657   7.098  0.0201 -0.1536  0.0296
 1739SOL    HW116679   3.482   2.617   7.084 -1.4142  3.0814 -0.4945
 1739SOL    HW216680   3.620   2.584   7.066 -0.8586 -0.3944 -0.8531
 1740SOL     OW16681   2.240   1.860   5.459 -0.3515 -0.3360  0.5533
 1740SOL    HW116682   2.231   1.951   5.433  0.2825 -0.5116 -0.2773
 1740SOL    HW216683   2.331   1.837   5.439  0.0343  2.4002 -0.8895
 1741SOL     OW16684   0.939   2.777   3.813 -0.1260 -0.3396  0.0110
 1741SOL    HW116685   0.871   2.827   3.769  0.8407 -0.4933 -1.6381
 1741SOL    HW216686   0.893   2.729   3.882  1.2521  0.0118  1.1799
 1742SOL     OW16687   0.217   1.581   2.706 -0.5583  0.7868 -0.0014
 1742SOL    HW116688   0.283   1.580   2.637 -1.3976  0.5094 -0.7980
 1742SOL    HW216689   0.142   1.532   2.671 -0.1581  0.2336 -0.0690
 1743SOL     OW16690   3.607   3.549   8.058 -0.2257  0.1431  0.1259
 1743SOL    HW116691   3.696   3.515   8.060  0.0386  0.5771 -3.8540
 1743SOL    HW216692   3.579   3.545   7.966 -1.5779 -1.6871  0.5999
 1744SOL     OW16693   2.137   3.525   3.530 -0.0595 -0.1217  0.2348
 1744SOL    HW116694   2.232   3.526   3.524 -0.0965 -1.5598 -0.4733
 1744SOL    HW216695   2.127   3.547   3.623 -3.1257  0.8359 -0.3173
 1745SOL     OW16696   3.882   0.234   6.264  0.0640  0.4755 -0.1618
 1745SOL    HW116697   3.858   0.142   6.273 -1.2631  0.8953  0.6158
 1745SOL    HW216698   3.846   0.263   6.180 -0.0013  3.1283  0.7802
 1746SOL     OW16699   0.378   1.182   9.651 -0.7952  0.6418 -0.2241
 1746SOL    HW116700   0.323   1.117   9.607 -1.1370  0.3770  0.5968
 1746SOL    HW216701   0.363   1.149   9.740 -2.8037 -2.6676 -1.7808
 1747SOL     OW16702   1.319   3.886   0.819 -0.0502 -0.5009 -0.1009
 1747SOL    HW116703   1.349   3.799   0.792  0.2303 -0.4840  0.1548
 1747SOL    HW216704   1.228   3.860   0.810  0.2885 -2.6778  2.4996
 1748SOL     OW16705   2.996   3.519   3.752  0.0620  0.0760  0.8672
 1748SOL    HW116706   3.084   3.482   3.743 -0.2727  0.0311 -2.2741
 1748SOL    HW216707   2.983   3.560   3.666 -0.6069  0.9348  1.3771
 1749SOL     OW16708   1.979   0.425   6.552  0.0980  0.5153  0.4056
 1749SOL    HW116709   1.904   0.483   6.541 -0.0308  0.3220  0.2706
 1749SOL    HW216710   1.958   0.375   6.630 -1.4630  0.8295  0.1787
 1750SOL     OW16711   3.898   2.126   8.922  0.0658 -0.5757 -0.4526
 1750SOL    HW116712   3.822   2.069   8.934 -0.1289 -0.3939 -0.8197
 1750SOL    HW216713   3.884   2.157   8.832 -0.1391  0.0137 -0.2202
 1751SOL     OW16714   4.578   4.360   4.943 -0.5295  0.0958 -0.2435
 1751SOL    HW116715   4.659   4.386   4.900 -1.4541  1.1046 -1.3660
 1751SOL    HW216716   4.533   4.443   4.956  0.3602  0.8270 -1.8499
 1752SOL     OW16717   0.868   0.898   0.225 -0.2455  0.1741 -0.2752
 1752SOL    HW116718   0.821   0.819   0.197  2.1210 -0.8636 -1.3064
 1752SOL    HW216719   0.956   0.859   0.221 -0.8246 -1.2213  0.3005
 1753SOL     OW16720   3.843   2.620   4.458 -0.7959  0.2518 -0.3013
 1753SOL    HW116721   3.917   2.623   4.518  0.5925 -0.9195 -1.9693
 1753SOL    HW216722   3.785   2.681   4.503 -0.4311 -0.8551  1.6589
 1754SOL     OW16723   4.431   4.098   7.778 -0.5153 -0.2184  0.3403
 1754SOL    HW116724   4.505   4.040   7.797 -0.4827  0.0556  1.0672
 1754SOL    HW216725   4.443   4.097   7.684  3.1047  1.4339  0.7908
 1755SOL     OW16726   4.571   2.402  14.530  0.4394 -0.1495 -0.9039
 1755SOL    HW116727   4.537   2.488  14.553 -1.0052 -0.7476 -0.7602
 1755SOL    HW216728   4.631   2.375  14.599 -0.6175  0.9329  0.4359
 1756SOL     OW16729   0.765   3.273   2.880  0.0195  0.0719  0.1977
 1756SOL    HW116730   0.856   3.277   2.908  0.4265 -0.8154 -1.0446
 1756SOL    HW216731   0.766   3.195   2.826  2.0715  0.2941 -0.0652
 1757SOL     OW16732   0.729   2.419   3.155  0.4132 -0.1766  0.4341
 1757SOL    HW116733   0.794   2.403   3.223  0.4029 -0.4482  0.3819
 1757SOL    HW216734   0.781   2.468   3.092 -0.3418 -0.1178 -0.1333
 1758SOL     OW16735   2.930   1.388  13.987  0.0304  0.4368 -0.0512
 1758SOL    HW116736   2.910   1.296  13.969  1.0229 -0.2267  2.2415
 1758SOL    HW216737   2.947   1.386  14.081  1.0833  0.7810 -0.2378
 1759SOL     OW16738   0.376   4.643   2.184  0.0415  0.1006 -0.1161
 1759SOL    HW116739   0.422   4.576   2.235  1.1517  2.1475  1.5378
 1759SOL    HW216740   0.393   4.614   2.094  1.2375 -1.6407  0.6513
 1760SOL     OW16741   3.106   1.963   3.724  0.0034  0.3116  0.0410
 1760SOL    HW116742   3.174   1.914   3.769 -0.8993  0.0128  1.0870
 1760SOL    HW216743   3.155   2.015   3.660  1.0813 -0.7336  0.0321
 1761SOL     OW16744   2.534   0.210   2.739 -0.4894  0.6429 -0.1497
 1761SOL    HW116745   2.582   0.220   2.821 -0.8513  0.6756  0.0597
 1761SOL    HW216746   2.531   0.116   2.724 -3.3565  0.1792  3.4844
 1762SOL     OW16747   3.543   4.024  17.621  0.2295  0.4326 -0.0711
 1762SOL    HW116748   3.568   3.997  17.533 -1.4232 -0.4733 -0.2593
 1762SOL    HW216749   3.488   3.954  17.655 -1.4545  0.7860 -2.0915
 1763SOL     OW16750   3.459   1.653   2.056  0.5437 -0.3168  0.5677
 1763SOL    HW116751   3.415   1.645   1.971  1.1728  0.5232  0.1624
 1763SOL    HW216752   3.469   1.561   2.080 -0.1300 -0.3867  0.5738
 1764SOL     OW16753   3.665   1.038  16.741 -0.3642  0.2175 -0.0445
 1764SOL    HW116754   3.728   0.995  16.798 -0.5393 -1.8533 -1.4154
 1764SOL    HW216755   3.621   0.956  16.720 -0.1216  0.2472 -0.6832
 1765SOL     OW16756   4.363   2.175   3.906  0.2259  0.5515  0.1024
 1765SOL    HW116757   4.380   2.113   3.835 -0.5766 -0.5543  0.8885
 1765SOL    HW216758   4.335   2.118   3.977  1.4172 -1.6437 -1.1774
 1766SOL     OW16759   3.510   2.052   9.102  0.1648 -0.0221 -0.0114
 1766SOL    HW116760   3.449   2.058   9.028 -2.0442 -1.4624  1.6931
 1766SOL    HW216761   3.572   2.123   9.084  0.3364 -0.0031  0.6848
 1767SOL     OW16762   2.307   3.270   3.890 -0.3357 -0.1556 -0.8605
 1767SOL    HW116763   2.350   3.355   3.902 -1.2246  0.2700 -0.6092
 1767SOL    HW216764   2.216   3.300   3.885 -0.1575  0.5651  0.2049
 1768SOL     OW16765   4.110   1.796   3.720 -0.2344 -0.2413  0.3365
 1768SOL    HW116766   4.023   1.825   3.748 -1.2612 -2.0917 -0.9382
 1768SOL    HW216767   4.121   1.828   3.630 -2.1262 -0.9964 -0.1741
 1769SOL     OW16768   2.428   0.332   8.453 -0.1615 -0.2467 -0.1558
 1769SOL    HW116769   2.363   0.341   8.383  1.7371  1.3493 -1.6887
 1769SOL    HW216770   2.425   0.420   8.491  0.9807  0.1269 -0.9460
 1770SOL     OW16771   3.693   3.390  14.131 -0.0603  0.2906 -0.1153
 1770SOL    HW116772   3.692   3.372  14.225  1.8832  0.8206 -0.0037
 1770SOL    HW216773   3.731   3.477  14.126 -0.1747  0.1918 -2.4145
 1771SOL     OW16774   1.460   0.610   8.203  0.2743  0.1113  0.6004
 1771SOL    HW116775   1.394   0.612   8.273  2.4742  0.8092  2.6763
 1771SOL    HW216776   1.416   0.542   8.152 -1.3667  2.0271 -0.5166
 1772SOL     OW16777   3.494   2.744   4.010  0.1294 -0.1115 -0.1460
 1772SOL    HW116778   3.500   2.762   3.916  1.2944  0.6522  0.0739
 1772SOL    HW216779   3.580   2.771   4.042  0.3512  1.7993 -2.3286
 1773SOL     OW16780   3.733   1.206   1.485  0.1712 -0.0010 -0.4165
 1773SOL    HW116781   3.731   1.110   1.480  0.7626 -0.0904  1.1781
 1773SOL    HW216782   3.640   1.223   1.496  0.8358  4.2520 -1.4288
 1774SOL     OW16783   4.719   2.945   3.372  0.2616 -0.6439  0.2384
 1774SOL    HW116784   4.633   2.905   3.363 -1.1461  2.4159 -0.1215
 1774SOL    HW216785   0.047   2.867   3.396  1.1147 -1.0273 -2.8257
 1775SOL     OW16786   3.834   0.110  11.399  0.5334  0.6271 -0.5514
 1775SOL    HW116787   3.809   0.129  11.490 -0.6580  2.8973 -1.3801
 1775SOL    HW216788   3.749   0.118  11.357 -0.2834 -0.9766  0.7449
 1776SOL     OW16789   2.396   0.631  15.187  0.2599  0.0343  0.1251
 1776SOL    HW116790   2.391   0.718  15.148 -0.3803 -0.2112 -0.3464
 1776SOL    HW216791   2.362   0.663  15.271  2.3856 -0.1094  1.0310
 1777SOL     OW16792   3.213   2.543   6.216 -0.2536 -0.2996  0.7290
 1777SOL    HW116793   3.225   2.561   6.309  0.1767  0.1941  0.5747
 1777SOL    HW216794   3.277   2.601   6.175 -2.9864  1.7090 -0.6503
 1778SOL     OW16795   1.899   2.544   7.303  0.3034  0.1511 -0.4665
 1778SOL    HW116796   1.874   2.466   7.354  0.4049  1.5521  1.7214
 1778SOL    HW216797   1.875   2.615   7.362  1.3426 -0.5208  0.7722
 1779SOL     OW16798   0.460   3.760  17.056  0.8098 -0.7426  0.5826
 1779SOL    HW116799   0.411   3.750  17.138  0.8419 -1.6673  0.4979
 1779SOL    HW216800   0.419   3.686  17.011 -0.0190 -1.4881  2.5477
 1780SOL     OW16801   0.173   4.034   3.141 -0.2120 -0.0958  0.7052
 1780SOL    HW116802   0.176   3.940   3.121  2.4513  0.3424 -0.9131
 1780SOL    HW216803   0.087   4.054   3.103 -0.0836 -0.5990  0.1467
 1781SOL     OW16804   2.548   1.276   5.073 -0.2880 -0.1897 -0.0879
 1781SOL    HW116805   2.509   1.317   5.150 -0.6017 -0.4689 -0.0972
 1781SOL    HW216806   2.586   1.201   5.119  1.2494 -0.0052 -1.0311
 1782SOL     OW16807   4.111   3.263   6.416  0.5262  0.0128 -0.0728
 1782SOL    HW116808   4.028   3.304   6.441  0.1606 -0.4748 -0.4910
 1782SOL    HW216809   4.176   3.303   6.474  1.9817  1.6687 -2.8266
 1783SOL     OW16810   1.541   0.590   3.537 -0.2789  0.0439 -0.1126
 1783SOL    HW116811   1.592   0.669   3.517 -1.8104  1.0702 -0.0027
 1783SOL    HW216812   1.549   0.576   3.632 -1.8734  1.7248  0.2610
 1784SOL     OW16813   3.604   0.613   4.212  0.6417  0.0780  0.3013
 1784SOL    HW116814   3.676   0.666   4.246  1.7889 -1.3498  0.1009
 1784SOL    HW216815   3.636   0.523   4.212  0.1006 -0.1129 -0.7184
 1785SOL     OW16816   2.248   2.912   3.867  0.2256 -0.2388  0.8303
 1785SOL    HW116817   2.291   2.827   3.879  1.6158  0.2050 -0.9618
 1785SOL    HW216818   2.310   2.945   3.802 -0.2827 -2.0783 -0.5961
 1786SOL     OW16819   0.682   1.693   3.175  0.6815  0.5509 -0.1742
 1786SOL    HW116820   0.589   1.703   3.155  0.3016 -0.7596  0.8991
 1786SOL    HW216821   0.666   1.628   3.243  0.7593  1.1610  0.4176
 1787SOL     OW16822   0.191   2.611  15.944  0.3935 -0.2131  0.0923
 1787SOL    HW116823   0.180   2.698  15.984 -0.4275  1.1138 -2.9824
 1787SOL    HW216824   0.167   2.554  16.017 -0.7831  0.9116  0.5967
 1788SOL     OW16825   3.139   2.589  12.057  0.4567  0.0413  0.5866
 1788SOL    HW116826   3.065   2.528  12.052  1.9053 -1.6545  0.1293
 1788SOL    HW216827   3.192   2.561  12.131 -0.1209 -1.0076  0.6057
 1789SOL     OW16828   0.849   1.030   7.632 -0.3222 -0.1697 -0.1491
 1789SOL    HW116829   0.768   1.043   7.681  0.9106  2.0806  1.3277
 1789SOL    HW216830   0.812   1.017   7.545 -2.2442  1.1899  0.4569
 1790SOL     OW16831   0.337   1.483   2.998  0.2796  0.2115  0.2575
 1790SOL    HW116832   0.307   1.484   2.907 -1.2005  1.0494  0.7693
 1790SOL    HW216833   0.290   1.411   3.041  0.0171 -0.7348 -1.6124
 1791SOL     OW16834   3.433   0.628  16.244  0.3115  0.2737 -0.4510
 1791SOL    HW116835   3.357   0.675  16.277 -0.6990 -1.0205 -0.9025
 1791SOL    HW216836   3.502   0.645  16.308  0.6018  0.5777 -0.8511
 1792SOL     OW16837   4.549   3.635   7.071  0.3119  0.3020  0.1416
 1792SOL    HW116838   4.536   3.671   6.983 -2.3216 -0.2501  0.3088
 1792SOL    HW216839   4.498   3.697   7.123  0.0261 -0.2012  0.4603
 1793SOL     OW16840   3.709   3.372   7.599  0.7879  0.2105 -0.1260
 1793SOL    HW116841   3.759   3.452   7.579  0.9481 -0.1091 -1.0060
 1793SOL    HW216842   3.765   3.338   7.668  0.5344 -1.8967 -0.9625
 1794SOL     OW16843   4.653   3.389   7.511 -0.0314  0.2667 -0.0466
 1794SOL    HW116844   4.706   3.403   7.432  0.2681  1.3511  0.3432
 1794SOL    HW216845   4.698   3.430   7.585  2.3982 -0.0601 -1.3578
 1795SOL     OW16846   4.226   2.625  13.994 -0.4450 -0.2983 -0.3680
 1795SOL    HW116847   4.232   2.530  13.990  1.3970 -0.2584  1.2727
 1795SOL    HW216848   4.297   2.654  13.936  0.5476  2.1193  2.0406
 1796SOL     OW16849   2.705   4.465   7.970 -0.6213  0.2187  0.5616
 1796SOL    HW116850   2.754   4.537   7.931  1.2023 -1.3030  0.0490
 1796SOL    HW216851   2.753   4.455   8.052 -0.6602  0.1357  0.5741
 1797SOL     OW16852   4.188   2.992   5.684 -0.4315 -0.1511  0.3280
 1797SOL    HW116853   4.128   2.993   5.610 -0.8407  1.0976  0.6637
 1797SOL    HW216854   4.241   2.915   5.668  2.2472  1.7316  0.1539
 1798SOL     OW16855   2.989   0.399   2.622  0.1129  0.1332 -0.0410
 1798SOL    HW116856   2.929   0.463   2.661  0.0042  0.6000 -0.9803
 1798SOL    HW216857   2.939   0.320   2.641  1.2016 -1.0230 -1.9914
 1799SOL     OW16858   0.733   1.254   9.566 -0.0136 -0.0035 -0.2674
 1799SOL    HW116859   0.828   1.263   9.575  0.1917 -0.6607 -1.7677
 1799SOL    HW216860   0.724   1.282   9.474  2.4791  0.4447 -0.3941
 1800SOL     OW16861   4.439   2.917   9.504  0.3955 -0.2952 -0.3568
 1800SOL    HW116862   4.434   3.010   9.480  0.2446 -0.0663  0.5819
 1800SOL    HW216863   4.475   2.921   9.592 -2.4039  2.3745  0.6695
 1801SOL     OW16864   0.011   2.770  16.591  0.3473 -0.4309  0.1214
 1801SOL    HW116865   4.657   2.720  16.623 -0.0398 -0.2471 -0.4804
 1801SOL    HW216866   0.047   2.807  16.671 -1.9292 -1.1859  1.4705
 1802SOL     OW16867   0.691   0.177   5.814 -0.1880 -0.4889 -0.3399
 1802SOL    HW116868   0.654   0.096   5.849 -1.8367 -0.7656 -2.7003
 1802SOL    HW216869   0.661   0.166   5.723  2.2781  0.3141 -1.2561
 1803SOL     OW16870   3.758   3.032   2.935  0.1303  0.5284  0.3658
 1803SOL    HW116871   3.800   2.968   2.877 -1.8760 -0.7217  0.3137
 1803SOL    HW216872   3.829   3.035   2.999 -1.4125 -1.3045  2.1437
 1804SOL     OW16873   3.909   4.667  12.938  0.4778  0.6104 -0.0958
 1804SOL    HW116874   3.892   4.690  12.847  0.5697  0.7853 -0.0681
 1804SOL    HW216875   3.873   4.578  12.935  2.0596 -0.0383  0.0338
 1805SOL     OW16876   1.073   3.237  11.799 -0.3845 -0.4967  0.1355
 1805SOL    HW116877   1.004   3.274  11.854  0.3456 -1.6833  1.8786
 1805SOL    HW216878   1.083   3.144  11.821 -1.2873 -0.2599  1.5139
 1806SOL     OW16879   4.042   3.977   4.706 -0.1654 -0.0265 -0.1861
 1806SOL    HW116880   3.983   4.044   4.671  0.9854  0.5428 -1.0202
 1806SOL    HW216881   4.069   4.022   4.786  0.3925  0.6045 -0.7432
 1807SOL     OW16882   3.705   2.409  15.995 -0.7218  0.2071  0.2745
 1807SOL    HW116883   3.721   2.334  15.939  0.1409  0.9525 -0.4794
 1807SOL    HW216884   3.798   2.423  16.016 -0.5713  0.7725 -0.7533
 1808SOL     OW16885   3.849   1.598   4.394 -0.1070  0.2352 -0.4608
 1808SOL    HW116886   3.911   1.669   4.381 -0.8607  0.4024 -3.0242
 1808SOL    HW216887   3.763   1.639   4.386 -0.2993 -0.8448 -3.7491
 1809SOL     OW16888   2.957   1.808  16.302  0.4751  0.1244  0.0260
 1809SOL    HW116889   2.977   1.717  16.327  1.7204  0.6308  0.8961
 1809SOL    HW216890   2.912   1.835  16.382 -1.6836  0.8681 -1.4394
 1810SOL     OW16891   2.915   3.459   5.504 -0.1906  0.2612 -0.3227
 1810SOL    HW116892   2.882   3.383   5.551  2.7106 -0.6120  0.3184
 1810SOL    HW216893   2.839   3.502   5.464 -0.5270 -0.2940 -0.2727
 1811SOL     OW16894   1.633   1.777   3.397 -0.5308 -0.7931  0.6609
 1811SOL    HW116895   1.651   1.860   3.440  3.2305 -1.2376 -0.0992
 1811SOL    HW216896   1.715   1.774   3.348 -0.1832 -0.4626  1.2281
 1812SOL     OW16897   0.914   3.176   6.036 -0.2140 -0.5741  0.5326
 1812SOL    HW116898   0.881   3.249   5.985  0.6631 -0.0799  0.6771
 1812SOL    HW216899   0.961   3.210   6.112  0.5649  0.3330 -0.3704
 1813SOL     OW16900   2.768   1.381  17.323  0.2197 -0.5457 -0.1484
 1813SOL    HW116901   2.827   1.414  17.391  0.4045  1.5851 -1.3321
 1813SOL    HW216902   2.814   1.414  17.245  1.0555 -1.8401 -0.2015
 1814SOL     OW16903   1.290   0.988   4.658 -0.5851  0.0020  0.3891
 1814SOL    HW116904   1.279   0.933   4.735  2.7894  2.0928  2.3309
 1814SOL    HW216905   1.200   1.020   4.657 -1.0233 -1.1955  0.7565
 1815SOL     OW16906   4.686   0.536  16.592 -0.3775 -0.1714  0.0861
 1815SOL    HW116907   0.047   0.504  16.554  0.3539 -0.1307  1.5928
 1815SOL    HW216908   4.706   0.528  16.686 -1.2232 -1.7502  0.1182
 1816SOL     OW16909   0.161   2.671   1.271  0.1301 -0.5579  0.4983
 1816SOL    HW116910   0.094   2.613   1.235  1.0494  0.1366 -2.3924
 1816SOL    HW216911   0.236   2.615   1.289 -0.1770 -0.8607  0.8145
 1817SOL     OW16912   2.183   4.560  15.303 -0.0656 -0.0801 -0.6153
 1817SOL    HW116913   2.104   4.506  15.303  0.1150 -0.3608  0.6240
 1817SOL    HW216914   2.251   4.513  15.352  0.4794  0.8643 -0.4555
 1818SOL     OW16915   0.093   3.867   3.378  0.3799  0.5156 -0.0878
 1818SOL    HW116916   0.135   3.782   3.371 -0.8324 -0.1336  0.5949
 1818SOL    HW216917   0.132   3.912   3.303 -1.7642 -0.6718 -1.9071
 1819SOL     OW16918   2.822   1.649   8.710  0.0783 -0.2533  0.5212
 1819SOL    HW116919   2.746   1.703   8.734 -0.0119  0.2277 -0.8105
 1819SOL    HW216920   2.895   1.696   8.749 -2.3721  2.6922  1.5917
 1820SOL     OW16921   0.152   1.134   5.182  0.2711 -0.1982 -0.2410
 1820SOL    HW116922   0.160   1.136   5.086 -1.6860  1.9947 -0.3469
 1820SOL    HW216923   0.182   1.222   5.202 -0.4115  0.2997 -1.4346
 1821SOL     OW16924   3.052   4.228   8.839  0.2253 -0.9429  0.0498
 1821SOL    HW116925   3.092   4.208   8.754 -0.2418  0.7501 -0.5712
 1821SOL    HW216926   2.977   4.168   8.834  0.1937 -1.0902  2.2539
 1822SOL     OW16927   3.629   3.322   6.391 -0.2822 -0.2940 -0.7133
 1822SOL    HW116928   3.594   3.262   6.457  0.8338 -0.8814 -0.6625
 1822SOL    HW216929   3.658   3.263   6.322 -1.7396 -0.2229 -1.3977
 1823SOL     OW16930   0.917   1.418  11.046  0.5144 -0.1706  0.0657
 1823SOL    HW116931   0.921   1.486  11.114  1.6060 -0.2148  0.0458
 1823SOL    HW216932   0.988   1.433  10.984  1.5466 -0.4241  1.2028
 1824SOL     OW16933   3.116   3.560   6.738  0.4241  0.1651  0.4060
 1824SOL    HW116934   3.083   3.519   6.818  0.0312 -0.2652  0.0272
 1824SOL    HW216935   3.041   3.568   6.678  0.9325 -2.0957 -0.5230
 1825SOL     OW16936   3.247   4.617   9.736 -0.2434 -0.1966  0.4485
 1825SOL    HW116937   3.263   4.563   9.659  1.2555 -0.3888  0.8858
 1825SOL    HW216938   3.288   4.698   9.704  0.7756  0.0899  2.5275
 1826SOL     OW16939   3.158   4.319   2.654 -0.2827 -0.3509 -0.1608
 1826SOL    HW116940   3.102   4.313   2.577 -1.5812 -0.1079  0.7644
 1826SOL    HW216941   3.246   4.329   2.619  0.5710 -3.7444  0.9767
 1827SOL     OW16942   2.358   0.576   7.715 -0.3020 -0.8456 -0.1537
 1827SOL    HW116943   2.264   0.572   7.698 -0.3198 -2.5888  0.4355
 1827SOL    HW216944   2.401   0.646   7.665 -1.2675  0.8350  1.3338
 1828SOL     OW16945   3.804   2.644   3.934  0.1108  0.1826 -0.4564
 1828SOL    HW116946   3.815   2.563   3.984 -0.8590  0.2796 -0.0856
 1828SOL    HW216947   3.887   2.652   3.887  0.5216 -1.4886 -0.0254
 1829SOL     OW16948   0.270   3.254   6.612  0.4437  0.2705 -0.0216
 1829SOL    HW116949   0.330   3.327   6.597  2.5328 -1.5248 -0.3311
 1829SOL    HW216950   0.214   3.254   6.534  2.7866 -1.2934 -1.7216
 1830SOL     OW16951   0.561   1.942  17.054 -0.1630 -0.4527  0.6383
 1830SOL    HW116952   0.566   1.969  16.962 -2.0556 -2.1779  0.0196
 1830SOL    HW216953   0.500   2.006  17.089 -0.2691 -0.5407  0.6129
 1831SOL     OW16954   4.004   0.257   0.666 -0.1957  0.4846  0.1082
 1831SOL    HW116955   4.062   0.220   0.733 -0.2935  0.4661  0.1811
 1831SOL    HW216956   3.917   0.244   0.703 -0.5362 -0.7915 -1.1861
 1832SOL     OW16957   3.695   1.431   6.185 -0.0955 -0.1021 -0.5755
 1832SOL    HW116958   3.789   1.442   6.205 -0.2891 -3.2234  1.9543
 1832SOL    HW216959   3.701   1.351   6.133  2.1168 -1.9230  2.4607
 1833SOL     OW16960   3.823   0.707  14.997  0.0138  0.2061  0.0906
 1833SOL    HW116961   3.788   0.628  14.955  1.5621 -0.5516  0.2356
 1833SOL    HW216962   3.917   0.700  14.980 -0.1518 -1.0741 -0.2560
 1834SOL     OW16963   3.858   4.584   0.660  0.2244 -0.1997 -0.3934
 1834SOL    HW116964   3.783   4.607   0.604  0.2749  0.6166 -0.1281
 1834SOL    HW216965   3.825   4.610   0.746 -1.1714 -0.3788 -0.8635
 1835SOL     OW16966   2.880   3.493  13.384 -0.5833  0.3420  0.5156
 1835SOL    HW116967   2.858   3.480  13.292 -0.6196  0.9138  0.4407
 1835SOL    HW216968   2.971   3.522  13.375 -1.0866  1.8651  0.2419
 1836SOL     OW16969   3.844   2.707   2.549 -0.1589 -0.6068  0.2453
 1836SOL    HW116970   3.756   2.731   2.521 -0.7170 -2.3549  0.4578
 1836SOL    HW216971   3.874   2.684   2.461 -0.9425 -4.2384  0.9117
 1837SOL     OW16972   0.609   2.759   1.920 -0.7688  0.0171  0.3483
 1837SOL    HW116973   0.641   2.822   1.984  0.9515 -1.4154  0.9262
 1837SOL    HW216974   0.621   2.676   1.967  2.2098  0.6146  0.6687
 1838SOL     OW16975   2.811   2.334   5.319  0.1424  0.2722 -0.3140
 1838SOL    HW116976   2.901   2.305   5.334 -0.0949  0.8802  2.3273
 1838SOL    HW216977   2.770   2.248   5.314 -1.2540  0.8980  0.5350
 1839SOL     OW16978   1.835   2.561  15.826  0.2314 -0.0936  0.2012
 1839SOL    HW116979   1.753   2.608  15.811  0.5167  0.5785  0.7192
 1839SOL    HW216980   1.839   2.484  15.770 -0.4178 -1.0127  1.4225
 1840SOL     OW16981   1.559   0.203   1.467 -0.6365  0.2608 -0.1820
 1840SOL    HW116982   1.635   0.259   1.448 -0.2760 -0.8753 -2.1508
 1840SOL    HW216983   1.595   0.150   1.538  1.0591  0.1258 -1.1227
 1841SOL     OW16984   2.558   1.242   4.252  0.6319  0.3089  0.1634
 1841SOL    HW116985   2.611   1.163   4.236  0.4965  0.4312 -0.8829
 1841SOL    HW216986   2.632   1.303   4.260  0.1279  0.7025  1.7904
 1842SOL     OW16987   2.632   0.440   4.314 -0.2397 -0.0070  0.1941
 1842SOL    HW116988   2.540   0.433   4.337 -0.5370  2.4641 -0.2310
 1842SOL    HW216989   2.669   0.379   4.378 -0.4608  0.1728  0.4933
 1843SOL     OW16990   0.587   0.985   8.542  0.8129  0.0817 -0.0022
 1843SOL    HW116991   0.611   0.925   8.472  1.9629  1.0262 -0.4342
 1843SOL    HW216992   0.565   0.916   8.605 -1.9825  0.4260 -0.6120
 1844SOL     OW16993   4.536   4.061   3.741  0.4056 -0.3914  0.5126
 1844SOL    HW116994   4.499   4.019   3.819 -1.3944  0.9442  0.3717
 1844SOL    HW216995   4.469   4.050   3.673 -0.9240 -0.9763  1.9023
 1845SOL     OW16996   1.196   2.461  15.198  0.1834  0.5280 -0.2662
 1845SOL    HW116997   1.232   2.397  15.259 -2.1398 -1.9132 -1.4689
 1845SOL    HW216998   1.272   2.515  15.179 -0.5589  2.1019  1.2009
 1846SOL     OW16999   1.135   2.840   7.165 -0.3366  0.4304 -0.1241
 1846SOL    HW117000   1.213   2.785   7.159 -1.0954 -0.8771  1.7619
 1846SOL    HW217001   1.113   2.832   7.258 -0.0622  0.2952 -0.0712
 1847SOL     OW17002   3.294   3.315   3.335  0.3061  0.0253 -0.1843
 1847SOL    HW117003   3.291   3.224   3.366 -0.0967 -0.5487 -1.9287
 1847SOL    HW217004   3.270   3.299   3.244 -3.1983  0.7431  0.6153
 1848SOL     OW17005   4.185   0.638   6.471 -0.0505 -0.2960  0.2653
 1848SOL    HW117006   4.108   0.679   6.431 -0.6485 -2.4705 -0.8204
 1848SOL    HW217007   4.218   0.590   6.395 -2.9273 -0.6898 -0.7287
 1849SOL     OW17008   1.140   0.288  12.693 -0.1652  0.1888  0.7579
 1849SOL    HW117009   1.174   0.328  12.773 -0.0895  0.5748  0.5280
 1849SOL    HW217010   1.200   0.323  12.628 -1.8871 -1.1690 -1.5743
 1850SOL     OW17011   4.100   2.592  13.319 -0.6250  0.1558 -0.3528
 1850SOL    HW117012   4.174   2.649  13.302  0.4901 -1.3733 -0.6249
 1850SOL    HW217013   4.039   2.651  13.364  0.3631  0.8227  0.0851
 1851SOL     OW17014   1.205   1.172  16.152  0.6255  0.2633 -0.1624
 1851SOL    HW117015   1.250   1.106  16.205 -0.3717  1.0821  1.7400
 1851SOL    HW217016   1.139   1.206  16.213 -0.5275 -1.5810 -0.3501
 1852SOL     OW17017   1.935   4.183   2.827  0.2642 -0.3333 -0.2043
 1852SOL    HW117018   1.980   4.246   2.770  1.1896 -0.0960  0.7985
 1852SOL    HW217019   1.940   4.225   2.913  0.4110 -1.1132  0.1600
 1853SOL     OW17020   3.463   4.359  11.966 -0.0783 -0.6351 -0.0041
 1853SOL    HW117021   3.528   4.299  11.927  1.1982  1.4281 -1.0315
 1853SOL    HW217022   3.520   4.433  11.987  2.6081 -2.9439  0.9006
 1854SOL     OW17023   2.225   2.461   1.814  0.0921 -0.1648  0.7303
 1854SOL    HW117024   2.289   2.405   1.858  0.4171  0.6167  1.2467
 1854SOL    HW217025   2.157   2.438   1.878 -1.4455  0.7913 -0.5370
 1855SOL     OW17026   0.476   2.610  10.741 -0.4905  0.0988  0.4258
 1855SOL    HW117027   0.480   2.700  10.774 -1.4377 -0.2723  1.5760
 1855SOL    HW217028   0.391   2.619  10.697 -0.2013 -1.2913 -0.3928
 1856SOL     OW17029   4.377   0.936  11.926  0.4073  0.8881  0.3967
 1856SOL    HW117030   4.439   0.992  11.974  0.2464  1.3090  0.1126
 1856SOL    HW217031   4.339   0.993  11.860  1.6053  1.3997  0.1428
 1857SOL     OW17032   1.699   1.911   4.228 -0.5442  0.5110 -0.3597
 1857SOL    HW117033   1.672   1.929   4.138  0.3771 -2.9114 -1.3567
 1857SOL    HW217034   1.779   1.962   4.243 -0.2224 -0.4768  1.2687
 1858SOL     OW17035   1.895   1.387   1.178 -0.1109 -0.1501  0.4156
 1858SOL    HW117036   1.958   1.318   1.158  0.4645  0.9652 -1.6241
 1858SOL    HW217037   1.855   1.374   1.092  1.5294  1.8202 -0.6422
 1859SOL     OW17038   3.097   1.693   9.348 -0.2047 -0.7471 -0.0601
 1859SOL    HW117039   3.113   1.693   9.442 -2.7366 -0.3332  0.3606
 1859SOL    HW217040   3.004   1.671   9.352 -0.5975  1.0434  0.6620
 1860SOL     OW17041   1.431   1.428   5.401  0.5041  0.2618  0.2281
 1860SOL    HW117042   1.499   1.373   5.439 -1.5356 -1.2284  1.7185
 1860SOL    HW217043   1.392   1.360   5.346  0.3456 -0.4597  1.2340
 1861SOL     OW17044   1.842   1.380   3.589  0.1118  0.1248  0.5665
 1861SOL    HW117045   1.841   1.361   3.495 -2.2007  1.9160  0.2324
 1861SOL    HW217046   1.747   1.389   3.591  0.2444  1.4972  0.3354
 1862SOL     OW17047   2.747   1.927   1.652 -0.1537 -0.2079 -0.1702
 1862SOL    HW117048   2.726   2.010   1.695  1.1926 -0.3802  0.8050
 1862SOL    HW217049   2.661   1.905   1.614 -0.1124 -0.1756 -0.2823
 1863SOL     OW17050   3.907   3.607  12.557 -0.0063  0.1388  0.4173
 1863SOL    HW117051   3.949   3.528  12.522 -0.5599 -0.2609  0.6586
 1863SOL    HW217052   3.821   3.581  12.525 -1.0599  2.2033  1.5654
 1864SOL     OW17053   2.317   2.540   3.732 -0.0239 -0.0289  0.2713
 1864SOL    HW117054   2.230   2.581   3.735  0.4765  1.0902 -0.2367
 1864SOL    HW217055   2.362   2.583   3.659 -1.4587  1.8369  0.4569
 1865SOL     OW17056   3.388   0.552   3.016  0.0051 -0.2058  0.5774
 1865SOL    HW117057   3.452   0.535   2.947 -1.7172  0.9734 -1.2940
 1865SOL    HW217058   3.349   0.636   2.989  0.0479 -0.6477 -0.8649
 1866SOL     OW17059   0.088   2.379   5.178  0.2119  0.2668  0.5406
 1866SOL    HW117060   4.721   2.399   5.148  0.6846  3.9843  1.6290
 1866SOL    HW217061   0.070   2.324   5.254 -0.1614 -1.1629 -0.5962
 1867SOL     OW17062   2.826   3.269   6.596  0.6105  0.3223  0.1997
 1867SOL    HW117063   2.804   3.309   6.512  1.7917  0.3743 -0.0808
 1867SOL    HW217064   2.787   3.182   6.583 -1.5382  2.1125 -5.0585
 1868SOL     OW17065   0.932   3.739   8.893  0.0098  0.4529 -0.0146
 1868SOL    HW117066   1.004   3.794   8.925 -0.2420  0.8969 -0.2162
 1868SOL    HW217067   0.954   3.657   8.938  0.7472  0.7703  0.2120
 1869SOL     OW17068   4.112   1.726   4.899 -0.2466  0.4078  0.3390
 1869SOL    HW117069   4.118   1.647   4.845 -0.4417 -0.7255  1.9609
 1869SOL    HW217070   4.196   1.768   4.881 -0.2793  0.9181  1.3854
 1870SOL     OW17071   2.984   3.168   4.715  0.1614 -0.6214 -0.0868
 1870SOL    HW117072   2.973   3.081   4.678  0.3280 -0.3079 -0.8650
 1870SOL    HW217073   2.959   3.224   4.641 -0.7518 -1.7196 -0.6067
 1871SOL     OW17074   2.263   4.684   2.178  0.2189  0.7957 -0.4202
 1871SOL    HW117075   2.279   4.628   2.254 -1.3603  0.5688 -0.2549
 1871SOL    HW217076   2.325   0.035   2.196  1.5341 -0.1962 -0.9502
 1872SOL     OW17077   3.917   0.766   8.195  0.8088 -0.2895  0.2920
 1872SOL    HW117078   3.929   0.857   8.219 -2.3627 -0.0663  0.9859
 1872SOL    HW217079   3.959   0.771   8.109 -0.9738  0.1310 -0.5439
 1873SOL     OW17080   4.240   4.118   9.521  0.0130 -0.0206  0.3455
 1873SOL    HW117081   4.236   4.058   9.595 -1.1157 -2.4975 -1.7335
 1873SOL    HW217082   4.302   4.187   9.545  0.9569 -0.4923 -0.7441
 1874SOL     OW17083   0.599   2.793   2.373 -0.7351  0.5345 -0.1932
 1874SOL    HW117084   0.623   2.842   2.452  1.7656  0.1093 -0.6768
 1874SOL    HW217085   0.547   2.725   2.417  0.6484 -0.4780 -0.1090
 1875SOL     OW17086   3.405   2.174  17.362 -0.2109  0.0629  0.2370
 1875SOL    HW117087   3.340   2.244  17.353 -1.0531 -1.0294 -1.8628
 1875SOL    HW217088   3.483   2.217  17.400  0.2894 -1.4570  0.9253
 1876SOL     OW17089   1.159   0.290   2.023 -0.9467  0.2073  0.3549
 1876SOL    HW117090   1.213   0.255   1.952 -1.4659  0.9232 -0.3857
 1876SOL    HW217091   1.106   0.356   1.979  0.3335  1.8000  1.1910
 1877SOL     OW17092   3.299   1.762   5.102 -0.1161 -0.2565 -0.4498
 1877SOL    HW117093   3.318   1.671   5.080 -0.1787  0.0152 -1.6644
 1877SOL    HW217094   3.223   1.747   5.157 -0.0579  0.6354 -0.1333
 1878SOL     OW17095   4.047   4.665   1.796 -0.3542  0.2975 -0.0958
 1878SOL    HW117096   4.003   4.616   1.865  0.2863  0.0959  0.1750
 1878SOL    HW217097   4.082   4.586   1.755 -0.3995  1.1559 -1.7531
 1879SOL     OW17098   1.754   4.149  17.218  0.1665  0.1885  0.4733
 1879SOL    HW117099   1.694   4.151  17.292 -1.0739 -3.0871 -0.4509
 1879SOL    HW217100   1.793   4.062  17.222  3.1353  1.4054 -1.6510
 1880SOL     OW17101   3.264   1.768   4.483 -0.1615  0.2015  0.6948
 1880SOL    HW117102   3.282   1.691   4.538 -2.1647 -0.9484 -0.2603
 1880SOL    HW217103   3.169   1.770   4.472 -0.0010 -3.1658 -1.3638
 1881SOL     OW17104   3.723   0.185   2.372 -0.3269 -0.2325 -0.7889
 1881SOL    HW117105   3.797   0.166   2.428  0.8703  2.3576 -1.4676
 1881SOL    HW217106   3.672   0.104   2.369 -0.5259 -0.0806 -1.7337
 1882SOL     OW17107   4.690   0.517   5.714  0.3796 -0.2914  0.5167
 1882SOL    HW117108   0.003   0.535   5.801  2.5850 -1.6095 -0.0572
 1882SOL    HW217109   4.691   0.421   5.709  0.4803 -0.2841  0.3792
 1883SOL     OW17110   3.721   2.080  11.532 -0.4586 -0.8602 -0.3652
 1883SOL    HW117111   3.794   2.083  11.469 -0.2074  0.6900 -0.0124
 1883SOL    HW217112   3.645   2.103  11.478 -0.8361 -1.1888  0.0299
 1884SOL     OW17113   2.983   1.519   4.815  0.2563 -0.3553 -0.2135
 1884SOL    HW117114   3.035   1.470   4.879 -2.9144  0.2542  2.8560
 1884SOL    HW217115   2.905   1.551   4.860  1.2537  2.8669 -0.7210
 1885SOL     OW17116   2.627   0.754   3.534 -0.5530  0.0515 -0.3165
 1885SOL    HW117117   2.671   0.725   3.454  0.3143 -0.0766  0.2047
 1885SOL    HW217118   2.698   0.780   3.592 -1.1237  2.7421 -0.7926
 1886SOL     OW17119   2.879   4.070   5.483 -0.3974 -0.4670 -0.8355
 1886SOL    HW117120   2.909   3.982   5.505 -1.6019 -0.3850  1.1852
 1886SOL    HW217121   2.859   4.053   5.391  1.3177  1.1453 -1.5048
 1887SOL     OW17122   4.615   2.869   2.669 -0.2388 -0.0854 -0.4011
 1887SOL    HW117123   4.647   2.897   2.755  0.2817  1.2409 -1.0170
 1887SOL    HW217124   4.648   2.779   2.665  2.4491  0.7469  2.6968
 1888SOL     OW17125   2.872   1.678   3.380 -0.6754 -0.0037 -0.6017
 1888SOL    HW117126   2.822   1.717   3.452 -0.0524  0.1192 -0.2406
 1888SOL    HW217127   2.940   1.639   3.435 -2.8075 -2.4918  0.3057
 1889SOL     OW17128   3.851   1.623   7.156  0.0327  0.2889 -0.5121
 1889SOL    HW117129   3.814   1.711   7.158 -0.3411  0.1096  0.6547
 1889SOL    HW217130   3.767   1.579   7.171  0.5570  0.5464  3.1300
 1890SOL     OW17131   0.181   3.030   1.891 -0.3159  0.2727 -0.3062
 1890SOL    HW117132   0.240   3.078   1.833 -1.7703  0.3070 -1.7358
 1890SOL    HW217133   0.239   2.956   1.910 -2.5888 -1.4632 -0.1235
 1891SOL     OW17134   3.520   0.192   6.255  0.0239 -0.5419  0.3833
 1891SOL    HW117135   3.575   0.135   6.308  0.6819  0.9582  1.3105
 1891SOL    HW217136   3.443   0.191   6.312  0.3622  2.3151  0.8853
 1892SOL     OW17137   0.966   0.164   7.369  0.3928  0.5460 -0.5438
 1892SOL    HW117138   0.904   0.124   7.429  0.4523 -0.5083 -1.1835
 1892SOL    HW217139   0.975   0.252   7.406 -0.1311  0.1344  0.5599
 1893SOL     OW17140   2.090   1.553   4.877 -0.0254  0.0416  0.0491
 1893SOL    HW117141   2.110   1.478   4.820  0.5150  0.8709 -0.8528
 1893SOL    HW217142   2.172   1.572   4.923  0.6335 -2.1935 -0.1932
 1894SOL     OW17143   2.545   0.585  11.874 -0.0622 -0.7327 -0.2955
 1894SOL    HW117144   2.483   0.522  11.911 -1.1102  0.3689 -0.1409
 1894SOL    HW217145   2.610   0.599  11.943 -2.0186  1.8423  1.0337
 1895SOL     OW17146   0.052   0.349   8.560 -0.0142 -0.0690 -0.4551
 1895SOL    HW117147   0.078   0.427   8.610 -0.0822 -2.0223  2.6342
 1895SOL    HW217148   0.050   0.386   8.472 -0.5047  1.4506  0.1886
 1896SOL     OW17149   2.046   1.986  14.163  0.4019 -0.1458  0.3984
 1896SOL    HW117150   1.988   1.926  14.210 -1.8151  1.7984  0.0854
 1896SOL    HW217151   1.971   2.038  14.135  0.0563 -0.6250  0.4287
 1897SOL     OW17152   1.031   4.679   4.528 -0.3013  0.1350 -0.4432
 1897SOL    HW117153   1.014   4.708   4.438 -0.7448 -1.0463 -0.7386
 1897SOL    HW217154   0.955   4.719   4.570  1.5747  2.7074  0.5557
 1898SOL     OW17155   4.648   1.841  13.557  0.3046 -0.1154 -0.2823
 1898SOL    HW117156   4.682   1.764  13.602  0.0551 -0.3417 -0.4818
 1898SOL    HW217157   4.662   1.902  13.629 -2.4770  0.8736 -0.5847
 1899SOL     OW17158   2.205   0.198   7.603 -0.0111 -0.3727 -0.0247
 1899SOL    HW117159   2.289   0.234   7.630  0.3463 -1.9142  0.9268
 1899SOL    HW217160   2.180   0.149   7.681 -0.4228  3.4125  2.2280
 1900SOL     OW17161   3.427   0.566  11.832 -0.1013 -0.2950 -0.0395
 1900SOL    HW117162   3.333   0.582  11.824  0.1402  1.1248 -0.2181
 1900SOL    HW217163   3.464   0.648  11.866 -0.7439 -0.7156  1.6741
 1901SOL     OW17164   1.477   2.264   2.689 -0.1774  0.5763  0.1949
 1901SOL    HW117165   1.557   2.316   2.691 -0.8361  1.6107 -0.3607
 1901SOL    HW217166   1.420   2.328   2.647 -2.7645 -0.2340  2.5077
 1902SOL     OW17167   4.449   3.356   8.497  0.2445  0.2105  0.5720
 1902SOL    HW117168   4.514   3.376   8.564  1.1049 -1.2822  0.1679
 1902SOL    HW217169   4.370   3.346   8.551 -0.3173  0.4413 -0.2026
 1903SOL     OW17170   1.419   3.400   4.652  0.3060 -0.3439 -0.0881
 1903SOL    HW117171   1.389   3.490   4.662 -3.0289 -1.4844 -0.0009
 1903SOL    HW217172   1.397   3.378   4.561 -1.2132  1.5285 -0.1707
 1904SOL     OW17173   3.778   0.972  16.979 -0.5968  0.0335 -0.3781
 1904SOL    HW117174   3.869   0.984  17.006 -0.6510 -1.1086  0.2853
 1904SOL    HW217175   3.733   0.995  17.061 -0.5146  2.7817 -1.0935
 1905SOL     OW17176   1.821   2.247   7.027 -0.2547 -0.4822 -0.1289
 1905SOL    HW117177   1.884   2.276   6.961  1.8622 -1.4977  1.4576
 1905SOL    HW217178   1.883   2.247   7.100  0.0351 -2.9831 -0.3637
 1906SOL     OW17179   4.495   0.901  11.449  0.5188 -0.1563 -0.1906
 1906SOL    HW117180   4.417   0.955  11.456  2.6605  2.5473  2.7497
 1906SOL    HW217181   4.488   0.855  11.533  1.7562  0.9942  0.5400
 1907SOL     OW17182   3.692   3.496   2.394 -0.4801  0.0608  0.0783
 1907SOL    HW117183   3.732   3.423   2.441 -0.0812  2.8790  4.1284
 1907SOL    HW217184   3.767   3.530   2.345 -0.1619  0.3466  0.7594
 1908SOL     OW17185   2.805   4.476   4.692 -0.3900 -0.5342  0.6397
 1908SOL    HW117186   2.740   4.542   4.717 -0.1638  0.3001 -1.0130
 1908SOL    HW217187   2.739   4.411   4.667  0.3056 -0.3378 -1.7167
 1909SOL     OW17188   0.471   4.424   3.373  0.0341  0.5144 -0.4323
 1909SOL    HW117189   0.477   4.435   3.278 -2.0614 -0.0544 -0.6191
 1909SOL    HW217190   0.515   4.507   3.395  2.4864 -1.3612  1.6894
 1910SOL     OW17191   1.166   3.536   5.559  0.8577 -0.5337  0.0809
 1910SOL    HW117192   1.170   3.626   5.592  0.6926  0.4078 -2.4762
 1910SOL    HW217193   1.130   3.485   5.632  0.6618 -0.2534  0.1816
 1911SOL     OW17194   2.605   3.859  17.286  0.0347  0.6860  0.3291
 1911SOL    HW117195   2.695   3.860  17.319 -0.0656 -1.8233  0.6566
 1911SOL    HW217196   2.552   3.858  17.366  0.7297 -0.4378  0.7785
 1912SOL     OW17197   1.313   2.791  14.212  0.0711  0.4243 -0.2084
 1912SOL    HW117198   1.358   2.744  14.143 -0.6445  1.4736 -1.3844
 1912SOL    HW217199   1.366   2.763  14.287 -0.5030 -1.0548 -0.3490
 1913SOL     OW17200   0.023   1.655   7.407 -0.7223  0.5502  0.2209
 1913SOL    HW117201   4.704   1.652   7.320  2.6734  1.5185 -1.3897
 1913SOL    HW217202   0.113   1.664   7.375 -0.9072  1.0022 -0.1827
 1914SOL     OW17203   1.417   4.661   7.513  0.4942 -0.1770  0.1762
 1914SOL    HW117204   1.508   4.647   7.539  0.0627 -3.0130  0.2075
 1914SOL    HW217205   1.387   4.678   7.603  0.8434 -0.2252  0.3007
 1915SOL     OW17206   1.109   3.820  12.472 -0.1409 -0.1610  0.0675
 1915SOL    HW117207   1.014   3.819  12.485 -0.1463 -0.7578 -0.0418
 1915SOL    HW217208   1.112   3.849  12.381 -3.4772 -0.5061 -0.1702
 1916SOL     OW17209   4.182   3.160  14.788 -0.0378  0.3757  0.3534
 1916SOL    HW117210   4.243   3.086  14.783 -3.1216 -2.0027 -2.0274
 1916SOL    HW217211   4.112   3.106  14.825 -0.8392 -0.6989 -2.7744
 1917SOL     OW17212   0.636   4.627   4.435  0.6202  0.3359 -0.3273
 1917SOL    HW117213   0.687   4.549   4.410 -0.3919 -0.1267 -0.9290
 1917SOL    HW217214   0.650   4.678   4.356 -0.2663  1.3075  0.1440
 1918SOL     OW17215   2.344   2.902   1.486 -0.2842 -0.4139  0.3926
 1918SOL    HW117216   2.280   2.917   1.556 -2.7504 -1.0139 -1.6892
 1918SOL    HW217217   2.336   2.806   1.480  2.5364 -0.4311 -2.5781
 1919SOL     OW17218   1.435   4.394   5.559  0.4524  0.3257 -0.2540
 1919SOL    HW117219   1.343   4.381   5.583  0.4204  2.1235  0.5831
 1919SOL    HW217220   1.423   4.482   5.522  0.0989 -0.1696 -1.3300
 1920SOL     OW17221   4.576   2.395   4.587  0.0696  0.1452 -0.3306
 1920SOL    HW117222   4.574   2.331   4.516 -0.1286  0.0341 -0.2257
 1920SOL    HW217223   4.525   2.466   4.550  1.5981  0.3348 -2.0557
 1921SOL     OW17224   2.893   1.305   3.414 -0.0653 -0.3975  0.9820
 1921SOL    HW117225   2.816   1.328   3.467 -1.2097 -0.3638 -0.6711
 1921SOL    HW217226   2.874   1.372   3.347  1.9160 -0.0656  0.7607
 1922SOL     OW17227   3.001   3.018   5.859  0.4443  0.4048  0.2810
 1922SOL    HW117228   3.051   3.096   5.833 -0.2459 -0.5516 -3.8853
 1922SOL    HW217229   2.924   3.059   5.898  0.7952 -0.0592  1.4515
 1923SOL     OW17230   2.142   3.024   8.174  0.0885  0.1912  0.2220
 1923SOL    HW117231   2.096   3.028   8.090 -0.5445 -1.3300  0.5040
 1923SOL    HW217232   2.202   3.098   8.166  2.3454 -1.5928  0.5618
 1924SOL     OW17233   3.616   4.443  11.692  0.1036 -0.1186  0.3221
 1924SOL    HW117234   3.524   4.419  11.688  0.1189 -0.0079 -0.6686
 1924SOL    HW217235   3.619   4.516  11.754 -3.3711  1.4613 -1.3854
 1925SOL     OW17236   3.208   0.773   6.106  0.7408  0.6438  0.0017
 1925SOL    HW117237   3.223   0.696   6.162  0.0944 -1.1415 -2.2964
 1925SOL    HW217238   3.298   0.789   6.079  1.2204  0.1694  1.2898
 1926SOL     OW17239   0.066   3.099   3.722  0.2513 -0.0669 -0.4426
 1926SOL    HW117240   4.720   3.129   3.784 -0.0094 -2.4771  0.4447
 1926SOL    HW217241   0.149   3.091   3.769 -0.3811  0.3317  0.7495
 1927SOL     OW17242   1.899   4.621   4.192 -0.0114 -0.0970  0.5490
 1927SOL    HW117243   1.985   4.592   4.163  0.5324  1.6659  0.3637
 1927SOL    HW217244   1.928   4.694   4.247  0.4505  0.1415 -0.0025
 1928SOL     OW17245   0.785   4.375   5.087 -0.0729 -0.8662 -0.0988
 1928SOL    HW117246   0.814   4.299   5.036  0.9971  0.7425 -1.8856
 1928SOL    HW217247   0.729   4.422   5.025  0.2580 -1.3013 -0.7257
 1929SOL     OW17248   3.309   4.232  12.993  0.2689  0.4513  0.2482
 1929SOL    HW117249   3.396   4.194  12.993 -0.2905 -0.8179  0.4143
 1929SOL    HW217250   3.259   4.153  12.973  0.3929  1.0161 -2.2982
 1930SOL     OW17251   3.072   0.679   6.683 -0.2209 -0.2856 -0.5364
 1930SOL    HW117252   2.978   0.677   6.700  0.0360 -1.7952  0.7343
 1930SOL    HW217253   3.112   0.680   6.771 -1.2225 -0.1733 -0.0887
 1931SOL     OW17254   3.980   2.152   4.358  0.6782 -0.1771  0.5128
 1931SOL    HW117255   3.939   2.236   4.341 -0.5897 -1.1603 -1.3264
 1931SOL    HW217256   4.017   2.134   4.271 -0.2592  0.3168  0.0067
 1932SOL     OW17257   0.396   3.602   8.836 -0.4031  0.2829  0.0923
 1932SOL    HW117258   0.460   3.648   8.782  0.6006  0.1768  1.2223
 1932SOL    HW217259   0.379   3.512   8.808 -1.5254  0.5525 -0.0931
 1933SOL     OW17260   1.547   0.556   8.988 -0.3073  0.0755  0.1082
 1933SOL    HW117261   1.641   0.555   9.007  0.3115  1.8455 -2.9649
 1933SOL    HW217262   1.499   0.520   9.063 -2.2280  1.3032 -0.5418
 1934SOL     OW17263   4.232   0.222  11.533  0.2545  0.0784  0.0772
 1934SOL    HW117264   4.290   0.296  11.549  1.3424 -0.5522 -0.9775
 1934SOL    HW217265   4.159   0.261  11.486  1.4865  0.4768 -1.4679
 1935SOL     OW17266   1.612   0.263   6.762  0.2851 -0.2743 -0.8286
 1935SOL    HW117267   1.525   0.222   6.765  0.6285 -0.9902 -0.7526
 1935SOL    HW217268   1.602   0.333   6.826 -1.8297 -2.8741  1.6570
 1936SOL     OW17269   1.804   1.789   1.820 -0.0537  0.0313  0.0622
 1936SOL    HW117270   1.891   1.752   1.805 -1.1446 -1.4664 -2.5990
 1936SOL    HW217271   1.758   1.705   1.817  0.5274 -0.2390 -1.4353
 1937SOL     OW17272   3.070   4.207   9.354  0.1322  0.1289 -0.7496
 1937SOL    HW117273   3.040   4.258   9.429 -0.0326 -1.8512  0.5441
 1937SOL    HW217274   3.048   4.118   9.382 -0.3785  0.5126  0.0704
 1938SOL     OW17275   1.422   1.150   2.258  0.1286  0.1661  0.4655
 1938SOL    HW117276   1.413   1.136   2.163  1.1838 -0.1356  0.4074
 1938SOL    HW217277   1.478   1.073   2.270  0.9649  0.6236 -0.4590
 1939SOL     OW17278   0.554   3.520  10.349 -0.3900 -0.0074  0.0918
 1939SOL    HW117279   0.632   3.496  10.399 -1.0304 -0.4309  0.9055
 1939SOL    HW217280   0.526   3.598  10.397  1.4849  2.2503 -2.5331
 1940SOL     OW17281   3.341   3.853   2.684  0.4576 -0.8154  0.0769
 1940SOL    HW117282   3.405   3.881   2.750 -1.4336  0.3902  1.4254
 1940SOL    HW217283   3.320   3.766   2.717  0.2684 -1.1431 -0.9380
 1941SOL     OW17284   2.538   2.695  10.328 -0.5447 -0.0742  0.5019
 1941SOL    HW117285   2.550   2.774  10.275  1.6152 -0.0779  0.9781
 1941SOL    HW217286   2.574   2.716  10.415  0.3698  2.2515 -0.4427
 1942SOL     OW17287   2.994   3.879   3.987  0.0864 -0.0009 -0.0928
 1942SOL    HW117288   3.078   3.836   3.974  1.7741  2.6962  1.8308
 1942SOL    HW217289   3.011   3.918   4.073  0.1553 -0.3046  0.0294
 1943SOL     OW17290   0.249   1.863  11.045 -0.0212 -0.8907 -0.4621
 1943SOL    HW117291   0.340   1.833  11.043  0.3879  0.3847 -0.7965
 1943SOL    HW217292   0.221   1.840  10.956 -2.5754 -0.6776  0.2623
 1944SOL     OW17293   3.580   4.515  14.216 -0.1750  0.1248  0.0059
 1944SOL    HW117294   3.587   4.598  14.263 -1.7364  0.6396 -0.6857
 1944SOL    HW217295   3.573   4.531  14.122  0.9566 -1.5018 -0.3570
 1945SOL     OW17296   3.320   2.972   0.172  0.4866 -0.3203  0.4299
 1945SOL    HW117297   3.252   3.039   0.176 -0.8666 -1.3751 -5.6500
 1945SOL    HW217298   3.323   2.952   0.266  2.4286  0.9489  0.6423
 1946SOL     OW17299   4.494   4.519   7.557  0.2514  0.1341 -0.0692
 1946SOL    HW117300   4.433   4.499   7.486  0.6666  1.6741 -0.8505
 1946SOL    HW217301   4.426   4.537   7.622 -1.2683  2.0843 -2.2007
 1947SOL     OW17302   3.964   4.182  13.555 -0.4138  0.4976 -0.7447
 1947SOL    HW117303   3.877   4.143  13.546  0.3516 -0.6448 -3.3419
 1947SOL    HW217304   3.993   4.162  13.644 -0.3060 -2.7758 -1.4870
 1948SOL     OW17305   1.258   1.060   0.621 -0.1218  0.1883  0.1387
 1948SOL    HW117306   1.314   1.115   0.676  0.9068  1.1084 -1.8092
 1948SOL    HW217307   1.191   1.125   0.603  0.1136  0.4556  0.2170
 1949SOL     OW17308   4.328   3.560  14.409 -0.7123 -0.3542 -0.3333
 1949SOL    HW117309   4.283   3.536  14.490 -0.1345 -2.4151 -0.6104
 1949SOL    HW217310   4.354   3.470  14.389  2.0271  0.7151 -1.6066
 1950SOL     OW17311   0.233   1.465   5.913  0.6269 -0.1404  0.2019
 1950SOL    HW117312   0.306   1.527   5.916  0.8545 -0.3848 -0.2277
 1950SOL    HW217313   0.276   1.390   5.955  2.2602  0.1265 -1.0210
 1951SOL     OW17314   2.175   0.920   4.660  0.0201 -0.2053 -0.0313
 1951SOL    HW117315   2.122   0.919   4.580 -1.8761 -0.0582  1.2208
 1951SOL    HW217316   2.118   0.880   4.727 -1.2547 -1.0755 -1.6363
 1952SOL     OW17317   0.232   0.438   5.183 -0.2935 -0.5059 -0.2664
 1952SOL    HW117318   0.237   0.374   5.254 -0.8406 -0.5496 -0.2739
 1952SOL    HW217319   0.147   0.476   5.203 -0.5584 -0.6994 -1.0226
 1953SOL     OW17320   2.468   0.334   5.977  0.7017  0.2390 -0.5383
 1953SOL    HW117321   2.438   0.347   5.887 -1.7260  0.3552  0.2995
 1953SOL    HW217322   2.387   0.346   6.025  0.0678  1.3063 -1.8823
 1954SOL     OW17323   3.468   4.385   6.410  0.4678  0.4278  0.2162
 1954SOL    HW117324   3.555   4.371   6.447  0.7587  1.7439 -0.0081
 1954SOL    HW217325   3.470   4.442   6.334 -0.9430  1.4972  0.9719
 1955SOL     OW17326   2.787   4.058   7.566 -0.2841 -0.2938 -0.1283
 1955SOL    HW117327   2.867   4.090   7.523  1.2754 -1.8471  1.6291
 1955SOL    HW217328   2.833   4.028   7.645 -0.8642  1.0312  0.7294
 1956SOL     OW17329   1.316   1.134   4.275 -0.4094  0.2908  0.5361
 1956SOL    HW117330   1.248   1.198   4.297 -0.1296  0.5115  0.7689
 1956SOL    HW217331   1.388   1.161   4.332 -1.3333 -1.0360  2.3613
 1957SOL     OW17332   1.318   2.348   4.429  0.4228 -0.0027  0.5527
 1957SOL    HW117333   1.252   2.293   4.471 -0.0579  0.9530  1.0486
 1957SOL    HW217334   1.308   2.425   4.486  0.3417 -0.4732  1.1752
 1958SOL     OW17335   1.685   1.907   2.223 -0.5232 -0.5448 -0.2948
 1958SOL    HW117336   1.733   1.851   2.284 -0.5367 -1.4756 -1.1362
 1958SOL    HW217337   1.662   1.972   2.289 -0.6547  0.7064 -1.5843
 1959SOL     OW17338   0.785   0.486   5.164  0.1340  0.0766  0.3360
 1959SOL    HW117339   0.729   0.561   5.144  0.0435  0.2349  1.1879
 1959SOL    HW217340   0.785   0.444   5.078 -2.6348  0.8485 -0.0475
 1960SOL     OW17341   4.007   0.567   5.510 -0.6629 -0.4364 -0.2761
 1960SOL    HW117342   3.945   0.496   5.527 -2.4047  1.4142  1.1330
 1960SOL    HW217343   4.085   0.515   5.491 -0.4267 -0.2340  0.1443
 1961SOL     OW17344   4.360   1.880  13.228  0.6024 -0.1110 -0.4384
 1961SOL    HW117345   4.410   1.958  13.201 -2.1948  0.6682 -3.2930
 1961SOL    HW217346   4.276   1.906  13.190  1.1518  1.1372 -0.8185
 1962SOL     OW17347   1.363   3.245   5.245  0.0796  0.2029  0.7130
 1962SOL    HW117348   1.426   3.178   5.273  1.2135  0.3910 -1.3793
 1962SOL    HW217349   1.378   3.316   5.306 -0.3715  0.7285  0.2140
 1963SOL     OW17350   2.876   3.590   5.824 -0.9776  0.5800 -0.4581
 1963SOL    HW117351   2.830   3.659   5.873  1.5731  2.1323 -0.2218
 1963SOL    HW217352   2.801   3.532   5.824 -1.2513  0.9338 -0.3469
 1964SOL     OW17353   1.951   2.540  14.606 -0.2642 -0.4951 -0.2594
 1964SOL    HW117354   2.037   2.517  14.572  0.3059  1.1290  0.0868
 1964SOL    HW217355   1.971   2.569  14.695 -2.4138 -0.4314  0.2117
 1965SOL     OW17356   0.792   0.657   9.127 -0.1062  0.5458 -0.0295
 1965SOL    HW117357   0.750   0.581   9.167  0.4959  0.2403  0.0155
 1965SOL    HW217358   0.848   0.610   9.066  0.2768 -1.9773  2.2714
 1966SOL     OW17359   1.318   1.244  13.535 -0.4648 -0.4821 -0.0507
 1966SOL    HW117360   1.288   1.308  13.599  1.7331  1.1371 -0.6590
 1966SOL    HW217361   1.323   1.164  13.587  0.2712 -0.3149  0.1447
 1967SOL     OW17362   2.654   1.344   2.501 -0.0400 -0.4286 -0.1057
 1967SOL    HW117363   2.662   1.414   2.566 -3.2610 -1.2542  1.1714
 1967SOL    HW217364   2.740   1.345   2.458 -0.3561  1.8014 -0.7025
 1968SOL     OW17365   2.393   2.629   5.447 -0.1139  0.3303 -0.3394
 1968SOL    HW117366   2.417   2.541   5.416 -2.3930 -0.7696  0.9880
 1968SOL    HW217367   2.301   2.645   5.423 -0.1501  2.9038  1.6026
 1969SOL     OW17368   1.475   1.145   4.519  0.1162  0.3045  0.0817
 1969SOL    HW117369   1.422   1.073   4.553  0.3512 -0.0831 -0.3857
 1969SOL    HW217370   1.432   1.219   4.563  0.5989  0.8676 -0.3891
 1970SOL     OW17371   4.521   2.437   3.550 -0.2252  0.5699 -0.2266
 1970SOL    HW117372   4.553   2.498   3.616  0.0807 -0.2580  0.3909
 1970SOL    HW217373   4.584   2.365   3.555 -0.4961  0.3732  0.3867
 1971SOL     OW17374   2.345   4.396   5.445 -0.4785 -0.0318  0.3869
 1971SOL    HW117375   2.311   4.417   5.532  1.2668  0.3015  0.9829
 1971SOL    HW217376   2.316   4.306   5.433  0.0537 -0.3567  1.5591
 1972SOL     OW17377   1.492   4.618  16.687 -0.1356 -0.3753  0.0527
 1972SOL    HW117378   1.420   4.555  16.691  0.8485 -1.2772  3.2634
 1972SOL    HW217379   1.569   4.568  16.660  0.2233  0.0783  0.2475
 1973SOL     OW17380   0.551   1.820   6.928 -0.1494 -0.0145 -0.0404
 1973SOL    HW117381   0.571   1.734   6.891 -2.6255  0.2527 -1.9984
 1973SOL    HW217382   0.616   1.878   6.888 -0.7982  1.4875  1.0906
 1974SOL     OW17383   2.193   4.126   0.015  0.0110 -0.3388 -0.5589
 1974SOL    HW117384   2.173   4.067  17.628 -1.0745  4.3176 -4.0227
 1974SOL    HW217385   2.269   4.083   0.054 -0.6159 -0.5360  0.4410
 1975SOL     OW17386   1.755   4.306  10.495 -0.3661 -0.1829  0.3078
 1975SOL    HW117387   1.772   4.233  10.435  2.3227  1.3687 -0.8350
 1975SOL    HW217388   1.823   4.294  10.561 -0.0559  1.5793  0.3237
 1976SOL     OW17389   1.313   3.632  13.432 -0.2572 -0.9333  0.1265
 1976SOL    HW117390   1.278   3.557  13.384 -1.9308  0.3523 -0.6700
 1976SOL    HW217391   1.344   3.688  13.361  0.3105 -0.5139  0.7119
 1977SOL     OW17392   3.732   0.011   9.167 -0.2378  0.5828  0.5328
 1977SOL    HW117393   3.751   4.638   9.170  0.5767  0.6709 -1.6961
 1977SOL    HW217394   3.820   0.042   9.187 -0.1688 -1.0157  2.7598
 1978SOL     OW17395   0.351   3.672   5.992 -0.7332  0.4363  0.2182
 1978SOL    HW117396   0.390   3.604   5.937 -3.1381  0.2477 -1.2362
 1978SOL    HW217397   0.360   3.632   6.078 -1.4107  0.0700  0.1183
 1979SOL     OW17398   1.762   0.928  17.581 -0.3990  0.4752 -0.5568
 1979SOL    HW117399   1.686   0.889  17.624 -0.1087  0.2486 -0.2569
 1979SOL    HW217400   1.772   0.861  17.513  1.4848 -0.7847  0.9956
 1980SOL     OW17401   3.377   3.731   2.110  0.2910  0.6618  0.1612
 1980SOL    HW117402   3.367   3.789   2.185  1.9737 -0.3167  1.1559
 1980SOL    HW217403   3.424   3.784   2.046 -2.0633  1.6614 -0.7247
 1981SOL     OW17404   1.595   3.077  12.803 -0.1344  0.0389  0.2780
 1981SOL    HW117405   1.599   3.068  12.898  3.3370 -2.4736 -0.0959
 1981SOL    HW217406   1.510   3.117  12.788  0.0548  0.1115 -0.6032
 1982SOL     OW17407   4.604   1.335  10.983  0.3268  0.3579  0.4901
 1982SOL    HW117408   4.572   1.258  11.031 -3.6926  1.7703  0.0095
 1982SOL    HW217409   4.573   1.407  11.037  2.5912  4.0403 -3.1160
 1983SOL     OW17410   4.459   2.528  12.968  0.1286  0.3198  0.3474
 1983SOL    HW117411   4.371   2.491  12.967  0.2482  0.0563 -0.1593
 1983SOL    HW217412   4.459   2.578  12.886  3.0417 -0.9300 -0.4405
 1984SOL     OW17413   3.536   3.783   6.421 -0.0139  0.0972  0.2339
 1984SOL    HW117414   3.502   3.872   6.424  1.5081  0.7722 -2.5784
 1984SOL    HW217415   3.480   3.740   6.486  0.9747 -0.6238  0.6091
 1985SOL     OW17416   3.433   1.731   8.350 -0.0433 -0.2266  0.2908
 1985SOL    HW117417   3.508   1.773   8.308  0.5291 -0.2078  1.3387
 1985SOL    HW217418   3.393   1.811   8.383  1.3196 -0.5592  2.7185
 1986SOL     OW17419   1.169   1.356   3.354 -0.7295  0.9001 -0.3458
 1986SOL    HW117420   1.240   1.327   3.412 -0.6238  0.2528 -0.8009
 1986SOL    HW217421   1.127   1.271   3.339  1.3897 -0.4169  1.0553
 1987SOL     OW17422   1.916   2.346   0.873  0.1669 -0.1745  0.1327
 1987SOL    HW117423   2.006   2.340   0.904  0.2259  3.8158  0.7439
 1987SOL    HW217424   1.928   2.432   0.832  0.1991 -0.3714 -0.2723
 1988SOL     OW17425   3.727   4.235   2.760  0.3696  0.0111 -0.3180
 1988SOL    HW117426   3.721   4.141   2.778  1.7504  0.2318  1.2453
 1988SOL    HW217427   3.691   4.269   2.842  1.0084  0.2288 -0.1302
 1989SOL     OW17428   0.196   0.508  16.413  0.3208  0.5926 -0.3644
 1989SOL    HW117429   0.242   0.581  16.371  1.6455 -0.0737 -0.0735
 1989SOL    HW217430   0.181   0.457  16.333 -0.7194 -1.1270  0.9320
 1990SOL     OW17431   4.421   3.746  11.361  0.5414  0.0986 -0.6877
 1990SOL    HW117432   4.417   3.654  11.386  1.2874  0.0197 -0.8482
 1990SOL    HW217433   4.516   3.758  11.366  0.8941 -3.0584  0.3430
 1991SOL     OW17434   2.472   0.171   2.029  0.3733 -0.0842  0.3359
 1991SOL    HW117435   2.408   0.133   1.970  0.5268 -2.0505  1.3975
 1991SOL    HW217436   2.531   0.220   1.972  0.0079  1.3543  1.1852
 1992SOL     OW17437   3.020   4.717   1.037  0.3121  0.0202 -0.5178
 1992SOL    HW117438   3.097   4.672   1.070 -0.4549 -1.7420 -1.1166
 1992SOL    HW217439   2.954   4.653   1.063  1.7940 -0.8036  1.1576
 1993SOL     OW17440   2.382   2.110  17.204 -0.4329 -0.4507  0.1597
 1993SOL    HW117441   2.381   2.019  17.237  2.0497 -0.7773 -0.7058
 1993SOL    HW217442   2.303   2.142  17.247 -0.1524 -0.6365  0.8225
 1994SOL     OW17443   2.322   2.827   4.817  0.0205  0.4264 -0.4241
 1994SOL    HW117444   2.403   2.818   4.867  0.6419  0.9704 -1.3244
 1994SOL    HW217445   2.317   2.737   4.787  0.7706 -0.7803  3.0947
 1995SOL     OW17446   4.164   0.524   2.004  0.4039  0.8240  0.1575
 1995SOL    HW117447   4.208   0.444   1.976  0.7584  1.0472  0.0813
 1995SOL    HW217448   4.160   0.510   2.099 -0.0392 -0.7746 -0.0972
 1996SOL     OW17449   0.057   1.432   2.558 -0.4726  0.2517  0.2391
 1996SOL    HW117450   0.047   1.350   2.509  1.4071  1.6556 -2.5137
 1996SOL    HW217451   0.070   1.493   2.485 -0.5570  1.2952  1.0977
 1997SOL     OW17452   2.315   3.044   6.152  0.1809  0.6119  0.1743
 1997SOL    HW117453   2.285   3.124   6.109  0.7253  1.2446  0.9550
 1997SOL    HW217454   2.249   2.987   6.113 -0.3559  0.0015  1.9501
 1998SOL     OW17455   0.646   3.990   5.094 -0.5808 -0.1003 -0.7418
 1998SOL    HW117456   0.636   3.967   5.186 -1.1854  1.2311 -0.4778
 1998SOL    HW217457   0.739   4.010   5.092 -0.3490 -1.1156  0.0891
 1999SOL     OW17458   2.360   2.317   2.393 -0.6521 -0.7821 -0.3962
 1999SOL    HW117459   2.424   2.278   2.333  0.0205 -0.6911  0.2669
 1999SOL    HW217460   2.421   2.370   2.445 -0.0173 -0.6417 -1.2740
 2000SOL     OW17461   1.209   3.006   5.156  0.5362  0.9625 -0.1026
 2000SOL    HW117462   1.248   3.074   5.210  0.4326  0.5683  0.4614
 2000SOL    HW217463   1.278   3.006   5.089  0.0556  0.8011 -0.5976
 2001SOL     OW17464   4.365   1.235   2.359  0.2840  0.2543  0.3065
 2001SOL    HW117465   4.398   1.296   2.294  0.5925 -1.5652 -1.2407
 2001SOL    HW217466   4.444   1.219   2.410  1.3868  1.4780 -1.0505
 2002SOL     OW17467   3.202   2.358   9.703 -0.0431  0.1957 -0.5449
 2002SOL    HW117468   3.155   2.343   9.786  0.8865 -3.2799 -0.6475
 2002SOL    HW217469   3.280   2.304   9.715 -0.2289 -0.4369 -2.2848
 2003SOL     OW17470   2.905   2.620  12.276 -0.6530  0.1165  0.0412
 2003SOL    HW117471   2.897   2.552  12.209  0.2366  0.4312 -0.3817
 2003SOL    HW217472   2.894   2.698  12.221  0.9983 -1.2732 -2.2864
 2004SOL     OW17473   2.270   2.253   8.298  0.0949 -0.3414  0.3757
 2004SOL    HW117474   2.352   2.293   8.271  0.1849 -1.6917 -1.3343
 2004SOL    HW217475   2.211   2.329   8.295  1.3887  0.6217 -0.4652
 2005SOL     OW17476   2.014   2.837   7.533  0.0756 -0.3044  0.0830
 2005SOL    HW117477   1.973   2.922   7.516  1.8895  0.6547  0.5876
 2005SOL    HW217478   1.940   2.781   7.509  0.7745 -0.6269 -1.3059
 2006SOL     OW17479   2.802   0.082   6.839 -0.0152  0.2113  1.0971
 2006SOL    HW117480   2.752   0.073   6.921 -0.3559  1.9184  1.0665
 2006SOL    HW217481   2.722   0.083   6.787 -0.4916  1.1907  1.8370
 2007SOL     OW17482   3.807   2.880   7.195  0.2956 -0.1243 -0.1135
 2007SOL    HW117483   3.760   2.869   7.278  0.4307 -0.3534 -0.0662
 2007SOL    HW217484   3.891   2.915   7.225 -0.3550 -1.3501  3.2208
 2008SOL     OW17485   0.408   0.081   8.434  0.5261  0.1652 -0.2675
 2008SOL    HW117486   0.388   0.123   8.350  1.1640  1.9750  0.4768
 2008SOL    HW217487   0.393   4.709   8.420 -0.9856  0.4594 -0.6278
 2009SOL     OW17488   0.509   4.245  13.616 -0.0068  0.2083  0.0374
 2009SOL    HW117489   0.453   4.171  13.595  0.0751  0.2413 -0.2994
 2009SOL    HW217490   0.451   4.321  13.626  0.5491  0.4348  1.6462
 2010SOL     OW17491   1.021   3.296   1.132  0.0068 -0.4374 -0.0084
 2010SOL    HW117492   0.962   3.276   1.059  0.5117 -0.6621 -0.3539
 2010SOL    HW217493   0.977   3.370   1.175  1.0777  0.3340 -0.2517
 2011SOL     OW17494   0.945   3.800  11.740 -0.0268 -0.1589  0.2050
 2011SOL    HW117495   0.949   3.871  11.675  2.7039  0.1546  0.7505
 2011SOL    HW217496   1.025   3.810  11.790  0.2222  0.1601 -0.2530
 2012SOL     OW17497   0.437   0.369   4.337 -0.2728 -0.0989 -0.0204
 2012SOL    HW117498   0.444   0.292   4.280 -0.7972  0.3691 -0.7111
 2012SOL    HW217499   0.513   0.359   4.396 -0.2678 -0.1926 -0.0428
 2013SOL     OW17500   0.550   3.797  13.498  0.2322 -0.2790 -0.6628
 2013SOL    HW117501   0.618   3.860  13.478  0.1150 -0.3187 -1.1922
 2013SOL    HW217502   0.574   3.765  13.585  0.1798  0.5997 -0.3257
 2014SOL     OW17503   0.287   1.349   7.235  0.0132 -0.1199  0.0762
 2014SOL    HW117504   0.325   1.425   7.189 -0.1223  0.0804  0.2937
 2014SOL    HW217505   0.333   1.275   7.198  2.0351  1.2788 -0.1998
 2015SOL     OW17506   2.935   2.821   8.685 -0.4786 -0.2380 -0.3248
 2015SOL    HW117507   2.981   2.858   8.760  0.0490  0.5364 -1.0243
 2015SOL    HW217508   2.856   2.782   8.721  0.6371 -1.6248  0.6322
 2016SOL     OW17509   3.339   2.024   4.424  0.1166  0.5665  0.6421
 2016SOL    HW117510   3.324   1.933   4.449 -0.5431  0.6591  0.6018
 2016SOL    HW217511   3.307   2.018   4.334  0.9967  1.4153  0.2690
 2017SOL     OW17512   0.843   2.325   0.371  1.1531 -0.4836  0.0921
 2017SOL    HW117513   0.889   2.358   0.448  0.6887 -1.1116  0.6356
 2017SOL    HW217514   0.848   2.403   0.315 -1.4304 -1.2094 -1.1923
 2018SOL     OW17515   2.569   4.018  15.019  0.6687  0.1450  0.1772
 2018SOL    HW117516   2.519   4.086  15.064  0.9234  0.1128  0.5160
 2018SOL    HW217517   2.650   4.067  15.008 -0.1126  0.9115 -2.0965
 2019SOL     OW17518   0.624   3.721   4.959 -0.8090  0.3916  0.1910
 2019SOL    HW117519   0.676   3.662   5.015  1.6548  3.1953  0.8001
 2019SOL    HW217520   0.612   3.802   5.009  1.6504  0.1847  1.0811
 2020SOL     OW17521   4.166   0.815   3.535  0.0868  0.5578 -0.6464
 2020SOL    HW117522   4.209   0.741   3.492  2.7603  1.3233  0.6913
 2020SOL    HW217523   4.231   0.842   3.600 -2.0520  3.0944  0.4230
 2021SOL     OW17524   3.949   1.088  16.478  0.0752 -0.4298  0.0976
 2021SOL    HW117525   4.034   1.060  16.446  0.0560 -2.0488  1.4959
 2021SOL    HW217526   3.968   1.139  16.557 -0.8646 -0.9803  0.6815
 2022SOL     OW17527   3.069   0.086   6.937  0.2328 -0.1282  0.9479
 2022SOL    HW117528   3.103   0.175   6.942  1.7229 -0.6022 -0.6407
 2022SOL    HW217529   2.975   0.105   6.935  0.0236 -1.1917  0.6805
 2023SOL     OW17530   3.800   1.940   9.229  0.2389  0.1052 -0.3731
 2023SOL    HW117531   3.718   1.919   9.185 -0.1498 -1.4611  1.1109
 2023SOL    HW217532   3.810   2.035   9.243  0.8850 -0.1298  0.8164
 2024SOL     OW17533   4.025   1.831  14.794  0.3783  0.3794 -0.5158
 2024SOL    HW117534   4.067   1.786  14.721  0.2900  0.8887 -0.8783
 2024SOL    HW217535   4.068   1.784  14.865  0.0074 -1.0486 -1.2382
 2025SOL     OW17536   2.163   3.775   1.684 -0.0498 -0.1316  0.1298
 2025SOL    HW117537   2.238   3.741   1.733 -0.6150  0.0650  1.1334
 2025SOL    HW217538   2.178   3.869   1.682 -0.2596 -0.0877  0.6516
 2026SOL     OW17539   4.720   2.597   4.327 -0.3030 -0.3967  0.2493
 2026SOL    HW117540   0.089   2.574   4.350  0.2344  0.8010 -0.6591
 2026SOL    HW217541   4.684   2.514   4.295 -0.2036 -1.3375  2.6126
 2027SOL     OW17542   3.110   4.667   0.788 -0.9070 -0.0781 -0.1412
 2027SOL    HW117543   3.075   4.713   0.865 -4.6713  0.4832 -2.1767
 2027SOL    HW217544   3.135   4.585   0.831 -0.1943  0.0128 -0.3821
 2028SOL     OW17545   0.265   2.492   5.019  0.2826  0.4320 -0.0097
 2028SOL    HW117546   0.191   2.443   5.054 -0.9998  1.1606 -1.7100
 2028SOL    HW217547   0.254   2.506   4.925  1.7667  0.6004 -0.1685
 2029SOL     OW17548   0.527   3.810   8.681 -0.0380  0.0646  0.0088
 2029SOL    HW117549   0.511   3.901   8.658  0.2648 -0.5040 -2.4323
 2029SOL    HW217550   0.614   3.807   8.643 -0.6254 -0.6139 -1.2701
 2030SOL     OW17551   3.424   3.028   7.880  0.0226  0.0095  0.3195
 2030SOL    HW117552   3.422   2.933   7.892 -1.3525  0.0235  0.2076
 2030SOL    HW217553   3.460   3.026   7.791 -0.4278  1.0861  0.1061
 2031SOL     OW17554   2.095   0.793   3.954 -0.3232 -1.0629  0.6036
 2031SOL    HW117555   2.178   0.818   3.913 -0.3232 -0.7323  0.8019
 2031SOL    HW217556   2.051   0.874   3.981  2.4146  0.3831  0.8099
 2032SOL     OW17557   3.827   0.296   2.143  0.0831  0.2629  0.2942
 2032SOL    HW117558   3.790   0.253   2.220 -0.6809  0.0192 -0.2067
 2032SOL    HW217559   3.770   0.370   2.122 -0.1761 -0.0724 -0.1855
 2033SOL     OW17560   0.033   1.566   6.081 -0.2754 -0.8432 -0.3855
 2033SOL    HW117561   0.095   1.525   6.022 -0.8024  2.0733 -2.9912
 2033SOL    HW217562   4.696   1.491   6.089 -3.4109  1.2676 -3.4732
 2034SOL     OW17563   3.684   2.173  15.893  0.2602 -0.2123 -0.6186
 2034SOL    HW117564   3.596   2.164  15.854 -0.4220 -0.3089  0.9632
 2034SOL    HW217565   3.682   2.099  15.954 -0.9699 -0.1459 -0.5808
 2035SOL     OW17566   0.081   0.638   5.482  0.8450 -0.4449 -0.3567
 2035SOL    HW117567   0.063   0.721   5.527  1.9223  0.0225 -0.7747
 2035SOL    HW217568   0.064   0.584   5.559  2.5307  0.0697  0.3908
 2036SOL     OW17569   1.728   3.642   7.470  0.0573  0.0552  0.5016
 2036SOL    HW117570   1.783   3.706   7.423  1.5008 -0.0729  2.0051
 2036SOL    HW217571   1.700   3.581   7.401  3.4493  1.2478 -1.9323
 2037SOL     OW17572   3.195   4.295   7.519  0.3755  0.6460 -0.3325
 2037SOL    HW117573   3.256   4.355   7.476  0.8424  1.0285  0.8453
 2037SOL    HW217574   3.240   4.253   7.592  0.5363  2.2090  0.4642
 2038SOL     OW17575   4.073   1.878   5.985 -0.0449 -0.1709  0.4417
 2038SOL    HW117576   4.012   1.940   6.026  2.8530  3.2595 -0.3921
 2038SOL    HW217577   4.022   1.817   5.933 -1.9718  0.8824  1.0520
 2039SOL     OW17578   0.609   4.188   8.988 -0.4531  0.5051 -0.1591
 2039SOL    HW117579   0.605   4.094   8.970  1.7159  0.4005 -0.0962
 2039SOL    HW217580   0.703   4.205   8.986 -0.1727 -0.6520  3.1917
 2040SOL     OW17581   0.002   3.682   6.674  1.4728  0.2015 -0.3003
 2040SOL    HW117582   0.092   3.654   6.655  1.2240 -0.8787  0.1308
 2040SOL    HW217583   4.720   3.763   6.622  0.1022  0.8007  0.7173
 2041SOL     OW17584   1.722   4.495  10.936  0.0742 -0.0729 -0.4826
 2041SOL    HW117585   1.670   4.553  10.992 -0.1412  0.7659 -1.5439
 2041SOL    HW217586   1.651   4.467  10.878 -0.3615 -1.0424  0.5243
 2042SOL     OW17587   4.252   2.453   5.885  0.2356  0.3099  0.3113
 2042SOL    HW117588   4.283   2.385   5.826 -1.1405  1.6732 -1.9811
 2042SOL    HW217589   4.269   2.405   5.966  1.0139  1.6340  0.9237
 2043SOL     OW17590   1.044   2.094   8.494  0.1897  0.0521 -0.2305
 2043SOL    HW117591   1.097   2.069   8.569  2.2530  4.5617 -0.1734
 2043SOL    HW217592   0.958   2.064   8.523  0.8786  0.0443  1.7884
 2044SOL     OW17593   4.271   4.017   4.288 -0.2905  0.1039  0.0173
 2044SOL    HW117594   4.295   3.971   4.368 -0.2881  1.4930  0.8238
 2044SOL    HW217595   4.270   3.950   4.221  0.3718 -0.2631  0.3730
 2045SOL     OW17596   1.766   1.921   4.781  0.2053  0.9929 -0.1447
 2045SOL    HW117597   1.798   1.859   4.846 -1.0794  0.1464 -0.3339
 2045SOL    HW217598   1.676   1.889   4.773  0.8447 -1.0288  0.9627
 2046SOL     OW17599   4.483   0.770   3.093 -0.4767  0.0864 -0.0429
 2046SOL    HW117600   4.424   0.808   3.159 -1.1786  0.4894 -0.9001
 2046SOL    HW217601   4.538   0.714   3.147 -0.0744 -0.2844 -0.8489
 2047SOL     OW17602   1.161   2.140  11.202  0.5052  0.0840  0.1087
 2047SOL    HW117603   1.111   2.085  11.142  0.1846 -1.1888  1.5415
 2047SOL    HW217604   1.129   2.115  11.289  0.0076 -0.2350 -0.1722
 2048SOL     OW17605   0.051   3.250   8.301 -0.6087 -0.2195 -0.4035
 2048SOL    HW117606   0.056   3.340   8.270 -0.6024 -0.2474 -0.4837
 2048SOL    HW217607   0.003   3.199   8.235  1.8437 -0.9812 -1.6024
 2049SOL     OW17608   2.519   2.964   9.300  0.2550  0.2923 -0.0426
 2049SOL    HW117609   2.448   2.907   9.270  0.6564 -0.0629 -0.3181
 2049SOL    HW217610   2.524   3.030   9.230  0.7273  0.8312  0.5000
 2050SOL     OW17611   2.247   4.489   7.169 -0.3492  0.0183 -0.0220
 2050SOL    HW117612   2.218   4.574   7.203 -1.5532  0.1315 -1.2922
 2050SOL    HW217613   2.207   4.493   7.082 -1.0340  2.5294  0.4118
 2051SOL     OW17614   4.097   3.874   2.318 -0.1865  0.4575 -0.1538
 2051SOL    HW117615   4.017   3.926   2.316 -0.5855 -0.0887  1.3440
 2051SOL    HW217616   4.155   3.922   2.259 -0.4682 -1.3933 -1.9400
 2052SOL     OW17617   2.271   0.320  12.861 -0.5767  0.3128 -0.0273
 2052SOL    HW117618   2.356   0.333  12.905 -1.4198 -1.2097  2.0207
 2052SOL    HW217619   2.289   0.336  12.768 -2.1386  0.3439 -0.3229
 2053SOL     OW17620   4.682   1.434   9.325 -0.2512  0.4676  0.5177
 2053SOL    HW117621   0.032   1.442   9.261 -0.7818 -0.4304 -0.1848
 2053SOL    HW217622   4.678   1.526   9.352  2.7578  0.7426  0.0970
 2054SOL     OW17623   1.181   0.618   6.159 -0.1772 -0.1487  0.5579
 2054SOL    HW117624   1.174   0.668   6.078 -2.5066 -1.0601  0.1839
 2054SOL    HW217625   1.089   0.595   6.174 -0.3853 -0.0410 -0.5812
 2055SOL     OW17626   0.593   1.502   3.346 -0.1066  0.0544  0.0401
 2055SOL    HW117627   0.501   1.485   3.366 -0.1447 -0.9753 -1.0188
 2055SOL    HW217628   0.618   1.428   3.291 -1.3830 -0.3431 -0.0133
 2056SOL     OW17629   0.506   0.726  13.079  0.7579 -0.5308  0.0675
 2056SOL    HW117630   0.452   0.774  13.142 -0.6348 -2.5678  0.4383
 2056SOL    HW217631   0.466   0.639  13.080  1.5255 -0.9002 -2.3332
 2057SOL     OW17632   2.209   3.698   6.060 -0.2095 -0.5766 -0.3581
 2057SOL    HW117633   2.242   3.609   6.072  2.6669  0.8069  2.0287
 2057SOL    HW217634   2.290   3.745   6.041 -0.8648  0.9150  0.4981
 2058SOL     OW17635   0.055   3.401   3.319  0.2712 -0.3189  0.5411
 2058SOL    HW117636   0.052   3.324   3.376 -1.3032 -0.3136  0.4581
 2058SOL    HW217637   0.011   3.361   3.244 -0.2349 -2.2170  1.8394
 2059SOL     OW17638   3.944   2.123   6.749 -0.1443 -0.4019 -0.0059
 2059SOL    HW117639   3.949   2.125   6.844 -0.5513  0.9652 -0.0047
 2059SOL    HW217640   4.033   2.131   6.716 -0.1397  1.8644  0.4944
 2060SOL     OW17641   1.965   0.500   0.299  0.0853  0.0250 -0.4074
 2060SOL    HW117642   1.911   0.576   0.280 -0.6506 -0.3962 -0.0122
 2060SOL    HW217643   1.909   0.432   0.336  1.0670  0.3482  1.6594
 2061SOL     OW17644   2.184   2.798   5.228  0.2107  0.1268 -0.4636
 2061SOL    HW117645   2.173   2.852   5.306 -0.7870 -0.6703 -0.0645
 2061SOL    HW217646   2.213   2.872   5.174  0.8815 -0.6220 -1.1317
 2062SOL     OW17647   3.792   1.892  11.017 -0.0692  0.9562  0.2989
 2062SOL    HW117648   3.871   1.945  11.024  1.2856 -1.1666  1.2863
 2062SOL    HW217649   3.771   1.874  11.109 -0.2029  0.6348  0.2055
 2063SOL     OW17650   3.780   0.070   4.555  0.1470  0.0370  0.5151
 2063SOL    HW117651   3.821   0.147   4.515 -0.2107  0.2174  0.4943
 2063SOL    HW217652   3.692   0.076   4.518  0.1719 -3.4754 -0.0759
 2064SOL     OW17653   0.441   1.549   7.117  0.5433  0.0526  0.2536
 2064SOL    HW117654   0.462   1.572   7.026 -0.6598  0.5874  0.1025
 2064SOL    HW217655   0.526   1.568   7.157  0.5878  0.0730  0.1500
 2065SOL     OW17656   1.964   3.196   4.523  0.0058  0.4507  0.4765
 2065SOL    HW117657   2.036   3.176   4.463  1.3708 -1.7415  2.8614
 2065SOL    HW217658   1.900   3.125   4.512 -1.6312  1.8793  0.7779
 2066SOL     OW17659   4.299   0.418   7.026  0.0299 -0.0659  0.1404
 2066SOL    HW117660   4.357   0.358   7.073  0.3615 -0.1448 -0.3776
 2066SOL    HW217661   4.334   0.500   7.059 -2.9265  0.6358  1.4940
 2067SOL     OW17662   1.281   3.088  11.043 -0.1636  0.0862  0.3546
 2067SOL    HW117663   1.300   3.053  11.130  0.3558  1.4312  0.7797
 2067SOL    HW217664   1.278   3.016  10.980 -0.8166  1.0273 -0.6889
 2068SOL     OW17665   0.505   2.384   3.012 -0.0141  0.0811  0.1035
 2068SOL    HW117666   0.567   2.415   3.078  0.1370  1.8272 -0.8854
 2068SOL    HW217667   0.434   2.345   3.064 -0.9768 -2.4148 -3.0967
 2069SOL     OW17668   1.786   4.335   4.905 -0.3153 -0.7885 -0.4076
 2069SOL    HW117669   1.725   4.408   4.918 -0.6046 -0.7269 -2.0961
 2069SOL    HW217670   1.829   4.373   4.828 -1.3516 -0.7825 -0.9677
 2070SOL     OW17671   2.790   2.276  16.313 -0.6801 -0.7461 -0.3610
 2070SOL    HW117672   2.783   2.299  16.220  1.8881  2.2231  0.1923
 2070SOL    HW217673   2.812   2.185  16.295 -0.4289 -0.4826 -1.3939
 2071SOL     OW17674   2.735   0.175   7.730 -0.3647  0.1305  0.5923
 2071SOL    HW117675   2.652   0.164   7.776 -2.0316 -2.5514 -3.0486
 2071SOL    HW217676   2.750   0.260   7.770 -0.5282  0.5973 -0.3233
 2072SOL     OW17677   1.486   4.454  10.774 -0.3317 -0.3116 -0.5755
 2072SOL    HW117678   1.406   4.505  10.786 -1.1948 -1.5884 -0.9378
 2072SOL    HW217679   1.512   4.498  10.694 -1.2905  1.8653  0.3277
 2073SOL     OW17680   0.542   2.258   7.949 -0.1600  0.2085  0.5141
 2073SOL    HW117681   0.516   2.205   8.024  1.0566  0.2846  0.9930
 2073SOL    HW217682   0.459   2.300   7.927  0.1154  1.4237  1.7898
 2074SOL     OW17683   0.158   1.123   8.258 -0.4161  0.5112 -0.0774
 2074SOL    HW117684   0.138   1.102   8.166 -0.2763 -0.4553  0.1122
 2074SOL    HW217685   0.197   1.210   8.251  0.0380  0.1417 -2.2062
 2075SOL     OW17686   2.224   0.397   6.051 -0.2992  0.0683  0.2232
 2075SOL    HW117687   2.199   0.418   6.141 -0.0167  0.8362  0.1219
 2075SOL    HW217688   2.181   0.458   5.991 -0.9077 -0.2154  0.3732
 2076SOL     OW17689   1.038   4.583   6.061  0.2042  0.4008 -0.4012
 2076SOL    HW117690   1.101   4.545   5.999  0.4858  1.3362 -0.6906
 2076SOL    HW217691   1.001   4.651   6.004 -0.4321 -0.0252 -0.4950
 2077SOL     OW17692   3.450   1.303  12.591 -0.3305 -0.3625  0.0616
 2077SOL    HW117693   3.520   1.339  12.646 -0.2101 -0.5225  0.0122
 2077SOL    HW217694   3.371   1.345  12.624 -1.4035 -0.7702 -1.9860
 2078SOL     OW17695   4.310   1.840   1.999  0.2068  0.4179 -0.2939
 2078SOL    HW117696   4.351   1.778   2.060 -0.7345 -1.9564 -2.0903
 2078SOL    HW217697   4.332   1.809   1.912 -1.4702  1.0162 -0.9274
 2079SOL     OW17698   1.515   4.297   7.592 -0.1423 -0.2483 -0.0427
 2079SOL    HW117699   1.575   4.317   7.664  0.0550  0.3402 -0.3695
 2079SOL    HW217700   1.437   4.338   7.627 -0.5583  0.2953 -1.6126
 2080SOL     OW17701   3.696   1.120  12.649  0.0348 -0.4015 -0.4238
 2080SOL    HW117702   3.687   1.139  12.555  2.8163  1.2986 -0.3242
 2080SOL    HW217703   3.682   1.202  12.696  1.8913 -0.0068 -0.5939
 2081SOL     OW17704   3.267   0.246   8.794  0.0473 -0.0790 -0.1058
 2081SOL    HW117705   3.222   0.283   8.718 -2.5977 -0.7307  1.1706
 2081SOL    HW217706   3.339   0.308   8.809  0.5595 -0.0629 -2.5592
 2082SOL     OW17707   0.148   0.579  10.701  0.1177 -0.0902 -0.8208
 2082SOL    HW117708   0.114   0.536  10.623 -0.1346 -2.7802  0.7941
 2082SOL    HW217709   0.150   0.672  10.675 -0.0174  0.1111 -0.1099
 2083SOL     OW17710   2.607   2.518  16.224 -0.4470  0.6700 -0.1096
 2083SOL    HW117711   2.555   2.439  16.215  0.0440  0.3986 -0.5256
 2083SOL    HW217712   2.694   2.496  16.193 -0.9097  0.1978 -1.0681
 2084SOL     OW17713   2.988   2.380   8.256  0.2234 -0.2095  0.7877
 2084SOL    HW117714   3.051   2.367   8.185 -1.1701 -1.5500 -0.1700
 2084SOL    HW217715   2.904   2.393   8.212  0.6590 -1.9035 -0.5135
 2085SOL     OW17716   1.387   2.260   7.250  0.2244 -0.3838 -0.0750
 2085SOL    HW117717   1.302   2.247   7.208  0.5339  1.0779 -1.1318
 2085SOL    HW217718   1.446   2.301   7.187  0.3226  0.3376  0.4951
 2086SOL     OW17719   3.820   3.999  17.264 -0.1735 -0.9385  0.1524
 2086SOL    HW117720   3.748   3.970  17.319  2.0269 -2.0392  2.4418
 2086SOL    HW217721   3.776   4.018  17.181 -0.9929 -1.0441  0.5650
 2087SOL     OW17722   3.117   2.048   9.277 -0.7338 -0.6690 -0.0496
 2087SOL    HW117723   3.068   2.029   9.356  0.5097 -0.8883  0.6675
 2087SOL    HW217724   3.191   2.090   9.321 -0.1186 -0.0132 -1.7040
 2088SOL     OW17725   4.053   0.455   8.029 -1.2952 -0.3586 -0.4453
 2088SOL    HW117726   4.009   0.383   7.983  0.4910 -1.0445 -1.1208
 2088SOL    HW217727   4.014   0.524   7.975 -1.9612  0.2568  0.8478
 2089SOL     OW17728   2.452   0.137   2.290  0.0852  0.2956 -0.8049
 2089SOL    HW117729   2.484   0.221   2.322  2.6029 -0.9305 -0.0952
 2089SOL    HW217730   2.496   0.141   2.204 -0.1541 -0.1109 -0.9442
 2090SOL     OW17731   0.064   3.977  10.111  0.4101  0.1655  0.7441
 2090SOL    HW117732   0.151   3.962  10.148  1.1886 -1.4398 -1.7569
 2090SOL    HW217733   0.027   4.051  10.159 -4.6155 -2.0488  0.2256
 2091SOL     OW17734   1.869   4.535   3.648 -0.2074 -0.2738  0.0249
 2091SOL    HW117735   1.901   4.498   3.730 -0.2941 -1.5254 -0.5011
 2091SOL    HW217736   1.867   4.457   3.592  0.7616 -0.2239 -0.0895
 2092SOL     OW17737   2.110   2.159   3.598 -0.2955  0.2626 -0.4262
 2092SOL    HW117738   2.037   2.215   3.625 -0.2575 -0.6039  1.5202
 2092SOL    HW217739   2.125   2.124   3.686 -0.4194  0.1253 -0.4594
 2093SOL     OW17740   4.614   2.463   7.250 -0.1904 -0.3636  0.2248
 2093SOL    HW117741   4.676   2.501   7.312  1.1752  1.9882 -2.6063
 2093SOL    HW217742   4.630   2.370   7.263 -0.6881 -0.3474  0.9708
 2094SOL     OW17743   3.268   4.425   4.939 -0.2073 -0.1015  0.4130
 2094SOL    HW117744   3.185   4.391   4.904  0.9925 -1.9832 -0.6376
 2094SOL    HW217745   3.244   4.506   4.984  1.4183 -0.5158  2.0066
 2095SOL     OW17746   1.284   0.838  15.167 -0.1733  0.1270  0.2665
 2095SOL    HW117747   1.213   0.774  15.160 -0.4756  0.4742  0.1930
 2095SOL    HW217748   1.347   0.789  15.221 -0.6131  0.4561  1.0886
 2096SOL     OW17749   1.981   2.572   0.770 -0.0743 -0.0213 -0.5207
 2096SOL    HW117750   2.053   2.631   0.795 -1.3819  1.0565  0.6581
 2096SOL    HW217751   2.000   2.567   0.676 -4.3022  0.4384 -1.3915
 2097SOL     OW17752   4.030   0.012  10.060  0.9824  0.1080 -0.1812
 2097SOL    HW117753   4.120   0.037  10.039  0.8205 -0.1819 -1.2345
 2097SOL    HW217754   3.994   0.088  10.105  0.7094  1.0403 -1.9809
 2098SOL     OW17755   0.932   4.052   9.241 -0.0179  0.6327  0.1171
 2098SOL    HW117756   0.911   4.126   9.184  1.3479 -0.9843 -2.4528
 2098SOL    HW217757   0.980   4.100   9.309 -2.1713 -0.3319  2.3076
 2099SOL     OW17758   1.977   3.253   8.632  0.2678  0.1346  0.0439
 2099SOL    HW117759   1.969   3.189   8.562 -0.4716 -0.1774  0.4204
 2099SOL    HW217760   2.070   3.249   8.656 -0.2151  3.2099  2.4230
 2100SOL     OW17761   3.028   1.965  13.377  0.1999  0.6023 -0.3269
 2100SOL    HW117762   2.941   1.943  13.343  0.1133  0.0980  0.2072
 2100SOL    HW217763   3.032   2.058  13.354  0.0627  1.3805  2.7469
 2101SOL     OW17764   2.765   2.576   5.586 -0.0872  0.5107 -0.0806
 2101SOL    HW117765   2.814   2.582   5.505  0.9203 -1.3281  0.3958
 2101SOL    HW217766   2.731   2.486   5.579  1.3143  0.0745 -1.1746
 2102SOL     OW17767   2.579   0.027   9.776  0.2170 -0.1684 -0.1034
 2102SOL    HW117768   2.609   0.101   9.829 -1.9086  0.6946 -0.1287
 2102SOL    HW217769   2.542   4.695   9.846 -1.8755 -0.8157 -1.6902
 2103SOL     OW17770   1.580   0.805   0.069  0.1008 -0.1311 -0.1932
 2103SOL    HW117771   1.529   0.852   0.135  1.2476  1.0631 -0.1677
 2103SOL    HW217772   1.513   0.753   0.025  0.9090  1.8628 -3.7504
 2104SOL     OW17773   2.395   0.700   9.650 -0.6468 -0.0435  0.1677
 2104SOL    HW117774   2.384   0.663   9.563  0.8453 -0.7503  0.2661
 2104SOL    HW217775   2.343   0.629   9.687  0.5721  0.0897  2.1623
 2105SOL     OW17776   3.966   0.306   3.291 -0.5037 -0.2757  0.0827
 2105SOL    HW117777   4.033   0.288   3.225 -2.3519  2.7259 -2.6342
 2105SOL    HW217778   3.915   0.225   3.284 -2.1958  0.8429 -0.3811
 2106SOL     OW17779   0.185   0.045   2.478  0.3924  0.0364 -0.1702
 2106SOL    HW117780   0.226   4.688   2.440  1.6309  0.1657  0.8977
 2106SOL    HW217781   0.145   0.014   2.559 -0.4460 -1.4956 -1.1889
 2107SOL     OW17782   3.234   0.847  12.750 -0.2576 -0.4718 -0.1422
 2107SOL    HW117783   3.237   0.837  12.846  0.4768  0.1811 -0.0923
 2107SOL    HW217784   3.325   0.865  12.727 -0.3145 -0.7421 -0.5721
 2108SOL     OW17785   3.916   2.508   2.722 -0.4384  0.5695  0.7615
 2108SOL    HW117786   4.008   2.505   2.694  0.0470  0.8262  2.3231
 2108SOL    HW217787   3.893   2.596   2.692 -0.7667  0.5942  1.0872
 2109SOL     OW17788   0.277   4.257  12.532  0.3173 -0.3116 -0.2004
 2109SOL    HW117789   0.238   4.327  12.480 -2.2122 -2.0942 -0.7322
 2109SOL    HW217790   0.203   4.226  12.586 -1.0382 -0.0347 -1.9153
 2110SOL     OW17791   3.511   0.655   6.917 -0.2718 -1.1444 -0.2727
 2110SOL    HW117792   3.567   0.580   6.935  1.1344  0.1061  0.5353
 2110SOL    HW217793   3.583   0.717   6.915 -0.5825 -0.7715  0.1657
 2111SOL     OW17794   1.506   0.141   6.010 -0.0678  0.2655  0.1284
 2111SOL    HW117795   1.534   0.060   6.052  0.7505  0.5526  0.1240
 2111SOL    HW217796   1.584   0.170   5.964  0.1007  0.1386  0.3344
 2112SOL     OW17797   0.558   3.734   9.547 -0.2035 -0.0020  0.4807
 2112SOL    HW117798   0.615   3.672   9.594  0.1739 -0.3752 -0.4815
 2112SOL    HW217799   0.481   3.731   9.604  0.2737  0.3259  1.1460
 2113SOL     OW17800   1.176   1.849   6.587  0.1908  0.1249 -0.2125
 2113SOL    HW117801   1.135   1.763   6.591  2.2122 -0.7277  2.4544
 2113SOL    HW217802   1.176   1.874   6.680  1.2955 -1.1528  0.1317
 2114SOL     OW17803   1.549   3.674   4.854 -0.2386  0.5018  0.4693
 2114SOL    HW117804   1.525   3.656   4.763  1.6417 -0.3056  0.1312
 2114SOL    HW217805   1.625   3.615   4.859  0.0539  0.5722 -2.9894
 2115SOL     OW17806   2.176   3.245  16.925 -0.0038  0.2226 -0.0759
 2115SOL    HW117807   2.237   3.303  16.969  0.1907 -0.1390  0.1350
 2115SOL    HW217808   2.101   3.267  16.981  0.5273  2.2918 -0.1825
 2116SOL     OW17809   4.159   2.457   8.222 -0.0849  0.2133 -0.0374
 2116SOL    HW117810   4.135   2.473   8.131 -2.7073  2.4737  1.0511
 2116SOL    HW217811   4.124   2.531   8.271 -0.5320  0.5187 -0.8057
 2117SOL     OW17812   0.256   2.748   2.728  0.0191 -0.1216  0.1310
 2117SOL    HW117813   0.316   2.775   2.797 -0.3958 -0.0477  0.4611
 2117SOL    HW217814   0.171   2.741   2.771 -1.4638  1.6733 -2.4746
 2118SOL     OW17815   2.027   4.598   1.136 -0.0096 -0.4653 -0.0892
 2118SOL    HW117816   1.997   4.568   1.051 -2.0724  3.2778 -0.7096
 2118SOL    HW217817   1.945   4.633   1.171  0.8728 -0.8643  2.3992
 2119SOL     OW17818   3.544   2.454   8.073  0.1224  0.3240  0.7882
 2119SOL    HW117819   3.489   2.381   8.102  0.6989 -0.6725 -0.6301
 2119SOL    HW217820   3.564   2.499   8.155 -2.0012  1.8582  0.4779
 2120SOL     OW17821   1.326   0.343  10.534  0.6123 -0.0128  0.7099
 2120SOL    HW117822   1.333   0.371  10.443  1.8752  0.4345  0.9371
 2120SOL    HW217823   1.335   0.421  10.589 -1.7618 -0.2485  1.4130
 2121SOL     OW17824   0.380   2.204  15.876 -1.0012  0.1281 -0.3716
 2121SOL    HW117825   0.432   2.284  15.887  0.4840 -0.9002  0.1641
 2121SOL    HW217826   0.392   2.206  15.781  1.9684 -4.3955 -0.0990
 2122SOL     OW17827   0.683   4.322   1.997 -0.7315  0.1141  0.2851
 2122SOL    HW117828   0.677   4.378   1.920  0.6130  2.4983  1.8982
 2122SOL    HW217829   0.771   4.337   2.031  0.0405  0.3694 -1.8631
 2123SOL     OW17830   3.314   3.738   9.211 -0.0153 -0.5550 -0.5341
 2123SOL    HW117831   3.357   3.684   9.278 -0.7128  0.8949  1.0982
 2123SOL    HW217832   3.321   3.829   9.239 -3.0184 -0.7699  0.9799
 2124SOL     OW17833   4.182   3.143   1.199 -0.2444 -0.5108 -0.1959
 2124SOL    HW117834   4.171   3.234   1.171  1.2238  0.4167  2.2291
 2124SOL    HW217835   4.276   3.131   1.181 -0.1965  0.8605 -0.9027
 2125SOL     OW17836   0.998   4.031   4.411  0.7505 -0.0180  0.0003
 2125SOL    HW117837   1.073   3.989   4.368 -0.1483  1.0257 -2.6288
 2125SOL    HW217838   0.952   4.080   4.342  1.4600  2.1151  1.0415
 2126SOL     OW17839   0.608   2.870   2.626  0.3896 -0.9071  0.5038
 2126SOL    HW117840   0.629   2.780   2.649 -1.6870 -1.2378  1.1016
 2126SOL    HW217841   0.659   2.909   2.697  2.8138 -1.5187 -0.9081
 2127SOL     OW17842   0.132   2.378  11.957 -0.0383  0.0516 -0.1955
 2127SOL    HW117843   0.117   2.284  11.958 -1.2756  0.2584  0.5224
 2127SOL    HW217844   0.159   2.392  11.867 -1.2789 -3.3289 -1.0630
 2128SOL     OW17845   4.190   2.699   2.395 -0.1650  0.0055 -0.9216
 2128SOL    HW117846   4.107   2.746   2.382 -1.0001 -0.8652  1.2672
 2128SOL    HW217847   4.241   2.767   2.437  0.8682 -0.7310 -1.0001
 2129SOL     OW17848   3.270   1.770   3.184 -0.5621 -0.2191 -0.0987
 2129SOL    HW117849   3.311   1.700   3.131 -0.0953  0.9214 -1.2477
 2129SOL    HW217850   3.261   1.742   3.275  0.2500  1.5720  0.5238
 2130SOL     OW17851   4.447   2.693   6.382 -0.0860  0.1396 -0.1325
 2130SOL    HW117852   4.384   2.674   6.452  1.0374  0.1679  0.8782
 2130SOL    HW217853   4.386   2.736   6.321  0.3155 -1.0293 -1.3438
 2131SOL     OW17854   1.757   1.829   3.844 -0.2708 -0.0700  0.1417
 2131SOL    HW117855   1.708   1.747   3.835 -0.7665  0.1845  0.5337
 2131SOL    HW217856   1.834   1.797   3.891  1.0345  0.8725 -1.3599
 2132SOL     OW17857   0.605   2.517   2.038 -0.2516  0.3562 -0.0737
 2132SOL    HW117858   0.540   2.523   2.108 -0.1262  0.0114  0.0706
 2132SOL    HW217859   0.606   2.422   2.023 -1.1006  0.2044  0.8527
 2133SOL     OW17860   3.043   3.933   9.378  0.7347 -0.3588  0.2460
 2133SOL    HW117861   2.991   3.944   9.299  0.5094 -0.0554  0.4342
 2133SOL    HW217862   3.028   3.839   9.388  2.9170 -0.9755 -2.2640
 2134SOL     OW17863   1.176   1.145   5.401 -0.0258 -0.2462 -0.5930
 2134SOL    HW117864   1.144   1.235   5.410  1.2326  0.0356  1.0036
 2134SOL    HW217865   1.240   1.149   5.330 -1.1456  0.9075 -1.5305
 2135SOL     OW17866   1.634   1.740  14.824 -0.7121  0.4981  0.1808
 2135SOL    HW117867   1.581   1.668  14.790  1.9271 -1.6383  0.5903
 2135SOL    HW217868   1.586   1.761  14.904  1.5205 -1.8989  2.1703
 2136SOL     OW17869   3.946   3.310   6.722 -0.2536 -0.6593 -0.3008
 2136SOL    HW117870   3.974   3.391   6.764  0.3803 -1.4831  0.8587
 2136SOL    HW217871   3.969   3.243   6.787  1.0401 -0.6058 -0.7120
 2137SOL     OW17872   3.136   1.335  16.238 -0.0313 -0.0743  0.3716
 2137SOL    HW117873   3.110   1.291  16.318 -2.8302  0.6077 -0.1585
 2137SOL    HW217874   3.062   1.330  16.176 -0.6530 -0.7776  1.1781
 2138SOL     OW17875   0.953   0.961   6.282  0.1908  0.1512  0.0291
 2138SOL    HW117876   0.950   1.011   6.364 -0.8974  1.0740 -0.5702
 2138SOL    HW217877   0.931   1.038   6.230 -0.9654 -0.6337 -0.6387
 2139SOL     OW17878   2.356   1.220   5.737 -0.0555  0.3976  0.4633
 2139SOL    HW117879   2.271   1.255   5.712  0.2973  0.2063 -1.0093
 2139SOL    HW217880   2.412   1.295   5.721  0.6242 -0.4326 -1.0859
 2140SOL     OW17881   3.078   1.578  16.340 -0.6337  0.8233 -0.3786
 2140SOL    HW117882   3.105   1.510  16.279 -0.7165 -0.3876  0.9198
 2140SOL    HW217883   3.127   1.543  16.414  0.3206  0.6907 -1.0782
 2141SOL     OW17884   2.939   4.227   1.378 -0.1689  0.2663  0.6277
 2141SOL    HW117885   2.910   4.253   1.466 -1.9329  0.9318 -0.1604
 2141SOL    HW217886   3.031   4.249   1.392  0.6753 -2.7706 -0.0770
 2142SOL     OW17887   0.791   3.456   5.348 -0.5253  0.2425 -0.5552
 2142SOL    HW117888   0.765   3.548   5.351 -0.7103  0.1789 -0.2085
 2142SOL    HW217889   0.886   3.460   5.358 -0.4430  0.3547 -1.3630
 2143SOL     OW17890   1.638   1.303   5.135  0.6932  0.1598 -0.0209
 2143SOL    HW117891   1.661   1.392   5.161  1.7126  0.2326 -1.1686
 2143SOL    HW217892   1.728   1.269   5.134  0.6038 -0.0845  0.0323
 2144SOL     OW17893   1.982   0.928   8.564  0.6622  0.3811  0.0897
 2144SOL    HW117894   2.070   0.945   8.531 -0.9771  1.6193 -3.7434
 2144SOL    HW217895   2.013   0.909   8.652 -3.1432 -1.3870  1.0300
 2145SOL     OW17896   1.830   3.823   6.063  0.4756  0.2748 -0.3732
 2145SOL    HW117897   1.891   3.757   6.029 -0.5028 -0.7326 -0.1618
 2145SOL    HW217898   1.889   3.886   6.104 -0.4841  1.0159 -0.1366
 2146SOL     OW17899   4.303   0.150   2.532  0.1472  0.1941  0.2215
 2146SOL    HW117900   4.338   0.120   2.616  0.2336  2.4605  1.0125
 2146SOL    HW217901   4.260   0.075   2.491  0.1151 -0.8736  2.1933
 2147SOL     OW17902   0.304   0.289   2.507 -0.6790  0.3610  0.1763
 2147SOL    HW117903   0.217   0.325   2.525 -1.4987 -0.2141 -2.7203
 2147SOL    HW217904   0.278   0.197   2.508 -1.0419  0.4413 -1.5062
 2148SOL     OW17905   0.872   1.905   1.181 -0.2459  0.1598  0.7770
 2148SOL    HW117906   0.966   1.899   1.195 -0.3836  0.0940  1.7209
 2148SOL    HW217907   0.848   1.904   1.274  0.4811 -2.4180  0.9258
 2149SOL     OW17908   0.627   0.288   3.467  0.2802  0.0788  0.1876
 2149SOL    HW117909   0.714   0.248   3.472 -0.1227 -0.9979 -1.2835
 2149SOL    HW217910   0.603   0.233   3.393 -1.8414  0.1399  0.8473
 2150SOL     OW17911   2.777   2.602   5.296  0.3007  0.5627 -0.4938
 2150SOL    HW117912   2.744   2.608   5.207 -0.4945 -3.2780 -0.4361
 2150SOL    HW217913   2.775   2.507   5.307 -1.6965  0.7147  0.4369
 2151SOL     OW17914   0.503   4.350  17.031 -0.0226 -0.3418 -0.5392
 2151SOL    HW117915   0.581   4.350  17.087  0.7937  1.4916 -1.6886
 2151SOL    HW217916   0.458   4.268  17.053 -0.4647 -0.3094 -1.3297
 2152SOL     OW17917   4.152   1.855   4.450  0.0810  0.7166  0.4579
 2152SOL    HW117918   4.212   1.901   4.391 -0.3124  0.3745 -0.2061
 2152SOL    HW217919   4.210   1.797   4.499  3.1707  0.0729 -3.9502
 2153SOL     OW17920   1.756   0.558  12.698  0.2946  0.5404  0.4416
 2153SOL    HW117921   1.670   0.566  12.738  0.7831 -1.1679  1.8402
 2153SOL    HW217922   1.770   0.644  12.658  1.6217  0.0420 -0.1745
 2154SOL     OW17923   0.981   0.419   9.202 -0.6447 -0.0388  0.1173
 2154SOL    HW117924   0.889   0.433   9.227 -0.5466  1.1815 -0.1758
 2154SOL    HW217925   0.999   0.326   9.214 -1.5204 -0.1885  0.2672
 2155SOL     OW17926   0.957   4.199  10.924 -0.2509 -0.1160 -0.4843
 2155SOL    HW117927   1.023   4.267  10.910 -1.6453  0.9615 -1.9078
 2155SOL    HW217928   0.874   4.230  10.888  0.8988  0.5721 -2.5556
 2156SOL     OW17929   3.661   3.865   4.615  0.4727  0.0784 -0.1932
 2156SOL    HW117930   3.711   3.874   4.696  0.5135  1.0400 -0.3220
 2156SOL    HW217931   3.629   3.956   4.613 -1.0249 -0.4551 -0.7200
 2157SOL     OW17932   1.059   3.182   5.369  0.2998 -0.4727  0.0641
 2157SOL    HW117933   1.136   3.142   5.410  0.6232  0.0945  0.0085
 2157SOL    HW217934   1.029   3.103   5.323 -2.5415 -1.2408  3.2339
 2158SOL     OW17935   4.647   1.171   1.375  0.0779 -0.0691 -0.4996
 2158SOL    HW117936   0.021   1.171   1.370  0.0297 -0.5232 -1.2935
 2158SOL    HW217937   4.629   1.123   1.456  2.2188 -1.2918 -0.7727
 2159SOL     OW17938   4.479   0.366  16.510  0.1956  0.0857  0.0677
 2159SOL    HW117939   4.485   0.350  16.604 -0.5765 -0.3823  0.0393
 2159SOL    HW217940   4.548   0.432  16.505 -1.2475  1.6948  1.7186
 2160SOL     OW17941   1.970   2.274   8.542  0.1040 -0.1561  0.3399
 2160SOL    HW117942   1.979   2.203   8.605  0.3982 -2.9903 -2.9242
 2160SOL    HW217943   1.990   2.230   8.459 -0.5487  0.4294 -0.1297
 2161SOL     OW17944   1.812   1.710   0.503  0.5792  0.2349  0.1206
 2161SOL    HW117945   1.879   1.778   0.508  0.4874  0.3370 -0.0404
 2161SOL    HW217946   1.731   1.758   0.516  0.6041  0.2891  0.0753
 2162SOL     OW17947   3.065   0.647   4.036 -0.1827 -0.2091 -0.3987
 2162SOL    HW117948   3.130   0.601   4.089  0.8005  1.3233 -0.2830
 2162SOL    HW217949   3.112   0.727   4.014 -1.4932  0.1268 -2.0112
 2163SOL     OW17950   0.418   0.454   1.914 -0.5036  0.0411  0.3788
 2163SOL    HW117951   0.406   0.515   1.988  2.9524  2.1941 -0.8733
 2163SOL    HW217952   0.478   0.389   1.951  0.8183  1.5194  0.8014
 2164SOL     OW17953   2.236   4.720  11.115 -0.0340 -0.5103  0.1773
 2164SOL    HW117954   2.310   0.059  11.124 -0.7230  0.4443 -0.5170
 2164SOL    HW217955   2.266   4.674  11.037  1.0945 -0.8613  0.8173
 2165SOL     OW17956   1.759   1.502   1.744  0.0544 -0.3289 -0.0897
 2165SOL    HW117957   1.708   1.441   1.797  0.1604  2.2176  2.9567
 2165SOL    HW217958   1.815   1.445   1.691 -0.3333 -0.0659 -0.7887
 2166SOL     OW17959   3.530   4.289   6.660 -0.5445  0.0385 -0.7091
 2166SOL    HW117960   3.450   4.237   6.665  1.6148 -3.2907 -0.5409
 2166SOL    HW217961   3.490   4.369   6.626  1.8128  1.4557 -0.1476
 2167SOL     OW17962   4.391   0.937  17.603 -0.1777  0.8828  0.1401
 2167SOL    HW117963   4.342   0.905  17.679  0.5901 -0.6399 -0.0078
 2167SOL    HW217964   4.448   0.995  17.654 -0.8750  1.3459  0.3850
 2168SOL     OW17965   1.113   0.715   8.744  0.4516 -0.3270 -0.4862
 2168SOL    HW117966   1.030   0.670   8.762 -1.0049  2.3156 -0.6729
 2168SOL    HW217967   1.167   0.649   8.788 -1.0097 -1.6770 -0.7004
 2169SOL     OW17968   0.596   0.967   5.479  0.4612 -0.2235  0.4023
 2169SOL    HW117969   0.569   1.003   5.563 -0.1929  2.1683 -0.8237
 2169SOL    HW217970   0.587   0.874   5.499  2.5017 -0.8631 -1.6305
 2170SOL     OW17971   2.401   4.679   6.540 -0.2900  0.1703 -0.0270
 2170SOL    HW117972   2.382   0.015   6.466 -0.7584  0.5610  0.3931
 2170SOL    HW217973   2.423   0.026   6.604 -0.2456 -0.7343  0.9069
 2171SOL     OW17974   1.963   4.672  15.539  0.0259 -0.0401  0.1838
 2171SOL    HW117975   1.991   0.018  15.477 -2.2744  0.9416  0.1913
 2171SOL    HW217976   1.949   4.595  15.485  0.3293 -0.8013  1.1760
 2172SOL     OW17977   2.925   2.115   3.864  0.5512  0.0229  0.1097
 2172SOL    HW117978   2.973   2.042   3.825 -1.6312 -2.2233  1.5710
 2172SOL    HW217979   2.832   2.108   3.841  0.4933 -0.3642  0.4610
 2173SOL     OW17980   1.174   4.454   3.319 -0.2245  0.5295  0.0283
 2173SOL    HW117981   1.241   4.422   3.258 -1.2263 -1.1626 -0.1812
 2173SOL    HW217982   1.168   4.394   3.394 -0.6045  1.1810  0.5167
 2174SOL     OW17983   1.220   4.011   4.282 -0.2173  0.9183  0.3122
 2174SOL    HW117984   1.155   4.035   4.216  1.3743 -0.0911 -1.6044
 2174SOL    HW217985   1.293   4.004   4.221  0.7066 -0.6513  1.5897
 2175SOL     OW17986   1.046   3.296   6.263 -0.0037  0.4445 -0.2940
 2175SOL    HW117987   0.980   3.363   6.278  0.9036  1.6923 -1.7382
 2175SOL    HW217988   1.120   3.354   6.242 -0.6262  1.6181  0.8060
 2176SOL     OW17989   3.252   3.975   7.514 -0.1396  0.4441  0.3408
 2176SOL    HW117990   3.244   3.890   7.470 -0.4484  0.5273  0.2323
 2176SOL    HW217991   3.337   4.002   7.480 -1.1157  0.6748 -1.8857
 2177SOL     OW17992   1.666   0.922   4.182  0.3536 -0.0188 -0.0766
 2177SOL    HW117993   1.734   0.857   4.202 -0.8726 -0.9627  1.0491
 2177SOL    HW217994   1.695   0.983   4.250 -2.1353  1.0970 -0.0406
 2178SOL     OW17995   0.496   4.638   1.896 -0.3470  0.2528 -0.4110
 2178SOL    HW117996   0.449   4.718   1.874 -0.3953  0.6054  0.9637
 2178SOL    HW217997   0.535   4.627   1.810  2.9091 -2.3836  1.4162
 2179SOL     OW17998   3.081   0.815   0.287 -0.0645  0.0089  0.2820
 2179SOL    HW117999   3.030   0.778   0.215  1.3722 -2.3746  0.4933
 2179SOL    HW218000   3.088   0.904   0.253 -2.3292  0.3756  0.7858
 2180SOL     OW18001   1.842   3.660   6.751  0.5099 -0.4793 -0.6765
 2180SOL    HW118002   1.937   3.664   6.764  0.2424 -1.0151  1.4135
 2180SOL    HW218003   1.820   3.566   6.755 -0.3568 -0.1686  1.9305
 2181SOL     OW18004   2.483   3.508  13.401 -0.2149 -0.0763 -0.6656
 2181SOL    HW118005   2.489   3.602  13.417  1.0670  0.3091 -3.3781
 2181SOL    HW218006   2.479   3.495  13.306 -2.7167  0.4902 -0.6536
 2182SOL     OW18007   3.812   3.038   3.790 -0.4781  0.6014 -0.0505
 2182SOL    HW118008   3.720   3.014   3.806 -0.4638  1.6856  1.6495
 2182SOL    HW218009   3.812   3.114   3.733 -2.3267  1.1116  0.6374
 2183SOL     OW18010   1.607   3.546   4.447 -0.2137 -0.5998  0.2797
 2183SOL    HW118011   1.519   3.508   4.454  0.0160 -1.0623  0.6114
 2183SOL    HW218012   1.588   3.638   4.425  2.2273 -0.1666  0.0524
 2184SOL     OW18013   1.814   4.322   7.465 -0.6651  0.1256  0.0014
 2184SOL    HW118014   1.780   4.330   7.554  0.9635  1.7531  0.4795
 2184SOL    HW218015   1.833   4.410   7.432 -0.0908 -0.7059 -1.8880
 2185SOL     OW18016   4.142   1.548   3.324  0.7346 -0.1524 -0.0424
 2185SOL    HW118017   4.220   1.600   3.344  1.1501 -0.3629 -1.1473
 2185SOL    HW218018   4.148   1.494   3.404  0.3049  0.1456  0.1909
 2186SOL     OW18019   1.830   1.721   6.135  0.2115  0.6110 -0.1368
 2186SOL    HW118020   1.801   1.736   6.045 -0.6670  1.9918  0.3618
 2186SOL    HW218021   1.768   1.656   6.166  0.5781  0.6451  0.6848
 2187SOL     OW18022   1.916   1.913   7.619 -0.3605 -0.2229  0.1247
 2187SOL    HW118023   1.935   1.975   7.689  1.0712 -0.2975 -0.1978
 2187SOL    HW218024   1.822   1.906   7.635  0.3057 -2.4201  2.8821
 2188SOL     OW18025   2.812   0.496   6.795 -0.1223 -0.1460 -0.4941
 2188SOL    HW118026   2.798   0.548   6.717  1.1048  2.8653  1.3054
 2188SOL    HW218027   2.861   0.424   6.755  1.7193  1.0464 -0.4037
 2189SOL     OW18028   0.298   3.447   4.279 -0.4088 -0.0719  0.6999
 2189SOL    HW118029   0.309   3.530   4.232  0.0281 -0.0656  0.8137
 2189SOL    HW218030   0.346   3.460   4.361  1.8905 -1.3274 -0.4435
 2190SOL     OW18031   3.340   2.688  15.353  0.0367  0.1597 -1.1486
 2190SOL    HW118032   3.247   2.674  15.365  0.1930 -0.8841 -1.1338
 2190SOL    HW218033   3.339   2.781  15.374 -2.5207 -0.2857  0.5577
 2191SOL     OW18034   2.223   3.315   5.405 -0.0917  0.0951 -0.3951
 2191SOL    HW118035   2.295   3.275   5.356  1.3186  0.5589  1.2799
 2191SOL    HW218036   2.143   3.283   5.363 -0.5025 -1.5151  1.6078
 2192SOL     OW18037   1.407   1.196   3.515  0.0159  0.4151 -0.0285
 2192SOL    HW118038   1.401   1.170   3.607  0.8509  0.6153  0.0798
 2192SOL    HW218039   1.403   1.114   3.466  0.5904  0.5360 -0.2779
 2193SOL     OW18040   2.156   0.059   7.850 -0.2031 -0.3324 -0.0790
 2193SOL    HW118041   2.228   0.025   7.903  1.0298 -0.4863 -1.8732
 2193SOL    HW218042   2.086   0.015   7.899 -0.4406  1.0272  0.8045
 2194SOL     OW18043   2.367   2.103  12.953 -0.7662  0.3307 -0.1393
 2194SOL    HW118044   2.378   2.184  12.903  1.2501 -1.2515 -2.2097
 2194SOL    HW218045   2.327   2.042  12.891 -0.1193 -1.2294  0.9760
 2195SOL     OW18046   3.427   2.398   5.867 -0.4108  0.8010 -0.6784
 2195SOL    HW118047   3.362   2.361   5.927  0.9796 -1.7715 -0.7495
 2195SOL    HW218048   3.502   2.340   5.876 -0.2988  1.3146  1.6147
 2196SOL     OW18049   3.873   1.811   3.813 -0.1605 -0.1785  0.0429
 2196SOL    HW118050   3.804   1.873   3.836 -0.8327 -1.0052  0.2872
 2196SOL    HW218051   3.876   1.749   3.886  2.0589 -2.0031 -1.5893
 2197SOL     OW18052   2.003   3.703   5.235  0.0817  0.1988  0.1976
 2197SOL    HW118053   1.939   3.761   5.276 -2.1454 -1.9788 -0.1679
 2197SOL    HW218054   2.053   3.766   5.184  1.4641 -0.7621  0.3640
 2198SOL     OW18055   1.725   3.797   0.658  0.7712  0.6559  0.6347
 2198SOL    HW118056   1.800   3.739   0.673 -0.0271 -0.2703  1.0777
 2198SOL    HW218057   1.735   3.880   0.705 -2.5415  0.3816  1.8221
 2199SOL     OW18058   0.966   0.654   6.926  0.1775  0.0493 -0.2721
 2199SOL    HW118059   0.939   0.684   6.840 -0.0431  1.8678  0.4497
 2199SOL    HW218060   1.042   0.704   6.957  1.0657 -2.5151  1.7001
 2200SOL     OW18061   2.263   3.340   8.371 -1.0085 -0.2034  0.1746
 2200SOL    HW118062   2.304   3.273   8.426  0.1903 -0.9586 -1.6428
 2200SOL    HW218063   2.331   3.352   8.304 -1.1605 -1.6377 -0.2284
 2201SOL     OW18064   2.358   1.430  10.623  0.2979 -0.3640 -0.0697
 2201SOL    HW118065   2.319   1.352  10.663 -0.0958  0.2666  0.7962
 2201SOL    HW218066   2.389   1.390  10.542 -0.3152  1.9375 -1.4501
 2202SOL     OW18067   4.400   1.589   5.737  0.3724 -0.2652  0.1717
 2202SOL    HW118068   4.468   1.611   5.800  0.7175 -0.9181  0.0317
 2202SOL    HW218069   4.331   1.614   5.798  0.6576 -0.0081  0.3887
 2203SOL     OW18070   2.499   2.356   6.190 -0.0152 -0.1713 -0.0354
 2203SOL    HW118071   2.429   2.421   6.195  0.0460 -0.0138 -1.2600
 2203SOL    HW218072   2.565   2.380   6.255 -1.2834  0.0395  1.1783
 2204SOL     OW18073   4.402   2.340   7.077  0.4496 -0.4846  0.0438
 2204SOL    HW118074   4.477   2.308   7.026 -0.0324 -0.0693 -0.9310
 2204SOL    HW218075   4.443   2.355   7.162  4.4553 -0.3877 -1.9153
 2205SOL     OW18076   3.834   2.592  15.112  0.6498  0.2648  0.5012
 2205SOL    HW118077   3.854   2.666  15.169  1.2598  0.4993 -0.0202
 2205SOL    HW218078   3.819   2.522  15.176 -1.7181 -0.7310 -1.1799
 2206SOL     OW18079   4.045   2.600   4.628 -0.5774  0.6525  0.2229
 2206SOL    HW118080   4.028   2.505   4.630  2.7893  0.0892  1.3945
 2206SOL    HW218081   4.138   2.608   4.647 -0.5505 -1.2244  0.9420
 2207SOL     OW18082   1.740   4.530  16.525  0.1699 -0.4169 -0.1937
 2207SOL    HW118083   1.732   4.625  16.514 -2.6968 -0.7083 -0.4997
 2207SOL    HW218084   1.670   4.501  16.467 -0.8912  0.0090  0.8695
 2208SOL     OW18085   3.852   2.790   9.425 -0.0969  0.6230  0.1481
 2208SOL    HW118086   3.817   2.750   9.505 -0.0642 -0.3915 -0.3561
 2208SOL    HW218087   3.854   2.884   9.445 -0.3489  0.7994 -0.6457
 2209SOL     OW18088   4.372   1.486   7.279 -0.7860  0.5374 -0.6290
 2209SOL    HW118089   4.387   1.414   7.217 -0.9824 -1.6033  1.7824
 2209SOL    HW218090   4.277   1.491   7.276 -0.9778 -2.2891  0.6005
 2210SOL     OW18091   0.724   0.485   3.969 -0.2004 -0.3104 -0.3716
 2210SOL    HW118092   0.805   0.517   3.931 -0.5828  0.0332 -0.9017
 2210SOL    HW218093   0.668   0.558   3.944  0.6530 -0.6272 -3.1995
 2211SOL     OW18094   1.744   2.952  12.622  0.1413  0.7615 -0.1177
 2211SOL    HW118095   1.681   2.910  12.563  0.3359  0.1594  0.0968
 2211SOL    HW218096   1.683   2.990  12.685  0.8157  1.7173 -0.0490
 2212SOL     OW18097   0.024   4.467  10.654  0.5530 -0.3919  0.3076
 2212SOL    HW118098   0.077   4.450  10.732 -0.5476 -1.2125  0.8825
 2212SOL    HW218099   4.688   4.390  10.658 -1.2745  0.9509  0.0646
 2213SOL     OW18100   3.399   3.059   4.918  0.2491 -0.4599 -0.3887
 2213SOL    HW118101   3.310   3.094   4.912 -0.0570 -1.1626  0.1623
 2213SOL    HW218102   3.369   2.969   4.909 -2.8874  0.5679 -0.1504
 2214SOL     OW18103   0.040   4.373   8.260  0.8839 -0.2368  0.3440
 2214SOL    HW118104   4.690   4.310   8.251 -1.1259  1.7693  2.1060
 2214SOL    HW218105   4.717   4.457   8.249 -0.0936 -0.4385  2.7615
 2215SOL     OW18106   3.075   4.560  15.894 -0.2573  0.0969 -0.2737
 2215SOL    HW118107   3.123   4.480  15.917  0.4457  0.5717 -0.1110
 2215SOL    HW218108   2.987   4.523  15.882 -1.2258  1.5931  2.2056
 2216SOL     OW18109   3.288   1.390   4.165  0.1672 -0.2794 -0.2033
 2216SOL    HW118110   3.261   1.326   4.099 -3.1130 -0.6668  1.5033
 2216SOL    HW218111   3.337   1.450   4.108 -0.4387 -0.3976 -0.8485
 2217SOL     OW18112   3.155   0.642  11.789  0.2222 -0.1206 -0.0928
 2217SOL    HW118113   3.065   0.624  11.816  0.4406  0.8988  1.3183
 2217SOL    HW218114   3.135   0.723  11.742 -0.4895  0.1336  0.6502
 2218SOL     OW18115   4.706   4.507   5.788  0.4123 -0.0222 -0.3945
 2218SOL    HW118116   4.669   4.449   5.721  0.7077 -0.2882 -0.3307
 2218SOL    HW218117   0.029   4.445   5.847 -1.9916 -1.0454  0.3198
 2219SOL     OW18118   1.224   4.458   5.894 -0.0240  0.8645  0.2158
 2219SOL    HW118119   1.320   4.466   5.896 -0.0939  1.7186  0.1726
 2219SOL    HW218120   1.202   4.453   5.801 -1.0213  1.5591  0.4119
 2220SOL     OW18121   0.646   0.982  17.503 -0.2278 -0.0379  0.1268
 2220SOL    HW118122   0.592   0.963  17.426 -0.9734  2.1712  0.1161
 2220SOL    HW218123   0.622   1.074  17.514  0.9914  0.1094  1.5266
 2221SOL     OW18124   4.072   0.709   2.737 -0.2406 -0.4758  0.1119
 2221SOL    HW118125   3.994   0.764   2.749  0.6171  0.9255 -0.6951
 2221SOL    HW218126   4.148   0.759   2.768  0.2743  0.2352 -2.2614
 2222SOL     OW18127   2.914   0.823   8.390  0.2310 -0.2824 -0.1891
 2222SOL    HW118128   2.922   0.767   8.313  0.9404  2.2365 -1.9803
 2222SOL    HW218129   3.002   0.858   8.404 -1.1451  3.1367 -0.1003
 2223SOL     OW18130   3.817   4.694   6.346  0.1431  0.0555  0.2582
 2223SOL    HW118131   3.801   4.714   6.439 -0.6922 -1.1704  0.3779
 2223SOL    HW218132   3.879   4.621   6.354 -0.7631 -0.6420  0.9822
 2224SOL     OW18133   3.758   4.166  17.023 -0.6386 -0.2703 -0.4852
 2224SOL    HW118134   3.820   4.233  16.996 -1.0680 -0.2370 -1.4107
 2224SOL    HW218135   3.695   4.221  17.068  0.0450 -1.4885  1.9457
 2225SOL     OW18136   4.583   3.981   9.066  0.0034  0.1917 -0.3157
 2225SOL    HW118137   4.520   3.988   9.138  0.7936  0.2266  0.3634
 2225SOL    HW218138   4.651   4.040   9.097  0.4370  0.4734 -1.8055
 2226SOL     OW18139   0.463   3.324   8.155 -0.1786  0.5519 -0.2598
 2226SOL    HW118140   0.381   3.300   8.199  0.3555 -1.7636 -0.5381
 2226SOL    HW218141   0.502   3.377   8.225  1.0701  0.5366 -0.9511
 2227SOL     OW18142   1.640   2.052  10.848  0.1300  0.1793  0.1210
 2227SOL    HW118143   1.656   2.026  10.757 -0.8720 -0.4108  0.1125
 2227SOL    HW218144   1.557   2.010  10.870 -0.5580  1.2838 -0.3761
 2228SOL     OW18145   0.070   2.048   7.669  0.2666  0.1320 -0.2254
 2228SOL    HW118146   0.097   2.103   7.743  1.9828 -1.3300  0.2296
 2228SOL    HW218147   0.015   1.983   7.713 -1.7241  0.7655 -1.7778
 2229SOL     OW18148   2.985   1.120   4.322 -0.2009 -0.0150 -0.3960
 2229SOL    HW118149   3.007   1.047   4.264  1.4198  0.5754 -0.5129
 2229SOL    HW218150   2.970   1.080   4.407  0.0400 -1.0823 -0.8620
 2230SOL     OW18151   3.148   4.634   5.754  0.1992 -0.1017  0.3534
 2230SOL    HW118152   3.154   4.600   5.664 -2.2986 -1.0575  0.5681
 2230SOL    HW218153   3.218   4.585   5.796 -0.2902  1.3463  2.8361
 2231SOL     OW18154   1.307   2.393   6.797  0.2590 -0.0610  0.0874
 2231SOL    HW118155   1.247   2.454   6.841  3.1929  2.7774  0.2119
 2231SOL    HW218156   1.243   2.333   6.758  1.1202  0.2692 -1.8163
 2232SOL     OW18157   4.683   3.133  11.229  0.1849  0.1925 -0.1347
 2232SOL    HW118158   0.007   3.058  11.268  0.7097 -0.0098 -1.1210
 2232SOL    HW218159   0.016   3.210  11.250 -0.2002  0.6535 -0.8077
 2233SOL     OW18160   2.284   3.915  13.083 -0.0711 -0.4203 -0.7405
 2233SOL    HW118161   2.288   4.010  13.076 -1.0901 -0.2734  0.6996
 2233SOL    HW218162   2.370   3.891  13.117 -0.0936  0.3044 -0.1802
 2234SOL     OW18163   1.945   1.201   3.767 -0.6011 -0.1421 -0.2052
 2234SOL    HW118164   1.907   1.261   3.702 -1.2314 -0.2391  0.0679
 2234SOL    HW218165   1.873   1.141   3.788 -1.0481  0.6823  0.6610
 2235SOL     OW18166   2.389   1.314  11.567  0.0282  0.2409  0.5928
 2235SOL    HW118167   2.382   1.220  11.549  0.9751  0.4107 -0.6938
 2235SOL    HW218168   2.430   1.314  11.653 -0.6228  2.1595  0.8920
 2236SOL     OW18169   4.110   4.434   8.012 -0.8276 -0.6322  0.5647
 2236SOL    HW118170   4.157   4.456   7.931 -2.4448  0.2335 -0.1344
 2236SOL    HW218171   4.046   4.504   8.025 -0.7379 -0.4299 -0.0632
 2237SOL     OW18172   1.109   2.804   4.753 -0.1148 -0.3619 -0.1735
 2237SOL    HW118173   1.025   2.845   4.774  0.2560 -0.6190  1.8992
 2237SOL    HW218174   1.131   2.770   4.840 -3.1821  2.9390  1.9176
 2238SOL     OW18175   2.720   2.156   0.242 -0.1183 -0.5644  0.1267
 2238SOL    HW118176   2.696   2.181   0.331  0.4494  1.1980 -0.2128
 2238SOL    HW218177   2.793   2.216   0.225 -1.4406  0.5960 -1.4427
 2239SOL     OW18178   4.629   3.123   8.475 -0.0103 -0.2237  0.7287
 2239SOL    HW118179   4.575   3.184   8.524 -1.8794 -1.4277  0.1927
 2239SOL    HW218180   4.678   3.182   8.417 -1.2286 -2.1751 -2.3214
 2240SOL     OW18181   3.502   3.150   3.578  0.3563  0.0822 -0.2719
 2240SOL    HW118182   3.486   3.115   3.666  3.1191 -1.4335 -0.3947
 2240SOL    HW218183   3.481   3.079   3.517  0.1316  0.3997 -0.5643
 2241SOL     OW18184   4.187   0.992   0.580 -0.2456  0.2533  0.5046
 2241SOL    HW118185   4.277   1.006   0.611 -0.4993  0.6178  1.0638
 2241SOL    HW218186   4.176   0.906   0.621  0.2350 -0.1368 -0.1801
 2242SOL     OW18187   1.349   1.750   0.825 -0.3856  0.2360  0.0585
 2242SOL    HW118188   1.368   1.800   0.904 -1.0011 -0.4886  0.6570
 2242SOL    HW218189   1.311   1.675   0.871 -0.8490  0.3256 -0.1743
 2243SOL     OW18190   2.207   3.284   5.682 -0.2341  0.2450  0.3127
 2243SOL    HW118191   2.212   3.290   5.587  1.8010 -0.7523  0.3693
 2243SOL    HW218192   2.296   3.290   5.718 -0.0000  1.8730 -0.5418
 2244SOL     OW18193   1.297   1.133   4.976 -0.8472 -0.3914  0.2259
 2244SOL    HW118194   1.208   1.155   4.947 -0.9231 -1.5351 -0.3873
 2244SOL    HW218195   1.335   1.063   4.924  1.8725  1.7909 -0.6918
 2245SOL     OW18196   4.308   0.111   5.896 -0.1510  0.2554 -0.5832
 2245SOL    HW118197   4.306   0.125   5.802 -1.4424  0.7869 -0.4766
 2245SOL    HW218198   4.259   0.183   5.936  0.9798  0.4406  0.4720
 2246SOL     OW18199   1.228   0.139   6.081  0.3716 -1.0388  0.0234
 2246SOL    HW118200   1.314   0.113   6.048 -0.2882 -2.7129 -0.3859
 2246SOL    HW218201   1.172   0.105   6.012 -0.4739 -3.0538  1.6804
 2247SOL     OW18202   4.667   1.059   7.278 -0.4613  0.5740 -0.0344
 2247SOL    HW118203   4.665   1.153   7.293 -2.6369  0.6925 -1.0420
 2247SOL    HW218204   0.041   1.059   7.283 -0.3028 -1.5351 -2.6454
 2248SOL     OW18205   0.266   4.598   1.644 -0.0074 -0.9031  0.3497
 2248SOL    HW118206   0.283   4.685   1.608  0.2023 -0.2835  1.9346
 2248SOL    HW218207   0.198   4.577   1.580  0.0952 -0.4269  0.0837
 2249SOL     OW18208   3.333   4.407  11.700  0.2828 -0.5105 -0.4039
 2249SOL    HW118209   3.309   4.328  11.747 -0.6733 -0.6503 -1.1272
 2249SOL    HW218210   3.291   4.475  11.753  2.1123 -0.3238  0.7919
 2250SOL     OW18211   3.160   1.264   3.930 -0.4836  0.4728  0.5056
 2250SOL    HW118212   3.179   1.191   3.990  0.7700 -0.4856 -1.0378
 2250SOL    HW218213   3.101   1.206   3.882  0.4115 -1.0852  1.2505
 2251SOL     OW18214   0.225   3.038   5.160 -0.2207  0.2376  0.2164
 2251SOL    HW118215   0.310   3.082   5.164 -0.2998  0.4462 -0.3996
 2251SOL    HW218216   0.230   2.971   5.092  0.1396 -1.0868  1.5417
 2252SOL     OW18217   3.053   1.481   1.334  0.0245 -0.3623  0.2184
 2252SOL    HW118218   3.121   1.440   1.386  0.5099  0.0310 -0.1103
 2252SOL    HW218219   3.086   1.570   1.342 -0.3348 -0.3135  1.1515
 2253SOL     OW18220   1.469   2.696  17.204  0.1845 -0.1759 -0.1423
 2253SOL    HW118221   1.528   2.763  17.171  0.6142 -0.6533 -0.3396
 2253SOL    HW218222   1.528   2.620  17.208  0.2014 -0.1921 -0.7489
 2254SOL     OW18223   2.768   2.695   6.672 -0.1863 -0.7428  0.4288
 2254SOL    HW118224   2.690   2.666   6.720  1.1855 -0.4077  2.8940
 2254SOL    HW218225   2.759   2.652   6.587 -0.6497  0.8502 -0.3203
 2255SOL     OW18226   0.567   0.199   7.948 -0.2277 -0.0622 -0.1634
 2255SOL    HW118227   0.526   0.120   7.914 -0.6945  0.1902 -0.1978
 2255SOL    HW218228   0.525   0.259   7.886 -2.1646 -1.6644 -0.3940
 2256SOL     OW18229   0.306   0.529   3.579  0.1547 -0.7408 -0.3197
 2256SOL    HW118230   0.371   0.596   3.556 -2.3461  1.2921 -1.4431
 2256SOL    HW218231   0.304   0.470   3.504 -1.0361  1.7503 -2.2497
 2257SOL     OW18232   3.843   3.056   6.393  0.5057 -0.2768  0.2290
 2257SOL    HW118233   3.921   3.087   6.438  1.0149 -1.3302  0.0635
 2257SOL    HW218234   3.808   3.118   6.328  0.3874  0.5233  1.0534
 2258SOL     OW18235   0.357   2.844   2.211  0.0512  0.1451 -0.4315
 2258SOL    HW118236   0.397   2.847   2.124  1.8653  1.6838  0.4238
 2258SOL    HW218237   0.428   2.816   2.270  0.0655 -0.1325 -0.5829
 2259SOL     OW18238   2.058   4.021   7.509 -0.6247 -0.5565 -0.6754
 2259SOL    HW118239   1.989   3.998   7.571 -0.1171  1.3500  0.6100
 2259SOL    HW218240   2.032   4.109   7.482  1.3392  0.2653  0.1479
 2260SOL     OW18241   3.620   2.834   5.578 -0.5351  0.4902 -0.1727
 2260SOL    HW118242   3.563   2.811   5.505  1.9241 -1.1363 -1.5619
 2260SOL    HW218243   3.660   2.752   5.607  2.9232  1.0825 -3.3047
 2261SOL     OW18244   2.536   1.298   6.726 -0.7157 -0.5259  0.1820
 2261SOL    HW118245   2.506   1.258   6.644 -1.7762  0.8043 -0.0705
 2261SOL    HW218246   2.558   1.224   6.782 -0.0609  1.5711  2.7017
 2262SOL     OW18247   3.103   1.077   2.387  0.0609  0.2386  0.4539
 2262SOL    HW118248   3.108   0.982   2.393  1.0519  0.3064  0.6009
 2262SOL    HW218249   3.192   1.107   2.369 -0.1975 -0.4868 -2.0239
 2263SOL     OW18250   4.460   3.568  15.232  0.4619  0.4707 -0.5782
 2263SOL    HW118251   4.475   3.650  15.279  0.4021  0.6996 -0.9582
 2263SOL    HW218252   4.518   3.513  15.285 -2.9937 -0.8329  1.8819
 2264SOL     OW18253   0.662   3.208   3.646 -0.0963 -0.4019  0.3484
 2264SOL    HW118254   0.692   3.160   3.569 -0.9187 -0.0982 -0.1529
 2264SOL    HW218255   0.751   3.229   3.674 -0.8188  0.2439  2.1362
 2265SOL     OW18256   2.505   3.579  17.251 -0.0503 -0.1042 -0.2949
 2265SOL    HW118257   2.555   3.661  17.248 -0.7871  0.3643  0.0745
 2265SOL    HW218258   2.422   3.615  17.283  0.5475  3.1637 -2.3896
 2266SOL     OW18259   1.388   0.046  10.674 -0.5093  0.3585  0.2809
 2266SOL    HW118260   1.456   0.031  10.608 -0.0552  2.6238  0.2423
 2266SOL    HW218261   1.419   0.125  10.719  2.2700  0.0753 -1.1349
 2267SOL     OW18262   1.461   2.065   9.116 -0.4111 -0.1153 -1.3288
 2267SOL    HW118263   1.532   2.002   9.124  0.8064  1.5479  0.8262
 2267SOL    HW218264   1.451   2.094   9.206  1.1649 -0.1614 -1.1448
 2268SOL     OW18265   0.332   3.044  15.908  0.0362 -0.0160  0.7619
 2268SOL    HW118266   0.424   3.042  15.884  0.5310 -0.9048  2.8013
 2268SOL    HW218267   0.324   2.971  15.969  1.0376  0.0409  0.9588
 2269SOL     OW18268   2.323   3.872  14.548  0.2994 -0.1636 -0.0118
 2269SOL    HW118269   2.260   3.804  14.573 -2.0598  0.6573 -3.6729
 2269SOL    HW218270   2.382   3.868  14.623 -0.2351  2.0497  0.5075
 2270SOL     OW18271   3.758   3.781   2.507  0.2428  0.1157 -0.4778
 2270SOL    HW118272   3.718   3.773   2.420 -0.8627 -1.7275  0.1950
 2270SOL    HW218273   3.810   3.700   2.502 -1.8496 -1.1468 -2.0095
 2271SOL     OW18274   2.866   2.488   2.784  0.1796 -0.1692  0.1671
 2271SOL    HW118275   2.829   2.415   2.833  1.1235  0.0961  1.2770
 2271SOL    HW218276   2.790   2.546   2.772 -0.6196 -0.9742  1.4883
 2272SOL     OW18277   4.285   4.190   2.570 -0.4276 -0.2074  0.8994
 2272SOL    HW118278   4.219   4.190   2.640 -0.7224 -0.8082  0.6250
 2272SOL    HW218279   4.362   4.202   2.626 -0.5006 -1.0600  1.2014
 2273SOL     OW18280   0.996   3.656   5.858  0.4590  0.2692  0.3196
 2273SOL    HW118281   0.981   3.749   5.837  3.2110  0.3350 -1.3646
 2273SOL    HW218282   1.085   3.646   5.824  0.4706  0.6353  0.2406
 2274SOL     OW18283   2.594   3.829   2.621 -0.7031  0.3112  0.6309
 2274SOL    HW118284   2.636   3.885   2.556  1.5786 -1.6740  0.3771
 2274SOL    HW218285   2.531   3.890   2.659 -0.3014  1.4816 -0.5870
 2275SOL     OW18286   3.543   2.133   4.167  0.5101  0.0337  0.2268
 2275SOL    HW118287   3.584   2.219   4.160  1.0299 -0.2415 -0.0810
 2275SOL    HW218288   3.478   2.154   4.235  0.8357 -0.1239  0.5854
 2276SOL     OW18289   2.056   2.338   2.009 -0.5221 -0.0684 -0.8160
 2276SOL    HW118290   2.085   2.366   2.096  0.2228 -0.0419 -1.0798
 2276SOL    HW218291   2.063   2.243   2.021 -0.9408  0.2289  1.9743
 2277SOL     OW18292   3.341   0.979  11.731 -0.2038  0.0725 -0.4090
 2277SOL    HW118293   3.331   1.025  11.648 -1.7182 -0.0247 -0.2688
 2277SOL    HW218294   3.411   0.914  11.724  1.3847  1.5901  1.0710
 2278SOL     OW18295   4.243   2.941   2.766 -0.1103  0.8134 -1.0905
 2278SOL    HW118296   4.180   2.890   2.817  0.3668  2.1233  0.8253
 2278SOL    HW218297   4.287   2.979   2.842 -0.9423  2.5451 -1.4862
 2279SOL     OW18298   4.573   4.465   2.110 -0.2627  0.1832  0.8102
 2279SOL    HW118299   4.503   4.484   2.172 -2.2075 -3.1934 -0.3319
 2279SOL    HW218300   4.639   4.527   2.141 -1.9493  1.6174  1.5484
 2280SOL     OW18301   3.065   1.866  17.317 -0.0861  0.5310 -1.1786
 2280SOL    HW118302   3.035   1.908  17.397 -0.3980 -1.0935 -0.4363
 2280SOL    HW218303   2.976   1.847  17.289 -0.2789 -2.0789  1.2558
 2281SOL     OW18304   4.705   3.826   9.425  0.1895 -0.1248  0.1261
 2281SOL    HW118305   4.669   3.865   9.505  0.5307 -1.0013  0.7047
 2281SOL    HW218306   4.625   3.783   9.394 -0.4842  0.5368  0.9235
 2282SOL     OW18307   3.903   3.962  12.743 -0.4373 -0.2995 -0.5477
 2282SOL    HW118308   3.824   3.912  12.765 -1.9891  2.5783  0.5388
 2282SOL    HW218309   3.857   4.046  12.736 -0.6323 -0.2999  0.7547
 2283SOL     OW18310   1.087   1.972   8.023 -0.0792 -0.0975 -0.2509
 2283SOL    HW118311   1.074   1.924   7.941 -3.1682 -1.9813  1.3442
 2283SOL    HW218312   1.129   2.051   7.990 -1.4833  0.0676 -1.6336
 2284SOL     OW18313   3.258   0.158   7.262 -0.1529 -0.1496  0.5622
 2284SOL    HW118314   3.218   0.127   7.343 -0.6188  1.0512  0.7941
 2284SOL    HW218315   3.208   0.238   7.246  2.9237  1.7870  0.6305
 2285SOL     OW18316   0.262   2.521   4.738  0.6574  1.1312  0.8848
 2285SOL    HW118317   0.340   2.549   4.691  1.7674  0.9650  2.6476
 2285SOL    HW218318   0.267   2.426   4.724 -0.2402  1.1959  0.1610
 2286SOL     OW18319   0.978   0.438   2.314  0.0159 -0.0213  0.0260
 2286SOL    HW118320   0.941   0.514   2.359 -0.5036  0.2486 -0.8561
 2286SOL    HW218321   0.934   0.367   2.361  0.0040 -0.0738 -0.0628
 2287SOL     OW18322   2.121   2.688   0.331  0.0758  0.2804  0.4685
 2287SOL    HW118323   2.183   2.617   0.315  0.0657  0.0924  1.3129
 2287SOL    HW218324   2.178   2.748   0.380  0.0125  1.3219 -0.7104
 2288SOL     OW18325   4.061   1.940  11.061  0.7633  0.2069  0.3751
 2288SOL    HW118326   4.086   1.871  11.000  1.0038 -0.1052  0.8299
 2288SOL    HW218327   4.126   1.923  11.129  0.1153 -0.0878  0.9245
 2289SOL     OW18328   0.746   2.895   0.755 -0.2331  0.6187  0.6664
 2289SOL    HW118329   0.719   2.918   0.666 -1.4523  0.8189  1.0914
 2289SOL    HW218330   0.749   2.974   0.809 -1.0044  2.5127 -2.0437
 2290SOL     OW18331   1.560   0.963  11.241 -0.0819 -0.3058  0.3871
 2290SOL    HW118332   1.549   0.934  11.332 -2.3151 -3.8757 -0.9912
 2290SOL    HW218333   1.650   0.994  11.247  0.0778 -0.3954 -1.7007
 2291SOL     OW18334   0.978   4.399   1.952  0.1345  0.1277 -0.3068
 2291SOL    HW118335   1.023   4.381   1.870  2.0123 -0.1575  0.7784
 2291SOL    HW218336   1.034   4.475   1.972 -1.1235  0.8056  0.6752
 2292SOL     OW18337   3.764   2.890   9.646  0.2645 -0.5373 -0.4982
 2292SOL    HW118338   3.752   2.970   9.698 -1.8924 -2.8468  2.4910
 2292SOL    HW218339   3.799   2.829   9.710  2.1898  0.2079 -0.8301
 2293SOL     OW18340   4.403   1.268   4.598 -0.1220  0.2730 -0.0421
 2293SOL    HW118341   4.478   1.208   4.599  1.6639  2.4660 -1.7100
 2293SOL    HW218342   4.363   1.240   4.680  0.2331 -0.2181 -0.0325
 2294SOL     OW18343   3.748   3.271  10.248 -0.2136 -0.6182 -0.1021
 2294SOL    HW118344   3.691   3.316  10.311 -1.8389  0.3509 -2.2690
 2294SOL    HW218345   3.831   3.273  10.295 -1.2673  2.7092  1.6350
 2295SOL     OW18346   1.258   0.144  10.283 -0.2497  0.0466 -0.3249
 2295SOL    HW118347   1.234   0.102  10.200  2.1224 -0.7004 -0.6226
 2295SOL    HW218348   1.344   0.186  10.276  0.0692 -0.8169 -1.5888
 2296SOL     OW18349   2.294   3.585   5.531  0.3272 -0.3386  0.5736
 2296SOL    HW118350   2.378   3.540   5.529 -0.0291 -0.9223 -2.0350
 2296SOL    HW218351   2.245   3.542   5.461 -0.8111  1.9326 -0.0619
 2297SOL     OW18352   1.196   1.549   8.981  0.1719 -0.3783  0.1758
 2297SOL    HW118353   1.180   1.623   9.040 -0.5930 -1.6665  1.5737
 2297SOL    HW218354   1.290   1.564   8.975  0.2430 -0.7883  0.2645
 2298SOL     OW18355   4.019   0.229   5.093  0.0676 -0.5222  0.5272
 2298SOL    HW118356   3.974   0.197   5.015  0.9133  0.9360 -0.5630
 2298SOL    HW218357   4.062   0.152   5.132 -3.1675 -3.2043 -1.2814
 2299SOL     OW18358   1.870   0.310   3.197  0.2771 -0.1099 -0.7449
 2299SOL    HW118359   1.857   0.218   3.175 -0.2150 -0.6475  1.7881
 2299SOL    HW218360   1.799   0.317   3.260  1.2428 -2.2506  0.5953
 2300SOL     OW18361   3.812   3.744   9.132 -0.6042 -0.0458 -0.0159
 2300SOL    HW118362   3.757   3.666   9.120  1.3301 -1.2683 -0.8353
 2300SOL    HW218363   3.889   3.687   9.125  0.1911  1.2049 -1.3914
 2301SOL     OW18364   1.801   1.815   5.408 -0.1088  0.2645 -0.1097
 2301SOL    HW118365   1.834   1.845   5.324  0.8840  2.2031  0.9663
 2301SOL    HW218366   1.728   1.876   5.414 -1.4605 -1.3105 -0.3783
 2302SOL     OW18367   0.681   2.385   6.169  0.1490 -0.6729  0.1051
 2302SOL    HW118368   0.648   2.304   6.207  0.0877 -0.9579 -0.5549
 2302SOL    HW218369   0.698   2.436   6.248  1.2333  0.5015 -0.8748
 2303SOL     OW18370   1.220   3.002  13.095  0.2941 -0.7101 -0.2660
 2303SOL    HW118371   1.299   2.950  13.078  0.7064 -0.1957  0.0842
 2303SOL    HW218372   1.221   2.977  13.188  1.0156 -0.6802 -0.2683
 2304SOL     OW18373   0.000   2.490   7.973  0.1802  0.2601 -0.3764
 2304SOL    HW118374   0.066   2.517   8.037 -0.2293 -0.3592  0.3091
 2304SOL    HW218375   4.652   2.530   8.024  0.8370  0.8024  0.0843
 2305SOL     OW18376   0.281   1.288  14.000 -0.1918  0.1201  0.0964
 2305SOL    HW118377   0.211   1.302  13.937  1.1481  0.2763 -1.3489
 2305SOL    HW218378   0.232   1.240  14.067  0.0123 -1.9376 -1.2167
 2306SOL     OW18379   2.971   3.095   2.280  0.1345 -0.6408 -0.0561
 2306SOL    HW118380   3.017   3.173   2.312  0.7219 -1.1216  0.2745
 2306SOL    HW218381   3.025   3.020   2.304  2.0565  0.6876 -0.2592
 2307SOL     OW18382   1.716   1.518   3.055 -0.2138  0.0020 -0.3467
 2307SOL    HW118383   1.643   1.459   3.040 -2.3378  2.3901  0.6201
 2307SOL    HW218384   1.749   1.503   2.967  0.2936  0.3124 -0.2082
 2308SOL     OW18385   2.974   0.194  12.571 -0.0022  0.1664  0.7435
 2308SOL    HW118386   2.948   0.223  12.484  2.5318 -0.3931 -0.1985
 2308SOL    HW218387   3.070   0.191  12.567  0.1138  3.3242  1.5824
 2309SOL     OW18388   1.378   4.675   9.597  0.6560 -0.5875  0.0979
 2309SOL    HW118389   1.465   4.641   9.577  0.8090 -0.1806  0.0594
 2309SOL    HW218390   1.343   4.611   9.658 -1.7063  0.5792 -0.0330
 2310SOL     OW18391   2.733   4.600   6.596  0.3994 -0.1343  0.3011
 2310SOL    HW118392   2.669   4.529   6.604  0.2949  0.2665  3.1237
 2310SOL    HW218393   2.675   4.675   6.610  0.5927 -0.2439  1.7748
 2311SOL     OW18394   2.357   0.919  14.642  0.1342 -0.1236 -0.4303
 2311SOL    HW118395   2.423   0.884  14.702  1.9142  2.2989 -0.9832
 2311SOL    HW218396   2.364   0.862  14.566  2.9556 -0.6086  0.1886
 2312SOL     OW18397   2.719   1.785   2.869  0.2076  0.1556  0.3011
 2312SOL    HW118398   2.725   1.759   2.961 -0.7791  6.5434  2.2038
 2312SOL    HW218399   2.803   1.829   2.854 -0.6927  1.5043 -0.7556
 2313SOL     OW18400   2.749   4.690  12.654 -0.6613  0.3621 -0.0443
 2313SOL    HW118401   2.670   0.021  12.639 -0.4167  0.5330 -0.7375
 2313SOL    HW218402   2.710   4.605  12.636  3.7566 -1.5785 -0.5471
 2314SOL     OW18403   3.415   2.637  12.464  0.2560  0.0377 -0.4374
 2314SOL    HW118404   3.452   2.549  12.462  0.4375  0.0276  3.0078
 2314SOL    HW218405   3.325   2.618  12.435  0.3853 -0.4799 -0.5081
 2315SOL     OW18406   2.629   3.826  16.756  0.1738  0.4650 -0.7141
 2315SOL    HW118407   2.693   3.897  16.755  1.3896 -0.5777  0.7047
 2315SOL    HW218408   2.635   3.798  16.848 -2.2996  0.1735 -0.6369
 2316SOL     OW18409   4.177   0.311  17.305 -0.6575  0.5649 -0.1098
 2316SOL    HW118410   4.197   0.405  17.299  0.0010  0.3399 -1.5577
 2316SOL    HW218411   4.243   0.282  17.367 -2.9718 -0.2738  1.9501
 2317SOL     OW18412   3.924   1.502   2.066  0.0227  0.0561 -0.1247
 2317SOL    HW118413   3.869   1.579   2.050  2.3230  1.8865  0.7719
 2317SOL    HW218414   3.978   1.497   1.987  1.1535  1.1980  0.5773
 2318SOL     OW18415   4.381   3.299   6.806 -0.4193  0.2014  0.4442
 2318SOL    HW118416   4.456   3.340   6.763  0.2360  1.8506  3.1178
 2318SOL    HW218417   4.408   3.313   6.897  0.0677 -1.6184  0.5822
 2319SOL     OW18418   0.186   2.312   8.298  0.0308 -0.4185  0.5204
 2319SOL    HW118419   0.160   2.330   8.388  0.0615 -3.1220  1.0633
 2319SOL    HW218420   0.244   2.386   8.282 -2.0302  1.0462 -0.2647
 2320SOL     OW18421   0.053   4.681   6.271 -0.2417  0.5545 -0.3512
 2320SOL    HW118422   4.708   4.670   6.203  0.9546 -0.5271 -1.3397
 2320SOL    HW218423   0.117   4.614   6.248 -0.4594 -0.7016  2.6397
 2321SOL     OW18424   2.295   3.340   6.903 -0.2241  0.0865  0.3080
 2321SOL    HW118425   2.380   3.295   6.900  1.1553  2.9277 -3.0055
 2321SOL    HW218426   2.241   3.279   6.853 -1.4589  1.7905 -0.4366
 2322SOL     OW18427   3.857   4.363  10.030 -0.1306  0.1411 -0.5136
 2322SOL    HW118428   3.817   4.330   9.949 -1.0561  0.2949 -0.1204
 2322SOL    HW218429   3.827   4.294  10.089  3.7102 -0.8177  0.3309
 2323SOL     OW18430   2.707   2.063  14.215  0.0607 -0.2099  0.1660
 2323SOL    HW118431   2.745   1.976  14.220  3.6769  1.2149 -1.5769
 2323SOL    HW218432   2.765   2.101  14.148  0.0189  1.5545  1.1222
 2324SOL     OW18433   4.314   3.694   2.555  0.3736  0.2985  0.0575
 2324SOL    HW118434   4.332   3.695   2.649  1.8888 -1.2995 -0.2201
 2324SOL    HW218435   4.232   3.744   2.547  0.0676 -0.1507  0.3539
 2325SOL     OW18436   2.415   1.968   3.191 -0.1085  0.5972  0.2191
 2325SOL    HW118437   2.388   1.880   3.219 -0.2846  0.4665 -0.3648
 2325SOL    HW218438   2.359   1.992   3.117  1.3582 -2.9521 -2.0648
 2326SOL     OW18439   1.413   1.746   9.235 -0.3051 -0.0158 -0.2036
 2326SOL    HW118440   1.426   1.688   9.159 -1.9760  0.1482 -0.6112
 2326SOL    HW218441   1.335   1.783   9.195 -1.5465 -0.0393  2.2367
 2327SOL     OW18442   0.979   3.931   1.780 -0.0504  0.8616 -0.2291
 2327SOL    HW118443   1.072   3.953   1.777  0.6215 -2.1553 -1.5688
 2327SOL    HW218444   0.944   4.019   1.769  2.2207  1.7294 -0.3762
 2328SOL     OW18445   0.470   0.454   2.809 -0.8299 -0.6351 -0.2671
 2328SOL    HW118446   0.484   0.463   2.903 -0.0219  1.8708 -0.6265
 2328SOL    HW218447   0.431   0.366   2.809 -2.5414  0.1255 -1.0223
 2329SOL     OW18448   4.261   1.341   1.357 -0.4863  0.1443  0.4206
 2329SOL    HW118449   4.184   1.386   1.322  1.9217  3.0410 -1.1613
 2329SOL    HW218450   4.209   1.267   1.390  1.1579 -1.2116 -0.0542
 2330SOL     OW18451   1.201   3.343   3.144 -0.2037  0.1709  0.3070
 2330SOL    HW118452   1.271   3.281   3.125 -3.8542 -3.7066 -0.5412
 2330SOL    HW218453   1.216   3.408   3.075  0.8715 -2.1674 -1.6709
 2331SOL     OW18454   0.979   4.499   7.940 -0.6197  0.5465 -0.3593
 2331SOL    HW118455   0.968   4.545   8.023 -2.4135 -1.6456  0.6235
 2331SOL    HW218456   1.031   4.422   7.963  2.2307  1.7983 -2.6207
 2332SOL     OW18457   2.675   3.694   0.456  0.1356  0.9916  0.3908
 2332SOL    HW118458   2.723   3.667   0.378  0.1014  0.8183  0.4296
 2332SOL    HW218459   2.736   3.755   0.498 -1.4358  1.0551  2.6072
 2333SOL     OW18460   1.049   0.783   2.159  0.2798 -0.3534  0.0868
 2333SOL    HW118461   1.026   0.700   2.199  0.3154  0.1224  1.0900
 2333SOL    HW218462   0.959   0.814   2.148  0.0052 -0.3829  2.3043
 2334SOL     OW18463   2.291   4.138   6.204 -0.1251 -0.4144 -0.4572
 2334SOL    HW118464   2.280   4.149   6.298  1.9851  1.2009 -0.4086
 2334SOL    HW218465   2.326   4.221   6.172  0.5621 -0.9578 -1.1215
 2335SOL     OW18466   1.279   3.957   1.073 -0.0040  0.5009 -0.2284
 2335SOL    HW118467   1.280   3.942   0.979 -1.0334 -2.3495  0.2240
 2335SOL    HW218468   1.197   3.918   1.102  0.9031 -1.5068 -0.4003
 2336SOL     OW18469   2.907   4.672   9.586  0.6325 -0.0226  0.7716
 2336SOL    HW118470   2.815   4.651   9.568  0.5447 -0.6495  1.9067
 2336SOL    HW218471   2.903   0.016   9.657  2.3652  0.8212  0.0928
 2337SOL     OW18472   0.885   3.294  17.531  0.0354  0.4616  0.1829
 2337SOL    HW118473   0.905   3.206  17.501 -0.1480  0.0914  1.1511
 2337SOL    HW218474   0.816   3.283  17.597 -0.6532 -0.7266 -0.7398
 2338SOL     OW18475   2.029   3.242   5.243 -0.3574 -0.4777 -0.4619
 2338SOL    HW118476   2.019   3.306   5.173  1.4293  0.6159  0.2988
 2338SOL    HW218477   2.036   3.164   5.188  0.2833 -0.6922 -0.0711
 2339SOL     OW18478   3.782   4.207  17.483 -0.2964 -0.4105 -0.0327
 2339SOL    HW118479   3.796   4.142  17.414 -0.9883 -0.8365  0.2266
 2339SOL    HW218480   3.695   4.189  17.519 -1.1627  0.7984 -1.5225
 2340SOL     OW18481   1.631   2.638   5.007  0.7336  0.6237  0.1764
 2340SOL    HW118482   1.725   2.653   5.001  0.7910 -0.2895 -1.0922
 2340SOL    HW218483   1.609   2.613   4.917  0.9225  0.9101  0.0493
 2341SOL     OW18484   2.427   1.372   8.433 -0.3755  0.1838  0.1764
 2341SOL    HW118485   2.446   1.414   8.517 -1.7545 -0.5517  0.8673
 2341SOL    HW218486   2.517   1.347   8.413 -0.7256 -0.5173 -0.5447
 2342SOL     OW18487   2.819   0.807   4.005 -0.2727  0.6117 -0.4285
 2342SOL    HW118488   2.739   0.755   4.011  1.1667 -1.3958  1.7048
 2342SOL    HW218489   2.884   0.739   4.020  0.4539  0.6234 -3.4852
 2343SOL     OW18490   2.645   2.545   7.435  0.3817 -0.2560  0.4513
 2343SOL    HW118491   2.687   2.575   7.354  0.4233  1.9185  1.2673
 2343SOL    HW218492   2.557   2.527   7.405  0.7418  0.2818 -0.9030
 2344SOL     OW18493   0.495   2.864   7.593  0.4539 -0.1387  0.0046
 2344SOL    HW118494   0.402   2.855   7.577 -0.2115  3.9181  1.3820
 2344SOL    HW218495   0.496   2.847   7.687 -0.1209 -1.4087 -0.2232
 2345SOL     OW18496   4.153   3.315   1.684  0.1244 -0.2598  0.3222
 2345SOL    HW118497   4.130   3.323   1.592  0.2039 -0.8007  0.2541
 2345SOL    HW218498   4.071   3.278   1.718 -0.0489  0.5072  0.7354
 2346SOL     OW18499   1.453   3.643  12.067  0.1395 -0.2467 -0.2501
 2346SOL    HW118500   1.390   3.645  12.139 -1.9091 -0.2212 -2.0433
 2346SOL    HW218501   1.531   3.600  12.101  0.1498 -0.8617 -1.0431
 2347SOL     OW18502   4.599   2.975  11.676  0.6815  0.3660  0.9838
 2347SOL    HW118503   4.625   2.967  11.768 -0.7607  0.1070  1.3567
 2347SOL    HW218504   4.569   3.065  11.684 -0.5255  0.1193 -0.7805
 2348SOL     OW18505   0.106   1.865   8.219 -0.3781 -0.1843  0.0872
 2348SOL    HW118506   0.160   1.924   8.272  0.9636 -1.2567 -0.0913
 2348SOL    HW218507   0.031   1.921   8.195 -0.3017  0.6537  1.7933
 2349SOL     OW18508   4.689   1.704   2.798  0.2895 -0.3836 -0.4479
 2349SOL    HW118509   4.628   1.692   2.725 -2.3729  0.2276  1.6710
 2349SOL    HW218510   0.049   1.711   2.747  0.1419 -0.0880 -0.6411
 2350SOL     OW18511   1.171   0.166   6.354  0.0018  0.0915  0.3218
 2350SOL    HW118512   1.205   0.162   6.264 -0.8340 -1.0508  0.0532
 2350SOL    HW218513   1.081   0.146   6.328  0.0227 -1.6807  1.6617
 2351SOL     OW18514   1.243   3.508  17.518 -0.3798 -0.5453  0.3569
 2351SOL    HW118515   1.304   3.504  17.444 -0.2699  0.5744  0.3968
 2351SOL    HW218516   1.304   3.481  17.587 -1.0933  0.2685  1.2973
 2352SOL     OW18517   3.393   3.480  17.463  0.6278 -0.3558 -0.2432
 2352SOL    HW118518   3.352   3.408  17.511 -2.5462  1.9994  0.5600
 2352SOL    HW218519   3.478   3.444  17.487  1.4267  0.6478 -1.5718
 2353SOL     OW18520   1.732   0.425   2.531 -0.4909  0.6195  0.2527
 2353SOL    HW118521   1.773   0.428   2.445  0.0359  0.1178  0.4891
 2353SOL    HW218522   1.729   0.331   2.546 -0.5393  1.2722  4.4014
 2354SOL     OW18523   3.238   2.783   4.076  0.3278  0.2689  0.0794
 2354SOL    HW118524   3.280   2.779   4.162  0.9319 -0.6170 -0.2513
 2354SOL    HW218525   3.317   2.795   4.023  0.7678  0.8042  0.8534
 2355SOL     OW18526   3.656   2.996   1.218 -0.0060 -0.0148  0.1798
 2355SOL    HW118527   3.677   2.903   1.219 -0.0863 -0.0553 -1.4764
 2355SOL    HW218528   3.737   3.029   1.179 -0.3689  0.1761 -0.4041
 2356SOL     OW18529   0.589   2.069  14.276  0.3475 -0.3413  0.7949
 2356SOL    HW118530   0.684   2.072  14.289  0.2528  1.6277  0.9453
 2356SOL    HW218531   0.558   2.153  14.309 -1.7981 -0.8674  0.1557
 2357SOL     OW18532   4.650   2.904   6.000 -0.1057 -0.3985  0.3191
 2357SOL    HW118533   4.634   2.818   5.959  1.2419 -1.9399  3.0291
 2357SOL    HW218534   4.578   2.951   5.959 -0.3862  1.4109  2.8957
 2358SOL     OW18535   3.680   0.490   8.573 -0.3625  0.5791  0.2767
 2358SOL    HW118536   3.753   0.443   8.613  0.5435  1.3790 -0.4553
 2358SOL    HW218537   3.639   0.531   8.649 -2.0045  1.5721 -1.1373
 2359SOL     OW18538   0.404   1.867   4.246 -0.1005 -0.3023  0.1866
 2359SOL    HW118539   0.317   1.875   4.285 -0.8507 -0.7201 -1.3819
 2359SOL    HW218540   0.379   1.843   4.157 -2.4722 -2.2490  1.3708
 2360SOL     OW18541   4.060   3.631   5.634 -0.4317  0.3079 -0.2645
 2360SOL    HW118542   4.020   3.715   5.655  0.7736  0.9851 -0.6531
 2360SOL    HW218543   3.985   3.587   5.593 -1.0742 -0.6022  1.9094
 2361SOL     OW18544   2.178   4.038  14.324  0.1225 -0.5634 -0.4966
 2361SOL    HW118545   2.111   3.981  14.362 -1.4622  1.5045 -0.1453
 2361SOL    HW218546   2.196   4.100  14.395  0.0517 -1.3063  0.1740
 2362SOL     OW18547   1.168   2.055   6.029 -0.5800  0.0737 -0.0679
 2362SOL    HW118548   1.118   1.992   6.081  0.6670 -1.0412 -0.2115
 2362SOL    HW218549   1.181   2.003   5.949 -0.8809  3.5775 -2.3877
 2363SOL     OW18550   3.958   3.845   3.737 -0.2622 -0.6818 -0.2526
 2363SOL    HW118551   3.968   3.928   3.784  1.2726 -1.5028  0.8656
 2363SOL    HW218552   4.002   3.793   3.804 -2.5255 -1.4623  0.6373
 2364SOL     OW18553   4.121   4.543   1.075  0.0516  0.2495 -0.6814
 2364SOL    HW118554   4.062   4.609   1.037  2.1658  3.2083  1.1410
 2364SOL    HW218555   4.198   4.595   1.101 -0.9778  0.6769  1.5071
 2365SOL     OW18556   1.532   1.716   0.235  0.4516  0.2934 -0.0495
 2365SOL    HW118557   1.486   1.744   0.156  3.5660 -0.8471 -2.2484
 2365SOL    HW218558   1.455   1.688   0.285 -0.5257  0.6685 -1.3628
 2366SOL     OW18559   2.415   1.266   7.072 -0.2903 -0.1425 -0.2274
 2366SOL    HW118560   2.436   1.337   7.133 -0.2617  0.4245 -0.9028
 2366SOL    HW218561   2.356   1.214   7.126 -2.4750  0.9749 -1.5825
 2367SOL     OW18562   2.679   1.780  10.738 -0.0313  0.7314 -0.1267
 2367SOL    HW118563   2.744   1.751  10.802  1.5585  3.8646 -0.3242
 2367SOL    HW218564   2.733   1.751  10.664  1.8272  2.2954  0.6003
 2368SOL     OW18565   2.018   3.744   8.294  0.5474  0.4001 -0.3510
 2368SOL    HW118566   1.949   3.724   8.357  0.8837 -1.0545 -0.4296
 2368SOL    HW218567   2.043   3.656   8.265 -1.6604  0.2940 -1.9332
 2369SOL     OW18568   3.729   0.325   8.297  0.8568  0.5127 -0.0453
 2369SOL    HW118569   3.707   0.241   8.257 -0.1113 -0.1039  1.7927
 2369SOL    HW218570   3.644   0.361   8.323  0.2478 -2.6950  2.4237
 2370SOL     OW18571   2.070   0.668  11.657 -0.1374 -0.5339  0.7272
 2370SOL    HW118572   2.044   0.611  11.729 -1.1762 -0.3072  0.5309
 2370SOL    HW218573   2.007   0.650  11.588  1.2454  1.0688 -0.9575
 2371SOL     OW18574   2.943   1.464  17.504 -0.1015 -0.5264  0.3233
 2371SOL    HW118575   3.008   1.516  17.458 -0.3121  0.8130  1.5292
 2371SOL    HW218576   2.959   1.488  17.596 -0.5679 -0.4920  0.3948
 2372SOL     OW18577   3.691   3.570   8.864  0.0567  0.0399 -0.0566
 2372SOL    HW118578   3.644   3.650   8.888  2.4785  0.5535  3.0554
 2372SOL    HW218579   3.671   3.517   8.942 -1.0104  0.4612 -0.0556
 2373SOL     OW18580   1.338   1.936   8.916 -0.1553 -0.7179 -0.5722
 2373SOL    HW118581   1.373   2.009   8.968  0.8803 -0.1328 -2.0859
 2373SOL    HW218582   1.278   1.900   8.981  0.4334 -2.3213 -0.9361
 2374SOL     OW18583   4.609   2.827   7.365  0.3402  0.4857  0.2910
 2374SOL    HW118584   4.641   2.902   7.416  0.8625  0.8279 -0.5339
 2374SOL    HW218585   4.683   2.778   7.330 -0.8217  0.1598 -1.7189
 2375SOL     OW18586   0.579   0.335   2.512 -0.2780 -0.4327 -0.5346
 2375SOL    HW118587   0.575   0.385   2.594  1.4275 -0.5486 -0.3866
 2375SOL    HW218588   0.488   0.310   2.500 -0.2091 -1.0274  0.1703
 2376SOL     OW18589   2.893   2.011   2.852 -0.2146 -0.4129  0.8114
 2376SOL    HW118590   2.984   2.024   2.880  0.0941 -0.2798 -0.2286
 2376SOL    HW218591   2.903   2.017   2.757 -1.1197 -0.6863  0.6978
 2377SOL     OW18592   0.211   4.503  12.726 -0.2918 -0.2240 -0.0519
 2377SOL    HW118593   0.177   4.517  12.638  0.8508 -0.2754 -0.5061
 2377SOL    HW218594   0.289   4.447  12.714 -0.5180 -1.0787  2.4859
 2378SOL     OW18595   4.130   0.461  10.649  0.2742  0.2643 -0.3668
 2378SOL    HW118596   4.082   0.456  10.732 -3.0435 -0.1493 -2.3376
 2378SOL    HW218597   4.131   0.367  10.628 -1.5589  0.3476 -0.8132
 2379SOL     OW18598   4.679   4.383   6.038 -1.0817 -0.5938  0.3336
 2379SOL    HW118599   4.676   4.383   6.134  0.0921  0.9316  0.3842
 2379SOL    HW218600   4.654   4.474   6.019  0.4531 -0.5157 -1.3059
 2380SOL     OW18601   2.499   2.470  10.216 -0.0578 -0.2831  1.0245
 2380SOL    HW118602   2.457   2.421  10.286 -2.1004 -0.5690 -0.3674
 2380SOL    HW218603   2.497   2.560  10.249 -1.7240 -0.1031  0.4623
 2381SOL     OW18604   3.418   2.241  11.077  0.0768  0.0416 -0.5970
 2381SOL    HW118605   3.443   2.149  11.066 -0.5272 -0.2084  0.1689
 2381SOL    HW218606   3.424   2.274  10.987  1.1025  0.1535 -0.4904
 2382SOL     OW18607   1.532   0.240   3.139 -0.2023 -0.2638  0.3202
 2382SOL    HW118608   1.476   0.219   3.213 -0.4276  0.1934  0.2812
 2382SOL    HW218609   1.593   0.303   3.178  1.4229 -0.2686 -2.1679
 2383SOL     OW18610   1.250   3.200   3.541  0.1276  0.0281  0.3812
 2383SOL    HW118611   1.308   3.154   3.481  0.6801  1.5987 -0.2667
 2383SOL    HW218612   1.230   3.144   3.616 -0.3634 -1.6056 -0.9702
 2384SOL     OW18613   2.684   2.258   5.886  0.2758  0.0564  0.5407
 2384SOL    HW118614   2.758   2.258   5.946 -0.2184 -0.8996  1.1464
 2384SOL    HW218615   2.642   2.177   5.913  0.4755 -0.2944 -0.2198
 2385SOL     OW18616   2.289   2.166   3.395  0.0086 -0.5693 -0.0050
 2385SOL    HW118617   2.221   2.187   3.331 -0.8316 -0.8678  0.7924
 2385SOL    HW218618   2.231   2.161   3.472 -0.7461 -1.9030 -0.6576
 2386SOL     OW18619   3.812   3.032   5.688  0.4496 -0.1128  1.0188
 2386SOL    HW118620   3.863   3.011   5.610  1.1516 -0.3142  1.5319
 2386SOL    HW218621   3.815   2.949   5.735  1.0633  0.1264  1.4071
 2387SOL     OW18622   0.121   0.382   7.042  0.2208  0.0079 -0.4022
 2387SOL    HW118623   0.032   0.398   7.010 -1.5938 -0.6481  4.3814
 2387SOL    HW218624   0.170   0.368   6.961 -0.2109  2.0351 -1.0117
 2388SOL     OW18625   0.805   0.972  13.702  0.0506 -0.4013  0.4118
 2388SOL    HW118626   0.813   0.980  13.797  2.6821  0.7167  0.0960
 2388SOL    HW218627   0.893   0.944  13.675  0.6534  0.3913  1.5511
 2389SOL     OW18628   0.706   0.554   1.738  0.0889 -0.1430  0.0427
 2389SOL    HW118629   0.763   0.628   1.717  2.2252 -1.4401  1.3288
 2389SOL    HW218630   0.704   0.565   1.833 -1.0488 -1.1984  0.1395
 2390SOL     OW18631   2.809   2.304   6.479  0.3718  0.1995  0.2830
 2390SOL    HW118632   2.720   2.277   6.500  0.9848 -0.9933  1.3776
 2390SOL    HW218633   2.857   2.246   6.538 -0.9789 -1.6184 -0.4098
 2391SOL     OW18634   1.769   4.484  14.819 -0.3749  0.0415 -0.0206
 2391SOL    HW118635   1.731   4.492  14.906  0.9420 -0.2512  0.5818
 2391SOL    HW218636   1.861   4.503  14.835 -0.1146 -0.7314 -0.6113
 2392SOL     OW18637   2.336   3.763  12.509  0.2059  0.3597  0.2287
 2392SOL    HW118638   2.282   3.706  12.564 -2.2447 -0.9039 -3.5157
 2392SOL    HW218639   2.289   3.756  12.426 -0.0014 -0.6526  0.4396
 2393SOL     OW18640   2.935   0.607  13.963 -0.6454 -0.1197 -0.1867
 2393SOL    HW118641   2.915   0.684  14.016 -0.3592  1.2403 -2.0473
 2393SOL    HW218642   2.881   0.541  14.006  0.3505 -1.0701 -0.3944
 2394SOL     OW18643   1.473   1.670   3.169 -0.2354 -0.0232 -0.7294
 2394SOL    HW118644   1.543   1.606   3.156 -0.4560 -0.6755  1.2759
 2394SOL    HW218645   1.521   1.747   3.201 -1.3149 -0.4177  1.8479
 2395SOL     OW18646   1.077   3.673   2.948 -0.0800  0.3364 -0.1176
 2395SOL    HW118647   1.017   3.656   3.021  2.0108  0.2367  1.5606
 2395SOL    HW218648   1.163   3.658   2.986 -0.4699  0.0468  0.6611
 2396SOL     OW18649   0.356   3.719   7.283 -0.4595 -0.0213 -0.1314
 2396SOL    HW118650   0.269   3.685   7.259 -0.2567  0.6094 -1.8131
 2396SOL    HW218651   0.371   3.781   7.212 -1.5374 -1.6213 -1.7673
 2397SOL     OW18652   1.073   1.794   8.658  0.2173 -0.2460  0.2959
 2397SOL    HW118653   1.076   1.727   8.589  0.6442 -1.3166  1.3507
 2397SOL    HW218654   0.990   1.839   8.639  2.3645  2.3744 -2.7420
 2398SOL     OW18655   0.833   3.872  12.406  0.4175  0.4910 -0.5028
 2398SOL    HW118656   0.757   3.886  12.462  0.6441  0.8576 -0.2872
 2398SOL    HW218657   0.826   3.796  12.349  0.6131  1.4729 -1.8152
 2399SOL     OW18658   0.121   0.537   8.714  0.5084  0.1293  0.0625
 2399SOL    HW118659   0.074   0.620   8.701  0.4419  0.1453  0.3832
 2399SOL    HW218660   0.105   0.513   8.806  0.9494  0.6398  0.2759
 2400SOL     OW18661   2.569   1.745  17.430 -0.4655 -0.4722  0.8289
 2400SOL    HW118662   2.566   1.793  17.513  1.0429  0.3885  0.3884
 2400SOL    HW218663   2.494   1.780  17.384  0.6355  1.2907  0.3712
 2401SOL     OW18664   0.516   0.692   4.927 -0.0393  0.2129  0.5322
 2401SOL    HW118665   0.611   0.693   4.936 -0.0770  0.0965  0.9466
 2401SOL    HW218666   0.505   0.601   4.955  1.8449 -0.3425 -0.5298
 2402SOL     OW18667   1.866   3.373   6.811  0.3759 -0.1457 -0.0234
 2402SOL    HW118668   1.784   3.324   6.812  0.2901 -0.0360 -1.3287
 2402SOL    HW218669   1.887   3.348   6.901  0.4814  0.2509  0.0637
 2403SOL     OW18670   0.403   3.057   7.963  0.2918  0.6830  0.3730
 2403SOL    HW118671   0.491   3.071   7.929  0.7002 -0.7819  0.8132
 2403SOL    HW218672   0.419   3.031   8.054  0.3175  1.2591  0.5294
 2404SOL     OW18673   1.058   3.440  14.485  0.0490  0.1045  0.0615
 2404SOL    HW118674   1.060   3.371  14.417 -0.3590 -0.0551  0.2123
 2404SOL    HW218675   0.991   3.489  14.438  0.3611  0.4583 -0.0122
 2405SOL     OW18676   3.042   4.432   9.532  0.3827 -0.4894  0.3086
 2405SOL    HW118677   3.037   4.382   9.614  1.1939 -1.1966 -0.0842
 2405SOL    HW218678   3.042   4.522   9.566 -0.2387 -0.4272  0.1453
 2406SOL     OW18679   2.045   3.392   7.481 -0.2552 -0.1932 -0.1226
 2406SOL    HW118680   2.111   3.337   7.523  0.9653  0.3782 -1.2760
 2406SOL    HW218681   2.075   3.384   7.390  0.9334  0.5379  0.2072
 2407SOL     OW18682   3.618   0.919   4.398 -0.7088  0.3443  0.4031
 2407SOL    HW118683   3.697   0.940   4.448  0.7163  0.4564 -1.8865
 2407SOL    HW218684   3.568   0.870   4.463  0.9158 -1.1462  0.5160
 2408SOL     OW18685   2.932   2.585   9.248  0.1914  0.3471 -0.3280
 2408SOL    HW118686   2.944   2.507   9.194  1.1589 -0.3567  0.8867
 2408SOL    HW218687   2.967   2.552   9.331  1.3360 -1.6884 -1.6171
 2409SOL     OW18688   4.207   0.155   3.538 -0.3907 -0.3329 -0.1363
 2409SOL    HW118689   4.217   0.126   3.448 -1.3400 -0.7341 -0.1157
 2409SOL    HW218690   4.261   0.090   3.581  1.1830  0.7877 -0.4271
 2410SOL     OW18691   1.240   1.662   2.983  0.2829  0.2813 -0.7146
 2410SOL    HW118692   1.169   1.656   3.047  1.2609 -1.8205  0.1579
 2410SOL    HW218693   1.310   1.707   3.030  0.6489 -1.2304  0.1677
 2411SOL     OW18694   3.633   4.165  16.278  0.6179 -0.0846 -0.2031
 2411SOL    HW118695   3.708   4.199  16.328  0.3194  1.1841 -0.6283
 2411SOL    HW218696   3.659   4.209  16.198  1.1372  0.3901  0.2227
 2412SOL     OW18697   2.869   2.896   5.648 -0.1816 -0.0177 -0.9831
 2412SOL    HW118698   2.935   2.827   5.645  1.0383  1.0112  3.0113
 2412SOL    HW218699   2.908   2.949   5.717 -2.3956 -1.1846  1.1552
 2413SOL     OW18700   3.589   1.807   5.687  0.2000  0.3904 -0.0944
 2413SOL    HW118701   3.658   1.841   5.745 -1.5313 -0.7177  2.6204
 2413SOL    HW218702   3.518   1.801   5.751 -1.1050 -0.8607 -1.6951
 2414SOL     OW18703   0.566   1.088  13.659 -0.5264  0.2690 -0.2674
 2414SOL    HW118704   0.555   1.161  13.719 -1.6422 -0.4104  0.3520
 2414SOL    HW218705   0.643   1.038  13.687 -1.3509 -0.5811  0.4526
 2415SOL     OW18706   1.831   3.254   9.191  0.2575 -0.5757 -0.2274
 2415SOL    HW118707   1.837   3.188   9.260  0.7592 -0.9068 -0.5899
 2415SOL    HW218708   1.904   3.312   9.213  0.9327 -1.0224 -1.3429
 2416SOL     OW18709   0.157   3.116   7.791  0.5666  0.3099  0.9793
 2416SOL    HW118710   0.167   3.175   7.717 -0.0376  0.2652  0.8584
 2416SOL    HW218711   0.184   3.171   7.865  2.6429  4.1812 -2.6363
 2417SOL     OW18712   1.369   2.829   1.619  0.8408 -0.0063  0.4214
 2417SOL    HW118713   1.368   2.906   1.563  0.4033  0.0931  0.5628
 2417SOL    HW218714   1.407   2.761   1.563  0.2577  0.2423 -0.2722
 2418SOL     OW18715   2.168   4.603   7.432  0.1019  0.5652  0.0118
 2418SOL    HW118716   2.163   4.696   7.409  2.0863  0.0180 -2.5152
 2418SOL    HW218717   2.229   4.600   7.506  0.8562 -0.1741 -0.6408
 2419SOL     OW18718   0.760   0.086   7.588 -0.0900  0.4392 -0.3562
 2419SOL    HW118719   0.699   0.154   7.560 -0.7238 -0.7465 -1.9321
 2419SOL    HW218720   0.796   0.125   7.667 -2.3348  1.2394  0.2776
 2420SOL     OW18721   1.469   1.156   7.907 -0.1779  0.3027 -0.0168
 2420SOL    HW118722   1.408   1.161   7.980 -1.5467  0.1357 -1.1542
 2420SOL    HW218723   1.540   1.102   7.943 -1.7025 -1.5079  0.2787
 2421SOL     OW18724   3.113   1.699   4.060 -0.3428 -0.2712 -0.0089
 2421SOL    HW118725   3.168   1.640   4.111  0.4828  0.6754  0.1841
 2421SOL    HW218726   3.178   1.718   3.993 -0.2978 -1.1845 -0.2250
 2422SOL     OW18727   4.685   0.171   5.089 -0.5655 -0.3077  0.0914
 2422SOL    HW118728   0.056   0.164   5.115  0.1349  0.1192 -2.2672
 2422SOL    HW218729   4.680   0.131   5.002  0.3270  1.0884 -0.6071
 2423SOL     OW18730   3.898   2.357   3.979 -0.2645 -0.0317  0.6830
 2423SOL    HW118731   3.991   2.351   3.957 -0.3526  0.8779  0.0632
 2423SOL    HW218732   3.873   2.265   3.964 -0.2794  0.0734  0.0850
 2424SOL     OW18733   1.859   2.695   1.458 -0.0015  0.3661  0.2874
 2424SOL    HW118734   1.948   2.696   1.492 -0.0456 -0.0794  0.4141
 2424SOL    HW218735   1.848   2.790   1.463  0.6319  0.3990  1.1609
 2425SOL     OW18736   2.668   2.410  11.669  0.3270 -0.1375 -0.4059
 2425SOL    HW118737   2.737   2.442  11.610  0.4121  0.8471  0.2290
 2425SOL    HW218738   2.621   2.493  11.678 -1.0904 -0.7233 -2.4318
 2426SOL     OW18739   0.523   3.368   2.913 -0.0557  0.1066  0.4636
 2426SOL    HW118740   0.509   3.376   2.818 -2.1993  0.1310  0.7738
 2426SOL    HW218741   0.604   3.318   2.902 -0.4743  0.0503 -2.6244
 2427SOL     OW18742   3.148   1.484   8.398  0.1756 -0.2294  0.4142
 2427SOL    HW118743   3.070   1.536   8.418  0.2518 -0.4453  1.2886
 2427SOL    HW218744   3.124   1.410   8.454 -1.2844 -0.7356 -0.8858
 2428SOL     OW18745   0.252   2.765   9.883  0.3605  0.4101  0.5181
 2428SOL    HW118746   0.308   2.842   9.876  2.0451 -0.8878 -0.3202
 2428SOL    HW218747   0.222   2.755   9.973  0.2139 -1.6930  0.2366
 2429SOL     OW18748   1.026   1.080   4.711 -0.3453 -0.1440 -0.6855
 2429SOL    HW118749   0.969   1.092   4.788 -0.6594 -1.0521 -0.7711
 2429SOL    HW218750   1.002   1.157   4.660  1.3692 -0.0466 -1.3271
 2430SOL     OW18751   0.855   2.859  13.505 -0.2521 -0.3037  0.1110
 2430SOL    HW118752   0.844   2.764  13.492  1.2059 -0.6084  1.1417
 2430SOL    HW218753   0.878   2.880  13.415 -0.3681 -1.9765 -0.3126
 2431SOL     OW18754   3.908   1.666   3.434 -0.5574  0.1428  0.4471
 2431SOL    HW118755   3.964   1.602   3.390  0.3868  0.7208  0.8267
 2431SOL    HW218756   3.821   1.633   3.412 -0.6022  0.1858  0.5617
 2432SOL     OW18757   4.106   2.751   7.388 -0.1006 -0.7202 -0.3219
 2432SOL    HW118758   4.076   2.828   7.339  1.7936  0.9327  1.0795
 2432SOL    HW218759   4.089   2.788   7.475 -2.4414 -1.9605 -0.2532
 2433SOL     OW18760   2.392   2.693   3.967 -0.0660  0.0827  0.0532
 2433SOL    HW118761   2.383   2.613   3.914  0.7383 -1.0150  1.5658
 2433SOL    HW218762   2.399   2.650   4.052  0.3882  3.1513  1.5581
 2434SOL     OW18763   0.505   1.964   2.680 -0.1221 -0.2508 -0.4186
 2434SOL    HW118764   0.585   1.917   2.703 -0.4393 -1.0305 -0.9070
 2434SOL    HW218765   0.442   1.922   2.740  0.0313  0.7219  0.4191
 2435SOL     OW18766   3.162   0.956  16.172  0.2076 -0.3065 -0.1575
 2435SOL    HW118767   3.082   0.968  16.121  0.3711  0.5265 -0.2120
 2435SOL    HW218768   3.221   0.965  16.097 -1.8377  0.2206 -1.6927
 2436SOL     OW18769   0.164   3.385   2.174  0.5198 -0.1172  0.0269
 2436SOL    HW118770   0.186   3.306   2.124 -1.9427 -1.3664  0.9035
 2436SOL    HW218771   0.130   3.346   2.254 -1.2416  1.8891  0.2501
 2437SOL     OW18772   2.356   4.631   6.079 -0.8960  0.3838  0.0355
 2437SOL    HW118773   2.263   4.634   6.104 -1.3619 -0.5068 -1.5798
 2437SOL    HW218774   2.397   4.693   6.140  1.0339 -0.0660 -0.8074
 2438SOL     OW18775   2.517   3.153   1.488  0.0345  0.1630 -0.0514
 2438SOL    HW118776   2.456   3.080   1.499 -0.4659  0.2321 -2.3333
 2438SOL    HW218777   2.598   3.108   1.510 -1.2228 -2.4962 -0.7451
 2439SOL     OW18778   1.134   3.143   2.694 -0.0754 -0.2614  0.1254
 2439SOL    HW118779   1.042   3.150   2.668  0.1735 -2.1811 -1.2623
 2439SOL    HW218780   1.183   3.199   2.634  0.2979  0.4679  1.0971
 2440SOL     OW18781   1.152   4.616  10.166 -0.3588 -0.0804  0.0465
 2440SOL    HW118782   1.222   4.553  10.184  1.6956  2.6754  1.5851
 2440SOL    HW218783   1.138   4.590  10.074 -0.4466 -1.9342  0.5813
 2441SOL     OW18784   3.743   1.987   2.379 -0.1811  0.4385 -0.0827
 2441SOL    HW118785   3.767   1.923   2.446 -1.9066 -0.5731 -0.4551
 2441SOL    HW218786   3.813   2.052   2.393  0.4090 -0.4451  1.1277
 2442SOL     OW18787   1.314   0.824  16.013 -0.1094 -0.2121 -0.2184
 2442SOL    HW118788   1.246   0.769  15.974 -0.7424  0.3859  0.0568
 2442SOL    HW218789   1.363   0.846  15.933 -1.8709  2.2618 -0.6005
 2443SOL     OW18790   2.707   3.991  13.827  0.4223 -0.2061 -0.0241
 2443SOL    HW118791   2.632   4.026  13.875 -1.1278 -1.1968 -1.7082
 2443SOL    HW218792   2.666   3.925  13.772 -0.3924 -0.8721  1.4065
 2444SOL     OW18793   3.791   1.551   4.790 -0.4284 -0.0016 -0.0492
 2444SOL    HW118794   3.793   1.508   4.705 -1.4476 -0.4893  0.1662
 2444SOL    HW218795   3.786   1.643   4.764 -1.1476  0.0018  0.1077
 2445SOL     OW18796   2.027   2.809  11.707  0.0426 -0.3418  0.3702
 2445SOL    HW118797   1.960   2.750  11.742 -0.7279  0.6603  0.5755
 2445SOL    HW218798   2.003   2.883  11.762 -2.1233 -0.6342 -0.2089
 2446SOL     OW18799   4.148   4.159  17.536  0.2756 -0.0482 -0.4013
 2446SOL    HW118800   4.088   4.087  17.553 -0.6670  1.5616  3.1511
 2446SOL    HW218801   4.233   4.118  17.522 -0.5199 -1.7953 -0.0071
 2447SOL     OW18802   1.727   1.511  16.542  0.4987  0.3799  0.6300
 2447SOL    HW118803   1.742   1.594  16.497  1.3845 -0.0517  0.1244
 2447SOL    HW218804   1.688   1.466  16.467  0.5484  2.6415 -0.7438
 2448SOL     OW18805   2.316   1.361   3.625 -0.4426  0.1156  0.6177
 2448SOL    HW118806   2.369   1.428   3.582 -2.6430  1.6018  0.2500
 2448SOL    HW218807   2.304   1.408   3.707 -0.8919  1.1476 -0.0447
 2449SOL     OW18808   3.421   1.556   4.002  0.1092  0.0652 -0.5450
 2449SOL    HW118809   3.437   1.645   4.032  0.2613 -1.2837  3.4467
 2449SOL    HW218810   3.458   1.562   3.914  1.1067  0.5967 -0.0846
 2450SOL     OW18811   4.520   0.162  14.429 -0.4816 -0.4546  0.5224
 2450SOL    HW118812   4.468   0.168  14.348 -0.8137  1.1528  0.8516
 2450SOL    HW218813   4.483   0.237  14.476  1.7268  1.5800 -0.9752
 2451SOL     OW18814   3.749   0.253   0.773 -0.2194 -0.4509 -0.2146
 2451SOL    HW118815   3.714   0.284   0.856 -1.0065  0.9698 -1.0807
 2451SOL    HW218816   3.709   0.312   0.710 -1.7731 -0.9104  0.3532
 2452SOL     OW18817   4.177   0.040  13.605 -0.7114 -0.3444  0.4773
 2452SOL    HW118818   4.224   0.031  13.687 -0.8712 -1.0099  0.4963
 2452SOL    HW218819   4.252   0.026  13.546  2.3590  1.5682  3.9533
 2453SOL     OW18820   3.498   3.686   7.745 -0.2227 -0.0267  0.1564
 2453SOL    HW118821   3.499   3.773   7.707  1.4397 -0.1379 -0.0134
 2453SOL    HW218822   3.583   3.682   7.788 -0.2949  0.6827  0.3641
 2454SOL     OW18823   1.468   0.283   2.874  0.0329 -0.0113  0.4865
 2454SOL    HW118824   1.448   0.276   2.968  0.5010 -0.2273  0.5704
 2454SOL    HW218825   1.537   0.347   2.889 -0.3318  0.5266 -0.1735
 2455SOL     OW18826   1.537   3.409   5.631 -0.0846 -0.1816 -0.0144
 2455SOL    HW118827   1.562   3.474   5.697  2.7818 -0.4165 -0.8631
 2455SOL    HW218828   1.604   3.341   5.639  0.9731  1.0346  1.4903
 2456SOL     OW18829   3.858   3.219   7.813 -0.0135 -0.0928 -0.1883
 2456SOL    HW118830   3.779   3.197   7.863  1.1598 -1.1654  1.1770
 2456SOL    HW218831   3.921   3.154   7.844 -0.3310  0.0678  0.8035
 2457SOL     OW18832   2.245   3.169   3.644 -0.2879  0.0415  0.0783
 2457SOL    HW118833   2.275   3.216   3.566 -2.4562  1.8883  0.3607
 2457SOL    HW218834   2.272   3.230   3.713 -0.1604  1.1248 -0.9342
 2458SOL     OW18835   1.074   4.443   5.364  0.3546 -0.3209  0.0797
 2458SOL    HW118836   1.042   4.533   5.363  0.4231 -0.3212 -2.8883
 2458SOL    HW218837   1.154   4.466   5.317  1.5313  3.1724  3.7792
 2459SOL     OW18838   1.409   1.877   1.057  0.3326 -0.5781 -0.6261
 2459SOL    HW118839   1.414   1.852   1.149  1.4313 -0.3607 -0.6215
 2459SOL    HW218840   1.442   1.966   1.065  1.0927 -0.7902 -1.2958
 2460SOL     OW18841   2.293   3.480  10.091  0.1697 -0.5695 -0.1694
 2460SOL    HW118842   2.212   3.429  10.092 -1.1676  1.6091  1.5866
 2460SOL    HW218843   2.336   3.438  10.165  1.3250 -1.2313 -1.2087
 2461SOL     OW18844   1.400   2.036  16.689  0.1606 -0.1748  0.2429
 2461SOL    HW118845   1.358   2.096  16.751  0.1301 -0.3180  0.3623
 2461SOL    HW218846   1.431   2.089  16.616 -0.2352 -0.2384  0.0294
 2462SOL     OW18847   0.224   3.326   7.590 -0.3143  0.1268  0.3471
 2462SOL    HW118848   0.298   3.366   7.544  0.6166  0.3634  2.0455
 2462SOL    HW218849   0.172   3.402   7.615 -2.5384 -0.3062 -3.0200
 2463SOL     OW18850   0.171   0.932   9.797 -0.5926 -0.4158  0.4926
 2463SOL    HW118851   0.221   1.000   9.842  0.1244 -1.0704  0.6834
 2463SOL    HW218852   0.086   0.942   9.839  0.1252  1.0517  1.5947
 2464SOL     OW18853   4.172   0.903   8.386  0.0465  0.1274  0.2774
 2464SOL    HW118854   4.201   0.929   8.298  3.0740  2.1368  1.8974
 2464SOL    HW218855   4.247   0.948   8.425 -0.5163  0.0419  1.4315
 2465SOL     OW18856   1.330   3.358   4.992 -0.3843 -0.2132 -0.0896
 2465SOL    HW118857   1.403   3.420   4.988  0.8946 -1.7742 -1.0200
 2465SOL    HW218858   1.354   3.307   5.069  3.1065 -0.4249 -1.3091
 2466SOL     OW18859   1.589   2.818  12.145 -0.0827  0.1089  0.0888
 2466SOL    HW118860   1.509   2.775  12.176 -0.2984  0.2848 -0.2191
 2466SOL    HW218861   1.633   2.745  12.102  1.3049  1.7017 -1.1837
 2467SOL     OW18862   4.585   4.706   3.281  0.9607 -0.0676 -0.3218
 2467SOL    HW118863   4.628   4.625   3.309 -0.2801 -1.0516 -1.2565
 2467SOL    HW218864   4.513   4.676   3.226 -0.3107 -0.9724  1.8481
 2468SOL     OW18865   2.943   3.051  16.870  0.1004 -0.1171  0.4799
 2468SOL    HW118866   2.910   3.122  16.814 -1.2125 -2.4713 -1.7559
 2468SOL    HW218867   3.037   3.069  16.875 -0.1034  0.0168  3.6987
 2469SOL     OW18868   2.977   1.204   4.742 -0.2340 -0.2713 -0.4525
 2469SOL    HW118869   2.881   1.200   4.743 -0.2540  0.2818 -0.4134
 2469SOL    HW218870   2.997   1.295   4.765 -2.7760 -0.1053  1.0773
 2470SOL     OW18871   4.550   4.615   6.039 -0.4380 -0.0968  0.8182
 2470SOL    HW118872   4.516   4.704   6.036 -0.9645 -0.3976 -2.1152
 2470SOL    HW218873   4.471   4.564   6.019 -0.1627 -0.3022  0.2447
 2471SOL     OW18874   4.462   4.702   8.177 -0.5191  0.0639  0.5339
 2471SOL    HW118875   4.452   0.058   8.233 -1.6629  1.0482 -1.0401
 2471SOL    HW218876   4.521   4.642   8.223 -0.2254  0.0891  0.1872
 2472SOL     OW18877   1.610   2.664   7.120 -0.0900  0.5189  0.3548
 2472SOL    HW118878   1.656   2.711   7.051 -2.6270  1.0950 -0.9386
 2472SOL    HW218879   1.563   2.738   7.159  1.1664  1.3307  0.3339
 2473SOL     OW18880   1.750   2.338  15.336 -0.0425 -0.0905 -0.4750
 2473SOL    HW118881   1.762   2.318  15.243 -0.4898 -3.5118  0.2247
 2473SOL    HW218882   1.721   2.255  15.372  0.9072  0.0179  0.5530
 2474SOL     OW18883   3.673   1.746  13.082  0.6900 -0.2041  0.5322
 2474SOL    HW118884   3.753   1.775  13.126  0.4783  0.6970  0.3298
 2474SOL    HW218885   3.621   1.742  13.162 -2.9992  1.7229 -1.8068
 2475SOL     OW18886   1.990   1.849  17.226  0.1047  0.1802  0.0611
 2475SOL    HW118887   2.004   1.793  17.303 -0.8878 -0.4964 -0.2445
 2475SOL    HW218888   1.973   1.779  17.163 -2.5448  1.3728 -0.5587
 2476SOL     OW18889   4.433   0.826   3.788 -0.2079  0.3028 -0.6701
 2476SOL    HW118890   4.518   0.822   3.743 -0.4647  3.1195 -1.4258
 2476SOL    HW218891   4.412   0.734   3.803 -0.0272  0.1948 -1.1021
 2477SOL     OW18892   3.006   0.636   1.530 -0.0767  0.0234  0.1003
 2477SOL    HW118893   3.019   0.541   1.529  1.4834  0.2364 -0.5082
 2477SOL    HW218894   2.940   0.638   1.461  0.3754  0.1296 -0.3254
 2478SOL     OW18895   1.462   0.651  13.160  0.1994 -0.6739 -0.0319
 2478SOL    HW118896   1.384   0.634  13.107 -1.9810 -0.9327  3.1965
 2478SOL    HW218897   1.439   0.731  13.209  2.2470 -0.8378  1.1825
 2479SOL     OW18898   1.738   4.349   9.654 -0.0226  0.6444  0.3488
 2479SOL    HW118899   1.824   4.309   9.643  0.1021  1.8050 -2.8243
 2479SOL    HW218900   1.689   4.294   9.593  1.5265 -0.0281 -0.2873
 2480SOL     OW18901   1.451   2.053  12.278  0.1046  0.0062  0.1965
 2480SOL    HW118902   1.466   2.018  12.190  0.1153  1.9097 -0.5590
 2480SOL    HW218903   1.368   2.101  12.279  0.6086  0.8873 -0.3568
 2481SOL     OW18904   0.922   1.663  12.582  0.1957  0.0011  0.3670
 2481SOL    HW118905   0.872   1.740  12.609 -0.5575 -0.2856 -0.2064
 2481SOL    HW218906   1.013   1.691  12.586 -0.4613  2.3350 -0.7070
 2482SOL     OW18907   0.680   0.727   2.734  0.3675  0.6358 -0.2924
 2482SOL    HW118908   0.601   0.726   2.680  0.7652 -3.3564 -0.8324
 2482SOL    HW218909   0.711   0.816   2.718  1.4835  0.2900 -0.1051
 2483SOL     OW18910   1.515   1.391   9.899  0.6729 -0.1934  0.1147
 2483SOL    HW118911   1.467   1.309   9.892 -1.7032  1.0731  1.8314
 2483SOL    HW218912   1.483   1.442   9.825  0.4117 -0.5782 -0.0352
 2484SOL     OW18913   3.305   3.538   2.412  0.3376 -0.4070 -0.3011
 2484SOL    HW118914   3.370   3.575   2.471  0.0603 -2.0040  1.0229
 2484SOL    HW218915   3.247   3.612   2.395  0.7080  0.0115  0.2391
 2485SOL     OW18916   4.573   2.940   9.740 -0.0522  0.7729  0.5083
 2485SOL    HW118917   4.594   3.023   9.784  0.6297  0.9359 -0.1115
 2485SOL    HW218918   4.526   2.901   9.813  0.7016  0.2418  0.7129
 2486SOL     OW18919   4.218   2.817   1.191 -0.4279 -0.1169 -0.4905
 2486SOL    HW118920   4.183   2.836   1.104  0.3030  0.8140 -0.5843
 2486SOL    HW218921   4.186   2.889   1.245 -0.0303 -1.1893  1.1540
 2487SOL     OW18922   0.821   2.844   0.110 -0.3315  0.3308  0.5301
 2487SOL    HW118923   0.862   2.820   0.193 -0.3842 -2.3511 -0.2110
 2487SOL    HW218924   0.733   2.860   0.145 -0.2505 -2.4389  1.9792
 2488SOL     OW18925   1.116   2.105   4.198  0.1523  0.0721 -0.0449
 2488SOL    HW118926   1.064   2.184   4.183  0.4617  0.6424  1.9530
 2488SOL    HW218927   1.083   2.078   4.283 -2.9220 -1.5304 -1.7267
 2489SOL     OW18928   3.738   3.702   7.857 -0.1015 -0.1139 -0.5743
 2489SOL    HW118929   3.805   3.770   7.853 -0.6720  0.3764 -1.8795
 2489SOL    HW218930   3.791   3.628   7.828 -0.6633 -0.8842  0.3735
 2490SOL     OW18931   0.553   0.732   1.925 -0.7940 -0.1167  0.1957
 2490SOL    HW118932   0.506   0.767   1.849  1.6663  1.9722 -0.3614
 2490SOL    HW218933   0.486   0.677   1.966  0.9725 -0.5409  2.4515
 2491SOL     OW18934   2.165   0.082  10.293  0.1042  1.0860  0.4757
 2491SOL    HW118935   2.232   0.100  10.359  0.3769 -0.2119  0.5552
 2491SOL    HW218936   2.101   0.133  10.342  1.3394  3.0842  0.0095
 2492SOL     OW18937   1.036   1.786   1.681  0.2587 -0.9483 -0.1355
 2492SOL    HW118938   0.965   1.743   1.632  1.0046 -0.8450 -1.3223
 2492SOL    HW218939   1.116   1.741   1.654  1.3156  1.2874 -0.7150
 2493SOL     OW18940   2.288   1.868  14.281 -0.2262  0.8560 -0.3071
 2493SOL    HW118941   2.199   1.901  14.266 -0.5403 -0.7499 -1.8714
 2493SOL    HW218942   2.285   1.788  14.229  0.3588  0.6820 -0.0670
 2494SOL     OW18943   2.137   2.319   5.549 -0.4068 -0.0792  0.3858
 2494SOL    HW118944   2.163   2.251   5.487 -0.9412 -1.9919  2.2806
 2494SOL    HW218945   2.049   2.337   5.516 -0.0788 -0.7506 -0.8723
 2495SOL     OW18946   1.069   3.789   5.024 -0.2805 -0.1807 -0.1541
 2495SOL    HW118947   1.117   3.709   5.003  2.5319  1.4639 -0.0587
 2495SOL    HW218948   1.108   3.854   4.966 -2.3340  1.7194  0.5845
 2496SOL     OW18949   1.640   1.842   0.830 -0.0532 -0.1523  0.4300
 2496SOL    HW118950   1.688   1.768   0.868  0.0865 -0.1498  0.2604
 2496SOL    HW218951   1.589   1.879   0.902 -1.2728 -0.9095 -0.0396
 2497SOL     OW18952   1.606   1.820   7.402  0.2803  0.0999 -0.7620
 2497SOL    HW118953   1.619   1.885   7.472  0.9637 -1.7952  0.8834
 2497SOL    HW218954   1.577   1.873   7.329 -0.6276  0.3649 -0.2059
 2498SOL     OW18955   2.300   3.108  15.365 -0.1883  0.0715 -0.2495
 2498SOL    HW118956   2.264   3.124  15.452  1.5345 -0.2065  0.5224
 2498SOL    HW218957   2.331   3.196  15.346 -0.9136  0.6605  1.2539
 2499SOL     OW18958   3.439   2.486  13.413 -0.6854 -0.1345 -0.8380
 2499SOL    HW118959   3.455   2.581  13.415  0.3391 -0.3812  1.9935
 2499SOL    HW218960   3.514   2.456  13.361 -0.1963  1.6423 -1.1623
 2500SOL     OW18961   2.145   0.033   4.689 -0.1594  0.3570 -0.0076
 2500SOL    HW118962   2.096   0.071   4.762  0.9331  1.2041  0.2880
 2500SOL    HW218963   2.168   0.116   4.648  1.6286  0.7705  1.8152
 2501SOL     OW18964   2.557   2.509   1.522 -0.3266  0.4293  0.0454
 2501SOL    HW118965   2.587   2.588   1.566  0.6625 -0.6739  1.3949
 2501SOL    HW218966   2.613   2.438   1.554 -0.9484 -0.0789  0.0169
 2502SOL     OW18967   3.838   4.129   7.439 -0.1737  0.9880 -0.0170
 2502SOL    HW118968   3.900   4.172   7.380 -1.5752  2.4261 -0.4202
 2502SOL    HW218969   3.877   4.042   7.450  2.1325  1.7912 -1.8290
 2503SOL     OW18970   0.306   4.169   2.045 -0.2221 -0.0525 -0.5744
 2503SOL    HW118971   0.328   4.243   1.989 -0.5734  0.4455 -0.0517
 2503SOL    HW218972   0.283   4.110   1.973 -1.5867 -1.7291  1.2394
 2504SOL     OW18973   1.714   0.308   5.560  0.3310 -0.3415  0.4487
 2504SOL    HW118974   1.678   0.246   5.496 -0.5023  0.3712  0.2300
 2504SOL    HW218975   1.674   0.272   5.639  0.5326 -1.3342  0.1074
 2505SOL     OW18976   2.109   4.341   7.478  0.3349  0.2316 -0.0794
 2505SOL    HW118977   2.104   4.430   7.442 -1.5710 -0.4181 -1.4016
 2505SOL    HW218978   2.018   4.313   7.478  0.1037  0.9734 -1.0390
 2506SOL     OW18979   0.048   2.107   4.614 -0.4504 -0.4202 -0.0837
 2506SOL    HW118980   0.058   2.014   4.595  1.5000 -0.4213  0.9470
 2506SOL    HW218981   4.697   2.126   4.553  0.5101 -2.3274 -1.7917
 2507SOL     OW18982   0.420   2.844   2.919  0.1309 -0.0686  0.1049
 2507SOL    HW118983   0.481   2.775   2.894  0.4808  0.5072 -0.6286
 2507SOL    HW218984   0.471   2.905   2.971 -2.3157  2.4399 -0.4323
 2508SOL     OW18985   4.113   0.785   2.086 -0.1083 -0.7621 -0.1149
 2508SOL    HW118986   4.026   0.817   2.063  0.7043 -0.3930 -2.6644
 2508SOL    HW218987   4.123   0.699   2.045  0.0371  0.1517 -2.0103
 2509SOL     OW18988   2.782   1.282   9.227 -0.4197  0.6114  0.4866
 2509SOL    HW118989   2.798   1.348   9.159 -0.3476 -0.5575 -0.6263
 2509SOL    HW218990   2.729   1.222   9.174  1.5604  0.1901 -1.0332
 2510SOL     OW18991   3.670   0.909   8.012 -0.0684 -0.0232  0.7329
 2510SOL    HW118992   3.675   0.815   8.028 -0.4928 -0.4616 -1.6466
 2510SOL    HW218993   3.663   0.955   8.095 -2.8171 -0.2029  0.5869
 2511SOL     OW18994   2.345   1.755  11.634  0.4184 -0.3233 -0.6075
 2511SOL    HW118995   2.391   1.838  11.620  0.3755 -0.1196  0.4422
 2511SOL    HW218996   2.390   1.719  11.711 -0.0049  1.1828  0.3471
 2512SOL     OW18997   0.127   3.180   3.456  0.5011  0.6316 -0.2706
 2512SOL    HW118998   0.101   3.089   3.444  1.8018 -0.0715  2.2963
 2512SOL    HW218999   0.105   3.197   3.548 -1.1129 -1.7489 -0.2024
 2513SOL     OW19000   3.826   0.087   7.485  0.2165 -0.0826  0.2560
 2513SOL    HW119001   3.768   0.073   7.410  0.0378  0.2618  0.3267
 2513SOL    HW219002   3.876   0.008   7.467 -1.2786 -0.3385 -2.7260
 2514SOL     OW19003   1.162   2.144   0.624  0.0201  0.4705 -0.2692
 2514SOL    HW119004   1.150   2.069   0.683  2.6529 -0.1127 -0.4816
 2514SOL    HW219005   1.256   2.158   0.619  0.2919 -1.1125  0.5211
 2515SOL     OW19006   1.527   1.907  13.866  0.5926  0.2754  0.4441
 2515SOL    HW119007   1.484   1.976  13.917 -0.3763  0.7544 -1.0000
 2515SOL    HW219008   1.518   1.933  13.774 -2.0193  1.2787  0.9920
 2516SOL     OW19009   0.850   4.249   7.629 -0.3011  0.0928  0.2215
 2516SOL    HW119010   0.784   4.240   7.560 -0.2093 -1.3751  0.3260
 2516SOL    HW219011   0.798   4.291   7.698  0.2271  1.3136 -0.1325
 2517SOL     OW19012   4.212   1.612  11.131 -0.6601 -0.0054  0.4153
 2517SOL    HW119013   4.120   1.599  11.155 -0.6847 -1.9758 -0.7223
 2517SOL    HW219014   4.223   1.704  11.154  2.0400 -0.2137 -0.0813
 2518SOL     OW19015   0.033   0.773   5.144 -0.6040 -0.1525 -0.0290
 2518SOL    HW119016   4.718   0.689   5.175 -0.3375 -1.5607 -3.4385
 2518SOL    HW219017   0.125   0.762   5.165 -0.2776  1.8892 -0.4011
 2519SOL     OW19018   2.330   2.150   7.613  0.2554  0.0087  0.2303
 2519SOL    HW119019   2.326   2.159   7.517  2.4171 -0.5418  0.0975
 2519SOL    HW219020   2.258   2.209   7.635 -0.7985 -0.7215 -1.1676
 2520SOL     OW19021   0.263   4.698   3.519 -0.1539  0.3029 -0.0338
 2520SOL    HW119022   0.246   4.664   3.607 -0.2861 -1.8747 -0.8818
 2520SOL    HW219023   0.331   0.036   3.550 -0.3263 -0.0185  0.9564
 2521SOL     OW19024   2.035   3.471   8.258 -0.0852  0.2703 -0.0868
 2521SOL    HW119025   2.094   3.433   8.324 -0.4602  1.7832  1.0964
 2521SOL    HW219026   2.101   3.487   8.190  0.9671 -0.8146  0.6635
 2522SOL     OW19027   4.487   0.690   2.168 -0.3019 -0.2193 -0.0005
 2522SOL    HW119028   4.452   0.675   2.080 -0.8903 -0.0284  0.1981
 2522SOL    HW219029   4.490   0.600   2.201 -0.0811 -1.4084 -3.2899
 2523SOL     OW19030   1.842   1.180   8.425  0.4937  0.1562  0.0134
 2523SOL    HW119031   1.898   1.114   8.466  1.0639  0.8224  0.3073
 2523SOL    HW219032   1.843   1.153   8.334  1.8193  2.6766 -0.7436
 2524SOL     OW19033   0.190   3.969   5.887  0.4258 -0.2033 -0.3116
 2524SOL    HW119034   0.258   3.964   5.820 -0.8598 -2.1836 -1.5033
 2524SOL    HW219035   0.141   3.889   5.865 -0.0557 -0.7439  2.7740
 2525SOL     OW19036   3.582   1.479   0.574 -0.2384 -0.2059 -0.1822
 2525SOL    HW119037   3.612   1.392   0.600 -0.3226  0.5198  2.2953
 2525SOL    HW219038   3.667   1.522   0.579 -0.1752 -0.6189  2.1492
 2526SOL     OW19039   3.791   3.291  13.895 -0.4146  0.2981 -0.3022
 2526SOL    HW119040   3.709   3.250  13.866 -0.3898 -0.2092  0.3377
 2526SOL    HW219041   3.763   3.330  13.978  1.3449  1.4661 -0.2582
 2527SOL     OW19042   3.984   3.982   4.301 -0.1602 -0.0160  0.3104
 2527SOL    HW119043   3.976   3.916   4.369  0.7376 -1.6754 -1.1744
 2527SOL    HW219044   4.078   4.000   4.300  0.3269 -2.6027  2.2747
 2528SOL     OW19045   3.242   3.226   7.991  0.3707  0.1868 -0.7034
 2528SOL    HW119046   3.308   3.170   7.950 -0.4010  0.0829 -1.7922
 2528SOL    HW219047   3.295   3.305   7.984 -0.7732  0.8516 -2.0217
 2529SOL     OW19048   0.864   0.033   7.169 -0.2532  0.8681 -0.0169
 2529SOL    HW119049   0.891   0.104   7.111  2.1245 -0.1482 -0.1537
 2529SOL    HW219050   0.910   0.063   7.248  1.6433 -1.0375 -0.3938
 2530SOL     OW19051   0.491   1.126  15.421 -0.1177  0.5812 -0.1287
 2530SOL    HW119052   0.561   1.185  15.394 -0.9099  1.9633  0.8890
 2530SOL    HW219053   0.499   1.128  15.516  0.3473 -0.7839 -0.1365
 2531SOL     OW19054   3.778   0.785   3.850 -0.0073 -0.2224  1.0101
 2531SOL    HW119055   3.858   0.732   3.844  0.4968  0.4550  1.6670
 2531SOL    HW219056   3.734   0.768   3.767  0.8270  0.5190  0.4014
 2532SOL     OW19057   4.136   2.514   0.953 -0.4839 -0.4042  0.4836
 2532SOL    HW119058   4.044   2.531   0.933 -1.2952 -3.3186  1.7025
 2532SOL    HW219059   4.169   2.604   0.953 -0.2386 -0.4925  0.8386
 2533SOL     OW19060   0.155   1.161   8.558  0.3719 -0.5904 -0.0054
 2533SOL    HW119061   0.152   1.141   8.465  2.7825  0.8630 -0.3932
 2533SOL    HW219062   0.169   1.255   8.554 -1.9081 -0.1988  0.9410
 2534SOL     OW19063   1.740   3.323   2.916 -0.6726  0.1705  0.2371
 2534SOL    HW119064   1.646   3.334   2.933 -0.4611  0.2362  1.4029
 2534SOL    HW219065   1.771   3.400   2.964 -1.8000  0.0365  1.1942
 2535SOL     OW19066   0.032   2.186   4.913  0.3085  0.2924 -0.8149
 2535SOL    HW119067   0.020   2.252   4.980  1.4748  0.2575 -0.5608
 2535SOL    HW219068   0.018   2.234   4.832  2.2679  0.5848 -0.9758
 2536SOL     OW19069   2.367   4.290   3.847 -0.0040 -0.3370  0.1743
 2536SOL    HW119070   2.431   4.225   3.817  2.2265  3.6546 -3.7185
 2536SOL    HW219071   2.420   4.336   3.911 -1.9272 -1.7529  2.7941
 2537SOL     OW19072   3.654   1.030   3.676 -0.1403 -0.4206  0.1917
 2537SOL    HW119073   3.743   1.002   3.652 -0.5297 -0.7094 -0.9163
 2537SOL    HW219074   3.678   1.071   3.760 -1.9697  0.6200  0.2068
 2538SOL     OW19075   1.908   3.867   5.801 -0.2000  0.1657 -0.0040
 2538SOL    HW119076   1.963   3.884   5.877 -1.9727 -1.5284  1.6719
 2538SOL    HW219077   1.902   3.774   5.821  0.1686 -0.0764 -1.0232
 2539SOL     OW19078   3.673   0.972   7.760 -0.0111 -0.4846  0.3646
 2539SOL    HW119079   3.697   0.954   7.851 -0.4240 -1.4548  0.2856
 2539SOL    HW219080   3.627   1.055   7.756 -0.0103 -0.5433 -0.9096
 2540SOL     OW19081   3.443   3.066   1.861  0.0987  0.0986  0.2486
 2540SOL    HW119082   3.434   2.972   1.849  0.6974 -0.1470  1.7490
 2540SOL    HW219083   3.532   3.075   1.827  1.4500  0.4415  3.8797
 2541SOL     OW19084   1.434   2.023   6.600  0.2666 -0.4131 -0.4531
 2541SOL    HW119085   1.494   2.000   6.671  0.4543  1.2658 -0.0602
 2541SOL    HW219086   1.354   1.979   6.630  0.0724  0.7747  0.7980
 2542SOL     OW19087   1.055   0.752  12.846  0.0529 -0.3968 -0.0627
 2542SOL    HW119088   1.042   0.776  12.754  1.0410  0.6254  0.0753
 2542SOL    HW219089   1.032   0.828  12.899  0.0061  0.4986 -1.3756
 2543SOL     OW19090   4.518   3.043   4.522  0.1784 -0.4329  0.0446
 2543SOL    HW119091   4.591   3.073   4.468 -0.0274 -0.1241 -0.0639
 2543SOL    HW219092   4.432   3.060   4.482  0.0433  1.0603  0.9437
 2544SOL     OW19093   0.505   4.129   8.640 -0.7710  0.2280 -0.8492
 2544SOL    HW119094   0.598   4.148   8.652 -1.0249  2.5143 -2.4194
 2544SOL    HW219095   0.460   4.212   8.658  2.0940  1.5946  0.1203
 2545SOL     OW19096   0.989   0.533   4.579  0.0147 -0.4377  0.3850
 2545SOL    HW119097   1.016   0.618   4.614  0.5001 -0.3814 -0.1360
 2545SOL    HW219098   0.900   0.561   4.554  0.0090 -0.6608  0.1578
 2546SOL     OW19099   1.623   2.344   4.697  0.4751  0.7657 -0.0734
 2546SOL    HW119100   1.577   2.427   4.707  1.4797  1.2789  0.2275
 2546SOL    HW219101   1.666   2.361   4.613 -2.4164  0.6736 -1.5763
 2547SOL     OW19102   1.739   0.037  11.099  0.1765  0.3265 -0.8146
 2547SOL    HW119103   1.735   0.090  11.179  0.3995 -0.4648 -0.2758
 2547SOL    HW219104   1.651   0.002  11.095 -0.5825  1.9138  1.7793
 2548SOL     OW19105   3.150   1.761   7.351 -0.8794  0.5417 -0.3063
 2548SOL    HW119106   3.229   1.722   7.387 -0.8188  0.3105 -0.6796
 2548SOL    HW219107   3.184   1.792   7.267 -2.8656  2.4261 -0.4330
 2549SOL     OW19108   3.661   3.686  16.734  0.1704  0.1095 -0.0669
 2549SOL    HW119109   3.610   3.738  16.795  1.2405 -1.1340  1.9079
 2549SOL    HW219110   3.650   3.594  16.757 -1.2878  0.2928 -0.0520
 2550SOL     OW19111   3.229   0.004   4.369 -0.0046 -0.0919  0.3707
 2550SOL    HW119112   3.180   4.687   4.297 -0.1745 -0.2858  0.5890
 2550SOL    HW219113   3.178   4.710   4.448 -0.2933 -1.2319 -0.0429
 2551SOL     OW19114   3.435   3.179   9.272 -0.0192  0.1382 -0.5687
 2551SOL    HW119115   3.483   3.235   9.333  1.7343 -1.5662 -0.3630
 2551SOL    HW219116   3.347   3.179   9.308 -0.9078 -1.0770 -2.6931
 2552SOL     OW19117   0.092   4.005  10.901 -0.2556 -0.1743 -0.1520
 2552SOL    HW119118   0.094   3.943  10.828 -1.4272 -0.1628 -0.1939
 2552SOL    HW219119   4.718   4.016  10.909 -0.1304  0.8263 -0.0465
 2553SOL     OW19120   2.279   4.544   1.956 -0.2449  0.0088 -0.0635
 2553SOL    HW119121   2.233   4.475   2.005  0.2671  1.6124  2.6544
 2553SOL    HW219122   2.279   4.611   2.024 -2.8464  0.2938 -0.3197
 2554SOL     OW19123   2.970   2.902   1.701  0.4740 -0.2853  0.2876
 2554SOL    HW119124   2.911   2.958   1.752  0.6488  1.6626 -1.6648
 2554SOL    HW219125   3.044   2.962   1.703  0.9621 -0.8591 -0.6671
 2555SOL     OW19126   0.012   0.019   5.646 -0.3118 -0.2210 -0.2868
 2555SOL    HW119127   4.652   0.013   5.595  0.4078  0.1003 -1.4525
 2555SOL    HW219128   0.001   4.653   5.687  0.0431 -0.2812 -0.3261
 2556SOL     OW19129   1.287   2.700   0.052 -0.0364 -0.2163  0.2092
 2556SOL    HW119130   1.338   2.778   0.075  1.4904 -0.7615 -1.3423
 2556SOL    HW219131   1.216   2.742   0.005 -0.9804 -1.2647  0.7091
 2557SOL     OW19132   2.306   1.970   2.235 -0.5486 -0.1372 -0.1250
 2557SOL    HW119133   2.295   1.883   2.274  0.9341 -0.0901  0.3779
 2557SOL    HW219134   2.308   2.027   2.311 -0.9086  0.3800 -0.5007
 2558SOL     OW19135   3.200   3.135  16.944  0.1200  0.4174  0.0039
 2558SOL    HW119136   3.254   3.212  16.926  1.1911 -0.5955 -1.0932
 2558SOL    HW219137   3.245   3.060  16.906 -0.3215  0.2753 -0.2335
 2559SOL     OW19138   2.240   0.051  12.093 -0.1942 -0.2854 -0.8408
 2559SOL    HW119139   2.160   0.032  12.143  0.8691 -1.6337  0.3558
 2559SOL    HW219140   2.304   0.019  12.157 -0.1278  0.8342 -0.3343
 2560SOL     OW19141   4.427   1.496   3.988 -0.0201 -0.6750 -0.2679
 2560SOL    HW119142   4.464   1.430   3.930  0.6793  0.0095 -0.5980
 2560SOL    HW219143   4.501   1.554   3.970 -1.1437  1.6782  2.5583
 2561SOL     OW19144   1.139   3.550   4.932 -0.6604  0.6492  0.1231
 2561SOL    HW119145   1.121   3.534   4.839 -2.7231  0.0055  0.6194
 2561SOL    HW219146   1.184   3.467   4.949  0.4143  1.3145  0.5069
 2562SOL     OW19147   4.609   3.697   3.871  0.6837 -0.3792  0.1404
 2562SOL    HW119148   4.543   3.629   3.855 -0.6456  0.7578  0.7293
 2562SOL    HW219149   4.632   3.735   3.786  0.1520 -0.0296  0.1524
 2563SOL     OW19150   0.111   1.464  11.412 -0.1879  0.0168 -0.2427
 2563SOL    HW119151   0.150   1.376  11.416 -1.3138 -0.4842 -0.0689
 2563SOL    HW219152   0.119   1.502  11.325 -0.7246  1.7973  0.4936
 2564SOL     OW19153   4.319   2.479  13.691 -0.4102 -0.6540 -0.3738
 2564SOL    HW119154   4.334   2.572  13.674  3.2223 -1.3451 -0.9969
 2564SOL    HW219155   4.398   2.458  13.740  0.8595  0.7330 -1.8504
 2565SOL     OW19156   2.146   2.268   0.994 -0.2892 -0.5957 -0.4046
 2565SOL    HW119157   2.131   2.189   0.943 -1.3374 -0.9570  0.4438
 2565SOL    HW219158   2.241   2.273   1.005 -0.0107  0.6245 -3.5095
 2566SOL     OW19159   0.285   4.656  10.317  0.2711  0.2526 -0.1052
 2566SOL    HW119160   0.361   4.700  10.355  0.6518 -1.0585  0.6419
 2566SOL    HW219161   0.274   4.587  10.382 -1.3662  0.5081 -0.1111
 2567SOL     OW19162   1.402   2.926   0.167 -0.4473  0.2609 -0.0155
 2567SOL    HW119163   1.383   3.019   0.178 -2.0010  0.3928 -4.0869
 2567SOL    HW219164   1.496   2.921   0.188  0.3353  0.4391 -3.6226
 2568SOL     OW19165   3.826   4.342   7.106  0.3948 -0.1393 -0.1881
 2568SOL    HW119166   3.786   4.391   7.178  2.4272  0.6322  0.4042
 2568SOL    HW219167   3.758   4.293   7.060  0.0175 -0.4089  0.6662
 2569SOL     OW19168   3.688   0.925  16.253  0.6748 -0.0186  0.0236
 2569SOL    HW119169   3.669   0.843  16.299  1.0791 -0.0779  0.0837
 2569SOL    HW219170   3.622   0.913  16.185 -1.7238  1.3065  2.1142
 2570SOL     OW19171   1.247   0.871  12.113 -0.0254 -0.4647  0.2888
 2570SOL    HW119172   1.164   0.868  12.160 -0.4714 -0.5435 -0.5150
 2570SOL    HW219173   1.258   0.958  12.076  0.8670 -0.3819  0.7378
 2571SOL     OW19174   0.472   3.715   2.298  0.6334 -0.3591  0.1550
 2571SOL    HW119175   0.441   3.685   2.213  2.2514  0.0793 -0.5922
 2571SOL    HW219176   0.564   3.737   2.280  0.8197 -2.5285 -1.4487
 2572SOL     OW19177   2.187   1.139   7.583  0.7546  0.4132  0.0785
 2572SOL    HW119178   2.165   1.231   7.600  0.4560  0.6089 -1.4229
 2572SOL    HW219179   2.176   1.099   7.670  1.2296 -1.1484 -0.5858
 2573SOL     OW19180   4.680   0.067   8.004 -0.1605  0.1372  0.0092
 2573SOL    HW119181   4.596   0.044   8.043 -1.2464  0.1557 -2.3561
 2573SOL    HW219182   4.669   0.096   7.914 -2.1005  1.8605  0.8076
 2574SOL     OW19183   4.693   3.221   4.725  0.4918 -0.0567 -0.3564
 2574SOL    HW119184   0.051   3.181   4.690  0.7657 -0.7977  1.0885
 2574SOL    HW219185   4.662   3.151   4.782 -1.4446  1.5633  0.5869
 2575SOL     OW19186   3.759   0.034  13.303  0.0739  0.2760  0.3214
 2575SOL    HW119187   3.831   4.713  13.256 -0.9258 -1.9857  0.8283
 2575SOL    HW219188   3.808   0.064  13.380 -0.4814  0.0082  0.7779
 2576SOL     OW19189   0.815   4.428   4.400  0.0895  0.3766  0.2055
 2576SOL    HW119190   0.812   4.419   4.495 -1.2308  0.1527  0.1462
 2576SOL    HW219191   0.910   4.419   4.390  0.0330 -1.3874  1.2039
 2577SOL     OW19192   1.976   3.469  14.707 -0.1576  0.0408  0.3412
 2577SOL    HW119193   2.018   3.395  14.750 -2.6093 -0.5689  1.6711
 2577SOL    HW219194   2.020   3.464  14.622 -2.1845  0.3449 -0.7311
 2578SOL     OW19195   1.652   0.060   7.237 -0.2926  0.1272  0.6080
 2578SOL    HW119196   1.556   0.066   7.242 -0.3914 -1.0463  0.1812
 2578SOL    HW219197   1.669   0.047   7.331  0.5322 -0.6734  0.3408
 2579SOL     OW19198   0.180   3.334  15.059 -0.7020  0.4244  0.1669
 2579SOL    HW119199   0.155   3.427  15.058  0.0877  0.5993 -2.3943
 2579SOL    HW219200   0.092   3.308  15.031 -1.1932  0.5535  1.5857
 2580SOL     OW19201   2.618   1.522  17.597  0.4779  0.1841 -0.3746
 2580SOL    HW119202   2.696   1.567  17.629 -0.4167  1.4608  0.0227
 2580SOL    HW219203   2.580   1.590  17.540 -3.2083 -3.2211 -1.9714
 2581SOL     OW19204   0.267   2.372  16.910  0.2018 -0.1758  0.5726
 2581SOL    HW119205   0.189   2.316  16.907 -1.1509  1.7931 -1.1639
 2581SOL    HW219206   0.234   2.461  16.920  2.9359  1.0156 -0.9599
 2582SOL     OW19207   1.414   4.561   0.524  0.0981 -0.7844  0.5438
 2582SOL    HW119208   1.416   4.483   0.579 -0.2672  0.0281  1.7146
 2582SOL    HW219209   1.429   4.621   0.597 -0.4729  1.4464 -1.1614
 2583SOL     OW19210   1.395   2.280   2.364 -0.1423 -0.3615  0.1402
 2583SOL    HW119211   1.310   2.323   2.374  1.6240  2.8644  1.2561
 2583SOL    HW219212   1.403   2.292   2.269  2.1923 -0.4908  0.3323
 2584SOL     OW19213   2.483   0.871   8.666 -0.1558 -0.6029  0.3090
 2584SOL    HW119214   2.540   0.835   8.734  0.3760 -1.6329 -0.6687
 2584SOL    HW219215   2.545   0.927   8.619 -1.1265 -1.2378 -1.7505
 2585SOL     OW19216   1.698   0.409   1.336  0.0115  0.4606 -0.0037
 2585SOL    HW119217   1.749   0.381   1.412  1.0239  1.6429 -0.2457
 2585SOL    HW219218   1.712   0.502   1.356 -1.1374  0.4078  1.0456
 2586SOL     OW19219   2.597   4.663   2.725 -0.0958 -0.3223 -0.1518
 2586SOL    HW119220   2.556   4.613   2.655  0.9123  0.0010 -0.9591
 2586SOL    HW219221   2.571   4.616   2.804  0.0468  2.2063  1.4142
 2587SOL     OW19222   1.294   0.573   7.496 -0.2472 -0.4564 -0.6306
 2587SOL    HW119223   1.322   0.483   7.515 -1.1763 -0.4126  0.9803
 2587SOL    HW219224   1.378   0.603   7.460 -0.6463 -0.5275 -1.6085
 2588SOL     OW19225   1.240   4.106   7.562  0.1152 -0.1881 -0.1209
 2588SOL    HW119226   1.310   4.166   7.535  0.7778 -0.5549  0.7919
 2588SOL    HW219227   1.199   4.152   7.635 -0.1824  0.3782 -0.6377
 2589SOL     OW19228   4.472   2.848  15.444 -0.3448  0.2781 -0.0216
 2589SOL    HW119229   4.422   2.930  15.446  0.1513  0.5184  3.5737
 2589SOL    HW219230   4.497   2.850  15.537  0.1263 -0.6374 -0.1259
 2590SOL     OW19231   0.381   0.682   5.403  0.3539  0.5541 -0.4763
 2590SOL    HW119232   0.365   0.769   5.441  0.6119  0.3769  0.0381
 2590SOL    HW219233   0.297   0.642   5.424  0.7347 -0.0134 -0.0628
 2591SOL     OW19234   1.690   2.974   3.158 -0.5226 -0.5443 -0.4490
 2591SOL    HW119235   1.661   2.917   3.228 -1.4279 -0.6439 -0.8998
 2591SOL    HW219236   1.759   3.020   3.206 -0.6501 -1.1420  0.2938
 2592SOL     OW19237   3.163   1.788   6.010 -0.3183 -0.0796 -0.1577
 2592SOL    HW119238   3.148   1.866   5.956  0.7800  0.9846  1.0848
 2592SOL    HW219239   3.113   1.810   6.089 -1.2026 -0.4190 -0.6241
 2593SOL     OW19240   1.918   2.365  16.808  0.3541  0.1025 -0.0028
 2593SOL    HW119241   1.944   2.345  16.718  1.4918  1.4652  0.0307
 2593SOL    HW219242   2.005   2.358  16.847 -0.2713 -0.3593  1.3167
 2594SOL     OW19243   3.053   1.878   6.275  0.2616 -0.7828  0.0816
 2594SOL    HW119244   3.110   1.824   6.330 -2.1400 -3.0975  0.3071
 2594SOL    HW219245   2.976   1.825   6.255 -0.0268  0.6930 -2.6811
 2595SOL     OW19246   3.941   3.765   3.462  0.2060 -0.1804  0.2218
 2595SOL    HW119247   3.964   3.672   3.456  1.9592  0.1605  1.6205
 2595SOL    HW219248   3.971   3.790   3.549  4.0699  0.7828 -1.3801
 2596SOL     OW19249   3.234   4.637   2.500  0.1662  0.9893  0.7117
 2596SOL    HW119250   3.295   4.565   2.487 -1.4483 -0.5709  1.7665
 2596SOL    HW219251   3.159   4.583   2.473 -0.0472  0.8636  1.5696
 2597SOL     OW19252   4.346   2.934   2.500  0.7064  0.2702 -0.0430
 2597SOL    HW119253   4.314   2.949   2.589  2.1101  1.3063  0.2880
 2597SOL    HW219254   4.399   2.860   2.527 -1.6362 -0.3563  2.8777
 2598SOL     OW19255   2.917   3.679   5.101  0.4135 -0.1903  0.6767
 2598SOL    HW119256   2.949   3.598   5.062 -1.5889 -0.8228  0.3359
 2598SOL    HW219257   2.861   3.714   5.032  0.2433  0.4047  1.1111
 2599SOL     OW19258   4.384   1.911   2.836  0.4848 -0.0038 -0.3334
 2599SOL    HW119259   4.372   1.828   2.790 -1.7767 -0.6838  1.5197
 2599SOL    HW219260   4.381   1.867   2.921 -0.5897  0.0670 -0.3350
 2600SOL     OW19261   1.767   4.395   1.673 -0.0699 -0.5418  0.5335
 2600SOL    HW119262   1.735   4.478   1.639  1.0457 -1.0052 -1.6409
 2600SOL    HW219263   1.838   4.424   1.731  1.5402 -1.2713 -1.0888
 2601SOL     OW19264   1.318   3.249   5.689  0.2088 -0.5187 -0.0915
 2601SOL    HW119265   1.379   3.313   5.652 -0.3629  0.6989  1.0245
 2601SOL    HW219266   1.240   3.305   5.686  1.5337  1.3970  0.7770
 2602SOL     OW19267   0.206   4.089   6.833 -0.4263  0.2589  0.5633
 2602SOL    HW119268   0.216   4.106   6.927 -4.9099  0.8325  0.9362
 2602SOL    HW219269   0.259   4.161   6.799  0.1412 -0.9462 -1.0815
 2603SOL     OW19270   4.112   4.495  13.935 -0.0577 -0.3335  0.1280
 2603SOL    HW119271   4.191   4.463  13.892 -0.3409  0.2919 -0.8687
 2603SOL    HW219272   4.149   4.567  13.986 -1.4483 -0.2940  1.0848
 2604SOL     OW19273   0.466   2.475   1.059  0.5039  0.3494 -0.3215
 2604SOL    HW119274   0.506   2.562   1.065 -0.1781  0.3991  3.4197
 2604SOL    HW219275   0.491   2.466   0.967  0.0968 -2.0044 -0.2056
 2605SOL     OW19276   2.762   0.937   5.423 -0.4163 -0.2442  0.3897
 2605SOL    HW119277   2.846   0.938   5.469  0.6447  0.8147 -1.5687
 2605SOL    HW219278   2.747   0.842   5.428  0.4742 -0.3326  1.5395
 2606SOL     OW19279   3.079   1.700   6.887  0.2960 -0.0641  0.2076
 2606SOL    HW119280   3.057   1.696   6.794 -1.7369  0.4568  0.6606
 2606SOL    HW219281   3.147   1.633   6.894 -1.0982 -1.4463  0.4429
 2607SOL     OW19282   3.063   2.989   8.304  0.2343 -0.2539 -0.0252
 2607SOL    HW119283   3.024   3.062   8.255 -0.0244  0.1145  0.7270
 2607SOL    HW219284   3.089   3.038   8.383 -0.9835  1.9611 -0.9882
 2608SOL     OW19285   1.747   1.857  16.597 -0.2336 -0.2538  0.2548
 2608SOL    HW119286   1.666   1.807  16.598  0.8886 -2.1149 -1.8219
 2608SOL    HW219287   1.771   1.870  16.688  0.2208  1.7033 -0.1435
 2609SOL     OW19288   0.804   4.455   9.513 -0.0574  0.7305  0.1435
 2609SOL    HW119289   0.807   4.360   9.522  0.2216  0.8639  1.5057
 2609SOL    HW219290   0.867   4.464   9.441 -0.3213 -0.9759 -0.2844
 2610SOL     OW19291   1.614   3.493   4.031 -0.1320  0.0449  0.0940
 2610SOL    HW119292   1.657   3.514   3.948  0.2165 -0.3495  0.1695
 2610SOL    HW219293   1.527   3.468   4.002 -1.1510 -0.2361  3.4877
 2611SOL     OW19294   3.937   0.252   4.128 -0.5973 -0.2885 -0.3085
 2611SOL    HW119295   3.858   0.197   4.131  0.2386 -1.5776 -1.7802
 2611SOL    HW219296   3.999   0.183   4.151 -0.6083 -0.8552 -1.9926
 2612SOL     OW19297   4.309   1.120   7.372  0.4240  0.6095  0.3653
 2612SOL    HW119298   4.290   1.206   7.408 -1.8929  0.5945 -0.8791
 2612SOL    HW219299   4.355   1.146   7.292 -0.4694  0.2325 -0.2600
 2613SOL     OW19300   0.435   0.477   6.674 -0.2152  0.0145  0.0646
 2613SOL    HW119301   0.437   0.399   6.730  0.2426  0.1402  0.2235
 2613SOL    HW219302   0.365   0.454   6.613 -0.9559 -0.5215  1.1116
 2614SOL     OW19303   3.899   0.498   7.590  0.2183  0.1527 -0.2017
 2614SOL    HW119304   3.819   0.519   7.542 -0.2484  1.9669  1.3700
 2614SOL    HW219305   3.870   0.421   7.639 -0.8475 -0.5952 -2.0261
 2615SOL     OW19306   2.986   1.663   6.611 -0.5485 -0.0434  0.0624
 2615SOL    HW119307   2.931   1.721   6.558 -1.7576 -1.4971 -0.2603
 2615SOL    HW219308   2.940   1.580   6.622  1.8098 -1.2369  0.9599
 2616SOL     OW19309   0.224   0.519   9.748  0.5929  0.1654 -0.0296
 2616SOL    HW119310   0.180   0.559   9.673  1.1201 -0.5195 -0.7059
 2616SOL    HW219311   0.310   0.493   9.714  0.8052  2.0197 -0.8651
 2617SOL     OW19312   4.640   1.368   2.817 -0.4008  0.0590 -0.6739
 2617SOL    HW119313   4.560   1.400   2.776 -0.9060  0.5261  0.6870
 2617SOL    HW219314   4.707   1.390   2.751  2.1843 -0.7774  1.6494
 2618SOL     OW19315   0.181   4.079   9.867  0.2908 -0.3392 -0.3194
 2618SOL    HW119316   0.134   4.029   9.934 -0.4580  0.2934 -0.3599
 2618SOL    HW219317   0.217   4.008   9.815 -1.1739  0.0753 -1.9129
 2619SOL     OW19318   2.953   1.578  11.865  0.1689 -0.4938  0.1890
 2619SOL    HW119319   3.014   1.568  11.938 -0.1819 -0.2258  0.5204
 2619SOL    HW219320   2.929   1.670  11.863  1.3629 -0.1343  3.3016
 2620SOL     OW19321   0.158   1.998   5.578  0.4363 -0.0459 -0.6054
 2620SOL    HW119322   0.156   2.060   5.651 -1.1037 -2.8627  1.7152
 2620SOL    HW219323   0.155   2.060   5.505  0.4345  0.1609 -0.4290
 2621SOL     OW19324   2.363   3.827  10.701  0.6909 -0.2836 -0.4009
 2621SOL    HW119325   2.326   3.803  10.786  0.5785 -1.7991 -0.8631
 2621SOL    HW219326   2.454   3.826  10.730  0.1512 -0.9566  1.2541
 2622SOL     OW19327   0.781   0.952   9.763 -0.3333  0.0834 -0.0226
 2622SOL    HW119328   0.798   0.858   9.752  0.5483  0.3285 -0.7508
 2622SOL    HW219329   0.824   0.995   9.689  2.7049 -0.6730  1.3235
 2623SOL     OW19330   1.379   2.011   4.325  0.8805 -0.3453 -0.4069
 2623SOL    HW119331   1.304   2.002   4.266  1.2643 -1.1907 -0.7774
 2623SOL    HW219332   1.419   2.089   4.286  0.8246 -0.2296 -0.2316
 2624SOL     OW19333   4.459   2.668  13.852 -0.4452 -0.6910  0.1283
 2624SOL    HW119334   4.527   2.726  13.819 -0.3788 -1.4601 -1.0833
 2624SOL    HW219335   4.498   2.581  13.856  0.2517 -0.3485  0.7483
 2625SOL     OW19336   4.456   4.497   3.490 -0.3777 -0.6691  0.2850
 2625SOL    HW119337   4.539   4.494   3.443  0.3886  1.2629  1.5000
 2625SOL    HW219338   4.396   4.442   3.440 -2.2277  0.7257  0.9621
 2626SOL     OW19339   1.859   1.243   2.572 -0.0123  0.2291  0.3046
 2626SOL    HW119340   1.851   1.325   2.524  2.0082  1.0340  1.3542
 2626SOL    HW219341   1.770   1.216   2.594  0.1257 -1.3433 -1.0578
 2627SOL     OW19342   1.307   2.368   1.639 -0.0991 -0.1517  0.4236
 2627SOL    HW119343   1.367   2.349   1.711  1.0513 -0.3818 -0.5858
 2627SOL    HW219344   1.229   2.360   1.693  0.2477  2.0663  1.2509
 2628SOL     OW19345   2.564   1.565   6.664  0.0508  0.2236  0.0400
 2628SOL    HW119346   2.604   1.577   6.750 -0.4617 -1.0485  0.4566
 2628SOL    HW219347   2.518   1.482   6.679 -1.2390  0.7937 -0.8901
 2629SOL     OW19348   1.559   0.789  10.700 -0.0209 -0.2916 -0.6768
 2629SOL    HW119349   1.640   0.743  10.679  0.1882 -0.0182 -0.4599
 2629SOL    HW219350   1.495   0.722  10.674  2.5069 -1.8640 -2.7718
 2630SOL     OW19351   0.949   1.827   8.318  0.5662  0.1963  0.1461
 2630SOL    HW119352   0.872   1.792   8.363  0.5246  0.1949  0.0728
 2630SOL    HW219353   1.009   1.784   8.378 -0.4796 -0.3025  0.8474
 2631SOL     OW19354   1.975   3.311   7.847 -0.1072 -0.1493 -0.0295
 2631SOL    HW119355   1.935   3.375   7.905 -1.1679 -1.6349  0.8818
 2631SOL    HW219356   1.934   3.330   7.763 -1.7085 -0.3099  0.7191
 2632SOL     OW19357   2.340   3.204   8.062  0.6769 -0.2009 -0.4489
 2632SOL    HW119358   2.313   3.281   8.011 -2.1080 -1.6572 -1.1479
 2632SOL    HW219359   2.428   3.222   8.096  0.6000  1.0480 -0.8754
 2633SOL     OW19360   0.686   4.152   4.422  0.1796  0.4399 -0.0835
 2633SOL    HW119361   0.697   4.245   4.442 -1.1345  0.2356  1.5839
 2633SOL    HW219362   0.691   4.124   4.513  0.7735  1.5511  0.2294
 2634SOL     OW19363   2.108   1.669   4.311 -0.2247 -0.0768 -0.0648
 2634SOL    HW119364   2.027   1.671   4.362 -1.5701  1.4320 -2.2845
 2634SOL    HW219365   2.167   1.730   4.356 -0.0735 -1.0553  1.0743
 2635SOL     OW19366   4.456   0.306  16.771  0.0552  0.2655  0.1388
 2635SOL    HW119367   4.439   0.343  16.857  1.3041 -1.8890  1.2854
 2635SOL    HW219368   4.374   0.267  16.742 -0.5665  1.3723  0.4035
 2636SOL     OW19369   2.883   3.477   2.201  0.5069  0.7942 -0.0562
 2636SOL    HW119370   2.960   3.458   2.149  0.9664  0.3136  0.7954
 2636SOL    HW219371   2.914   3.525   2.279  2.5317  1.2765 -1.1854
 2637SOL     OW19372   1.881   4.124  16.942  0.3332 -0.0244  0.5591
 2637SOL    HW119373   1.797   4.084  16.921  0.6244  0.3934 -1.3812
 2637SOL    HW219374   1.857   4.198  16.999  0.1112 -0.3430  0.8815
 2638SOL     OW19375   3.724   1.267   2.902  0.2537 -0.3538  0.7314
 2638SOL    HW119376   3.766   1.189   2.938  2.4495 -0.1120 -1.2771
 2638SOL    HW219377   3.673   1.219   2.837 -0.1927 -0.7644  1.3796
 2639SOL     OW19378   3.292   3.195  17.195  0.8973  0.0228 -0.2894
 2639SOL    HW119379   3.292   3.287  17.171 -0.5037  0.9284  3.1888
 2639SOL    HW219380   3.277   3.151  17.111  0.4203 -2.5786  1.1699
 2640SOL     OW19381   1.861   1.625  10.057 -0.3511  0.0531  0.5605
 2640SOL    HW119382   1.789   1.688  10.048  0.4106  1.4028  3.9830
 2640SOL    HW219383   1.851   1.594  10.147 -2.3763  0.7947  0.6086
 2641SOL     OW19384   4.177   1.140   4.297  0.5495  0.0532 -0.8931
 2641SOL    HW119385   4.119   1.206   4.336  0.2651 -0.8313  0.1668
 2641SOL    HW219386   4.183   1.180   4.210  0.0144  0.2918 -0.8199
 2642SOL     OW19387   0.794   2.971   2.795 -0.1139  0.0875 -0.5068
 2642SOL    HW119388   0.771   2.949   2.886  0.4520 -0.3429 -0.4678
 2642SOL    HW219389   0.859   2.904   2.775 -0.9979 -1.8148  2.9534
 2643SOL     OW19390   3.646   4.370   3.414  0.0380  0.4732 -0.4399
 2643SOL    HW119391   3.569   4.381   3.359 -2.2317 -0.6945  2.4949
 2643SOL    HW219392   3.629   4.449   3.466 -2.1689 -1.2822  1.4582
 2644SOL     OW19393   0.909   4.035   5.093  0.9649  0.5802  0.3780
 2644SOL    HW119394   0.978   4.092   5.129 -0.1148  2.5016 -0.6715
 2644SOL    HW219395   0.968   3.960   5.086  0.1070 -0.4080  3.4004
 2645SOL     OW19396   0.450   0.485   1.643 -0.5842 -0.2435  0.0225
 2645SOL    HW119397   0.430   0.485   1.737  1.1570 -0.4843  0.3879
 2645SOL    HW219398   0.543   0.506   1.648 -0.7565  0.5905 -0.3862
 2646SOL     OW19399   0.667   1.411   5.815 -0.2132 -0.1490  0.0185
 2646SOL    HW119400   0.747   1.439   5.860 -0.4460  0.2763  0.1643
 2646SOL    HW219401   0.615   1.367   5.882 -1.2430 -0.1967 -0.8161
 2647SOL     OW19402   0.413   1.941  13.359 -0.2123  0.2005 -0.1754
 2647SOL    HW119403   0.476   1.889  13.408 -0.2739  0.2729 -0.0208
 2647SOL    HW219404   0.378   2.002  13.423 -1.0802 -0.4500 -0.0332
 2648SOL     OW19405   4.543   1.086   9.990 -0.4836  1.0277 -0.3814
 2648SOL    HW119406   4.574   1.092   9.899 -2.0356  1.1019 -0.8941
 2648SOL    HW219407   4.536   0.991  10.000  0.8081  1.2051  2.3095
 2649SOL     OW19408   3.484   2.272   4.472  0.2083  0.6881  0.0145
 2649SOL    HW119409   3.497   2.277   4.566 -3.1479  3.3712  0.3201
 2649SOL    HW219410   3.419   2.201   4.474  0.8094  0.1655  0.8928
 2650SOL     OW19411   0.804   4.283   6.188  0.1651  0.2022 -0.0884
 2650SOL    HW119412   0.743   4.245   6.125 -0.2041  1.8484 -0.7224
 2650SOL    HW219413   0.743   4.340   6.235  0.9850  0.0089  1.2320
 2651SOL     OW19414   0.594   1.641  10.165  0.3935  0.3820 -0.1060
 2651SOL    HW119415   0.660   1.572  10.169 -0.6988 -0.6876 -0.1522
 2651SOL    HW219416   0.544   1.609  10.089 -2.0538  1.3054  1.1028
 2652SOL     OW19417   1.742   2.663   0.850  0.2296 -0.1380  0.8433
 2652SOL    HW119418   1.800   2.720   0.901  1.4992  1.5426 -2.4801
 2652SOL    HW219419   1.805   2.601   0.814  1.4188  0.7545  1.3700
 2653SOL     OW19420   2.221   1.347   1.727 -0.9484 -0.0124  0.1291
 2653SOL    HW119421   2.264   1.306   1.802 -1.0766 -0.7489 -0.2002
 2653SOL    HW219422   2.284   1.415   1.701  1.0910 -1.9007  0.1080
 2654SOL     OW19423   2.754   0.682   8.576  0.0027 -0.2624  0.0970
 2654SOL    HW119424   2.833   0.637   8.604 -0.4689 -2.2127 -1.6776
 2654SOL    HW219425   2.786   0.760   8.531  0.4370  1.5145  3.5086
 2655SOL     OW19426   3.773   4.214   6.146  0.4256 -0.0624 -0.0940
 2655SOL    HW119427   3.814   4.294   6.115 -1.0602 -0.2974 -2.6355
 2655SOL    HW219428   3.817   4.207   6.231 -1.5568 -2.4356  0.7278
 2656SOL     OW19429   3.103   3.340   2.078  0.0194 -0.3859 -0.6313
 2656SOL    HW119430   3.159   3.376   2.009  1.4379  2.0077  1.7528
 2656SOL    HW219431   3.100   3.248   2.052 -2.0513 -0.2535 -0.8412
 2657SOL     OW19432   4.665   3.785   4.726 -0.6114  0.0362  0.7471
 2657SOL    HW119433   0.030   3.826   4.716 -1.5964  1.5983 -1.3186
 2657SOL    HW219434   4.675   3.743   4.641 -1.2459  1.0080  0.1943
 2658SOL     OW19435   3.014   0.319  15.839  0.1582  0.5033  0.3688
 2658SOL    HW119436   2.940   0.259  15.846  0.1331  0.4764 -0.0810
 2658SOL    HW219437   3.081   0.251  15.832  1.7392  1.9302  1.6466
 2659SOL     OW19438   4.205   2.955   4.412 -0.0118 -0.3619  0.3087
 2659SOL    HW119439   4.243   2.944   4.325 -1.1652 -1.9759  0.0052
 2659SOL    HW219440   4.146   2.879   4.415 -0.2820 -0.1140  1.2368
 2660SOL     OW19441   4.308   0.724   9.776  0.1131 -1.0553 -0.2760
 2660SOL    HW119442   4.214   0.731   9.757  0.3384  0.4086 -0.8815
 2660SOL    HW219443   4.297   0.657   9.844  1.1817 -1.0571 -0.1103
 2661SOL     OW19444   2.657   1.460  15.205  0.5047  0.5484 -0.1103
 2661SOL    HW119445   2.695   1.390  15.151  0.6304  1.3635 -1.0939
 2661SOL    HW219446   2.717   1.532  15.184  0.2174  0.2563 -1.9963
 2662SOL     OW19447   3.903   2.716   7.009  0.3758 -0.0560  0.2378
 2662SOL    HW119448   3.852   2.772   7.067  1.9153  0.0964  1.4364
 2662SOL    HW219449   3.955   2.662   7.068 -0.2016 -1.0744 -0.1785
 2663SOL     OW19450   1.986   4.712   1.884  0.2004  0.1824 -0.2677
 2663SOL    HW119451   1.939   4.629   1.888 -2.8100  1.8010 -1.4177
 2663SOL    HW219452   2.070   4.672   1.905  0.7186  0.8994 -0.9608
 2664SOL     OW19453   0.146   0.450   2.178  0.2754  0.1580  0.9526
 2664SOL    HW119454   0.202   0.372   2.174  1.0291  0.6963  1.1163
 2664SOL    HW219455   0.109   0.450   2.089 -0.3041 -0.2846  1.1920
 2665SOL     OW19456   3.302   4.267   3.382  0.5995 -0.1172 -0.5305
 2665SOL    HW119457   3.323   4.187   3.430  0.3272 -0.5332 -1.0991
 2665SOL    HW219458   3.255   4.237   3.304 -0.7774  0.9952 -0.1270
 2666SOL     OW19459   3.151   1.118  15.888  0.3335 -0.0171  0.0337
 2666SOL    HW119460   3.229   1.113  15.943  0.4379 -1.1729 -0.2136
 2666SOL    HW219461   3.179   1.082  15.804 -0.8517 -1.4461  0.2621
 2667SOL     OW19462   3.400   2.137   7.568 -0.4006  0.7102  0.2020
 2667SOL    HW119463   3.364   2.057   7.605  1.3644 -1.1869 -2.2072
 2667SOL    HW219464   3.359   2.136   7.481  0.1907 -0.8252 -0.0587
 2668SOL     OW19465   1.969   0.390   2.880  0.2131 -0.0648  0.8082
 2668SOL    HW119466   2.026   0.413   2.807 -1.2453 -0.4961 -0.4447
 2668SOL    HW219467   1.944   0.299   2.863 -0.5370  0.5344 -1.2061
 2669SOL     OW19468   1.969   3.734  13.433  0.5769 -0.4517 -0.3282
 2669SOL    HW119469   1.916   3.696  13.363  0.1940  0.5111 -0.5598
 2669SOL    HW219470   2.059   3.730  13.399  0.8717  1.8251  0.2104
 2670SOL     OW19471   2.881   3.919   7.839 -0.2013  0.2759 -0.8860
 2670SOL    HW119472   2.797   3.910   7.883  1.6487  0.2262  2.7116
 2670SOL    HW219473   2.938   3.906   7.915  0.1242  1.1448 -0.9700
 2671SOL     OW19474   4.075   4.333  13.067 -0.2037  0.2838 -0.1868
 2671SOL    HW119475   4.041   4.283  13.142 -0.5522  0.7829 -0.0129
 2671SOL    HW219476   4.119   4.404  13.113  1.0266 -0.5315 -0.1143
 2672SOL     OW19477   0.292   0.065   7.622 -0.4092  0.3556 -0.4893
 2672SOL    HW119478   0.267   4.694   7.627 -1.6302  0.6921 -0.6051
 2672SOL    HW219479   0.211   0.093   7.579 -1.7218  0.2140  1.9172
 2673SOL     OW19480   2.474   1.873   2.827  0.0463  0.1614  0.7051
 2673SOL    HW119481   2.562   1.851   2.859  1.1506 -0.1625 -2.5752
 2673SOL    HW219482   2.416   1.836   2.893 -0.5970 -0.4412 -0.1942
 2674SOL     OW19483   2.998   2.995   3.076  0.1937 -0.1391 -0.3006
 2674SOL    HW119484   2.969   3.081   3.045 -1.3046 -0.6997 -0.4407
 2674SOL    HW219485   2.962   2.932   3.014  0.7923  1.1315 -1.9405
 2675SOL     OW19486   1.797   1.609   0.221 -0.2835 -0.0272 -0.0645
 2675SOL    HW119487   1.716   1.660   0.224 -1.4682 -1.8795 -0.6735
 2675SOL    HW219488   1.814   1.601   0.315  0.6661  0.6458 -0.1784
 2676SOL     OW19489   4.080   3.916   9.278  0.1266  0.8234  0.0833
 2676SOL    HW119490   4.109   3.913   9.187  1.0633  1.3003  0.3679
 2676SOL    HW219491   4.133   3.847   9.318 -0.7032 -0.0157 -0.2469
 2677SOL     OW19492   1.498   1.752  16.543 -0.5606 -0.0697  0.2018
 2677SOL    HW119493   1.469   1.683  16.484  1.1448 -0.8860  0.3046
 2677SOL    HW219494   1.415   1.786  16.575 -0.8474  1.1018 -1.7694
 2678SOL     OW19495   3.472   0.242  12.769  0.0628  0.0512  0.6825
 2678SOL    HW119496   3.476   0.153  12.735  0.4741 -0.0836  1.0904
 2678SOL    HW219497   3.559   0.238  12.810 -0.2249 -0.3601  1.2439
 2679SOL     OW19498   3.247   3.847   8.348  0.0484 -0.0885  0.2126
 2679SOL    HW119499   3.241   3.858   8.443  1.7513  1.5781  0.1102
 2679SOL    HW219500   3.332   3.804   8.341  1.0216  2.0468 -0.9973
 2680SOL     OW19501   3.989   0.348   5.777  0.0756 -0.5041  0.4007
 2680SOL    HW119502   3.982   0.266   5.728 -2.3678  0.3279 -0.6610
 2680SOL    HW219503   4.006   0.419   5.715  0.2979  1.5446  2.7996
 2681SOL     OW19504   3.363   1.826   5.440  0.4473  0.2216  0.5609
 2681SOL    HW119505   3.353   1.786   5.526 -1.5682  0.0693  0.2528
 2681SOL    HW219506   3.277   1.868   5.431  0.9629  1.4597  1.3082
 2682SOL     OW19507   1.625   0.232   9.431 -0.0532  0.1698 -0.4169
 2682SOL    HW119508   1.666   0.213   9.347 -0.4651  1.9871 -1.0281
 2682SOL    HW219509   1.640   0.326   9.442 -1.7546  0.4633 -0.6130
 2683SOL     OW19510   1.613   0.145  13.415 -0.3366  0.0486 -0.0882
 2683SOL    HW119511   1.646   0.104  13.335 -0.5821 -2.1767  0.9413
 2683SOL    HW219512   1.584   0.227  13.375  0.9278 -0.5867 -2.2743
 2684SOL     OW19513   2.726   3.596  13.567  0.2588 -0.2388  0.0453
 2684SOL    HW119514   2.647   3.541  13.564  1.1256 -1.3784 -1.8715
 2684SOL    HW219515   2.792   3.560  13.507  0.0276  0.8414 -0.8579
 2685SOL     OW19516   0.499   0.205   7.525  0.0681 -0.8197  0.2827
 2685SOL    HW119517   0.480   0.223   7.433 -2.1406 -2.3807  0.4369
 2685SOL    HW219518   0.430   0.144   7.551 -1.2556  1.1044  1.2209
 2686SOL     OW19519   0.569   0.570   8.589  0.8893 -0.7120 -0.1695
 2686SOL    HW119520   0.521   0.619   8.522  1.7591  0.0044 -0.2694
 2686SOL    HW219521   0.495   0.519   8.623  0.8399  0.1797  1.0536
 2687SOL     OW19522   2.936   0.980   0.499 -0.0016 -0.2384  0.2126
 2687SOL    HW119523   2.966   1.011   0.413 -1.2719 -0.8446 -0.4445
 2687SOL    HW219524   2.987   0.899   0.492 -1.0570 -0.9466  0.6703
 2688SOL     OW19525   1.581   0.276   5.227 -0.5793  0.4072 -0.4495
 2688SOL    HW119526   1.565   0.261   5.134 -0.4359 -0.5487 -0.3221
 2688SOL    HW219527   1.609   0.368   5.226  0.6046  0.0602  0.0418
 2689SOL     OW19528   1.047   4.011  10.633  0.1427 -0.3487  0.3115
 2689SOL    HW119529   1.090   3.988  10.551  0.6409 -1.6592  0.9387
 2689SOL    HW219530   1.108   4.079  10.662  1.0770 -1.4092  0.8417
 2690SOL     OW19531   0.942   0.638   3.829  0.0641 -0.1898  0.5358
 2690SOL    HW119532   1.009   0.671   3.890  0.1154  1.2167 -0.2718
 2690SOL    HW219533   0.966   0.694   3.756 -1.9009 -1.9333 -1.4340
 2691SOL     OW19534   3.938   4.297   1.849  0.6258  0.3810  0.2407
 2691SOL    HW119535   4.020   4.252   1.832 -0.2497 -0.7026 -1.0936
 2691SOL    HW219536   3.872   4.230   1.830  0.6430  0.6158 -0.6258
 2692SOL     OW19537   4.113   4.461   7.631  0.2660  0.3239 -0.3749
 2692SOL    HW119538   4.108   4.532   7.567 -3.0102  3.1530  2.9917
 2692SOL    HW219539   4.204   4.474   7.657  1.1733  0.1212 -3.5069
 2693SOL     OW19540   1.806   2.966   8.671 -0.0180  0.0480  0.3307
 2693SOL    HW119541   1.861   3.004   8.603  1.0882 -0.5417  0.8921
 2693SOL    HW219542   1.717   2.978   8.639 -0.4964  0.0628  1.6643
 2694SOL     OW19543   0.465   1.721   6.283 -0.0392  0.2787 -0.1630
 2694SOL    HW119544   0.484   1.627   6.275 -0.1853  0.3281 -1.1809
 2694SOL    HW219545   0.370   1.722   6.288  0.0591  0.2094  1.6050
 2695SOL     OW19546   2.584   1.960  16.338 -0.5483  0.3233  0.4692
 2695SOL    HW119547   2.581   1.865  16.323  2.5327  0.3461 -0.1798
 2695SOL    HW219548   2.654   1.995  16.283  0.1358  0.1609  1.2307
 2696SOL     OW19549   4.442   0.277   7.978 -0.1577  0.5092 -0.8860
 2696SOL    HW119550   4.416   0.368   7.963 -0.7191  0.4253 -0.4448
 2696SOL    HW219551   4.456   0.267   8.073 -0.0840  0.9022 -0.8586
 2697SOL     OW19552   4.234   0.364  17.635 -0.3256  0.0721 -0.0659
 2697SOL    HW119553   4.225   0.269  17.640 -1.0012  0.2154  1.3232
 2697SOL    HW219554   4.223   0.394   0.040  0.2670  1.1288 -0.3292
 2698SOL     OW19555   4.229   0.828   0.132 -0.1840 -0.3544 -0.2715
 2698SOL    HW119556   4.186   0.868   0.208 -0.5547  0.4931 -0.9242
 2698SOL    HW219557   4.312   0.800   0.171 -0.9879 -1.2704  0.7882
 2699SOL     OW19558   3.239   0.795   4.635 -0.3038  0.5224  0.3123
 2699SOL    HW119559   3.325   0.774   4.599 -1.1690 -0.9982 -0.8532
 2699SOL    HW219560   3.242   0.889   4.650 -0.3445  0.9531 -2.4132
 2700SOL     OW19561   3.812   3.351   4.924 -0.2345  0.0796 -0.5057
 2700SOL    HW119562   3.799   3.445   4.936 -0.4516  0.0790 -0.7348
 2700SOL    HW219563   3.720   3.323   4.920 -0.1161 -0.5575  1.2484
 2701SOL     OW19564   3.525   1.840   5.222 -0.1133  0.3753 -0.2485
 2701SOL    HW119565   3.469   1.844   5.300  0.4072 -0.3644  0.1665
 2701SOL    HW219566   3.455   1.810   5.163  1.2907 -0.6619 -1.3776
 2702SOL     OW19567   4.611   0.284   7.452 -0.3176  0.2259  0.0392
 2702SOL    HW119568   4.529   0.251   7.490 -0.5880  2.0298  1.0374
 2702SOL    HW219569   4.600   0.379   7.452 -1.7758  0.0766 -1.0647
 2703SOL     OW19570   1.239   4.675   3.481  0.1883 -0.1577 -0.3391
 2703SOL    HW119571   1.162   4.691   3.535  0.0079 -1.5719 -0.1738
 2703SOL    HW219572   1.197   4.611   3.423 -0.8411 -0.2053  0.4713
 2704SOL     OW19573   2.088   3.376   7.210 -0.5770 -0.1430  0.1770
 2704SOL    HW119574   2.164   3.428   7.186 -1.5973  1.2215 -0.1120
 2704SOL    HW219575   2.098   3.290   7.169 -0.5252 -0.9673  1.8784
 2705SOL     OW19576   4.176   1.068  17.344  0.6864  0.1757 -0.6304
 2705SOL    HW119577   4.250   1.046  17.287 -0.0463 -1.5238 -0.9173
 2705SOL    HW219578   4.194   0.998  17.407  1.3436 -0.0681 -1.0862
 2706SOL     OW19579   3.357   3.182   6.372  0.1192 -0.0108  0.1140
 2706SOL    HW119580   3.302   3.249   6.413 -1.8054 -0.4616 -1.7051
 2706SOL    HW219581   3.432   3.232   6.340  2.3718 -3.0500  0.6651
 2707SOL     OW19582   1.239   4.422  17.350  0.6057  0.2332  0.0528
 2707SOL    HW119583   1.271   4.448  17.263  1.3789 -0.1877  0.2078
 2707SOL    HW219584   1.224   4.507  17.391 -2.1183 -0.8489  1.2930
 2708SOL     OW19585   1.044   2.216   5.133 -0.1374 -0.1936 -0.3410
 2708SOL    HW119586   1.136   2.209   5.156  0.0904  0.0957 -1.1876
 2708SOL    HW219587   1.034   2.304   5.096  0.2990 -0.1309 -0.3080
 2709SOL     OW19588   0.100   0.116   6.753  0.3895  0.8612  0.5289
 2709SOL    HW119589   0.021   0.073   6.786 -0.3133  2.6777  1.2566
 2709SOL    HW219590   0.056   0.153   6.676 -1.4472  2.2156  2.2116
 2710SOL     OW19591   2.916   2.506  13.598  0.2184 -0.6817 -0.1437
 2710SOL    HW119592   2.951   2.512  13.509  0.8109 -0.8089  0.0760
 2710SOL    HW219593   2.985   2.474  13.656  1.6277  0.2119 -1.3231
 2711SOL     OW19594   3.828   4.138   4.632 -0.1820  0.4363 -0.1858
 2711SOL    HW119595   3.802   4.210   4.573  0.2397 -0.2023 -1.1399
 2711SOL    HW219596   3.774   4.153   4.710  0.5920  2.0848  0.0430
 2712SOL     OW19597   0.547   1.722  11.685  0.3393  0.1290 -0.2536
 2712SOL    HW119598   0.572   1.706  11.776 -1.8778 -5.1462 -0.5342
 2712SOL    HW219599   0.540   1.817  11.675 -0.8501  0.2023  1.1216
 2713SOL     OW19600   3.661   1.927   0.201 -0.6075 -0.4985  0.2586
 2713SOL    HW119601   3.742   1.934   0.251  0.6145 -1.2363 -1.6093
 2713SOL    HW219602   3.595   1.937   0.269 -0.6378  0.5463  0.0771
 2714SOL     OW19603   2.546   1.748   3.827  0.3591  0.4265  0.5497
 2714SOL    HW119604   2.632   1.760   3.866  0.2113 -2.1941  1.6736
 2714SOL    HW219605   2.492   1.751   3.906  1.7693 -0.8395  1.5598
 2715SOL     OW19606   4.567   3.337   4.270  0.1543  0.0025 -0.0303
 2715SOL    HW119607   4.627   3.411   4.276 -2.7357  2.3277  0.4222
 2715SOL    HW219608   4.542   3.339   4.178 -0.2097 -0.7909  0.0484
 2716SOL     OW19609   3.862   4.540   6.737  0.1202 -0.4276  0.1050
 2716SOL    HW119610   3.829   4.499   6.657  1.7494 -1.0386 -0.2748
 2716SOL    HW219611   3.870   4.461   6.790 -0.1072 -0.6969 -0.2647
 2717SOL     OW19612   2.628   2.813  15.161  0.0561 -0.4167  0.4152
 2717SOL    HW119613   2.555   2.860  15.120  0.4337 -2.0160 -2.0791
 2717SOL    HW219614   2.709   2.845  15.120 -0.3589  0.0556 -0.0362
 2718SOL     OW19615   3.685   2.812   7.437 -0.1204  0.0212  0.0335
 2718SOL    HW119616   3.601   2.768   7.422  1.1381 -2.4638  0.2699
 2718SOL    HW219617   3.714   2.771   7.519 -0.1439  0.7065  0.3852
 2719SOL     OW19618   1.766   2.009  15.358  0.6687 -0.1363  0.1348
 2719SOL    HW119619   1.786   1.958  15.437  0.5907 -1.1052 -0.4679
 2719SOL    HW219620   1.853   2.040  15.334  0.9622 -0.6582  0.5127
 2720SOL     OW19621   2.303   1.485   6.365  0.2514 -0.7697  0.2564
 2720SOL    HW119622   2.281   1.463   6.275 -0.1112 -0.8816  0.3716
 2720SOL    HW219623   2.221   1.526   6.393  0.1417 -0.4746 -0.4971
 2721SOL     OW19624   4.393   1.411  15.808 -0.2413 -0.1602 -0.0780
 2721SOL    HW119625   4.336   1.398  15.883  0.1893  0.7145  0.3964
 2721SOL    HW219626   4.334   1.375  15.741  1.3877 -0.3349 -1.4300
 2722SOL     OW19627   0.081   0.839   9.387  0.0407  0.0586 -0.4544
 2722SOL    HW119628   0.030   0.908   9.347 -0.0817  0.6000  0.6220
 2722SOL    HW219629   0.061   0.764   9.332 -3.9137 -0.9280  2.3296
 2723SOL     OW19630   3.038   2.839  15.152 -0.4819  0.2593  0.2487
 2723SOL    HW119631   3.006   2.841  15.242 -2.5821 -0.7511 -0.4785
 2723SOL    HW219632   2.986   2.910  15.116 -0.9424  0.9432  2.2424
 2724SOL     OW19633   2.990   1.443   7.355  0.2101  0.3784  0.1297
 2724SOL    HW119634   2.906   1.466   7.317  0.3151 -1.3638 -1.1355
 2724SOL    HW219635   3.028   1.531   7.360 -2.0208  1.3449 -0.1354
 2725SOL     OW19636   1.754   3.094   5.183 -0.3449  0.1391 -0.1529
 2725SOL    HW119637   1.686   3.155   5.213 -1.4681 -1.4982  0.5911
 2725SOL    HW219638   1.815   3.093   5.257 -0.4080 -2.4703 -0.1421
 2726SOL     OW19639   4.507   3.329   2.908 -0.0201  0.5945 -0.1502
 2726SOL    HW119640   4.538   3.328   2.817 -2.8237  1.7914 -1.1175
 2726SOL    HW219641   4.413   3.335   2.889  0.1172  0.4035 -0.8810
 2727SOL     OW19642   2.843   1.983   7.625 -0.4305  0.0859  0.0005
 2727SOL    HW119643   2.907   1.975   7.554 -1.1896  0.8065 -0.7695
 2727SOL    HW219644   2.774   2.040   7.589 -1.3104 -1.3474 -0.5872
 2728SOL     OW19645   0.878   2.748   1.271  0.1393  0.2666  0.1480
 2728SOL    HW119646   0.877   2.834   1.229  1.1921  1.0135  1.6818
 2728SOL    HW219647   0.945   2.752   1.339 -1.0728  3.6036  1.1741
 2729SOL     OW19648   1.858   3.353   2.444 -0.4009 -0.3309  0.0746
 2729SOL    HW119649   1.923   3.423   2.432  0.2492 -0.4510  2.9827
 2729SOL    HW219650   1.804   3.378   2.368  1.4269  0.1586 -1.0776
 2730SOL     OW19651   1.636   4.669   3.298  0.2478  0.0831  0.1087
 2730SOL    HW119652   1.563   4.710   3.253  0.2068  0.5922  0.6407
 2730SOL    HW219653   1.614   4.586   3.255 -2.4375  0.6443  0.4115
 2731SOL     OW19654   3.524   3.686  14.541  0.2792 -0.0111  0.2615
 2731SOL    HW119655   3.564   3.610  14.499  0.0517 -2.0737  3.8586
 2731SOL    HW219656   3.454   3.709  14.479  0.2023  1.1887  0.7891
 2732SOL     OW19657   0.805   0.492   0.443 -0.0046  0.0864 -0.1846
 2732SOL    HW119658   0.848   0.474   0.527  0.0839 -0.9743 -0.4517
 2732SOL    HW219659   0.793   0.587   0.446  0.1649  0.0607  1.1352
 2733SOL     OW19660   1.881   3.166   4.155 -0.3236 -0.0937  0.2888
 2733SOL    HW119661   1.959   3.168   4.210  0.8705 -3.3885 -1.2605
 2733SOL    HW219662   1.834   3.244   4.185 -1.3916 -0.9136  0.7448
 2734SOL     OW19663   2.748   0.625   3.307  0.6512 -0.1511 -0.3967
 2734SOL    HW119664   2.808   0.607   3.236  2.0772 -0.8631  0.9886
 2734SOL    HW219665   2.726   0.534   3.328 -0.0452  0.4174  1.3900
 2735SOL     OW19666   3.202   3.927   6.644 -0.4660  0.0734  0.0048
 2735SOL    HW119667   3.254   4.007   6.643  0.6086 -0.6413 -2.3386
 2735SOL    HW219668   3.141   3.935   6.571  1.0853 -1.2385 -1.4153
 2736SOL     OW19669   0.629   2.182  13.981  0.2860 -0.5838  0.1327
 2736SOL    HW119670   0.705   2.230  14.013 -1.3665  3.6391 -2.3577
 2736SOL    HW219671   0.616   2.116  14.049  0.0098  0.9606  1.5515
 2737SOL     OW19672   2.213   0.278   0.272  0.1433  0.0395  0.1725
 2737SOL    HW119673   2.245   0.228   0.347 -5.2386 -1.4324  1.5058
 2737SOL    HW219674   2.281   0.250   0.211  0.6912  0.2402  0.6805
 2738SOL     OW19675   4.666   2.051   2.121 -0.1338 -0.1399  0.0911
 2738SOL    HW119676   4.667   1.961   2.088 -0.5800  0.0654 -0.4742
 2738SOL    HW219677   0.024   2.041   2.175  0.7834 -0.4047 -1.3034
 2739SOL     OW19678   0.166   1.202   1.845  0.4663 -0.6987 -0.3584
 2739SOL    HW119679   0.070   1.197   1.849  0.3453  1.2121 -0.4993
 2739SOL    HW219680   0.179   1.296   1.862 -0.9595 -0.5255 -0.2446
 2740SOL     OW19681   2.960   2.644   7.375  0.0430  0.3142  0.3819
 2740SOL    HW119682   2.990   2.560   7.408  0.4906 -0.0051 -0.8681
 2740SOL    HW219683   2.931   2.694   7.452 -2.3335 -1.9062  0.9069
 2741SOL     OW19684   1.823   3.381   0.673 -0.2763  0.7681 -0.5869
 2741SOL    HW119685   1.902   3.326   0.671 -0.1626  0.9163 -0.1693
 2741SOL    HW219686   1.862   3.465   0.695 -2.9117  1.7648  0.2477
 2742SOL     OW19687   1.922   3.370   3.417 -0.8046  0.4007  0.2316
 2742SOL    HW119688   2.003   3.420   3.431  0.5670 -0.9110 -2.9164
 2742SOL    HW219689   1.860   3.440   3.436  0.8004  1.3600  2.0078
 2743SOL     OW19690   0.009   0.118  16.287  0.2785  0.4290 -0.2682
 2743SOL    HW119691   4.704   0.139  16.377 -1.2744 -1.0354 -0.3707
 2743SOL    HW219692   4.707   0.025  16.285  0.7210  0.2739  1.6225
 2744SOL     OW19693   1.746   1.582   4.368  0.4286  0.5979 -0.3142
 2744SOL    HW119694   1.738   1.649   4.300  0.8626  0.5706 -0.3934
 2744SOL    HW219695   1.776   1.639   4.440  0.0388  0.4349 -0.0224
 2745SOL     OW19696   2.519   1.813   5.481  0.2792  0.4327 -0.3458
 2745SOL    HW119697   2.611   1.786   5.473 -0.0452 -0.3731 -1.4817
 2745SOL    HW219698   2.490   1.764   5.558 -1.1314 -1.7412 -2.2603
 2746SOL     OW19699   1.705   3.246   1.606 -0.3919  0.0691  0.2707
 2746SOL    HW119700   1.686   3.200   1.524 -2.1527  1.6000 -0.1994
 2746SOL    HW219701   1.687   3.335   1.575  0.4484  0.1216 -0.0715
 2747SOL     OW19702   1.535   0.156   9.718 -0.1764  0.3174 -0.1895
 2747SOL    HW119703   1.471   0.086   9.703 -0.2512 -0.3577  3.2404
 2747SOL    HW219704   1.565   0.177   9.630  1.0321  1.6282  0.5134
 2748SOL     OW19705   1.362   1.545  14.533  0.1612 -0.7363 -0.9885
 2748SOL    HW119706   1.347   1.552  14.439 -3.9643 -2.1640 -0.4128
 2748SOL    HW219707   1.315   1.463  14.548  0.4014 -0.9850 -1.6207
 2749SOL     OW19708   3.151   2.402   5.999 -0.4679  0.3015  0.7155
 2749SOL    HW119709   3.171   2.449   6.080 -0.1642 -0.5841  1.1529
 2749SOL    HW219710   3.093   2.466   5.958 -0.2654  0.5194  0.7712
 2750SOL     OW19711   2.968   4.420   2.814  0.0438  0.1244 -0.1926
 2750SOL    HW119712   3.035   4.367   2.770  1.1122  0.9088  0.4964
 2750SOL    HW219713   2.994   4.510   2.794  0.1992 -0.2892 -1.8239
 2751SOL     OW19714   2.845   0.738   7.873  0.0307  0.6465  0.4364
 2751SOL    HW119715   2.781   0.744   7.802  1.6313  0.3192 -1.0235
 2751SOL    HW219716   2.927   0.747   7.825 -1.1659  2.3139 -1.3231
 2752SOL     OW19717   1.324   0.760   3.699  0.4523  0.1605  0.2822
 2752SOL    HW119718   1.267   0.771   3.622 -1.3351  0.5431  1.6539
 2752SOL    HW219719   1.390   0.828   3.685  3.0620 -2.2217  1.0327
 2753SOL     OW19720   0.036   4.641   2.244  0.5558 -0.3838 -0.0941
 2753SOL    HW119721   0.127   4.657   2.221  0.2311 -0.7652 -1.5845
 2753SOL    HW219722   0.003   0.010   2.239 -2.8560 -1.6448 -0.2735
 2754SOL     OW19723   1.786   0.892   2.569  0.2086  0.2882  0.1433
 2754SOL    HW119724   1.769   0.821   2.508 -2.7617  2.1628 -1.2069
 2754SOL    HW219725   1.882   0.893   2.568  0.1938 -0.7812 -1.6452
 2755SOL     OW19726   2.442   2.060   4.248 -0.1658 -0.0282 -0.3363
 2755SOL    HW119727   2.516   2.015   4.208 -0.2635 -0.6386  0.1569
 2755SOL    HW219728   2.434   2.134   4.189 -0.5910  0.1899 -0.0056
 2756SOL     OW19729   1.109   0.193   4.867 -0.3783 -0.4387  0.0778
 2756SOL    HW119730   1.133   0.102   4.853  0.3261 -0.2070 -0.2515
 2756SOL    HW219731   1.114   0.228   4.778 -0.2617  0.6391  0.5074
 2757SOL     OW19732   2.376   2.284   1.943  0.0164  0.2506 -0.0516
 2757SOL    HW119733   2.351   2.199   1.906 -1.5623  0.4294  0.5772
 2757SOL    HW219734   2.391   2.256   2.033 -1.0317  0.9699  0.3510
 2758SOL     OW19735   1.892   2.515   5.471 -0.0557  0.3391  0.1909
 2758SOL    HW119736   1.840   2.447   5.429  0.8003  0.0458 -0.3841
 2758SOL    HW219737   1.882   2.576   5.399  1.3199 -0.6573 -0.8517
 2759SOL     OW19738   3.030   3.244   2.723 -0.4379  0.0791 -0.1476
 2759SOL    HW119739   3.039   3.154   2.689 -1.5945 -1.2167  2.9859
 2759SOL    HW219740   3.101   3.287   2.676  1.1189 -2.0063  0.2799
 2760SOL     OW19741   2.270   2.408   4.587 -0.3348 -0.0240  0.2440
 2760SOL    HW119742   2.223   2.379   4.510 -1.4981 -0.7600  1.2323
 2760SOL    HW219743   2.361   2.393   4.560  0.1337 -0.9363  2.2975
 2761SOL     OW19744   3.862   2.123   5.722 -0.0784 -0.0293  0.1717
 2761SOL    HW119745   3.915   2.094   5.796 -2.3903 -0.1456  1.7558
 2761SOL    HW219746   3.933   2.151   5.663 -2.3771  3.2536 -1.0448
 2762SOL     OW19747   0.902   1.183   0.213 -0.8745 -0.7478  0.1860
 2762SOL    HW119748   0.970   1.207   0.151 -1.1595 -1.3084 -0.3472
 2762SOL    HW219749   0.875   1.101   0.171 -2.9721  0.2813 -0.5012
 2763SOL     OW19750   0.894   4.497   9.253  0.0177 -0.2131  0.1173
 2763SOL    HW119751   0.810   4.453   9.236  0.6737 -1.7778  0.9413
 2763SOL    HW219752   0.954   4.464   9.186  1.1972  0.8921  0.6379
 2764SOL     OW19753   4.232   1.851   7.529 -0.5802 -0.0573 -0.3238
 2764SOL    HW119754   4.277   1.776   7.489  1.6623 -0.1833  2.4278
 2764SOL    HW219755   4.253   1.842   7.622  3.4783  3.5265 -0.9278
 2765SOL     OW19756   1.649   1.118   7.634 -0.1609  0.0391  0.0161
 2765SOL    HW119757   1.683   1.047   7.688 -0.3722 -0.6665 -0.7710
 2765SOL    HW219758   1.603   1.074   7.562  0.8102  0.8023 -1.0757
 2766SOL     OW19759   3.466   0.944   2.541  0.1091  0.0482  0.3712
 2766SOL    HW119760   3.437   0.892   2.616 -1.3652 -0.3277 -0.4485
 2766SOL    HW219761   3.545   0.903   2.506 -0.7000 -0.4610 -0.8539
 2767SOL     OW19762   1.772   2.285   3.427 -0.1680 -1.0214 -0.4040
 2767SOL    HW119763   1.691   2.336   3.425  0.5478  0.0972 -0.8521
 2767SOL    HW219764   1.777   2.247   3.340  1.0775  1.2332 -1.3175
 2768SOL     OW19765   1.598   2.884   9.395  0.2524  0.2360 -0.2937
 2768SOL    HW119766   1.567   2.933   9.472 -1.5676  0.1143 -0.9535
 2768SOL    HW219767   1.671   2.838   9.437 -0.3200  0.9041  1.4524
 2769SOL     OW19768   3.381   2.504   4.329  0.2515  0.1138 -0.3191
 2769SOL    HW119769   3.435   2.444   4.381 -0.1058 -0.4604 -0.6207
 2769SOL    HW219770   3.293   2.472   4.348  0.4874  0.4044  1.2842
 2770SOL     OW19771   1.481   3.190   5.940  0.0859 -0.6192  0.1473
 2770SOL    HW119772   1.437   3.212   5.858  1.1792 -1.2894 -0.6169
 2770SOL    HW219773   1.408   3.157   5.992 -1.1343  0.8901 -0.5989
 2771SOL     OW19774   2.081   4.523   5.379 -0.4094  0.0890  0.7320
 2771SOL    HW119775   2.107   4.433   5.356  1.8798  0.5770  1.4394
 2771SOL    HW219776   2.144   4.553   5.444  0.9545  0.6797 -0.8589
 2772SOL     OW19777   4.099   2.227   9.890  1.0331 -0.2494 -0.0026
 2772SOL    HW119778   4.157   2.279   9.945  2.3915 -1.4164 -0.3558
 2772SOL    HW219779   4.032   2.287   9.855  1.1065  0.8632  1.7700
 2773SOL     OW19780   1.858   4.120   7.286  0.2055 -0.0412 -0.4769
 2773SOL    HW119781   1.808   4.123   7.205 -0.1781  0.6545 -0.2102
 2773SOL    HW219782   1.822   4.182   7.349  1.5031  0.3306 -0.0993
 2774SOL     OW19783   4.432   2.872  16.152 -0.4929 -0.4854 -1.0879
 2774SOL    HW119784   4.459   2.869  16.244  1.2269 -2.1351 -1.6678
 2774SOL    HW219785   4.502   2.915  16.104 -0.8007 -0.9481 -1.9433
 2775SOL     OW19786   4.241   0.430   5.401  0.6628 -0.0813 -0.3661
 2775SOL    HW119787   4.308   0.458   5.463  1.1251 -1.6032 -0.1713
 2775SOL    HW219788   4.287   0.451   5.320 -1.9800  2.1336 -1.2808
 2776SOL     OW19789   2.345   4.660  12.506 -0.5766  0.1942 -0.1174
 2776SOL    HW119790   2.288   4.592  12.542 -0.7408 -0.6754 -2.0463
 2776SOL    HW219791   2.275   0.004  12.497 -0.3130  0.0303 -3.0384
 2777SOL     OW19792   1.648   3.326   5.320 -0.4777  0.1342  0.2108
 2777SOL    HW119793   1.631   3.367   5.236 -1.7228 -1.4291 -0.2950
 2777SOL    HW219794   1.639   3.404   5.374 -2.0676 -0.0054  0.1436
 2778SOL     OW19795   4.140   3.895   5.113 -0.3145  0.0425  0.3214
 2778SOL    HW119796   4.059   3.911   5.161  0.0979  0.6125  0.8134
 2778SOL    HW219797   4.146   3.978   5.067  1.0797  0.4748  1.2942
 2779SOL     OW19798   2.856   2.491   6.163  0.0352  0.0601 -0.3115
 2779SOL    HW119799   2.822   2.577   6.139 -0.8934 -0.0851  0.4604
 2779SOL    HW219800   2.873   2.445   6.081  0.5704  0.9893 -0.7198
 2780SOL     OW19801   2.542   2.113  15.249 -0.1071  0.0118  0.2595
 2780SOL    HW119802   2.583   2.126  15.334  0.3014  1.9936 -0.2571
 2780SOL    HW219803   2.603   2.060  15.198  0.7285 -0.2473  1.5354
 2781SOL     OW19804   2.645   2.521   0.106 -0.4886 -0.9034 -0.0644
 2781SOL    HW119805   2.611   2.438   0.138  0.3364 -1.3448 -0.3090
 2781SOL    HW219806   2.707   2.551   0.172  0.0963 -0.8753 -0.6251
 2782SOL     OW19807   1.107   0.098   3.674  0.2123  1.0558 -0.1433
 2782SOL    HW119808   1.164   0.044   3.728  0.1957 -0.0787 -1.2721
 2782SOL    HW219809   1.146   0.184   3.687  1.1100  1.0997 -3.1803
 2783SOL     OW19810   1.904   4.268   4.067 -1.0996  0.4813  0.5494
 2783SOL    HW119811   1.982   4.225   4.032 -0.0449  0.8946  2.4237
 2783SOL    HW219812   1.931   4.269   4.158  4.2694  0.6725 -1.0408
 2784SOL     OW19813   2.893   3.295   7.813  0.2223 -0.1856 -0.0578
 2784SOL    HW119814   2.799   3.298   7.827  0.3902 -0.8969  1.2798
 2784SOL    HW219815   2.903   3.388   7.832 -1.1327 -0.3289  1.4292
 2785SOL     OW19816   2.871   0.265  10.379  0.0579  0.1435 -0.9211
 2785SOL    HW119817   2.846   0.355  10.399 -2.7418 -1.0104  0.8215
 2785SOL    HW219818   2.784   0.252  10.339 -1.1310  0.5995  1.5307
 2786SOL     OW19819   2.699   1.348   4.684 -0.4378  0.4158 -0.2887
 2786SOL    HW119820   2.624   1.367   4.628 -2.5223  1.9661  3.0142
 2786SOL    HW219821   2.772   1.351   4.623 -0.3216 -2.2870 -0.2829
 2787SOL     OW19822   2.508   2.859  16.930  0.4175  0.4542 -0.5196
 2787SOL    HW119823   2.504   2.863  17.025  2.3718 -0.0941 -0.4136
 2787SOL    HW219824   2.592   2.813  16.920 -0.2915 -0.9255 -0.1393
 2788SOL     OW19825   3.686   3.878  16.339  0.0069 -0.1189 -0.0078
 2788SOL    HW119826   3.674   3.972  16.325 -2.4846 -0.5760 -0.9745
 2788SOL    HW219827   3.714   3.888  16.430  0.5399  2.3834 -0.4565
 2789SOL     OW19828   1.600   2.004   9.674  0.2927 -0.2810  0.4832
 2789SOL    HW119829   1.591   2.013   9.579 -1.3015 -1.4794  0.5128
 2789SOL    HW219830   1.511   2.002   9.710 -1.2461  0.2434 -3.3076
 2790SOL     OW19831   3.839   3.624  14.163 -0.0362 -0.1487 -0.2279
 2790SOL    HW119832   3.823   3.704  14.112  1.4412  0.2976  0.0031
 2790SOL    HW219833   3.833   3.670  14.247  1.9871  0.8874 -0.6489
 2791SOL     OW19834   2.736   2.272   4.273 -0.0146  0.5870 -0.3726
 2791SOL    HW119835   2.808   2.215   4.247 -0.9967  0.0601 -1.9185
 2791SOL    HW219836   2.685   2.263   4.193  0.4048 -0.1911 -0.5501
 2792SOL     OW19837   2.231   1.235  15.345 -0.7232 -0.1062 -0.3751
 2792SOL    HW119838   2.136   1.237  15.347 -0.6729 -0.7275  2.4528
 2792SOL    HW219839   2.257   1.223  15.437 -1.4103  2.0367  0.0972
 2793SOL     OW19840   2.817   3.936   8.302  0.3039 -0.1922  0.5113
 2793SOL    HW119841   2.862   4.014   8.271  1.1620 -1.2249 -0.8177
 2793SOL    HW219842   2.727   3.968   8.305  0.0605 -0.8377  0.1660
 2794SOL     OW19843   0.798   3.397   9.461 -0.7975 -0.1746  0.0570
 2794SOL    HW119844   0.794   3.416   9.367 -0.4575 -5.0461 -0.9806
 2794SOL    HW219845   0.783   3.302   9.460 -0.6054 -0.2073  1.2280
 2795SOL     OW19846   1.073   2.409   9.272 -0.5684 -0.6361  0.0121
 2795SOL    HW119847   1.148   2.440   9.323 -0.5309 -2.3550  1.0122
 2795SOL    HW219848   1.113   2.346   9.211 -0.9827  0.3866 -1.3171
 2796SOL     OW19849   3.124   0.169  12.865 -0.3795  0.6972  0.0752
 2796SOL    HW119850   3.171   0.109  12.924  1.9604  1.6818 -0.8041
 2796SOL    HW219851   3.164   0.255  12.878  0.7856 -0.0603  1.4778
 2797SOL     OW19852   1.546   3.699  17.501 -0.4515  0.2029 -0.2949
 2797SOL    HW119853   1.489   3.654  17.439  1.1991 -3.0520  0.5043
 2797SOL    HW219854   1.479   3.739  17.556 -0.8060  1.5456 -1.7349
 2798SOL     OW19855   1.824   1.384   9.902 -0.7058  0.7513 -0.2979
 2798SOL    HW119856   1.860   1.443   9.968  0.4351 -1.8174  1.3697
 2798SOL    HW219857   1.732   1.410   9.901 -0.9944 -0.3662 -2.7538
 2799SOL     OW19858   3.378   1.609   7.979  0.3842 -0.3835 -0.3731
 2799SOL    HW119859   3.282   1.607   7.974  0.2138  1.1902  2.5489
 2799SOL    HW219860   3.381   1.675   8.047  0.6831 -0.6421 -0.1353
 2800SOL     OW19861   3.410   0.209   4.141  0.5933  0.4687 -0.7364
 2800SOL    HW119862   3.441   0.140   4.083 -0.7365 -0.4260 -0.3682
 2800SOL    HW219863   3.317   0.187   4.137 -0.1609  3.8694 -1.7544
 2801SOL     OW19864   3.171   1.526   4.605 -0.0931  0.7002 -0.0597
 2801SOL    HW119865   3.103   1.538   4.672 -0.3041  1.8770 -0.4994
 2801SOL    HW219866   3.119   1.488   4.535 -1.2406  3.6855 -0.8120
 2802SOL     OW19867   2.557   2.551   3.039  0.4467 -0.3175  0.0733
 2802SOL    HW119868   2.501   2.566   3.115 -0.8473  1.5085 -1.2175
 2802SOL    HW219869   2.554   2.456   3.046  1.2916 -0.3630 -0.2148
 2803SOL     OW19870   1.187   1.032  11.802 -0.7252  0.2048 -0.6241
 2803SOL    HW119871   1.160   1.106  11.749  0.9520 -0.3838 -2.2923
 2803SOL    HW219872   1.264   1.072  11.843 -0.6015 -3.2885  2.5966
 2804SOL     OW19873   3.914   0.283   6.675  0.1011 -0.0731 -0.5195
 2804SOL    HW119874   3.870   0.366   6.654 -0.7697  0.0251  1.7259
 2804SOL    HW219875   3.958   0.310   6.756 -0.8834 -0.4947  0.1547
 2805SOL     OW19876   2.782   2.902   4.142 -0.2571 -0.2170 -0.4359
 2805SOL    HW119877   2.802   2.991   4.113  1.4803 -0.9480 -1.4960
 2805SOL    HW219878   2.860   2.848   4.131  0.0276 -0.1028  1.0520
 2806SOL     OW19879   2.021   4.319   4.361 -0.5797 -0.3975  0.0094
 2806SOL    HW119880   2.100   4.321   4.415  0.1058  1.0448 -1.0564
 2806SOL    HW219881   2.016   4.225   4.342 -1.0924 -0.1673 -0.9958
 2807SOL     OW19882   1.247   3.330   8.832 -0.0006 -0.6175 -0.2935
 2807SOL    HW119883   1.342   3.331   8.820  0.2989 -2.3726  2.0800
 2807SOL    HW219884   1.243   3.239   8.861  0.3273 -0.7575 -0.6932
 2808SOL     OW19885   2.528   2.835   4.966  0.7561 -0.2226  0.2465
 2808SOL    HW119886   2.549   2.880   5.048  1.5335  1.9971 -1.1684
 2808SOL    HW219887   2.550   2.746   4.994  0.9256 -0.1562  0.3217
 2809SOL     OW19888   0.112   1.258   7.748  0.4755  0.1859  0.4679
 2809SOL    HW119889   0.031   1.252   7.697  1.1507  1.1043 -0.6905
 2809SOL    HW219890   0.178   1.271   7.680  0.3314  2.0829  0.6952
 2810SOL     OW19891   1.491   4.080   6.804 -0.4135 -0.8208 -0.6456
 2810SOL    HW119892   1.502   4.170   6.834 -0.8636 -0.6947 -0.8616
 2810SOL    HW219893   1.551   4.032   6.862 -0.3223 -0.1110 -0.1586
 2811SOL     OW19894   0.893   0.624  10.158  0.3332  0.2292 -0.2564
 2811SOL    HW119895   0.943   0.666  10.088 -0.9838  2.5224  0.1664
 2811SOL    HW219896   0.897   0.692  10.226  1.3599 -1.3534  1.2919
 2812SOL     OW19897   4.705   3.555   2.998 -0.5392 -0.5784  0.5318
 2812SOL    HW119898   4.664   3.470   2.980 -1.7143  0.3038 -0.9602
 2812SOL    HW219899   4.657   3.579   3.078 -0.4126 -0.6927  0.6417
 2813SOL     OW19900   1.225   1.644   3.608 -0.0600 -0.8642  0.8395
 2813SOL    HW119901   1.183   1.718   3.565  2.7200 -1.1555 -2.4030
 2813SOL    HW219902   1.287   1.611   3.543 -1.4957 -2.7062  0.4150
 2814SOL     OW19903   2.921   4.098   2.688 -0.3766  0.2774  0.5051
 2814SOL    HW119904   2.938   4.192   2.694  3.2554 -0.3815  1.0524
 2814SOL    HW219905   2.888   4.087   2.599 -0.1404  0.0257  0.4469
 2815SOL     OW19906   3.579   0.403   2.461 -0.4751 -0.2910  0.4006
 2815SOL    HW119907   3.547   0.332   2.516 -0.6299  0.5823  1.4416
 2815SOL    HW219908   3.670   0.372   2.456  0.1166  1.5987 -0.8836
 2816SOL     OW19909   2.444   2.156   7.946  0.2059  0.1583  0.1546
 2816SOL    HW119910   2.446   2.247   7.975 -0.1691  0.7946 -1.8001
 2816SOL    HW219911   2.358   2.163   7.903 -0.4976 -1.5163  1.3087
 2817SOL     OW19912   1.573   4.657   6.793  0.1867  0.4887  0.6783
 2817SOL    HW119913   1.627   4.700   6.859 -0.0524  1.5369  0.1759
 2817SOL    HW219914   1.495   4.713   6.792 -0.6861 -0.7678 -1.3355
 2818SOL     OW19915   1.473   0.975   7.504 -0.0810 -0.0315 -0.4797
 2818SOL    HW119916   1.420   0.950   7.428 -0.5996  0.8755 -0.4138
 2818SOL    HW219917   1.420   0.943   7.577 -0.0681  0.1466 -0.3916
 2819SOL     OW19918   4.118   1.500  13.249 -0.5811  0.1554  0.5879
 2819SOL    HW119919   4.203   1.460  13.267  0.1138  1.7372  0.8251
 2819SOL    HW219920   4.121   1.531  13.158 -0.2522 -3.9734 -0.7827
 2820SOL     OW19921   0.728   4.586  16.075 -0.0159  0.3715 -0.3860
 2820SOL    HW119922   0.634   4.592  16.086 -0.1274 -2.2089  0.0982
 2820SOL    HW219923   0.738   4.568  15.981 -2.5190  1.4862 -0.8472
 2821SOL     OW19924   1.729   0.019   4.015  0.0086  0.1348  0.0804
 2821SOL    HW119925   1.784   4.668   4.045  1.5780  1.8314  1.2614
 2821SOL    HW219926   1.688   0.031   4.101 -0.5728 -0.0755 -0.1630
 2822SOL     OW19927   0.761   3.917   9.584 -0.4243 -0.2668 -0.4038
 2822SOL    HW119928   0.680   3.870   9.562 -1.0597  1.1965 -1.1606
 2822SOL    HW219929   0.727   3.958   9.663  0.0031  0.6092 -0.6731
 2823SOL     OW19930   4.706   0.604   1.068 -0.7685 -0.2429 -0.2933
 2823SOL    HW119931   4.715   0.643   1.155  1.0679 -0.3892 -0.4210
 2823SOL    HW219932   0.027   0.661   1.003  1.7264 -1.0842  0.5812
 2824SOL     OW19933   2.961   1.393  13.408  0.4975  0.0675 -0.2381
 2824SOL    HW119934   2.926   1.312  13.446  1.6590 -0.6441 -0.6602
 2824SOL    HW219935   2.885   1.442  13.376  1.3261  0.7517 -1.1337
 2825SOL     OW19936   2.948   1.340   8.525 -0.0955  0.1268 -0.0251
 2825SOL    HW119937   3.016   1.347   8.591 -0.3001 -0.7804  0.2847
 2825SOL    HW219938   2.887   1.285   8.575 -1.8837 -1.0630 -3.4748
 2826SOL     OW19939   2.318   1.130  14.326 -0.0335  0.0350 -0.2403
 2826SOL    HW119940   2.399   1.175  14.303 -0.0636  0.2914  0.1690
 2826SOL    HW219941   2.346   1.040  14.308 -2.0212 -0.6444  0.0851
 2827SOL     OW19942   0.873   2.480  17.637  0.3778  0.0750 -0.2076
 2827SOL    HW119943   0.832   2.417  17.577 -0.4227  0.5845 -0.1968
 2827SOL    HW219944   0.869   2.559  17.584 -0.4499 -1.7098 -2.8159
 2828SOL     OW19945   3.988   1.220   5.153 -0.5640  0.2440 -0.3398
 2828SOL    HW119946   3.938   1.293   5.115 -1.0455 -0.9067 -1.8822
 2828SOL    HW219947   3.938   1.206   5.233 -0.2134  2.5497  0.2899
 2829SOL     OW19948   4.314   1.301   6.650 -0.2317 -0.5490  0.1654
 2829SOL    HW119949   4.409   1.295   6.636 -0.2169 -1.0047  0.4311
 2829SOL    HW219950   4.279   1.258   6.572 -0.2910  1.6517 -1.0229
 2830SOL     OW19951   0.132   4.514   9.116 -0.5236 -0.3068  0.0866
 2830SOL    HW119952   0.074   4.445   9.085 -1.4788  0.0995  0.9523
 2830SOL    HW219953   0.166   4.547   9.033  0.8466  1.5749  1.3991
 2831SOL     OW19954   0.239   4.167   2.698 -0.7501  0.4339  0.6206
 2831SOL    HW119955   0.235   4.102   2.627 -0.2904  1.1257 -0.0436
 2831SOL    HW219956   0.164   4.224   2.682  0.6840  1.5390 -2.2516
 2832SOL     OW19957   3.801   1.775   5.887  0.2157  0.2318  0.0436
 2832SOL    HW119958   3.773   1.782   5.979 -0.5923  0.7860 -0.2483
 2832SOL    HW219959   3.793   1.680   5.875  2.0205 -0.0911  1.4116
 2833SOL     OW19960   3.714   2.473   9.339  0.4871  0.9185  0.7836
 2833SOL    HW119961   3.793   2.512   9.302  1.2067 -1.8216 -0.5775
 2833SOL    HW219962   3.650   2.521   9.285  1.2036 -0.4155 -1.2585
 2834SOL     OW19963   1.162   2.673  15.431 -0.3330  0.5507  0.6196
 2834SOL    HW119964   1.128   2.599  15.482  0.3610 -0.2258 -0.0480
 2834SOL    HW219965   1.219   2.630  15.366 -1.1023 -0.9116  0.8943
 2835SOL     OW19966   4.555   0.596   8.328  0.4580 -0.5266  0.1417
 2835SOL    HW119967   4.484   0.532   8.323  0.4032 -0.5404  1.0538
 2835SOL    HW219968   4.549   0.623   8.419 -1.2142 -1.4094  0.3127
 2836SOL     OW19969   3.880   1.916  13.204  0.4937 -0.0698 -0.1586
 2836SOL    HW119970   3.878   2.003  13.163  0.2814 -0.2416 -0.5134
 2836SOL    HW219971   3.825   1.941  13.278  0.0484 -0.8715 -0.2178
 2837SOL     OW19972   1.491   4.367   6.208 -0.4698 -0.1036 -0.0943
 2837SOL    HW119973   1.437   4.324   6.142 -0.3832 -0.1418 -0.1417
 2837SOL    HW219974   1.499   4.457   6.178 -0.1873 -1.1105 -3.0868
 2838SOL     OW19975   0.477   3.213  16.848  0.0779 -0.2313 -0.2240
 2838SOL    HW119976   0.563   3.174  16.859 -1.2405 -3.3386 -0.8919
 2838SOL    HW219977   0.489   3.259  16.765  1.8434  0.4976  0.4329
 2839SOL     OW19978   4.225   4.007   5.426 -0.1963  0.5668  0.7573
 2839SOL    HW119979   4.221   4.089   5.377  0.0807  0.2489  0.2065
 2839SOL    HW219980   4.167   3.949   5.376 -1.6438  1.3711  1.4816
 2840SOL     OW19981   3.705   0.129  12.952  0.1003  0.7046  0.1509
 2840SOL    HW119982   3.772   0.065  12.973  0.4892  1.2220  0.4876
 2840SOL    HW219983   3.738   0.210  12.991 -0.9104  1.1613  0.0450
 2841SOL     OW19984   3.854   1.857  11.326 -0.0825  0.1653 -0.4113
 2841SOL    HW119985   3.903   1.799  11.268  0.5576 -0.9685  1.2564
 2841SOL    HW219986   3.919   1.927  11.340  0.3461 -0.3192  0.0306
 2842SOL     OW19987   2.571   0.312   2.467  0.3058 -0.3701  0.5621
 2842SOL    HW119988   2.595   0.403   2.483 -0.0358 -0.0118 -0.9784
 2842SOL    HW219989   2.562   0.281   2.557 -0.3157 -0.5173  0.4502
 2843SOL     OW19990   4.466   0.977   4.087 -0.2303 -0.1576  0.4677
 2843SOL    HW119991   4.552   0.996   4.050 -0.2793 -2.3869 -0.8055
 2843SOL    HW219992   4.455   0.890   4.049 -0.0199 -0.2885  0.7087
 2844SOL     OW19993   2.131   2.862   5.745 -0.2063 -0.3047 -0.0063
 2844SOL    HW119994   2.139   2.768   5.729  0.2048 -0.1273 -0.8235
 2844SOL    HW219995   2.039   2.871   5.771 -0.4220 -0.7021 -0.6424
 2845SOL     OW19996   0.813   0.040   5.022  0.1563  0.1096 -0.1967
 2845SOL    HW119997   0.754   4.686   5.009  1.7459 -1.2413  0.4489
 2845SOL    HW219998   0.887   0.005   4.973 -0.6805 -0.1134 -1.3190
 2846SOL     OW19999   1.633   1.845  17.258  0.2610 -0.3304  0.0025
 2846SOL    HW120000   1.668   1.929  17.287  1.3688 -1.2927  1.4428
 2846SOL    HW220001   1.612   1.819  17.347 -1.5459  1.9342  0.2148
 2847SOL     OW20002   3.153   0.347   0.483 -0.4179 -0.1208  0.1880
 2847SOL    HW120003   3.210   0.306   0.418  0.8343  0.7372  0.7489
 2847SOL    HW220004   3.129   0.426   0.435  2.5239  0.6073 -0.0650
 2848SOL     OW20005   4.232   2.568   3.096 -0.1736  0.6985  0.4334
 2848SOL    HW120006   4.171   2.500   3.067 -2.0072  1.8586  1.5567
 2848SOL    HW220007   4.173   2.637   3.127 -0.6208  0.3675  0.3157
 2849SOL     OW20008   3.489   2.535   3.255  0.2936 -0.9817  0.0320
 2849SOL    HW120009   3.487   2.610   3.196 -0.3793 -1.1737 -0.1937
 2849SOL    HW220010   3.433   2.475   3.205 -1.4609 -0.8146  1.7924
 2850SOL     OW20011   0.075   0.733  12.958 -0.8428 -0.1934  0.3506
 2850SOL    HW120012   0.152   0.735  12.901 -0.4463  1.0167  0.9381
 2850SOL    HW220013   0.008   0.758  12.894 -0.4088 -1.3704 -0.5915
 2851SOL     OW20014   4.026   4.657  16.995 -0.4322 -0.2158 -0.3074
 2851SOL    HW120015   3.999   0.017  17.038 -0.6592 -0.9072  0.8275
 2851SOL    HW220016   3.946   4.605  16.994 -0.7377  0.2412  1.6163
 2852SOL     OW20017   2.024   3.014   5.060 -0.3667  0.1712  0.3368
 2852SOL    HW120018   2.020   3.061   4.977 -1.0010 -1.1415 -0.3678
 2852SOL    HW220019   2.118   2.994   5.056 -0.5276 -0.3112 -1.2413
 2853SOL     OW20020   2.593   3.671  14.749 -0.1451  0.5845 -0.3542
 2853SOL    HW120021   2.625   3.617  14.677 -2.1540 -0.3076 -0.5825
 2853SOL    HW220022   2.539   3.612  14.802  2.0074 -0.8661  0.2441
 2854SOL     OW20023   3.094   4.612   0.434  0.0066  0.5747 -0.0728
 2854SOL    HW120024   3.167   4.550   0.432 -1.3544 -1.0760  1.4838
 2854SOL    HW220025   3.082   4.620   0.339 -1.2574 -1.1876 -0.0663
 2855SOL     OW20026   2.530   1.670   4.352 -0.4911 -0.0756  0.4588
 2855SOL    HW120027   2.535   1.650   4.259  0.0235  0.0291  0.4645
 2855SOL    HW220028   2.514   1.588   4.399  3.5364 -2.2579 -1.9402
 2856SOL     OW20029   3.899   1.392   2.297 -0.4381 -0.1452  0.8204
 2856SOL    HW120030   3.912   1.431   2.210 -1.7433  1.5822  1.3906
 2856SOL    HW220031   3.826   1.446   2.327  1.0645  2.2541  0.1528
 2857SOL     OW20032   0.153   1.494   4.432 -0.0997  0.3555  0.9856
 2857SOL    HW120033   0.196   1.459   4.354 -2.2538 -0.3690  0.1281
 2857SOL    HW220034   0.090   1.423   4.441 -0.5409  0.9063  2.1382
 2858SOL     OW20035   4.146   4.060  13.096 -0.0003 -0.5029 -0.6018
 2858SOL    HW120036   4.130   4.133  13.036  0.8368  0.0845 -0.1134
 2858SOL    HW220037   4.164   3.992  13.032 -1.0551  0.0633 -1.5040
 2859SOL     OW20038   0.622   0.444   3.115 -0.0919  0.6391  0.2859
 2859SOL    HW120039   0.670   0.399   3.185 -1.0770 -0.9463 -0.0547
 2859SOL    HW220040   0.645   0.535   3.135  3.2067 -0.1810  0.3183
 2860SOL     OW20041   2.183   4.276  13.669 -0.3027 -0.3578 -0.3277
 2860SOL    HW120042   2.130   4.269  13.748 -2.2634  0.3404 -1.5827
 2860SOL    HW220043   2.271   4.281  13.705 -0.7379 -4.5309  1.3419
 2861SOL     OW20044   2.786   3.833  16.087  0.4354  0.2486 -0.1343
 2861SOL    HW120045   2.729   3.887  16.143 -1.3017 -0.9179 -0.7966
 2861SOL    HW220046   2.868   3.881  16.070 -0.1369  1.9162  1.6890
 2862SOL     OW20047   1.043   0.003   4.260  0.5207 -0.2729  0.3244
 2862SOL    HW120048   1.080   0.030   4.176  2.8723  2.3891  2.1937
 2862SOL    HW220049   0.982   4.654   4.237  0.6356  0.0563 -0.9650
 2863SOL     OW20050   3.850   2.382   4.310 -0.6924  0.2263 -0.0704
 2863SOL    HW120051   3.841   2.463   4.360 -0.6191 -0.1749  0.5959
 2863SOL    HW220052   3.785   2.397   4.242  0.7330  1.1075 -1.2418
 2864SOL     OW20053   4.198   2.436  12.193  0.6708  0.0259 -0.6238
 2864SOL    HW120054   4.106   2.418  12.210  1.3650 -1.2525  1.8166
 2864SOL    HW220055   4.230   2.367  12.251  1.7208  1.0650  0.0459
 2865SOL     OW20056   0.176   3.214  11.563 -0.4768  0.4116  0.0660
 2865SOL    HW120057   0.234   3.273  11.515  0.2215 -0.6267 -0.3596
 2865SOL    HW220058   0.097   3.216  11.508 -1.2571 -0.6022  1.1515
 2866SOL     OW20059   1.795   1.378   0.042  0.0972  0.3719 -0.5310
 2866SOL    HW120060   1.785   1.444   0.111 -3.4551 -0.1878 -0.5378
 2866SOL    HW220061   1.745   1.416  17.656 -1.4024 -0.7187 -0.0660
 2867SOL     OW20062   0.545   1.747   8.275  0.0202  0.2113  0.1437
 2867SOL    HW120063   0.580   1.818   8.329  1.7609 -0.2169 -0.4370
 2867SOL    HW220064   0.478   1.720   8.338 -0.3822 -0.9568 -0.7848
 2868SOL     OW20065   1.274   4.058  13.811  0.1655 -0.4246 -0.2892
 2868SOL    HW120066   1.241   3.996  13.745 -4.2457  1.6051  0.0524
 2868SOL    HW220067   1.333   4.104  13.751 -0.8944 -0.4725 -1.3689
 2869SOL     OW20068   0.096   1.449   1.631 -0.1764  0.3631  0.4031
 2869SOL    HW120069   0.103   1.477   1.539  0.6081 -1.8539 -0.1946
 2869SOL    HW220070   0.172   1.394   1.649  0.5911  1.3850  0.2924
 2870SOL     OW20071   0.817   0.798   0.478 -0.3679 -0.4132  0.2005
 2870SOL    HW120072   0.774   0.840   0.403 -0.2755 -0.3476  0.1839
 2870SOL    HW220073   0.898   0.847   0.492  0.5840 -1.4872 -1.5987
 2871SOL     OW20074   1.391   0.603  11.183  0.0360 -0.2296  0.0463
 2871SOL    HW120075   1.472   0.552  11.182 -0.0331 -0.3612  0.7371
 2871SOL    HW220076   1.379   0.612  11.278 -0.1094  0.3178 -0.0216
 2872SOL     OW20077   0.689   3.810   4.721 -0.4537 -0.1453  0.5938
 2872SOL    HW120078   0.747   3.741   4.689 -0.5336 -0.6001  1.4411
 2872SOL    HW220079   0.671   3.781   4.810  1.6309  1.7413  1.6293
 2873SOL     OW20080   3.182   3.493  13.431 -0.1732 -0.1352 -0.4880
 2873SOL    HW120081   3.224   3.407  13.422  0.6074  0.1505  0.4416
 2873SOL    HW220082   3.254   3.552  13.453 -0.0681  0.3813 -2.2390
 2874SOL     OW20083   2.016   4.308   5.103  0.4312 -0.1225 -0.3588
 2874SOL    HW120084   1.932   4.303   5.058 -0.9455  2.1955  1.9566
 2874SOL    HW220085   2.030   4.403   5.101  0.7447 -0.1438  0.7726
 2875SOL     OW20086   0.870   3.785   9.262 -0.3856  0.4623 -0.0887
 2875SOL    HW120087   0.934   3.750   9.324  0.1255 -2.0850 -2.0830
 2875SOL    HW220088   0.892   3.877   9.248 -0.7555  0.7035  0.9032
 2876SOL     OW20089   1.693   0.588   4.419  0.3738 -0.0732 -0.0690
 2876SOL    HW120090   1.714   0.525   4.487 -2.5801 -0.3797  0.5471
 2876SOL    HW220091   1.688   0.667   4.473  0.4774 -0.2249  0.1602
 2877SOL     OW20092   0.106   1.898  14.489 -0.2049 -0.5283  0.0819
 2877SOL    HW120093   0.131   1.921  14.579 -1.2656 -0.8038  0.4409
 2877SOL    HW220094   0.106   1.802  14.497  1.3770 -0.3337  2.6135
 2878SOL     OW20095   0.974   0.352  16.452 -0.3681  0.9278 -0.0333
 2878SOL    HW120096   0.939   0.323  16.536 -1.9006  0.1304 -0.9340
 2878SOL    HW220097   1.067   0.342  16.469 -1.1437 -1.8862  2.5791
 2879SOL     OW20098   0.075   0.859  10.630 -0.1555 -0.1798  0.4656
 2879SOL    HW120099   0.096   0.839  10.539 -1.9031  0.3580 -0.0374
 2879SOL    HW220100   0.090   0.953  10.629 -0.3358 -0.1548  0.2134
 2880SOL     OW20101   2.657   4.184   6.327 -0.1941 -0.1440  0.4570
 2880SOL    HW120102   2.616   4.210   6.244  2.2669 -0.9849 -1.0100
 2880SOL    HW220103   2.603   4.109   6.350 -0.5348  0.4825  1.6952
 2881SOL     OW20104   1.201   3.998   7.096  0.3992  0.4237  0.6985
 2881SOL    HW120105   1.219   3.915   7.141 -0.9158 -0.3554 -0.1982
 2881SOL    HW220106   1.149   4.047   7.160  0.7377  0.7308  0.7408
 2882SOL     OW20107   0.127   0.487  15.836 -0.2293 -0.0124  0.3963
 2882SOL    HW120108   0.143   0.407  15.785 -0.9999  1.0143 -1.4606
 2882SOL    HW220109   0.035   0.474  15.861 -0.4074 -0.4431 -0.4659
 2883SOL     OW20110   0.933   0.320   4.285 -0.5034 -0.1781  0.2094
 2883SOL    HW120111   0.946   0.245   4.342 -0.8922 -2.3151 -2.5431
 2883SOL    HW220112   0.871   0.294   4.217  0.1871 -1.7757  0.1864
 2884SOL     OW20113   3.389   0.586   1.920 -0.5112 -0.3632 -0.1548
 2884SOL    HW120114   3.452   0.542   1.863  0.3409  2.0156 -1.0107
 2884SOL    HW220115   3.406   0.541   2.003 -0.7054 -1.4352 -0.6925
 2885SOL     OW20116   3.412   0.762   5.326 -0.3501 -0.2200 -0.1613
 2885SOL    HW120117   3.501   0.794   5.315  0.4236 -1.5486  2.1508
 2885SOL    HW220118   3.414   0.698   5.397  1.6725  2.0786  1.8502
 2886SOL     OW20119   4.341   2.245  15.183 -0.0089  0.4989  0.1962
 2886SOL    HW120120   4.410   2.311  15.183  0.9499 -0.5328 -3.8346
 2886SOL    HW220121   4.262   2.297  15.195 -0.0779  0.5008 -0.2655
 2887SOL     OW20122   1.315   4.500   1.623 -0.0935  0.7026 -0.3679
 2887SOL    HW120123   1.401   4.541   1.632 -0.8477  2.6113 -1.6703
 2887SOL    HW220124   1.325   4.461   1.536 -1.1555 -2.2835  0.8852
 2888SOL     OW20125   2.174   3.273  16.552  0.1334 -0.5607  0.0636
 2888SOL    HW120126   2.145   3.349  16.501  1.3895 -1.4217 -1.9334
 2888SOL    HW220127   2.108   3.205  16.533 -1.6388  1.3636 -0.7157
 2889SOL     OW20128   3.928   1.294   3.792  0.2405  0.2737 -0.3404
 2889SOL    HW120129   3.986   1.367   3.814 -0.4466  0.9444 -0.7642
 2889SOL    HW220130   3.845   1.341   3.800  0.6735  1.1935 -1.1403
 2890SOL     OW20131   0.937   4.402  16.077  0.6293 -0.2403  0.0272
 2890SOL    HW120132   0.853   4.447  16.079  0.0872 -1.2002 -1.4354
 2890SOL    HW220133   0.963   4.427  16.165 -0.3370 -0.1864  0.2875
 2891SOL     OW20134   2.196   0.789   6.052 -0.3277 -0.2723 -0.3448
 2891SOL    HW120135   2.223   0.724   6.117 -1.2069  0.1165  0.4024
 2891SOL    HW220136   2.221   0.870   6.095 -3.0434  0.1519  0.4173
 2892SOL     OW20137   3.883   2.237   3.395 -0.3240 -0.2298 -0.2500
 2892SOL    HW120138   3.840   2.308   3.347  3.0016  1.4566 -0.7122
 2892SOL    HW220139   3.868   2.170   3.328 -2.5141  1.6588 -1.6345
 2893SOL     OW20140   0.802   0.150   2.131 -0.3484  0.0800 -0.1056
 2893SOL    HW120141   0.811   0.064   2.090 -0.2098  0.5056 -0.9598
 2893SOL    HW220142   0.877   0.144   2.191  0.3433 -0.1771 -1.0061
 2894SOL     OW20143   1.794   4.439   9.912 -0.0948 -0.0668 -0.1702
 2894SOL    HW120144   1.806   4.533   9.905  1.6436 -0.4169 -1.7767
 2894SOL    HW220145   1.771   4.427   9.820  1.0605  1.4151 -0.6460
 2895SOL     OW20146   0.326   4.022   9.539 -0.2861  0.5424 -0.4912
 2895SOL    HW120147   0.335   3.934   9.574 -0.2468  1.0526  0.7680
 2895SOL    HW220148   0.272   4.014   9.460 -0.5800 -0.1212 -0.2157
 2896SOL     OW20149   1.023   2.003   2.163 -0.3566  0.5012 -0.1471
 2896SOL    HW120150   1.002   1.913   2.190 -0.8823  0.9718  1.0352
 2896SOL    HW220151   1.105   1.990   2.115 -1.4384  2.0122 -2.3954
 2897SOL     OW20152   4.302   0.520  10.285  0.0756 -0.3223 -0.6069
 2897SOL    HW120153   4.370   0.457  10.265 -1.1482 -2.0899  0.7564
 2897SOL    HW220154   4.353   0.575  10.345 -0.0364  0.8133 -1.5590
 2898SOL     OW20155   2.667   4.667   5.307 -0.0156  0.8390 -0.1774
 2898SOL    HW120156   2.722   4.676   5.385  0.4907  2.4206 -0.7179
 2898SOL    HW220157   2.606   0.016   5.333  0.1862  0.5996  0.9252
 2899SOL     OW20158   3.112   0.592   4.514 -0.2977 -0.2210 -0.1316
 2899SOL    HW120159   3.192   0.597   4.462 -1.3399  2.9609 -1.4324
 2899SOL    HW220160   3.116   0.678   4.556  1.0258 -0.1493 -0.4027
 2900SOL     OW20161   4.641   2.217   7.004 -0.2003  0.3186 -0.8365
 2900SOL    HW120162   4.632   2.158   6.929  0.9960 -0.2071 -0.5737
 2900SOL    HW220163   4.652   2.161   7.081 -0.7780 -1.5303 -2.0829
 2901SOL     OW20164   1.776   1.767  16.863  0.0361 -0.4016  0.2015
 2901SOL    HW120165   1.775   1.733  16.953  2.7757  0.4725  0.5703
 2901SOL    HW220166   1.689   1.807  16.856  0.1788 -0.1992 -0.4159
 2902SOL     OW20167   2.324   4.384  15.456 -0.4199 -0.1492 -0.2497
 2902SOL    HW120168   2.394   4.409  15.516 -0.0705 -0.0458 -0.7003
 2902SOL    HW220169   2.282   4.307  15.494  0.9680 -0.8031 -0.0224
 2903SOL     OW20170   3.315   1.605  16.115  0.4122  0.0790 -0.5454
 2903SOL    HW120171   3.334   1.521  16.156 -1.6856  0.1174  0.5087
 2903SOL    HW220172   3.240   1.582  16.061  0.3046  0.9936 -0.7941
 2904SOL     OW20173   4.176   2.484   0.247  0.3769 -0.0319  0.2306
 2904SOL    HW120174   4.152   2.576   0.233  0.2986 -0.0194  0.4572
 2904SOL    HW220175   4.253   2.478   0.190 -0.4843 -0.0108 -0.9223
 2905SOL     OW20176   0.788   0.237   4.052 -0.7079 -0.2604 -0.1606
 2905SOL    HW120177   0.765   0.325   4.022 -0.9792 -0.0749  0.6049
 2905SOL    HW220178   0.747   0.181   3.986  1.2339  0.9257 -2.4138
 2906SOL     OW20179   3.416   3.357   2.813 -0.1524  0.0431 -0.2552
 2906SOL    HW120180   3.364   3.341   2.734 -0.8057  0.5613  0.0681
 2906SOL    HW220181   3.502   3.331   2.780  0.0006 -0.0010  0.1822
 2907SOL     OW20182   0.567   2.110   4.289 -0.1802  0.2832 -0.0178
 2907SOL    HW120183   0.621   2.148   4.220 -1.6757  0.6533 -0.9957
 2907SOL    HW220184   0.551   2.025   4.247 -1.7480  0.7898 -0.4681
 2908SOL     OW20185   3.173   3.841  17.551 -0.1477 -0.5501  0.1984
 2908SOL    HW120186   3.132   3.767  17.595  0.1229 -1.5676 -1.2967
 2908SOL    HW220187   3.102   3.902  17.533 -2.0387 -2.7807  0.1111
 2909SOL     OW20188   3.293   0.812   2.324  0.4292  0.1042 -0.2537
 2909SOL    HW120189   3.293   0.822   2.419  1.2641 -2.8536  0.0721
 2909SOL    HW220190   3.356   0.741   2.310 -0.4053 -0.3078 -1.8655
 2910SOL     OW20191   3.865   0.646   3.057  0.0268 -0.0647  0.3513
 2910SOL    HW120192   3.940   0.698   3.084  0.2518 -0.4686  0.5157
 2910SOL    HW220193   3.866   0.663   2.963 -0.5103 -0.5362  0.2581
 2911SOL     OW20194   0.506   4.614   1.396 -0.2420 -0.2540  0.7117
 2911SOL    HW120195   0.453   4.625   1.476 -0.1575 -1.2086  0.9024
 2911SOL    HW220196   0.501   4.520   1.381 -2.4600 -0.3473  1.9085
 2912SOL     OW20197   3.740   3.344   1.298  0.3073  0.9779 -0.6888
 2912SOL    HW120198   3.654   3.369   1.266  1.1354 -0.5422 -4.1404
 2912SOL    HW220199   3.772   3.310   1.214 -0.5061 -1.7644  0.1027
 2913SOL     OW20200   2.199   3.780   3.040  0.0973 -0.7594  0.0772
 2913SOL    HW120201   2.254   3.801   3.115 -0.7040 -0.6714  0.6371
 2913SOL    HW220202   2.259   3.755   2.969 -0.3364 -1.9903  0.1529
 2914SOL     OW20203   4.257   3.956   7.535  0.7100  0.4580  0.1136
 2914SOL    HW120204   4.352   3.968   7.526  0.3177  2.4116 -1.3803
 2914SOL    HW220205   4.253   3.861   7.527 -1.0190  0.5123  0.3831
 2915SOL     OW20206   0.034   3.381   6.966 -0.1963  0.7825 -0.2495
 2915SOL    HW120207   0.107   3.440   6.946 -0.2143 -0.5053 -4.0802
 2915SOL    HW220208   0.000   3.363   6.878 -1.3764  1.5352  0.0469
 2916SOL     OW20209   1.483   1.684  10.505  0.3093 -0.4192 -0.4721
 2916SOL    HW120210   1.494   1.591  10.527  0.3197 -0.1730  0.5533
 2916SOL    HW220211   1.406   1.685  10.448 -0.8449 -0.7874  1.0974
 2917SOL     OW20212   3.973   1.694  15.275 -0.5920 -0.6152 -0.6215
 2917SOL    HW120213   3.944   1.778  15.239 -1.8319 -0.8752 -0.2558
 2917SOL    HW220214   3.897   1.656  15.321 -0.1326  0.5182  1.0753
 2918SOL     OW20215   3.093   0.780  16.582 -0.0985 -0.1460 -0.6803
 2918SOL    HW120216   3.116   0.703  16.633  1.3101  0.5383 -0.2865
 2918SOL    HW220217   3.079   0.843  16.653 -1.7995 -2.4686  1.0214
 2919SOL     OW20218   0.996   2.952   2.401 -0.7686 -0.0412 -0.4755
 2919SOL    HW120219   1.092   2.954   2.405 -0.7980 -0.3422  0.4356
 2919SOL    HW220220   0.972   3.018   2.466  2.5781 -0.5533  1.3045
 2920SOL     OW20221   3.435   2.162   6.370 -0.2663 -0.2708  0.0725
 2920SOL    HW120222   3.426   2.184   6.463 -0.1036 -0.9607  0.2523
 2920SOL    HW220223   3.477   2.078   6.387  0.4093 -0.3601 -1.9969
 2921SOL     OW20224   4.151   0.275   4.808 -0.2987  0.1653  0.4982
 2921SOL    HW120225   4.121   0.184   4.807 -1.2740  0.4588  1.9407
 2921SOL    HW220226   4.082   0.319   4.759 -0.5141 -0.6248  0.1050
 2922SOL     OW20227   1.631   2.756   6.554  0.1168  0.2387  0.0690
 2922SOL    HW120228   1.554   2.712   6.519  1.4330 -1.4564 -0.6604
 2922SOL    HW220229   1.698   2.689   6.549 -1.0115 -0.7998 -1.1453
 2923SOL     OW20230   0.306   2.534  10.189  0.2695  0.1727  0.1560
 2923SOL    HW120231   0.257   2.458  10.219  1.0823 -0.5521 -0.3477
 2923SOL    HW220232   0.240   2.601  10.174  1.0300  0.2771 -2.8649
 2924SOL     OW20233   1.057   1.085   2.612 -0.2982  0.0122  0.3072
 2924SOL    HW120234   1.142   1.074   2.655 -0.5754  0.5002  0.9801
 2924SOL    HW220235   1.091   1.086   2.522  1.1201  1.6478  0.8556
 2925SOL     OW20236   0.348   3.327   1.286 -0.1856  0.6411 -0.1560
 2925SOL    HW120237   0.434   3.362   1.262  0.2969  0.1222  0.8025
 2925SOL    HW220238   0.283   3.384   1.244 -1.0274 -1.1500 -1.2922
 2926SOL     OW20239   0.951   0.509   5.790 -0.5638  0.3833  0.2195
 2926SOL    HW120240   0.914   0.587   5.749  0.0668 -0.4622 -1.9931
 2926SOL    HW220241   1.034   0.499   5.744 -0.2494 -1.5430  1.1806
 2927SOL     OW20242   2.133   2.618  15.564  0.2667  0.0001 -0.1058
 2927SOL    HW120243   2.100   2.645  15.478 -1.1964  0.3529  0.5521
 2927SOL    HW220244   2.214   2.667  15.576  1.4076 -1.6810 -1.0855
 2928SOL     OW20245   1.280   3.235   6.658 -0.2938  0.2053  0.2380
 2928SOL    HW120246   1.236   3.165   6.706 -0.9882  0.3641 -0.1628
 2928SOL    HW220247   1.319   3.176   6.594  0.3854 -1.1816  1.9333
 2929SOL     OW20248   0.933   0.572   0.195  0.9494 -0.2896  0.0701
 2929SOL    HW120249   0.976   0.583   0.279 -2.4842 -3.1684  2.2486
 2929SOL    HW220250   0.856   0.519   0.220  1.8717 -1.5591  0.2317
 2930SOL     OW20251   3.717   3.431  10.493  0.0880 -0.9852 -0.8290
 2930SOL    HW120252   3.699   3.515  10.536 -0.1214 -0.4126 -2.0224
 2930SOL    HW220253   3.798   3.404  10.537  0.2267  1.7906  0.6267
 2931SOL     OW20254   0.045   0.020   1.822  0.0029  0.3705 -0.2192
 2931SOL    HW120255   0.138   4.720   1.823 -0.2046 -0.5066  0.5056
 2931SOL    HW220256   0.045   0.106   1.866  2.7770 -0.0288  0.6043
 2932SOL     OW20257   2.785   0.676  13.742 -0.5119 -0.0422  0.2040
 2932SOL    HW120258   2.840   0.681  13.665  1.9966 -0.5999  1.9578
 2932SOL    HW220259   2.855   0.659  13.805  0.7300  1.6929 -0.7327
 2933SOL     OW20260   1.618   3.412   5.044 -0.6109  0.2250 -0.1991
 2933SOL    HW120261   1.628   3.334   4.990 -3.2077  1.4535 -2.4150
 2933SOL    HW220262   1.697   3.462   5.026  0.0798 -0.9258 -0.3847
 2934SOL     OW20263   4.017   1.651   7.481 -0.4921 -0.3064  0.1459
 2934SOL    HW120264   3.942   1.658   7.540 -0.6350  1.6886 -0.2781
 2934SOL    HW220265   4.048   1.742   7.482 -0.5162 -0.3014  0.4166
 2935SOL     OW20266   1.466   1.508   0.679  0.5570 -0.3318  0.0116
 2935SOL    HW120267   1.375   1.516   0.708  0.6640  0.6590  0.0945
 2935SOL    HW220268   1.489   1.595   0.645  3.5520 -1.4292 -0.8225
 2936SOL     OW20269   0.696   2.389   8.258  0.1503  0.1614  0.1869
 2936SOL    HW120270   0.635   2.337   8.310  0.5473  0.7534  1.2495
 2936SOL    HW220271   0.777   2.383   8.309 -0.5073  2.0717  1.4684
 2937SOL     OW20272   4.662   1.274   7.516  0.6365  0.8329  0.3697
 2937SOL    HW120273   4.647   1.363   7.546 -0.4877  0.7380  0.0862
 2937SOL    HW220274   4.678   1.282   7.422 -1.0083 -0.6572 -0.0430
 2938SOL     OW20275   1.942   1.563  14.501  0.0098  0.2009  0.7099
 2938SOL    HW120276   1.964   1.470  14.497  1.0464  0.4499  0.4955
 2938SOL    HW220277   1.922   1.567  14.595  1.0637 -0.0781  0.9472
 2939SOL     OW20278   4.667   1.176   2.451 -0.1318  0.1990 -0.2318
 2939SOL    HW120279   0.024   1.133   2.417 -0.0352  1.6036 -1.8059
 2939SOL    HW220280   4.640   1.125   2.527 -0.2967  1.0040  0.2459
 2940SOL     OW20281   2.318   4.200   8.016 -0.4086  0.3648  0.5862
 2940SOL    HW120282   2.234   4.179   8.056 -0.0092 -1.4767  0.4963
 2940SOL    HW220283   2.364   4.119   8.039 -2.0440 -1.2925 -1.9340
 2941SOL     OW20284   0.001   3.805  15.865  0.5646  0.6573  0.0848
 2941SOL    HW120285   0.021   3.893  15.898 -0.0122  1.7563 -2.4944
 2941SOL    HW220286   4.685   3.836  15.782 -0.6467  2.3724  1.2495
 2942SOL     OW20287   0.890   2.152   0.063  0.5116  0.2316 -0.1095
 2942SOL    HW120288   0.963   2.213   0.069  0.2373  0.5491  0.0316
 2942SOL    HW220289   0.930   2.080   0.015  0.9343  0.4530 -0.0854
 2943SOL     OW20290   3.205   0.451   4.187  0.5175 -0.0366 -0.3130
 2943SOL    HW120291   3.268   0.379   4.189 -0.5859 -1.0435 -1.2354
 2943SOL    HW220292   3.120   0.413   4.164  1.3577 -1.9351 -0.2661
 2944SOL     OW20293   2.184   1.195   1.473 -0.5511  0.2605 -0.3697
 2944SOL    HW120294   2.195   1.263   1.540  0.7402  0.6703 -1.0025
 2944SOL    HW220295   2.165   1.120   1.531  1.7409 -1.0878 -1.3853
 2945SOL     OW20296   1.725   1.785   5.872 -0.7532 -0.7194 -0.2492
 2945SOL    HW120297   1.774   1.741   5.803  2.7399  0.4714  1.4995
 2945SOL    HW220298   1.639   1.786   5.831 -0.9399  0.4482  0.1529
 2946SOL     OW20299   0.876   2.525   9.067  0.8006 -0.1303  0.1312
 2946SOL    HW120300   0.841   2.531   9.156  1.2041 -0.8066  0.3352
 2946SOL    HW220301   0.970   2.509   9.074  0.2446 -2.0815  2.9717
 2947SOL     OW20302   4.288   3.124  10.519  0.0169 -0.1017 -0.3639
 2947SOL    HW120303   4.352   3.054  10.504 -0.1201 -0.5825  1.3106
 2947SOL    HW220304   4.302   3.179  10.441  1.8755 -0.8620 -0.5633
 2948SOL     OW20305   1.746   1.475   0.640  0.7695  0.0446  0.1726
 2948SOL    HW120306   1.666   1.509   0.679  0.8427  0.9655 -0.4821
 2948SOL    HW220307   1.780   1.549   0.590  2.3738 -0.6604  0.2135
 2949SOL     OW20308   4.362   3.517   5.309  0.1884 -0.5212  0.0382
 2949SOL    HW120309   4.362   3.546   5.400  0.0678  1.9580 -0.7585
 2949SOL    HW220310   4.438   3.459   5.314 -0.7250 -1.6821  0.3750
 2950SOL     OW20311   3.734   3.019   9.284 -0.0477  0.6917  0.3189
 2950SOL    HW120312   3.750   3.028   9.378  2.1349 -0.5178  0.0710
 2950SOL    HW220313   3.650   3.064   9.279 -0.6017 -0.4167 -0.3294
 2951SOL     OW20314   1.368   2.400   0.813 -0.4282 -0.7012  0.1648
 2951SOL    HW120315   1.290   2.439   0.772 -0.7241 -0.6036  0.8176
 2951SOL    HW220316   1.365   2.451   0.894 -1.5511  0.3455 -0.5286
 2952SOL     OW20317   4.156   1.397   3.576  0.4834 -0.7153  0.5596
 2952SOL    HW120318   4.082   1.396   3.638 -0.2245 -1.1814 -0.2856
 2952SOL    HW220319   4.221   1.450   3.621 -0.2093  0.3177  0.3428
 2953SOL     OW20320   3.032   4.149   6.195 -0.1042 -0.7294 -0.1293
 2953SOL    HW120321   3.104   4.175   6.138  0.4159  2.7635  2.1184
 2953SOL    HW220322   3.067   4.183   6.277  1.6611  1.6615 -1.8841
 2954SOL     OW20323   0.382   4.484   6.960  0.4703 -0.3975 -0.4952
 2954SOL    HW120324   0.432   4.546   6.908 -0.5820 -1.0820 -2.3229
 2954SOL    HW220325   0.303   4.533   6.985  2.5735  2.7191  0.0829
 2955SOL     OW20326   1.046   2.562   8.586  0.1286 -0.5684 -0.3103
 2955SOL    HW120327   1.082   2.650   8.598  0.9339 -0.9271 -0.1100
 2955SOL    HW220328   1.101   2.516   8.650 -0.8664  1.3428  1.9068
 2956SOL     OW20329   2.001   4.001   5.202 -0.3191 -0.1981  0.6065
 2956SOL    HW120330   1.997   4.045   5.287 -0.2934  1.3943 -0.2160
 2956SOL    HW220331   2.014   4.064   5.132 -2.6964 -0.4589 -0.0697
 2957SOL     OW20332   2.019   0.659   2.303  0.1067  0.1857 -0.1285
 2957SOL    HW120333   2.096   0.650   2.359  1.2166  0.6510 -1.5753
 2957SOL    HW220334   2.051   0.729   2.246 -0.6678  1.0468  0.5055
 2958SOL     OW20335   2.312   0.420  13.884  0.1213  0.0397 -0.5683
 2958SOL    HW120336   2.402   0.400  13.912  0.5618  1.4030 -0.9823
 2958SOL    HW220337   2.258   0.368  13.943 -0.6351  1.5869  0.0974
 2959SOL     OW20338   0.843   2.363   9.428  0.1926  0.1612  0.1508
 2959SOL    HW120339   0.917   2.374   9.369 -1.3305  1.2115 -1.5516
 2959SOL    HW220340   0.813   2.274   9.408 -2.4939  1.7220 -2.7034
 2960SOL     OW20341   0.383   0.469   1.227  0.5239  0.0042 -0.3350
 2960SOL    HW120342   0.380   0.401   1.294 -0.9425  1.5600  1.1490
 2960SOL    HW220343   0.327   0.441   1.155  0.2762 -0.8563  0.1920
 2961SOL     OW20344   4.210   3.895   7.825  0.1415  0.7382  0.6599
 2961SOL    HW120345   4.271   3.828   7.797 -0.7412  0.4852 -0.6305
 2961SOL    HW220346   4.246   3.983   7.814 -1.3627  1.6554  2.9387
 2962SOL     OW20347   0.236   3.017   5.451  0.6279 -0.2195  0.4850
 2962SOL    HW120348   0.210   3.000   5.360  0.3628 -0.4359  0.6007
 2962SOL    HW220349   0.250   2.928   5.483 -1.7763 -0.5069  0.7820
 2963SOL     OW20350   1.463   4.163   7.361  0.2982  0.4425 -0.1201
 2963SOL    HW120351   1.498   4.084   7.402 -0.6166  0.6012  0.9703
 2963SOL    HW220352   1.488   4.229   7.425  0.4451  1.2626 -1.0284
 2964SOL     OW20353   3.039   3.574   8.681  0.6016 -0.2546  0.2136
 2964SOL    HW120354   2.981   3.518   8.732 -1.4391 -0.3246 -2.2089
 2964SOL    HW220355   2.999   3.590   8.596 -2.5852  1.0943  1.9780
 2965SOL     OW20356   2.827   0.454   9.113  0.1581  0.6026 -0.0907
 2965SOL    HW120357   2.835   0.368   9.155  1.7244  0.6615 -0.2774
 2965SOL    HW220358   2.879   0.444   9.033  0.9816  1.8919  0.2755
 2966SOL     OW20359   0.169   4.173   2.275 -0.1740  0.2540  0.4769
 2966SOL    HW120360   0.210   4.190   2.190  1.1022 -2.6844  0.5122
 2966SOL    HW220361   0.147   4.082   2.257  2.7639 -0.1637 -1.0315
 2967SOL     OW20362   2.721   0.856   7.317 -0.0058 -0.0453 -0.1563
 2967SOL    HW120363   2.680   0.924   7.371 -0.7864 -0.2314 -0.5192
 2967SOL    HW220364   2.645   0.827   7.266  0.6285 -0.1698 -1.0435
 2968SOL     OW20365   1.464   1.931  13.600  0.5090 -0.6904 -0.3742
 2968SOL    HW120366   1.438   2.009  13.551  1.5279 -0.5561 -0.7059
 2968SOL    HW220367   1.476   1.862  13.534 -0.8244 -0.1718 -1.1509
 2969SOL     OW20368   3.974   0.721   6.869 -0.2659  0.0171 -0.0537
 2969SOL    HW120369   4.002   0.650   6.927  0.7913 -0.2477 -0.8857
 2969SOL    HW220370   3.896   0.749   6.917 -1.1822 -1.5835 -0.6432
 2970SOL     OW20371   1.285   2.559   1.022  0.8426 -0.6213  0.5978
 2970SOL    HW120372   1.191   2.573   1.033  0.3867 -0.7084 -3.1870
 2970SOL    HW220373   1.311   2.563   1.114  1.7963 -1.7316  0.3822
 2971SOL     OW20374   2.523   0.194   7.906 -0.1095 -0.3518 -0.1832
 2971SOL    HW120375   2.545   0.230   7.992 -1.2833  0.2308 -0.1368
 2971SOL    HW220376   2.483   0.111   7.929  1.6208 -1.7614 -2.2619
 2972SOL     OW20377   1.548   2.266  11.032  0.5013  0.4680  0.7905
 2972SOL    HW120378   1.622   2.313  10.993 -1.3850  3.0344  0.2696
 2972SOL    HW220379   1.590   2.206  11.094 -0.2531 -0.1106  0.7366
 2973SOL     OW20380   0.143   3.002   8.066  0.4654 -0.0475  0.1164
 2973SOL    HW120381   0.211   3.031   8.005  1.1295 -0.0334  0.8655
 2973SOL    HW220382   0.062   3.044   8.037 -0.4596 -0.9806  1.3474
 2974SOL     OW20383   1.367   0.252  11.572  0.6924  0.0851  0.0125
 2974SOL    HW120384   1.281   0.209  11.566  0.0941  0.9458  2.1829
 2974SOL    HW220385   1.408   0.225  11.490  0.4881  2.0017 -0.7280
 2975SOL     OW20386   0.730   4.069   4.682  0.8092 -0.2963  0.1423
 2975SOL    HW120387   0.759   3.977   4.685  3.5631  0.5304 -1.5097
 2975SOL    HW220388   0.797   4.117   4.731  2.4089 -1.1240 -1.2012
 2976SOL     OW20389   3.590   4.503   5.530 -0.0257  0.1702  0.0281
 2976SOL    HW120390   3.495   4.496   5.541 -0.2053  0.2195 -1.5185
 2976SOL    HW220391   3.601   4.470   5.442 -0.4660 -1.3936  0.5649
 2977SOL     OW20392   1.342   4.394   2.042  0.2604  0.0372 -0.4969
 2977SOL    HW120393   1.394   4.428   2.114  2.3041 -2.0560 -0.9817
 2977SOL    HW220394   1.409   4.381   1.975  2.0725 -0.6562  1.4787
 2978SOL     OW20395   0.043   4.038   8.052  0.0162  0.5715 -0.1436
 2978SOL    HW120396   4.690   4.052   8.111  0.6909 -1.8366  1.2749
 2978SOL    HW220397   0.018   3.968   7.992 -0.7236  0.9968 -0.3349
 2979SOL     OW20398   1.999   3.482  16.822 -0.1100  0.6960  0.3431
 2979SOL    HW120399   2.076   3.445  16.779  0.6858  1.1632  1.3702
 2979SOL    HW220400   1.977   3.412  16.885 -1.4602  0.5682 -0.2608
 2980SOL     OW20401   2.898   4.506   3.592  0.0132 -0.0225  0.5724
 2980SOL    HW120402   2.874   4.425   3.548  1.4730  0.0511 -0.3900
 2980SOL    HW220403   2.935   4.545   3.513  3.1795 -1.7872  1.1598
 2981SOL     OW20404   2.941   3.915   4.619  0.1366  0.1279  0.2393
 2981SOL    HW120405   2.920   4.002   4.652 -2.5690  0.1887 -1.6994
 2981SOL    HW220406   3.036   3.929   4.612  0.3997 -2.3415 -1.2463
 2982SOL     OW20407   1.873   0.554   5.767  0.2874  0.4979  0.6188
 2982SOL    HW120408   1.833   0.623   5.821 -2.1397 -0.4236  0.0041
 2982SOL    HW220409   1.797   0.502   5.743  0.9234 -0.3532  0.4805
 2983SOL     OW20410   0.601   0.585   4.207  0.4767  1.0900 -0.2589
 2983SOL    HW120411   0.655   0.538   4.144  1.4458 -0.5628  1.8160
 2983SOL    HW220412   0.532   0.524   4.230  0.9894  1.1949  1.5644
 2984SOL     OW20413   2.509   1.973   7.336 -0.0453  0.0351 -0.7458
 2984SOL    HW120414   2.534   2.063   7.358 -1.9290  0.8025 -1.7510
 2984SOL    HW220415   2.416   1.977   7.359 -0.0238 -1.2534 -0.4716
 2985SOL     OW20416   3.164   1.400   6.492  0.7116  0.0884 -0.4320
 2985SOL    HW120417   3.147   1.339   6.421 -0.8712  1.8666 -1.5709
 2985SOL    HW220418   3.074   1.411   6.523  0.3704 -1.2130 -0.9595
 2986SOL     OW20419   1.119   3.962   2.963  0.8317 -0.0346  0.3341
 2986SOL    HW120420   1.128   3.867   2.957  2.2040 -0.0168  2.2407
 2986SOL    HW220421   1.121   3.991   2.872 -1.9921 -2.2590 -0.4440
 2987SOL     OW20422   2.564   0.124   7.309  0.6347 -0.0842 -0.2896
 2987SOL    HW120423   2.593   0.054   7.368  1.2274  0.7815  0.4473
 2987SOL    HW220424   2.580   0.204   7.359 -1.6001 -0.3686  0.8952
 2988SOL     OW20425   2.560   2.203   6.517 -0.0694  0.4251  0.0370
 2988SOL    HW120426   2.475   2.224   6.478 -0.1586 -1.5346 -0.7998
 2988SOL    HW220427   2.527   2.181   6.604  3.3140 -1.3151  0.8908
 2989SOL     OW20428   0.718   2.417   3.938 -0.5043  0.1776 -0.2846
 2989SOL    HW120429   0.664   2.395   3.861  1.2513  0.2832 -1.5562
 2989SOL    HW220430   0.740   2.334   3.981  1.1176  0.5557 -0.3678
 2990SOL     OW20431   2.666   3.229  14.661  0.5346 -0.4125 -0.5418
 2990SOL    HW120432   2.637   3.184  14.582 -1.6558  0.3464 -0.1605
 2990SOL    HW220433   2.676   3.319  14.629 -1.0888  0.0142  0.1674
 2991SOL     OW20434   3.885   4.175   8.980 -0.7594 -0.4778 -0.4299
 2991SOL    HW120435   3.813   4.114   8.997  0.0101 -2.0849 -2.8498
 2991SOL    HW220436   3.903   4.167   8.886  0.4100  0.8490 -0.3290
 2992SOL     OW20437   2.765   3.833   3.258 -0.3507  0.2114 -0.2538
 2992SOL    HW120438   2.680   3.873   3.278 -1.1261 -0.3676 -2.3672
 2992SOL    HW220439   2.735   3.745   3.284  3.6510 -0.7337  1.0847
 2993SOL     OW20440   2.910   0.116  13.239  0.3331  0.2094 -0.2735
 2993SOL    HW120441   2.886   0.031  13.276 -1.2606  0.4263 -0.8341
 2993SOL    HW220442   2.953   0.153  13.317 -0.3508  0.4295 -0.0001
 2994SOL     OW20443   0.179   1.392   3.277 -0.1436  0.2150 -0.1865
 2994SOL    HW120444   0.245   1.324   3.275 -0.8300 -0.4544 -0.0864
 2994SOL    HW220445   0.097   1.346   3.294  0.8776 -1.1318  1.0900
 2995SOL     OW20446   4.327   2.564   8.689  0.0387 -0.2020  0.9528
 2995SOL    HW120447   4.257   2.521   8.738  0.1780 -0.9827  0.4625
 2995SOL    HW220448   4.279   2.605   8.618 -0.5316 -0.8530  0.9718
 2996SOL     OW20449   4.075   0.808   3.058  0.5704 -0.5841 -0.0419
 2996SOL    HW120450   4.107   0.887   3.101 -0.4021 -0.3072  0.1956
 2996SOL    HW220451   4.137   0.800   2.986 -0.1729 -1.7669 -0.5615
 2997SOL     OW20452   2.542   3.491   2.061  0.0523 -0.8548  0.4409
 2997SOL    HW120453   2.590   3.487   2.144  0.6507 -0.6367  0.0991
 2997SOL    HW220454   2.565   3.578   2.031 -0.8066 -1.0298 -0.7060
 2998SOL     OW20455   0.789   1.668   8.496  1.0445 -0.2070  0.4414
 2998SOL    HW120456   0.762   1.602   8.433 -0.9264 -1.3051  2.4269
 2998SOL    HW220457   0.726   1.664   8.568 -0.3777  1.0974 -0.7282
 2999SOL     OW20458   2.616   4.063  11.648  0.0649 -0.2240  0.4033
 2999SOL    HW120459   2.592   4.153  11.668 -1.9749 -1.0745  1.7809
 2999SOL    HW220460   2.560   4.010  11.704  2.0570 -2.0352  0.7067
 3000SOL     OW20461   1.024   2.675   3.213 -0.7928 -0.4614 -0.5351
 3000SOL    HW120462   1.078   2.611   3.168  0.6394 -0.0929  0.6686
 3000SOL    HW220463   1.062   2.757   3.182 -0.0861 -2.3569 -4.6772
 3001SOL     OW20464   3.573   0.824   3.393  0.3031 -0.5678 -0.2627
 3001SOL    HW120465   3.525   0.756   3.344  0.0388 -0.9860  0.5858
 3001SOL    HW220466   3.625   0.771   3.452  0.6042  1.9415  1.7109
 3002SOL     OW20467   0.157   0.410   7.450 -0.2402 -0.3959 -0.2016
 3002SOL    HW120468   0.079   0.355   7.440 -0.7041  0.0181  1.1683
 3002SOL    HW220469   0.230   0.385   7.393  1.3589  0.3094  1.5454
 3003SOL     OW20470   1.304   3.562   9.511 -0.1158  0.5543  0.1335
 3003SOL    HW120471   1.322   3.651   9.541  1.2622  0.6032 -0.8187
 3003SOL    HW220472   1.217   3.570   9.471 -0.1508  0.4017  0.1793
 3004SOL     OW20473   0.313   1.715   6.819  0.2277 -0.2102  0.1157
 3004SOL    HW120474   0.395   1.742   6.859 -0.0031 -0.0090  0.4565
 3004SOL    HW220475   0.288   1.803   6.792  0.2050  0.2401  1.6010
 3005SOL     OW20476   0.050   0.233   4.059 -0.1771  0.1309 -0.2514
 3005SOL    HW120477   0.127   0.210   4.006  0.1924  0.1725  0.2732
 3005SOL    HW220478   0.080   0.309   4.109 -0.1373  1.0930 -1.7201
 3006SOL     OW20479   2.101   1.648   9.896 -0.4802  0.1466  0.1958
 3006SOL    HW120480   2.116   1.738   9.925 -0.9686  0.0495  0.7529
 3006SOL    HW220481   2.063   1.607   9.973 -0.0937 -1.9287 -0.7246
 3007SOL     OW20482   2.947   2.242  14.134 -0.1000  0.1887 -0.1953
 3007SOL    HW120483   2.958   2.320  14.080 -1.1468  1.7177  1.8015
 3007SOL    HW220484   3.029   2.196  14.117  1.0309  2.0870  0.0645
 3008SOL     OW20485   0.083   4.176  10.532  0.1151 -0.4039  0.3696
 3008SOL    HW120486   0.002   4.140  10.567 -0.3195 -1.2643 -1.5317
 3008SOL    HW220487   0.050   4.244  10.473  1.0988  0.8541  1.2697
 3009SOL     OW20488   1.112   2.721   2.557 -0.4090  0.2509 -0.1389
 3009SOL    HW120489   1.178   2.782   2.524  0.2835  0.8543  2.3657
 3009SOL    HW220490   1.043   2.734   2.492  0.0353  1.1935 -0.4216
 3010SOL     OW20491   2.568   2.762   3.636  0.2808  0.2960  0.4024
 3010SOL    HW120492   2.572   2.764   3.731 -1.4263  0.6240  0.4584
 3010SOL    HW220493   2.581   2.854   3.614 -1.5689 -0.1100 -2.3430
 3011SOL     OW20494   0.740   0.539   4.871  0.1925 -0.0696  0.0780
 3011SOL    HW120495   0.782   0.459   4.899  0.6154  0.4396  0.8887
 3011SOL    HW220496   0.734   0.516   4.778 -0.0593  1.4678 -0.2875
 3012SOL     OW20497   2.107   2.306   2.292  0.0508 -0.1373  0.0978
 3012SOL    HW120498   2.189   2.331   2.335  0.4891  1.7992 -1.9021
 3012SOL    HW220499   2.065   2.237   2.345 -0.7797 -0.7638 -1.3696
 3013SOL     OW20500   3.617   0.338  11.323 -0.6786 -0.0333 -0.0407
 3013SOL    HW120501   3.581   0.256  11.289 -0.3240 -0.1581 -0.1111
 3013SOL    HW220502   3.624   0.298  11.410 -1.2620 -1.2016 -0.5246
 3014SOL     OW20503   0.730   2.126   1.585  0.5200 -0.2219 -0.0037
 3014SOL    HW120504   0.724   2.216   1.552  1.0976 -0.4017 -0.5922
 3014SOL    HW220505   0.746   2.077   1.505 -0.4454  0.5585 -0.6790
 3015SOL     OW20506   2.589   2.968   2.215  0.7618 -0.3817  0.0671
 3015SOL    HW120507   2.527   2.948   2.145 -2.1690  3.0101  1.7274
 3015SOL    HW220508   2.540   2.981   2.296  0.2427 -1.1713 -0.1247
 3016SOL     OW20509   2.094   4.042  12.145  0.3218  0.3852  0.0779
 3016SOL    HW120510   2.040   4.022  12.068 -0.2255  1.6183  0.1515
 3016SOL    HW220511   2.127   4.127  12.118  2.5672 -0.0915  1.3417
 3017SOL     OW20512   1.646   3.936   5.132  0.2060  0.5212 -0.3514
 3017SOL    HW120513   1.592   3.857   5.137 -0.1181  0.9302  2.5923
 3017SOL    HW220514   1.676   3.946   5.222 -0.8888  0.7325 -0.0110
 3018SOL     OW20515   2.903   4.712   0.607 -0.3622  0.1198 -0.0763
 3018SOL    HW120516   2.952   4.684   0.529  3.8533  2.0086  1.8920
 3018SOL    HW220517   2.974   4.694   0.668  0.3864  0.0266 -0.9776
 3019SOL     OW20518   4.323   0.516   7.986  0.7392  0.2367  0.3784
 3019SOL    HW120519   4.256   0.462   8.028  0.5522  0.2362  0.0853
 3019SOL    HW220520   4.282   0.602   7.998 -1.7999 -1.1131  1.3422
 3020SOL     OW20521   3.047   1.195   8.299 -0.1781  0.2752  0.1627
 3020SOL    HW120522   3.022   1.270   8.353 -1.7014  0.1058 -0.3199
 3020SOL    HW220523   3.139   1.179   8.321  0.0434  1.4084  0.0834
 3021SOL     OW20524   0.270   2.981  11.674  0.2946 -0.2781  0.0417
 3021SOL    HW120525   0.255   3.070  11.644 -0.5978 -0.4701 -0.1012
 3021SOL    HW220526   0.295   3.003  11.764  0.9598 -0.7250 -0.0345
 3022SOL     OW20527   0.270   1.202   9.349  0.6556 -0.1284  0.0603
 3022SOL    HW120528   0.266   1.133   9.415  0.0049 -0.9014 -0.7804
 3022SOL    HW220529   0.330   1.262   9.393 -0.4365  0.2922  0.9959
 3023SOL     OW20530   3.694   2.381   8.541 -0.2092  0.8769 -0.3415
 3023SOL    HW120531   3.634   2.418   8.606  0.7372  1.1953  0.3559
 3023SOL    HW220532   3.625   2.342   8.488 -1.1471 -0.0148  1.5176
 3024SOL     OW20533   2.293   4.138   4.629 -0.1063  0.5727  0.0155
 3024SOL    HW120534   2.373   4.176   4.593 -0.3437  0.3443 -0.7633
 3024SOL    HW220535   2.258   4.208   4.684 -1.5180  0.2652 -0.4669
 3025SOL     OW20536   4.589   0.113   4.809 -0.2244  0.1077  0.1910
 3025SOL    HW120537   4.508   0.099   4.758  0.9151  0.1171 -1.6396
 3025SOL    HW220538   4.611   0.203   4.785 -1.6496  0.2409 -0.6828
 3026SOL     OW20539   1.494   2.654  16.889  0.2346 -0.1360  0.1353
 3026SOL    HW120540   1.423   2.608  16.846  0.0830 -0.7061  1.0027
 3026SOL    HW220541   1.454   2.740  16.902 -0.5875 -0.3859 -0.7161
 3027SOL     OW20542   1.234   3.988   1.778 -0.1855 -0.4087  0.1603
 3027SOL    HW120543   1.216   4.041   1.856  0.4918 -0.9369  0.6742
 3027SOL    HW220544   1.306   4.037   1.740 -0.5282  0.2618  0.3830
 3028SOL     OW20545   4.029   1.877   0.830 -0.2964 -0.0005  0.2926
 3028SOL    HW120546   4.020   1.872   0.925 -2.0817 -0.7381  0.0656
 3028SOL    HW220547   3.975   1.955   0.823 -2.2115 -1.3146  0.5468
 3029SOL     OW20548   4.420   4.080   7.130 -0.3853  0.0062  0.4204
 3029SOL    HW120549   4.359   4.098   7.059 -1.6561  0.6684  1.6628
 3029SOL    HW220550   4.503   4.110   7.095 -1.2332  1.1825 -0.5892
 3030SOL     OW20551   0.318   4.281   9.314  0.2489  0.0280 -0.3129
 3030SOL    HW120552   0.372   4.359   9.326 -0.2559  0.5282 -1.3601
 3030SOL    HW220553   0.335   4.262   9.222  0.2857 -0.1472 -0.2701
 3031SOL     OW20554   2.776   3.356  13.779  0.0445 -0.2355  0.4205
 3031SOL    HW120555   2.744   3.268  13.795  1.4859 -0.9076 -0.4071
 3031SOL    HW220556   2.814   3.341  13.693  1.6432  0.4485  1.0016
 3032SOL     OW20557   0.056   2.390   9.741  0.1731 -0.3523 -0.7259
 3032SOL    HW120558   0.049   2.485   9.745 -0.7642 -0.4170 -0.6984
 3032SOL    HW220559   0.105   2.378   9.822 -0.2614  1.7113 -0.1689
 3033SOL     OW20560   2.921   0.204   4.656 -0.0308  0.6581  0.1869
 3033SOL    HW120561   2.866   0.186   4.732  1.1150 -0.3289  0.7741
 3033SOL    HW220562   3.000   0.152   4.664  0.2483  1.0031 -0.3001
 3034SOL     OW20563   1.897   1.422   5.048 -0.0283  0.4385  0.1221
 3034SOL    HW120564   1.892   1.349   4.987  1.8457 -0.8958  1.5915
 3034SOL    HW220565   1.979   1.457   5.013 -1.4396  0.1773 -3.5165
 3035SOL     OW20566   0.660   4.571   2.470  0.7078 -0.2015  0.2742
 3035SOL    HW120567   0.594   4.535   2.410 -1.5642  2.5082  1.1539
 3035SOL    HW220568   0.740   4.564   2.418  2.0608 -1.7378  2.5807
 3036SOL     OW20569   1.154   2.509  17.170  0.3542  0.3190 -0.3430
 3036SOL    HW120570   1.220   2.569  17.205  1.1215 -0.1814 -0.9416
 3036SOL    HW220571   1.159   2.523  17.075  0.3556  1.3150 -0.1985
 3037SOL     OW20572   3.140   3.612   3.283 -0.2692 -0.1294  0.0233
 3037SOL    HW120573   3.202   3.550   3.246 -1.0969 -0.6194 -0.5319
 3037SOL    HW220574   3.058   3.602   3.235  0.8769  1.9670 -2.3934
 3038SOL     OW20575   1.536   0.681   3.214 -0.1999 -0.2243 -0.3443
 3038SOL    HW120576   1.602   0.736   3.171 -0.4662 -0.4463 -1.0221
 3038SOL    HW220577   1.497   0.636   3.140 -1.0861  1.7987 -1.0998
 3039SOL     OW20578   0.420   1.849   3.750 -0.0448 -0.3378  0.7480
 3039SOL    HW120579   0.451   1.937   3.725  0.2216 -0.3066  1.1818
 3039SOL    HW220580   0.497   1.799   3.721 -0.5390 -0.8966  0.4113
 3040SOL     OW20581   0.999   1.579   4.808 -0.1474 -0.3948 -0.3418
 3040SOL    HW120582   0.963   1.665   4.787  2.7159  1.0436  0.6210
 3040SOL    HW220583   0.933   1.544   4.869 -0.2697  0.9809  0.3049
 3041SOL     OW20584   3.912   0.666   4.912 -0.4337  0.6290  0.1936
 3041SOL    HW120585   3.979   0.729   4.935  0.0171  0.5306 -0.8474
 3041SOL    HW220586   3.853   0.665   4.987 -0.9858 -6.2687 -0.3316
 3042SOL     OW20587   1.635   1.104  11.007 -0.3460  0.2755  0.5538
 3042SOL    HW120588   1.604   1.041  10.942 -1.4903 -1.9125  3.2311
 3042SOL    HW220589   1.585   1.086  11.087  1.5091  0.8537  1.8369
 3043SOL     OW20590   0.362   1.719  12.385 -0.2218  0.2115 -0.0778
 3043SOL    HW120591   0.422   1.742  12.457  0.4910 -2.0828  0.0495
 3043SOL    HW220592   0.335   1.630  12.406  3.6039 -0.6852  1.1934
 3044SOL     OW20593   0.446   2.998   8.245  0.1228 -0.6824  0.2368
 3044SOL    HW120594   0.380   3.056   8.284  0.3532 -0.7049  0.6588
 3044SOL    HW220595   0.530   3.040   8.261  0.1382 -1.2755  1.6996
 3045SOL     OW20596   4.471   1.768   1.761 -0.5022  0.5979  0.3415
 3045SOL    HW120597   4.492   1.678   1.739 -1.7678  0.8621 -1.9624
 3045SOL    HW220598   4.482   1.812   1.677 -0.5773 -2.1687 -1.0990
 3046SOL     OW20599   4.656   4.427   1.756 -0.5174  0.2845  0.2570
 3046SOL    HW120600   4.636   4.516   1.730  0.7237  0.0643 -1.4682
 3046SOL    HW220601   4.713   4.396   1.685  0.4629  1.3057  0.6089
 3047SOL     OW20602   3.060   0.926  10.774  0.0747 -0.6000  0.1293
 3047SOL    HW120603   2.998   0.979  10.824  1.7321 -0.0852  1.6169
 3047SOL    HW220604   3.094   0.996  10.718 -0.3382  1.3291  2.2885
 3048SOL     OW20605   0.406   2.798  14.765 -0.4397 -0.5118  0.3825
 3048SOL    HW120606   0.397   2.886  14.729 -1.2877 -0.3662  0.9325
 3048SOL    HW220607   0.489   2.771  14.727  0.9999  3.3659  0.7924
 3049SOL     OW20608   4.418   3.435   9.357 -0.1728 -0.2680 -0.1890
 3049SOL    HW120609   4.395   3.490   9.431 -2.6456 -0.9738 -0.4322
 3049SOL    HW220610   4.513   3.449   9.363 -0.3653  1.4464 -1.2695
 3050SOL     OW20611   0.912   1.622   5.401  0.2334 -0.1872  0.3963
 3050SOL    HW120612   0.873   1.709   5.408  0.8785  0.1313  0.0885
 3050SOL    HW220613   0.845   1.586   5.342  1.7338 -1.4811 -0.5242
 3051SOL     OW20614   1.518   3.735   6.915 -0.2276  0.1178 -0.3086
 3051SOL    HW120615   1.511   3.647   6.952  1.3628  0.9142  1.8687
 3051SOL    HW220616   1.517   3.785   6.996  1.0349  0.4932 -0.5249
 3052SOL     OW20617   0.762   2.533   5.264 -0.3284 -0.5712  0.2374
 3052SOL    HW120618   0.815   2.514   5.341 -3.3510 -1.5639  2.0331
 3052SOL    HW220619   0.699   2.593   5.305  1.0649  1.6408 -0.8232
 3053SOL     OW20620   4.494   0.794  11.700  0.6759  0.2191  0.3572
 3053SOL    HW120621   4.555   0.721  11.684  0.8384  0.1853  1.1169
 3053SOL    HW220622   4.523   0.831  11.784  2.2713 -0.2848  0.0462
 3054SOL     OW20623   0.838   2.999   5.279 -0.0255  0.3403  0.7270
 3054SOL    HW120624   0.788   3.062   5.332 -1.6228  0.6741 -1.1980
 3054SOL    HW220625   0.817   2.921   5.330  3.6330 -0.9707  0.2188
 3055SOL     OW20626   1.588   4.562   4.754 -0.2285  0.0854  0.2406
 3055SOL    HW120627   1.577   4.648   4.795 -1.0600  0.7064 -1.2653
 3055SOL    HW220628   1.500   4.528   4.768 -2.3000  5.3898  0.3021
 3056SOL     OW20629   0.284   3.164  15.234 -0.2233 -0.1279  0.0540
 3056SOL    HW120630   0.349   3.224  15.270 -0.5511  0.5571 -0.5083
 3056SOL    HW220631   0.258   3.220  15.161 -1.8639 -0.3154  0.4945
 3057SOL     OW20632   0.244   0.705   5.947 -0.7859  0.5528  0.0568
 3057SOL    HW120633   0.226   0.775   5.884  1.1719  0.8049 -0.2104
 3057SOL    HW220634   0.162   0.656   5.952 -0.6317  0.4077  1.2083
 3058SOL     OW20635   2.685   3.577   3.243  0.1368  0.3847 -0.1747
 3058SOL    HW120636   2.734   3.517   3.187 -3.1371 -1.5856 -0.9403
 3058SOL    HW220637   2.609   3.519   3.249  1.9221 -1.9662 -0.1360
 3059SOL     OW20638   0.155   1.958  10.632  0.3660 -0.5112 -0.0004
 3059SOL    HW120639   0.170   2.010  10.711  2.0511 -1.7459  0.4809
 3059SOL    HW220640   0.170   1.873  10.672 -1.0129  0.0599  1.7464
 3060SOL     OW20641   4.518   4.487   6.713  0.1711  0.1461 -0.1824
 3060SOL    HW120642   4.513   4.568   6.661 -2.6302  0.2362  0.2198
 3060SOL    HW220643   4.455   4.429   6.670 -1.0183  0.3638  1.3023
 3061SOL     OW20644   1.538   4.400   6.496 -0.4020  0.2412  0.5494
 3061SOL    HW120645   1.535   4.402   6.400  2.4489 -0.4547  0.4446
 3061SOL    HW220646   1.484   4.321   6.498  0.0151 -0.0548  0.1333
 3062SOL     OW20647   0.999   0.467  13.605  0.1948  0.3268 -0.4419
 3062SOL    HW120648   0.904   0.469  13.619  0.5337  0.4507  1.7981
 3062SOL    HW220649   1.011   0.561  13.592  0.6929  0.0978 -1.6503
 3063SOL     OW20650   3.393   3.970   2.350 -0.2998  0.0820  0.4621
 3063SOL    HW120651   3.324   3.943   2.411  1.1921  0.7730  2.4536
 3063SOL    HW220652   3.341   4.024   2.292  2.2784 -0.2074 -2.1041
 3064SOL     OW20653   2.213   2.914   2.590 -0.2675  0.0368  0.4173
 3064SOL    HW120654   2.152   2.879   2.654  0.9678  0.4908  1.8587
 3064SOL    HW220655   2.186   3.006   2.588 -0.8562 -0.2447 -3.6541
 3065SOL     OW20656   0.532   0.952  11.392  0.0020  0.2215 -0.0052
 3065SOL    HW120657   0.535   0.962  11.488 -0.0143  0.7000 -0.0544
 3065SOL    HW220658   0.600   1.017  11.373  0.7669 -0.9347 -1.1839
 3066SOL     OW20659   0.174   0.823  10.387  0.4614 -0.1048  0.2446
 3066SOL    HW120660   0.125   0.897  10.352  2.3391  0.6647 -0.7635
 3066SOL    HW220661   0.195   0.763  10.315 -4.1024 -1.4523  0.0247
 3067SOL     OW20662   0.709   2.234   5.324 -0.2121 -0.0950 -0.3528
 3067SOL    HW120663   0.689   2.228   5.230  1.3986 -0.3779 -0.6685
 3067SOL    HW220664   0.664   2.158   5.361  0.0070 -0.1697 -0.2425
 3068SOL     OW20665   2.992   2.987   4.396 -0.0591 -0.6072  0.0058
 3068SOL    HW120666   2.983   2.899   4.358  2.3592 -1.7282  2.0152
 3068SOL    HW220667   2.935   2.983   4.473  0.4071 -2.4489  0.2679
 3069SOL     OW20668   4.320   3.399   5.047 -0.3913  0.0054  0.3748
 3069SOL    HW120669   4.404   3.399   5.093  0.5157  1.1386 -1.3174
 3069SOL    HW220670   4.257   3.427   5.115  2.3915  2.4427  1.9179
 3070SOL     OW20671   0.477   0.916  15.763  0.6802  0.0886 -0.7666
 3070SOL    HW120672   0.419   0.985  15.730  2.9773  2.1014 -0.5828
 3070SOL    HW220673   0.416   0.857  15.808 -0.8737  2.5882  0.4075
 3071SOL     OW20674   3.218   1.467   6.760  0.4185 -0.2421  0.0757
 3071SOL    HW120675   3.311   1.452   6.747  0.2043 -1.6552  0.1940
 3071SOL    HW220676   3.186   1.466   6.670  0.8763 -0.2281 -0.0836
 3072SOL     OW20677   4.030   2.262   9.142  0.1082 -0.1145  0.0746
 3072SOL    HW120678   3.977   2.200   9.093  1.1316 -0.2677 -0.8510
 3072SOL    HW220679   4.115   2.239   9.103 -0.5172 -0.7295 -0.9075
 3073SOL     OW20680   2.375   4.003   7.452  0.3238  0.2844  0.2297
 3073SOL    HW120681   2.336   4.074   7.399 -0.9876 -1.0841 -0.6269
 3073SOL    HW220682   2.380   4.050   7.535  1.1464 -2.0618  1.4856
 3074SOL     OW20683   2.494   2.200   3.626  1.1984 -0.0047  0.3402
 3074SOL    HW120684   2.424   2.170   3.567  0.7802  0.9080  0.3845
 3074SOL    HW220685   2.561   2.243   3.573 -0.7561  1.1830 -1.1535
 3075SOL     OW20686   0.166   2.930   2.520  0.2419 -0.0570 -1.0627
 3075SOL    HW120687   0.207   2.875   2.587  0.1092  0.6990 -0.3572
 3075SOL    HW220688   0.073   2.946   2.534  0.9012  0.2060  3.0882
 3076SOL     OW20689   0.119   4.485   4.672  0.5394  0.0516 -0.0965
 3076SOL    HW120690   0.176   4.410   4.658 -1.1649 -1.3457  0.3329
 3076SOL    HW220691   0.116   4.490   4.768 -1.4511  1.1835 -0.2115
 3077SOL     OW20692   3.810   2.329   7.036  0.3895  0.2878 -0.0051
 3077SOL    HW120693   3.761   2.375   6.968  2.0798 -0.4865 -1.7413
 3077SOL    HW220694   3.845   2.397   7.094  1.8787  0.5001 -1.1626
 3078SOL     OW20695   2.720   2.025   4.957  0.4330 -0.1646 -0.1414
 3078SOL    HW120696   2.662   2.100   4.944  1.9790  0.8758 -0.8967
 3078SOL    HW220697   2.704   1.989   4.870 -0.3962 -0.9783  0.3355
 3079SOL     OW20698   0.826   3.850  17.343  0.4469 -0.2906 -0.1897
 3079SOL    HW120699   0.773   3.928  17.326  2.1910  0.8664 -0.3341
 3079SOL    HW220700   0.807   3.812  17.257 -0.7530  0.7653 -0.3815
 3080SOL     OW20701   2.480   0.991   2.820 -0.2202  0.0126  0.7734
 3080SOL    HW120702   2.397   1.011   2.864  0.0025  1.9075  0.3230
 3080SOL    HW220703   2.479   1.047   2.743 -0.3921 -0.6798  0.2745
 3081SOL     OW20704   3.608   2.394   6.145  0.2272  0.2641  0.4820
 3081SOL    HW120705   3.538   2.380   6.083  0.6977 -0.0255  0.0173
 3081SOL    HW220706   3.625   2.302   6.168  0.0594 -0.1439 -1.0497
 3082SOL     OW20707   0.121   3.329  12.153  0.1319 -0.4602  0.1826
 3082SOL    HW120708   0.208   3.320  12.190  0.1315  1.8283  0.7345
 3082SOL    HW220709   0.085   3.403  12.201 -0.1853  0.5049 -1.5366
 3083SOL     OW20710   3.243   2.834   8.018  0.7734  0.1994  0.2418
 3083SOL    HW120711   3.198   2.864   7.939 -1.4721 -2.6968  0.4293
 3083SOL    HW220712   3.211   2.748   8.045  1.0472 -0.0284 -0.1537
 3084SOL     OW20713   3.118   1.006   6.751 -0.8771  0.1880 -0.2448
 3084SOL    HW120714   3.105   0.961   6.668 -0.1758 -1.8472  0.7231
 3084SOL    HW220715   3.044   1.066   6.762  0.1275  1.4912 -0.6528
 3085SOL     OW20716   1.024   0.066   8.956 -0.2631  0.0752  0.1671
 3085SOL    HW120717   1.060   4.702   8.929  1.7663  2.0096 -3.1043
 3085SOL    HW220718   1.098   0.107   9.001 -0.1808 -0.2302  0.3119
 3086SOL     OW20719   3.433   2.685   2.271  0.7705  0.1596  0.0830
 3086SOL    HW120720   3.384   2.622   2.218 -1.0051  0.5209  1.2851
 3086SOL    HW220721   3.522   2.651   2.270  1.2316  1.3698  0.6089
 3087SOL     OW20722   0.046   0.257   8.245  0.4973 -0.2906 -0.0938
 3087SOL    HW120723   0.010   0.196   8.181 -0.1023 -0.5038  0.4336
 3087SOL    HW220724   0.087   0.329   8.198 -0.0578  0.3589  0.3971
 3088SOL     OW20725   1.288   0.504   3.107 -0.2217 -0.4221  0.8398
 3088SOL    HW120726   1.201   0.529   3.076  0.5323  0.0958 -0.8735
 3088SOL    HW220727   1.334   0.509   3.023  0.9091 -1.8304  1.3830
 3089SOL     OW20728   3.072   2.413   7.017 -0.2373  0.0070 -0.1416
 3089SOL    HW120729   3.049   2.498   7.054 -1.5046 -0.2670 -0.3061
 3089SOL    HW220730   3.038   2.425   6.928  0.1820  1.8559 -0.0546
 3090SOL     OW20731   2.850   0.294  12.336  0.0121 -0.0016  0.1817
 3090SOL    HW120732   2.880   0.377  12.373  2.5564 -1.0738  0.4763
 3090SOL    HW220733   2.894   0.303  12.252  2.2519  1.2991  1.4901
 3091SOL     OW20734   2.617   2.511   6.417  0.5575  0.2064  0.4487
 3091SOL    HW120735   2.645   2.582   6.359  0.3231  1.3855  1.7860
 3091SOL    HW220736   2.695   2.456   6.418  0.9248  0.6913 -0.9234
 3092SOL     OW20737   0.798   0.510   8.411  0.4446  0.2850  0.3166
 3092SOL    HW120738   0.744   0.521   8.489 -0.2132  2.4527 -0.4357
 3092SOL    HW220739   0.772   0.426   8.373  1.3112 -1.5842  3.8715
 3093SOL     OW20740   1.014   0.724   4.951 -0.1768 -0.4593  0.1611
 3093SOL    HW120741   1.012   0.693   5.041 -1.6225  0.9293  0.6096
 3093SOL    HW220742   0.918   0.730   4.948 -0.1716 -1.0716 -1.4871
 3094SOL     OW20743   4.559   0.299  11.319  0.4673 -0.1062 -0.0936
 3094SOL    HW120744   4.609   0.365  11.271  1.5616  0.7415  2.2312
 3094SOL    HW220745   4.492   0.358  11.353  1.3675  2.4168 -2.7106
 3095SOL     OW20746   3.068   4.528   6.294 -0.7247  0.1259 -0.5568
 3095SOL    HW120747   3.051   4.611   6.339 -0.8524 -0.6914  0.8752
 3095SOL    HW220748   3.004   4.477   6.343 -0.2665 -0.2601 -0.3669
 3096SOL     OW20749   2.283   3.857   0.972 -0.0986  0.2534 -0.1252
 3096SOL    HW120750   2.331   3.868   1.054 -0.7998  1.6921  0.1006
 3096SOL    HW220751   2.191   3.867   0.999 -0.4097 -0.0597 -1.0829
 3097SOL     OW20752   1.107   3.672   9.814  0.0320  0.0084 -0.0118
 3097SOL    HW120753   1.178   3.690   9.752 -0.3370  0.5955 -0.2589
 3097SOL    HW220754   1.168   3.671   9.888 -1.0837 -1.8614  0.8649
 3098SOL     OW20755   3.268   3.096  15.993 -0.0774 -0.2137 -0.5867
 3098SOL    HW120756   3.279   3.161  16.063 -0.1325  0.8189 -1.5256
 3098SOL    HW220757   3.340   3.035  16.009  1.2656  1.3577 -0.6022
 3099SOL     OW20758   1.579   3.148   8.229  0.2053 -0.0008 -0.2944
 3099SOL    HW120759   1.647   3.214   8.238  0.8906 -0.5614 -1.2817
 3099SOL    HW220760   1.543   3.171   8.143 -1.4133 -1.4921 -0.0227
 3100SOL     OW20761   4.057   1.957   3.016  0.5164  0.1516  0.2860
 3100SOL    HW120762   4.059   1.935   3.109 -0.6913 -1.2045 -0.0317
 3100SOL    HW220763   3.996   1.892   2.982  0.0299  1.4712 -1.3599
 3101SOL     OW20764   2.642   0.860  10.370 -0.1691  0.2875 -0.2584
 3101SOL    HW120765   2.639   0.776  10.324  2.6116  0.1461 -0.1457
 3101SOL    HW220766   2.559   0.860  10.418 -0.4771  1.2291 -0.7906
 3102SOL     OW20767   1.070   3.353   5.755 -0.6110  0.3647 -0.0148
 3102SOL    HW120768   1.027   3.275   5.719 -0.2474  0.3894 -0.5082
 3102SOL    HW220769   1.002   3.390   5.812 -1.2283  1.4065 -1.4171
 3103SOL     OW20770   3.635   0.134   8.596  0.4476 -0.2505 -0.3436
 3103SOL    HW120771   3.684   0.216   8.587  0.7143 -0.5335 -1.5258
 3103SOL    HW220772   3.590   0.162   8.675 -4.5777  0.0558 -3.3505
 3104SOL     OW20773   2.987   3.717  13.233  0.3045  0.4983 -0.3671
 3104SOL    HW120774   2.977   3.753  13.145  1.2176  0.4201 -0.5013
 3104SOL    HW220775   3.083   3.719  13.230  0.2621  0.6457 -1.3172
 3105SOL     OW20776   2.937   3.711   7.638  0.4991  0.6934  0.3333
 3105SOL    HW120777   2.937   3.668   7.723 -1.2957  0.5339  0.2556
 3105SOL    HW220778   2.909   3.799   7.662  0.4763  1.2954 -1.8560
 3106SOL     OW20779   3.876   2.424   7.476  0.5569 -0.4595  0.2645
 3106SOL    HW120780   3.816   2.437   7.549  2.9373  1.0726  1.9259
 3106SOL    HW220781   3.955   2.418   7.529  1.1274 -0.7646 -0.6265
 3107SOL     OW20782   0.953   2.432   1.995 -0.0541  0.1366 -0.4421
 3107SOL    HW120783   0.947   2.397   2.084  0.5228 -0.0850 -0.4927
 3107SOL    HW220784   0.998   2.515   2.009 -1.1499  0.5804  0.4747
 3108SOL     OW20785   4.261   2.253   6.039  0.1645 -0.2604 -0.1639
 3108SOL    HW120786   4.329   2.186   6.033  0.3902  0.0316 -0.8781
 3108SOL    HW220787   4.268   2.258   6.134  4.0930 -0.1798 -0.4492
 3109SOL     OW20788   4.500   1.969   8.320 -0.2164  0.1432  0.0563
 3109SOL    HW120789   4.477   2.018   8.399  0.0876 -1.3164  1.0355
 3109SOL    HW220790   4.516   1.880   8.351  2.1747  0.3832 -0.4551
 3110SOL     OW20791   2.549   4.396   3.276 -0.1447  0.1814  0.0892
 3110SOL    HW120792   2.550   4.367   3.368  1.4471  0.9602  0.3302
 3110SOL    HW220793   2.644   4.394   3.262 -0.2977 -1.1716 -0.7256
 3111SOL     OW20794   2.507   2.094   4.509  0.5985  0.3982  0.1865
 3111SOL    HW120795   2.571   2.024   4.507  0.1158  0.0011 -1.4277
 3111SOL    HW220796   2.479   2.098   4.418  1.6048 -0.3168 -0.1415
 3112SOL     OW20797   1.491   4.296   4.113 -0.0450 -0.3567  0.1884
 3112SOL    HW120798   1.525   4.345   4.188 -1.5682 -0.6552  1.0744
 3112SOL    HW220799   1.488   4.207   4.148  3.6480  0.0006  1.3927
 3113SOL     OW20800   0.464   2.445   3.476 -0.3679  0.0664 -0.1291
 3113SOL    HW120801   0.462   2.457   3.381  0.2676 -0.0209 -0.1520
 3113SOL    HW220802   0.472   2.536   3.504 -1.8417  0.1480  0.0520
 3114SOL     OW20803   3.700   0.006   6.058 -0.1089 -0.2030 -0.1253
 3114SOL    HW120804   3.693   4.699   6.150  1.3149  1.0057  0.3326
 3114SOL    HW220805   3.753   4.658   6.018 -0.4631 -0.9730  0.7044
 3115SOL     OW20806   2.671   0.126   3.231  0.7341 -0.2757  0.1665
 3115SOL    HW120807   2.697   0.141   3.322 -0.7342 -0.0810  0.5457
 3115SOL    HW220808   2.716   0.202   3.194  1.9729  0.0766  2.3857
 3116SOL     OW20809   0.384   2.062   4.968  0.5650 -0.1307  0.0660
 3116SOL    HW120810   0.388   1.984   5.023 -0.3919  0.2832  0.7387
 3116SOL    HW220811   0.379   2.129   5.037 -0.0216 -0.1652  0.0530
 3117SOL     OW20812   3.955   0.889   6.670 -0.5608 -0.1995  0.7124
 3117SOL    HW120813   3.957   0.829   6.744  1.9141 -2.2940 -1.0219
 3117SOL    HW220814   3.865   0.886   6.637 -0.3407  0.8705  0.0058
 3118SOL     OW20815   1.147   2.666   2.000 -0.2678 -0.0390  0.3357
 3118SOL    HW120816   1.099   2.712   1.931  0.6346  2.1327  1.1790
 3118SOL    HW220817   1.233   2.698   1.974  0.4037 -2.4773 -0.4256
 3119SOL     OW20818   2.902   2.323  16.938 -1.1087  0.3815  0.2516
 3119SOL    HW120819   2.966   2.254  16.957 -1.2143  0.3328  0.4338
 3119SOL    HW220820   2.953   2.374  16.875 -0.1820  1.5481  1.9447
 3120SOL     OW20821   2.992   3.877   6.376  0.5687  0.2885 -0.4932
 3120SOL    HW120822   2.967   3.880   6.284 -1.8526  3.2176  0.2758
 3120SOL    HW220823   2.932   3.943   6.411 -0.9827 -1.1145 -0.5071
 3121SOL     OW20824   1.676   3.655   7.767 -0.1586  0.4343  0.4080
 3121SOL    HW120825   1.698   3.680   7.677  0.8864 -1.5673  0.1134
 3121SOL    HW220826   1.582   3.671   7.771 -0.2173  0.1690  0.1035
 3122SOL     OW20827   1.618   3.828  16.536 -0.9714 -0.0449 -0.2779
 3122SOL    HW120828   1.573   3.907  16.568  1.7840  1.3148  0.2185
 3122SOL    HW220829   1.577   3.825  16.450 -0.1408 -0.0169 -0.6741
 3123SOL     OW20830   3.237   1.959  14.641 -0.2960  0.3467  0.0353
 3123SOL    HW120831   3.185   1.992  14.568  2.3776 -1.0717 -2.5553
 3123SOL    HW220832   3.271   2.039  14.681  2.6644 -1.3828  0.9607
 3124SOL     OW20833   3.140   4.106   8.608  0.0895 -0.5855 -0.2831
 3124SOL    HW120834   3.098   4.021   8.615 -1.0850 -0.0499 -0.7679
 3124SOL    HW220835   3.227   4.096   8.571  0.6377 -0.2803  0.9111
 3125SOL     OW20836   3.140   4.450   1.712 -0.4301  0.0211  0.0821
 3125SOL    HW120837   3.203   4.382   1.690  0.3276  0.1881  1.7666
 3125SOL    HW220838   3.101   4.464   1.625 -1.0763 -2.4641 -0.0248
 3126SOL     OW20839   2.806   1.890   6.549  0.0134 -0.8148 -0.0707
 3126SOL    HW120840   2.777   1.925   6.634  1.8757  0.6282 -0.0378
 3126SOL    HW220841   2.735   1.902   6.486 -0.7231  0.3202  0.9618
 3127SOL     OW20842   1.392   2.379   2.083  0.0760  0.3828 -0.4014
 3127SOL    HW120843   1.451   2.334   2.022  0.0695  0.1516 -0.2356
 3127SOL    HW220844   1.311   2.387   2.033 -1.2514  2.0202  2.0121
 3128SOL     OW20845   0.642   0.025   4.182  0.1978 -0.0952 -0.1337
 3128SOL    HW120846   0.706   0.088   4.148  0.1963  0.8252  1.5502
 3128SOL    HW220847   0.561   0.077   4.179  1.8409  2.4839  0.1032
 3129SOL     OW20848   2.123   3.190   2.896  0.2716 -0.5383  0.2271
 3129SOL    HW120849   2.162   3.160   2.814 -0.1464 -1.0788  0.2246
 3129SOL    HW220850   2.093   3.276   2.867 -0.2992 -1.1453 -0.9950
 3130SOL     OW20851   1.309   2.959  16.314  0.4054  0.2523 -0.0161
 3130SOL    HW120852   1.330   2.885  16.370  0.5296 -0.1172 -0.5464
 3130SOL    HW220853   1.376   3.025  16.331 -0.0522  0.3097  1.5514
 3131SOL     OW20854   2.533   4.516   5.117 -0.2205 -0.2346  0.1843
 3131SOL    HW120855   2.530   4.590   5.057  0.0903 -0.8130 -0.5547
 3131SOL    HW220856   2.593   4.556   5.179 -1.6548  1.5021  0.4426
 3132SOL     OW20857   4.572   0.888  10.838  0.2822 -0.1029 -0.6141
 3132SOL    HW120858   4.664   0.910  10.825  0.4500  0.1590  1.0261
 3132SOL    HW220859   4.551   0.844  10.756 -2.0413  0.0334 -0.1021
 3133SOL     OW20860   3.304   3.113   2.400  0.1569 -0.1657 -0.1370
 3133SOL    HW120861   3.370   3.093   2.333 -0.6251 -1.7730 -0.4173
 3133SOL    HW220862   3.237   3.168   2.359  1.8897  0.5932 -1.9908
 3134SOL     OW20863   2.565   2.767   4.284 -0.1135 -0.1890  0.5022
 3134SOL    HW120864   2.632   2.819   4.241 -1.3704 -0.4524 -1.7818
 3134SOL    HW220865   2.504   2.840   4.292  1.1570  0.7099  1.8485
 3135SOL     OW20866   0.658   0.712   7.708 -0.4353 -0.0263 -0.3118
 3135SOL    HW120867   0.598   0.786   7.699 -0.2626  0.4076  2.2227
 3135SOL    HW220868   0.597   0.637   7.711 -0.3253  0.0103  2.7527
 3136SOL     OW20869   4.049   2.884   4.656  0.7532  0.6977  0.2582
 3136SOL    HW120870   4.030   2.791   4.658  0.1091  0.8134 -0.8184
 3136SOL    HW220871   4.049   2.900   4.750  0.7172  5.6529 -0.5698
 3137SOL     OW20872   4.404   2.794   9.932  0.2725 -0.3310 -0.4399
 3137SOL    HW120873   4.422   2.741  10.009 -0.2534  0.2468  0.0874
 3137SOL    HW220874   4.314   2.824   9.943 -0.0878 -0.9587 -1.7554
 3138SOL     OW20875   4.312   3.943   2.922  0.2613  0.1871 -0.2375
 3138SOL    HW120876   4.232   3.918   2.877  1.3880 -2.1724 -0.9565
 3138SOL    HW220877   4.379   3.911   2.861 -0.8254 -1.2734 -0.6664
 3139SOL     OW20878   2.705   3.793   4.939 -0.5320 -0.0159  0.0857
 3139SOL    HW120879   2.612   3.774   4.950 -1.1541  1.0514 -3.1618
 3139SOL    HW220880   2.695   3.888   4.928 -1.8308 -0.2457 -0.8005
 3140SOL     OW20881   2.873   2.723   8.045 -0.1686 -0.1218 -0.5269
 3140SOL    HW120882   2.956   2.685   8.016 -0.5227 -1.0652 -0.3356
 3140SOL    HW220883   2.835   2.762   7.967  2.3511  1.9664 -0.6648
 3141SOL     OW20884   1.789   2.869   2.380 -0.6419 -0.4313  0.3997
 3141SOL    HW120885   1.790   2.787   2.331 -1.4789 -0.3416  0.2352
 3141SOL    HW220886   1.832   2.931   2.321 -1.6146  2.3557  2.6436
 3142SOL     OW20887   3.121   4.421   5.984 -0.3493 -0.3146 -0.0931
 3142SOL    HW120888   3.114   4.482   6.058 -0.6388  0.1072 -0.4646
 3142SOL    HW220889   3.169   4.348   6.023 -2.8048  0.1409  3.8558
 3143SOL     OW20890   4.385   0.025  10.838  0.2915 -0.1193  0.0187
 3143SOL    HW120891   4.291   0.014  10.824  0.4468  1.2199 -2.1433
 3143SOL    HW220892   4.400   0.118  10.822  2.5457 -0.3176  0.9984
 3144SOL     OW20893   0.812   2.802   3.362 -0.1765  0.2888  0.0188
 3144SOL    HW120894   0.738   2.750   3.328 -1.7515  1.7205  1.2750
 3144SOL    HW220895   0.881   2.747   3.325  0.8399  1.3188  0.4016
 3145SOL     OW20896   1.998   1.304   6.638  0.2356 -0.2032 -0.1508
 3145SOL    HW120897   1.967   1.255   6.714  0.6030 -1.8931 -1.1050
 3145SOL    HW220898   1.919   1.348   6.608 -1.0260 -1.3836  1.4556
 3146SOL     OW20899   0.714   3.191   4.233 -0.0664 -0.1144 -0.3922
 3146SOL    HW120900   0.763   3.257   4.184 -1.7150  1.0878 -0.4243
 3146SOL    HW220901   0.738   3.121   4.173  1.5130 -0.2477  0.3692
 3147SOL     OW20902   0.677   0.078   3.238  0.1989  0.6967  0.4634
 3147SOL    HW120903   0.738   0.094   3.166 -0.5027 -0.2277 -0.3262
 3147SOL    HW220904   0.696   4.707   3.253  0.1355  0.4913 -0.7064
 3148SOL     OW20905   3.169   1.280   2.071 -0.0603  0.1218 -0.2427
 3148SOL    HW120906   3.160   1.185   2.077  2.4129 -0.0297  1.0904
 3148SOL    HW220907   3.095   1.305   2.015 -1.7056  0.8452  2.2764
 3149SOL     OW20908   1.700   0.316   7.177 -0.1350  0.0370  0.2401
 3149SOL    HW120909   1.685   0.221   7.183 -0.4561 -0.1279 -3.3723
 3149SOL    HW220910   1.632   0.343   7.116  0.1394  0.3296  0.0632
 3150SOL     OW20911   1.711   2.411   7.887 -0.0034  0.3655  0.2060
 3150SOL    HW120912   1.635   2.458   7.853  1.0791 -0.1850 -3.0371
 3150SOL    HW220913   1.694   2.329   7.840  1.1145 -0.4803  1.2653
 3151SOL     OW20914   3.313   2.774   4.320 -0.0185 -0.0694  0.1912
 3151SOL    HW120915   3.375   2.702   4.308 -0.5809 -0.5495  0.1375
 3151SOL    HW220916   3.275   2.734   4.398  1.8839 -1.7088  0.2634
 3152SOL     OW20917   1.847   1.521   4.044  0.0045 -0.0848  0.0574
 3152SOL    HW120918   1.763   1.533   3.998  0.3329 -1.1423 -0.8162
 3152SOL    HW220919   1.808   1.488   4.125 -0.1393 -0.3284 -0.1091
 3153SOL     OW20920   2.481   1.891   1.509 -0.0533  0.1068  0.3578
 3153SOL    HW120921   2.424   1.954   1.553 -0.6497 -0.7022  0.7403
 3153SOL    HW220922   2.420   1.818   1.520  0.2635 -0.0425  1.1809
 3154SOL     OW20923   2.905   2.352   4.481  0.1976  0.6131  0.1881
 3154SOL    HW120924   2.830   2.331   4.426  0.7162 -1.7258  0.3787
 3154SOL    HW220925   2.873   2.314   4.562 -0.7034  0.2853 -0.3266
 3155SOL     OW20926   0.257   4.327   4.104 -0.3011  0.2782  0.4066
 3155SOL    HW120927   0.212   4.296   4.183 -1.1292  2.0742  0.6286
 3155SOL    HW220928   0.281   4.416   4.127 -1.6377  0.5469  0.7582
 3156SOL     OW20929   4.281   0.648   6.719  0.3056  0.3915  0.2525
 3156SOL    HW120930   4.254   0.633   6.628  2.1767  0.6826 -0.3583
 3156SOL    HW220931   4.215   0.712   6.747  0.7572 -0.0224  2.2090
 3157SOL     OW20932   1.423   0.462   9.478  0.2132  0.3868 -0.2431
 3157SOL    HW120933   1.349   0.523   9.469  1.0776  1.5045  0.2414
 3157SOL    HW220934   1.489   0.517   9.520  1.2370 -0.8383 -0.2304
 3158SOL     OW20935   4.130   4.161   8.107  0.3144  0.0282  0.2301
 3158SOL    HW120936   4.039   4.166   8.136  0.0223 -0.1136 -0.6875
 3158SOL    HW220937   4.141   4.250   8.073  0.6878 -0.7442 -1.6699
 3159SOL     OW20938   3.194   1.767   2.670  0.6871  0.0039 -0.6314
 3159SOL    HW120939   3.175   1.751   2.578  0.5031  0.0809 -0.6067
 3159SOL    HW220940   3.199   1.861   2.653 -0.1274 -0.1409 -1.6810
 3160SOL     OW20941   4.171   0.516  16.995 -0.9425 -0.2254  0.0021
 3160SOL    HW120942   4.235   0.451  17.024  0.2387  1.4700  1.2125
 3160SOL    HW220943   4.133   0.542  17.079 -0.2905 -0.9750  0.5302
 3161SOL     OW20944   1.522   1.441   7.111 -0.1174 -0.1719 -0.8704
 3161SOL    HW120945   1.572   1.478   7.185 -1.2224  1.0787 -0.7485
 3161SOL    HW220946   1.490   1.517   7.062  1.1974  0.4391 -0.7832
 3162SOL     OW20947   1.180   0.855   2.833 -0.0089  0.0458 -0.5313
 3162SOL    HW120948   1.158   0.780   2.889 -0.7454  0.4660 -0.2752
 3162SOL    HW220949   1.168   0.813   2.747 -1.5640 -0.8073  0.1040
 3163SOL     OW20950   2.087   2.803   8.503  0.3384  0.2913  0.1157
 3163SOL    HW120951   2.122   2.732   8.449  1.6087  0.4452  0.7475
 3163SOL    HW220952   2.113   2.785   8.593 -2.0456 -0.4878  0.6577
 3164SOL     OW20953   2.405   0.534   0.371 -0.7598 -0.3006  0.0334
 3164SOL    HW120954   2.463   0.572   0.304  0.9143  0.3441  1.8397
 3164SOL    HW220955   2.474   0.494   0.423 -0.3887  1.5913  1.0092
 3165SOL     OW20956   4.493   2.998   2.207  0.5557  0.1258  0.1157
 3165SOL    HW120957   4.466   2.939   2.136  1.9003  1.3773 -1.4280
 3165SOL    HW220958   4.406   2.998   2.247  0.3533 -0.2155 -0.3259
 3166SOL     OW20959   0.274   2.866   7.803 -0.3426 -0.0951  0.0910
 3166SOL    HW120960   0.314   2.915   7.874 -0.4178  1.0170 -0.6296
 3166SOL    HW220961   0.214   2.937   7.777  0.3733 -0.2746 -2.0712
 3167SOL     OW20962   1.536   0.531   0.380  0.0420  0.1981 -0.3388
 3167SOL    HW120963   1.487   0.570   0.452 -0.1570 -0.9177  0.1385
 3167SOL    HW220964   1.629   0.534   0.402 -0.4697  3.4031  1.3189
 3168SOL     OW20965   0.285   0.872   2.552 -0.4053 -0.5961  0.4149
 3168SOL    HW120966   0.233   0.825   2.618 -0.9115 -0.3619  0.1876
 3168SOL    HW220967   0.247   0.840   2.470  1.9564 -0.0041 -0.9145
 3169SOL     OW20968   4.670   0.944   6.569  0.3507  0.6242  0.6252
 3169SOL    HW120969   0.029   0.920   6.617  0.8355  1.5107  0.2660
 3169SOL    HW220970   4.701   0.941   6.479 -0.4371  0.7779  0.3479
 3170SOL     OW20971   1.539   1.485   5.711  0.4042  0.0567  0.6594
 3170SOL    HW120972   1.540   1.580   5.713  1.2839  0.0143  3.4009
 3170SOL    HW220973   1.446   1.466   5.700  0.3898  0.4375  0.1293
 3171SOL     OW20974   4.225   1.517   4.748  0.0013  0.0826  0.5943
 3171SOL    HW120975   4.306   1.544   4.791  0.6930 -1.4545  0.2471
 3171SOL    HW220976   4.260   1.494   4.662 -2.4271  1.1574 -0.6934
 3172SOL     OW20977   1.412   4.027  17.041  1.1721 -0.0021 -0.2748
 3172SOL    HW120978   1.425   4.023  17.136 -1.2690 -1.7455 -0.0006
 3172SOL    HW220979   1.350   3.955  17.028 -1.4288  2.5073 -1.5585
 3173SOL     OW20980   0.287   2.167   4.231  0.2386 -0.0080 -0.1847
 3173SOL    HW120981   0.359   2.131   4.284 -1.4544 -0.6367  1.6565
 3173SOL    HW220982   0.228   2.093   4.248  2.4720 -2.4448 -2.9157
 3174SOL     OW20983   0.973   0.467   6.075  0.0033 -0.9926  0.0167
 3174SOL    HW120984   0.962   0.512   5.991 -0.4433 -0.9862  0.0794
 3174SOL    HW220985   0.971   0.379   6.038 -0.9011 -0.5312 -1.0302
 3175SOL     OW20986   1.755   2.498   8.948 -0.1687  0.5010  0.4725
 3175SOL    HW120987   1.752   2.546   8.866 -0.6843  0.8636  0.7029
 3175SOL    HW220988   1.670   2.453   8.954  0.8995 -1.6053 -0.2915
 3176SOL     OW20989   1.642   0.233   5.805  0.0499  0.1626 -0.8836
 3176SOL    HW120990   1.603   0.321   5.800 -0.4691 -0.1504 -2.3918
 3176SOL    HW220991   1.713   0.250   5.866  1.2251  0.4975 -2.3392
 3177SOL     OW20992   4.651   1.789   3.615 -0.0337  0.3797 -0.0157
 3177SOL    HW120993   4.683   1.759   3.530  0.4172  2.6251 -0.6590
 3177SOL    HW220994   4.709   1.863   3.635  0.4063 -0.0017  0.1000
 3178SOL     OW20995   3.521   0.745   3.990 -0.7055  0.3608  0.0474
 3178SOL    HW120996   3.546   0.704   4.073  1.8566  1.8026 -0.0031
 3178SOL    HW220997   3.604   0.758   3.945 -1.0470  0.0724 -0.6556
 3179SOL     OW20998   0.991   0.697   6.380  0.3218  0.5633  0.2097
 3179SOL    HW120999   0.983   0.782   6.336  2.1740  1.0044  0.6999
 3179SOL    HW221000   1.061   0.719   6.442  0.3157  1.7911 -0.2247
 3180SOL     OW21001   2.272   1.046  12.116  0.2461 -0.1272 -0.3605
 3180SOL    HW121002   2.242   1.085  12.197  5.4819  0.1651  1.4437
 3180SOL    HW221003   2.265   0.951  12.123  0.0990 -0.1759 -1.2004
 3181SOL     OW21004   2.077   4.196  14.752  0.2627 -0.5738 -0.3727
 3181SOL    HW121005   2.027   4.115  14.755 -0.5859  0.0154  1.2238
 3181SOL    HW221006   2.164   4.160  14.767  0.2926 -0.2424  0.2908
 3182SOL     OW21007   1.599   2.751   5.254  0.3470  0.3269 -0.0328
 3182SOL    HW121008   1.685   2.726   5.290  1.4726  1.3532 -2.0292
 3182SOL    HW221009   1.620   2.723   5.165 -1.2812  2.2980 -1.0243
 3183SOL     OW21010   2.798   1.009   7.930 -0.4670 -0.0957 -0.5779
 3183SOL    HW121011   2.774   0.919   7.952  0.1243 -0.3514 -0.9754
 3183SOL    HW221012   2.711   1.035   7.902 -0.0526  0.9972 -0.8435
 3184SOL     OW21013   1.186   1.773   3.314  1.0173  0.2523  0.1358
 3184SOL    HW121014   1.195   1.841   3.381  0.3430 -1.3979  1.8773
 3184SOL    HW221015   1.181   1.826   3.235 -1.7727  2.1002  1.5755
 3185SOL     OW21016   0.612   1.983   5.404 -0.5481  0.0705  0.2862
 3185SOL    HW121017   0.667   1.944   5.337  0.5350 -0.4779  1.4839
 3185SOL    HW221018   0.532   1.996   5.353  0.6554 -0.7261 -1.7743
 3186SOL     OW21019   3.439   3.995   5.435  0.0425  0.0511 -0.2651
 3186SOL    HW121020   3.360   3.941   5.445 -0.8822  1.3302 -0.6789
 3186SOL    HW221021   3.415   4.077   5.478  1.7199  0.6303 -0.4218
 3187SOL     OW21022   4.143   4.494   1.603 -0.1107  0.3128  0.1408
 3187SOL    HW121023   4.131   4.470   1.511  0.0674  2.8157 -0.5379
 3187SOL    HW221024   4.197   4.418   1.625  0.0174 -0.5131 -2.9708
 3188SOL     OW21025   1.520   4.682   1.788 -1.0673  0.1372 -0.0410
 3188SOL    HW121026   1.595   4.694   1.730 -1.5010 -0.7102 -0.7816
 3188SOL    HW221027   1.569   4.681   1.871 -1.7701 -0.0175  0.3702
 3189SOL     OW21028   4.104   3.668   4.879  0.6828 -0.6869 -0.4793
 3189SOL    HW121029   4.158   3.609   4.827  0.7246 -0.5707 -0.5684
 3189SOL    HW221030   4.140   3.749   4.842  2.4620 -1.2716 -0.0459
 3190SOL     OW21031   3.519   0.384   8.049  0.0612  0.1315 -0.1241
 3190SOL    HW121032   3.456   0.348   8.110  0.8990 -1.7706 -0.3754
 3190SOL    HW221033   3.539   0.314   7.987 -0.6346  0.4734 -0.7311
 3191SOL     OW21034   2.335   0.835  11.861  0.1457  0.4694 -0.2037
 3191SOL    HW121035   2.379   0.796  11.786 -0.4474  0.1219 -0.3715
 3191SOL    HW221036   2.289   0.762  11.901 -1.5052  1.9001  0.5310
 3192SOL     OW21037   2.350   2.880   0.136 -0.0319  0.1445 -0.8126
 3192SOL    HW121038   2.349   2.967   0.097  1.4153  0.4837 -0.1060
 3192SOL    HW221039   2.366   2.916   0.223 -0.4081  0.9120 -1.0624
 3193SOL     OW21040   3.983   3.779   4.509  0.2273  0.1761 -0.4065
 3193SOL    HW121041   4.028   3.840   4.567  1.2659 -0.7105 -0.2973
 3193SOL    HW221042   3.960   3.707   4.568  0.8497  2.7126  2.8923
 3194SOL     OW21043   3.606   3.019   7.639  0.2641 -0.6306 -0.3134
 3194SOL    HW121044   3.641   3.048   7.555 -1.7753  0.3078 -0.8249
 3194SOL    HW221045   3.638   2.929   7.638  1.1707 -0.3345  1.2607
 3195SOL     OW21046   1.446   1.202   6.488  0.2278  0.0266  0.1173
 3195SOL    HW121047   1.516   1.148   6.452  2.2419  1.7172  1.4749
 3195SOL    HW221048   1.391   1.204   6.410 -0.3972  3.6782  0.6370
 3196SOL     OW21049   2.524   1.427   7.266  0.1049  0.0463  0.0484
 3196SOL    HW121050   2.617   1.446   7.261  0.2212 -0.2238  1.3197
 3196SOL    HW221051   2.495   1.514   7.295  0.6183  0.3226 -0.2695
 3197SOL     OW21052   0.638   1.818   9.942  0.2946  0.5174  0.3564
 3197SOL    HW121053   0.687   1.778   9.870 -0.8504 -1.3381  0.6041
 3197SOL    HW221054   0.641   1.750  10.009 -1.9456  0.7489  0.7036
 3198SOL     OW21055   1.220   0.605  11.914  0.2870 -0.1986 -0.5391
 3198SOL    HW121056   1.131   0.637  11.926 -0.1841 -1.2530 -1.2123
 3198SOL    HW221057   1.225   0.562  11.828  2.0013  2.3979 -1.7247
 3199SOL     OW21058   1.258   3.057   5.486 -0.1589  0.1902 -0.2826
 3199SOL    HW121059   1.346   3.044   5.451 -0.1514  0.0144 -0.1978
 3199SOL    HW221060   1.281   3.107   5.564  1.5807 -1.7821  0.4680
 3200SOL     OW21061   2.697   4.648   6.274 -0.8202  0.1099  0.0192
 3200SOL    HW121062   2.771   4.603   6.315 -1.3971 -0.4685  0.4307
 3200SOL    HW221063   2.722   4.619   6.186  2.5830 -0.9915  1.3417
 3201SOL     OW21064   1.891   2.564   4.909  0.0210  0.0110 -0.0649
 3201SOL    HW121065   1.866   2.566   4.817  1.3403 -5.0157 -0.4898
 3201SOL    HW221066   1.962   2.504   4.886  0.4587  0.3907  0.2983
 3202SOL     OW21067   1.927   0.683   2.953 -0.1646  0.4269  0.2764
 3202SOL    HW121068   1.990   0.743   2.913 -0.0887  0.4145  0.3788
 3202SOL    HW221069   1.880   0.651   2.876  2.0902 -1.5985 -0.2525
 3203SOL     OW21070   0.281   0.672   9.166  0.0362 -0.0703  0.1184
 3203SOL    HW121071   0.189   0.647   9.171 -0.3211  1.1976 -0.1388
 3203SOL    HW221072   0.274   0.760   9.129 -1.8412 -0.5214 -0.5955
 3204SOL     OW21073   4.430   1.732  13.428 -0.1276 -0.1438 -0.0106
 3204SOL    HW121074   4.403   1.800  13.366  0.1483 -0.1758 -0.1662
 3204SOL    HW221075   4.502   1.778  13.471 -1.0397  1.6843 -0.4496
 3205SOL     OW21076   0.665   0.894   7.096 -0.0976 -0.1771 -0.4007
 3205SOL    HW121077   0.576   0.887   7.133 -1.4752  0.5462 -3.5974
 3205SOL    HW221078   0.725   0.869   7.166  0.4016  1.8689 -0.0860
 3206SOL     OW21079   4.257   0.156   6.857  0.2670  0.1624  0.6380
 3206SOL    HW121080   4.206   0.100   6.798  0.4423 -1.1613  1.7492
 3206SOL    HW221081   4.203   0.235   6.855 -0.1596 -0.1477 -0.1209
 3207SOL     OW21082   0.958   2.255   2.223  0.3958  0.3848  0.0044
 3207SOL    HW121083   0.876   2.241   2.270 -0.5209  1.7695 -1.1788
 3207SOL    HW221084   0.973   2.166   2.189  1.1453 -0.2656  2.0215
 3208SOL     OW21085   1.762   2.990   9.655  0.2085 -0.3585  0.2582
 3208SOL    HW121086   1.673   3.000   9.688  1.7887 -0.1244  4.4799
 3208SOL    HW221087   1.759   2.901   9.620  0.8755  0.5329 -2.0390
 3209SOL     OW21088   2.042   0.241   1.465 -0.1507  0.3770 -0.1013
 3209SOL    HW121089   2.043   0.243   1.369 -2.4635  3.2849 -0.0436
 3209SOL    HW221090   1.970   0.300   1.488  2.2623  2.4990  1.9750
 3210SOL     OW21091   4.504   3.536  12.387 -0.0066  0.5554  1.0432
 3210SOL    HW121092   4.442   3.564  12.319  2.7096 -0.5585 -1.8780
 3210SOL    HW221093   4.551   3.456  12.364 -0.9311  0.3881 -0.2238
 3211SOL     OW21094   1.672   2.380   9.235 -0.5778 -0.3684  0.3950
 3211SOL    HW121095   1.749   2.323   9.228 -1.2901 -1.0294 -2.2905
 3211SOL    HW221096   1.668   2.391   9.140 -0.4838  1.7500  0.6261
 3212SOL     OW21097   1.592   2.351  15.890 -0.2615 -0.1728  0.0520
 3212SOL    HW121098   1.611   2.386  15.977  1.1919 -1.1833  0.1435
 3212SOL    HW221099   1.653   2.401  15.836 -0.6038  1.2374  0.9788
 3213SOL     OW21100   0.416   1.519   4.044 -0.6228 -0.0240  0.1309
 3213SOL    HW121101   0.479   1.455   4.076 -1.2158 -1.7372 -2.0612
 3213SOL    HW221102   0.469   1.597   4.026 -0.0843 -1.0216 -2.6495
 3214SOL     OW21103   0.059   4.193   7.446 -0.5396  0.9392 -0.3004
 3214SOL    HW121104   0.143   4.219   7.481  0.5041  0.5719 -2.5018
 3214SOL    HW221105   0.008   4.209   7.525 -0.2845 -1.5122  0.3606
 3215SOL     OW21106   3.912   0.635  10.843 -0.1289  0.5800 -0.1208
 3215SOL    HW121107   4.000   0.668  10.861 -0.5340  1.2585  0.6352
 3215SOL    HW221108   3.928   0.541  10.838  0.0119  0.6113 -0.2663
 3216SOL     OW21109   4.426   3.552   7.911  0.0578  0.0075 -0.2128
 3216SOL    HW121110   4.404   3.551   8.004 -0.3022  0.4108 -0.2926
 3216SOL    HW221111   4.390   3.468   7.884 -3.5370  1.4104  0.2219
 3217SOL     OW21112   3.191   0.081   0.594  0.2077  0.0677  0.1314
 3217SOL    HW121113   3.164   0.010   0.653  3.4611 -0.5858  0.8476
 3217SOL    HW221114   3.157   0.043   0.513  0.7350 -2.5883  1.1544
 3218SOL     OW21115   3.985   3.084  16.892  0.2757  0.1957  0.4095
 3218SOL    HW121116   4.013   3.164  16.847  2.2997 -1.0067 -0.4744
 3218SOL    HW221117   4.025   3.090  16.979 -1.1164 -2.3896  1.2178
 3219SOL     OW21118   0.787   2.637   8.811 -0.1430  0.3387  0.1822
 3219SOL    HW121119   0.834   2.606   8.888  0.5594  0.7202 -0.0979
 3219SOL    HW221120   0.799   2.731   8.818 -0.5763  0.3122  1.2520
 3220SOL     OW21121   1.418   0.616   7.129  0.6224 -0.7522  0.1122
 3220SOL    HW121122   1.447   0.606   7.219  0.0396 -0.7942  0.2931
 3220SOL    HW221123   1.498   0.614   7.077  1.3464 -0.3632  1.2347
 3221SOL     OW21124   2.118   1.343   0.841  0.0305  0.1311  0.2339
 3221SOL    HW121125   2.211   1.357   0.819  0.0721 -1.9409 -0.9213
 3221SOL    HW221126   2.078   1.430   0.847 -0.5364 -0.0573 -0.7840
 3222SOL     OW21127   3.498   4.503   8.312  0.3125 -0.0240  0.1007
 3222SOL    HW121128   3.589   4.495   8.283 -0.1742  1.2360 -1.8353
 3222SOL    HW221129   3.451   4.435   8.265  0.1630  1.5188 -1.9967
 3223SOL     OW21130   3.147   2.905   9.987  0.1623  0.7286  0.5843
 3223SOL    HW121131   3.159   2.997  10.011 -0.1206  0.8999  0.0615
 3223SOL    HW221132   3.079   2.883  10.051  1.2146 -0.4364  1.2930
 3224SOL     OW21133   4.291   2.526  15.920  0.3050 -0.2239 -0.0725
 3224SOL    HW121134   4.256   2.490  16.001  1.0416  0.8538  0.7163
 3224SOL    HW221135   4.384   2.524  15.943 -0.1820  2.9130  2.1821
 3225SOL     OW21136   2.364   0.270   4.970  0.0183  0.3664 -0.1228
 3225SOL    HW121137   2.312   0.328   5.026 -0.5051 -0.9606  0.7696
 3225SOL    HW221138   2.424   0.336   4.937  1.1921  0.0764  1.4130
 3226SOL     OW21139   4.222   1.040   5.189  0.0810 -0.2393 -0.0586
 3226SOL    HW121140   4.256   1.020   5.276 -0.5024 -0.1747  0.1830
 3226SOL    HW221141   4.174   1.121   5.207 -0.0510 -0.4929  0.7221
 3227SOL     OW21142   3.344   0.388   1.336 -0.4330  0.0929  0.0781
 3227SOL    HW121143   3.283   0.461   1.341  0.5803  0.5655  5.4589
 3227SOL    HW221144   3.308   0.349   1.256 -1.2905 -1.7204  1.3440
 3228SOL     OW21145   0.624   4.566   7.595  0.1040 -0.6445  0.2531
 3228SOL    HW121146   0.619   4.580   7.500  1.3717 -0.4807  0.2097
 3228SOL    HW221147   0.657   4.651   7.626 -1.5863  0.8749 -2.0868
 3229SOL     OW21148   4.350   0.128   3.322  0.0494 -0.0296 -0.1444
 3229SOL    HW121149   4.425   0.087   3.364  0.3337 -2.1342 -2.6887
 3229SOL    HW221150   4.397   0.156   3.243 -2.9410  1.0249 -1.5489
 3230SOL     OW21151   0.984   3.616  16.109  0.3837 -0.2358  0.6049
 3230SOL    HW121152   0.920   3.664  16.161 -0.4381  0.1443 -0.7466
 3230SOL    HW221153   0.936   3.603  16.027  0.9692  0.0191  0.2236
 3231SOL     OW21154   4.692   2.599   2.647  0.6340  0.5502  0.9376
 3231SOL    HW121155   4.639   2.539   2.700  0.0013  0.4405  0.1917
 3231SOL    HW221156   0.047   2.543   2.628  1.4598  1.3449  1.9541
 3232SOL     OW21157   0.942   2.115  12.329 -0.3609 -0.1744  0.3009
 3232SOL    HW121158   0.918   2.199  12.290  0.4878  0.4998  1.2461
 3232SOL    HW221159   0.856   2.073  12.324 -0.9423  1.1033 -0.3029
 3233SOL     OW21160   2.827   3.082   3.758  0.9990 -0.3284 -0.5368
 3233SOL    HW121161   2.826   2.988   3.744 -0.8602 -0.9446  3.5868
 3233SOL    HW221162   2.736   3.103   3.779  0.6440 -1.5783 -0.8487
 3234SOL     OW21163   3.670   3.609   2.839  0.2386  0.2331  0.7288
 3234SOL    HW121164   3.742   3.601   2.776  0.1023  0.2437  0.5706
 3234SOL    HW221165   3.717   3.599   2.922 -2.6913 -0.7113  2.2606
 3235SOL     OW21166   3.568   1.914  11.310 -0.8831 -0.0012 -0.4882
 3235SOL    HW121167   3.544   1.907  11.218 -1.4176  0.1194 -0.3554
 3235SOL    HW221168   3.663   1.901  11.301 -1.1829 -1.6025 -1.3880
 3236SOL     OW21169   1.334   2.712   6.548  0.0244 -0.0710 -0.2166
 3236SOL    HW121170   1.258   2.666   6.583  0.1787 -1.6652 -1.9894
 3236SOL    HW221171   1.376   2.642   6.498  0.1546  0.8542 -1.4102
 3237SOL     OW21172   0.617   1.021   7.807  0.2273 -0.5450  0.6048
 3237SOL    HW121173   0.522   1.009   7.806 -0.1149  2.0758  0.5669
 3237SOL    HW221174   0.632   1.018   7.901  0.7533  0.0666  0.5426
 3238SOL     OW21175   1.018   4.242   3.171 -0.6370 -0.0689 -0.0190
 3238SOL    HW121176   0.991   4.260   3.081 -0.1319  1.9382  0.2341
 3238SOL    HW221177   0.933   4.247   3.215 -0.9195  1.7247 -0.7611
 3239SOL     OW21178   4.022   1.477   9.166 -0.0501  0.5103 -0.5692
 3239SOL    HW121179   3.937   1.477   9.120 -0.2803 -0.4399 -0.1350
 3239SOL    HW221180   4.043   1.569   9.152  0.1962  0.5774  0.2595
 3240SOL     OW21181   4.359   4.593   4.618 -0.0192 -0.0353  0.2298
 3240SOL    HW121182   4.376   4.594   4.524  0.9694 -0.8024  0.3992
 3240SOL    HW221183   4.394   4.678   4.643  1.9700 -0.7278 -0.2051
 3241SOL     OW21184   2.634   4.621   9.548  0.2824  0.1970 -0.3104
 3241SOL    HW121185   2.548   4.580   9.543  0.7584 -0.6145 -2.0298
 3241SOL    HW221186   2.624   4.677   9.625  0.2057 -1.9883  1.2678
 3242SOL     OW21187   2.393   2.925   2.037 -0.0516  0.1647  0.2570
 3242SOL    HW121188   2.403   2.931   1.942  0.1389  2.1814  0.4107
 3242SOL    HW221189   2.347   2.841   2.035  0.2048 -0.0213  2.0580
 3243SOL     OW21190   2.530   3.324   7.072 -0.0191  0.1456  0.2717
 3243SOL    HW121191   2.532   3.232   7.098 -1.4303  0.0893  0.1916
 3243SOL    HW221192   2.470   3.366   7.133  1.6848  1.2751  1.1407
 3244SOL     OW21193   2.453   2.041   5.740  0.0598  0.4722 -0.7524
 3244SOL    HW121194   2.440   2.134   5.754 -1.2851  0.2038 -0.1648
 3244SOL    HW221195   2.490   2.038   5.652  1.2177 -2.0001 -0.1889
 3245SOL     OW21196   0.780   3.878   6.520 -0.2797 -0.3805  0.2930
 3245SOL    HW121197   0.840   3.941   6.560 -0.2578 -1.4535  1.9837
 3245SOL    HW221198   0.821   3.843   6.441 -1.0602 -1.3719  0.3127
 3246SOL     OW21199   2.188   4.029   7.073  0.3937 -0.2085 -0.0164
 3246SOL    HW121200   2.199   4.107   7.126 -0.4937  0.1448 -0.3546
 3246SOL    HW221201   2.229   3.968   7.136  0.2532  0.5433  0.7989
 3247SOL     OW21202   0.830   0.180   0.172  0.0731 -0.0627  0.0577
 3247SOL    HW121203   0.888   0.105   0.167  0.0992  0.0555 -1.3639
 3247SOL    HW221204   0.741   0.144   0.163  0.1609 -0.5545  1.1955
 3248SOL     OW21205   3.560   2.134   3.416 -0.0332  0.1129 -0.3037
 3248SOL    HW121206   3.553   2.159   3.324 -0.7703 -0.4587 -0.4017
 3248SOL    HW221207   3.655   2.145   3.423 -0.0471  0.9756 -1.4623
 3249SOL     OW21208   1.203   1.138  10.948 -0.0524 -0.0081  0.2895
 3249SOL    HW121209   1.162   1.180  10.872  1.0568 -0.2035 -0.4225
 3249SOL    HW221210   1.297   1.132  10.928 -0.1562 -2.6998  0.6776
 3250SOL     OW21211   2.435   3.115  17.497 -0.2181  0.4368 -0.5316
 3250SOL    HW121212   2.513   3.076  17.457  0.5396 -1.2845  2.6103
 3250SOL    HW221213   2.443   3.202  17.457  3.1813  1.1388  1.6194
 3251SOL     OW21214   4.662   3.096   7.477  0.0838  0.0706 -0.5141
 3251SOL    HW121215   4.621   3.068   7.558  0.7275  3.0878  0.8443
 3251SOL    HW221216   4.655   3.191   7.483 -2.0831 -0.0498 -1.2007
 3252SOL     OW21217   4.002   2.904   2.341  0.2566 -0.7395  0.4382
 3252SOL    HW121218   3.953   2.824   2.321 -0.5576  0.3926 -2.1942
 3252SOL    HW221219   3.930   2.964   2.362  1.1553  0.3707  0.3923
 3253SOL     OW21220   3.169   3.926   0.226  0.2177  0.3002  0.6357
 3253SOL    HW121221   3.107   3.857   0.205  0.0921  0.4059  0.6582
 3253SOL    HW221222   3.253   3.883   0.210  0.0876 -0.1587  1.2295
 3254SOL     OW21223   1.476   3.342   3.701  1.0013  0.3123 -0.1335
 3254SOL    HW121224   1.392   3.297   3.688  1.9845 -1.7160  0.5845
 3254SOL    HW221225   1.446   3.433   3.702  0.9338  0.2872  0.0476
 3255SOL     OW21226   3.542   2.469   8.771  0.0923 -0.1453  0.4247
 3255SOL    HW121227   3.542   2.515   8.854 -0.2643  0.5163  0.0589
 3255SOL    HW221228   3.472   2.405   8.785  0.6237 -0.4719  1.5833
 3256SOL     OW21229   3.005   0.623   5.635  0.0018  0.4005  0.1165
 3256SOL    HW121230   3.095   0.592   5.640 -0.1762  0.0825  1.6201
 3256SOL    HW221231   3.026   0.715   5.620  2.3458 -0.2004 -0.2939
 3257SOL     OW21232   2.747   2.344   3.173 -0.6103  0.5263 -0.2428
 3257SOL    HW121233   2.829   2.329   3.222 -0.8494  0.4264  0.1289
 3257SOL    HW221234   2.690   2.378   3.242  0.0651  0.4975  0.3382
 3258SOL     OW21235   0.829   1.260   0.967  0.1840 -0.4773  0.2733
 3258SOL    HW121236   0.820   1.187   0.906  0.8789 -0.1382 -0.2447
 3258SOL    HW221237   0.745   1.304   0.962  0.3648 -0.0152  1.2703
 3259SOL     OW21238   3.452   1.977   5.940  0.1440  0.2483  0.2116
 3259SOL    HW121239   3.374   1.976   5.885  1.7542  0.4457 -2.0421
 3259SOL    HW221240   3.433   2.045   6.005 -0.0825  0.6179 -0.2442
 3260SOL     OW21241   3.799   0.392   5.582 -0.1892 -0.0901 -0.4102
 3260SOL    HW121242   3.763   0.401   5.494 -2.2094 -1.0591  0.3057
 3260SOL    HW221243   3.781   0.299   5.596 -1.8949  0.6507  2.2123
 3261SOL     OW21244   4.233   2.665  12.056  0.0126  0.5685  0.1739
 3261SOL    HW121245   4.219   2.577  12.091 -1.5879  0.4820 -0.6861
 3261SOL    HW221246   4.147   2.705  12.063 -0.4234  0.1276 -2.6010
 3262SOL     OW21247   1.949   1.498   5.787  0.0664 -0.0047  0.2043
 3262SOL    HW121248   1.930   1.585   5.751  0.8480  0.4052  0.7894
 3262SOL    HW221249   1.936   1.515   5.880  1.9974 -0.8183  0.6009
 3263SOL     OW21250   4.162   4.193   7.753 -0.3743 -0.2913 -0.0372
 3263SOL    HW121251   4.147   4.274   7.705  0.7723  0.7413  1.3587
 3263SOL    HW221252   4.256   4.174   7.753  0.1383  2.3613  1.1791
 3264SOL     OW21253   3.329   0.556   7.907 -0.8647  0.4217 -0.2802
 3264SOL    HW121254   3.368   0.488   7.962 -0.3428 -0.1786 -1.3923
 3264SOL    HW221255   3.403   0.578   7.851  0.0358  0.2963  0.8720
 3265SOL     OW21256   0.226   2.938   1.210 -0.2570 -0.0140 -0.1336
 3265SOL    HW121257   0.250   2.915   1.120 -1.9837  0.8308 -0.8238
 3265SOL    HW221258   0.209   2.853   1.250 -0.2264 -1.5641 -3.3537
 3266SOL     OW21259   2.572   1.653   6.219 -0.6667  0.0071  0.4234
 3266SOL    HW121260   2.543   1.692   6.302 -1.8452  2.5533 -1.1623
 3266SOL    HW221261   2.504   1.680   6.156  0.3849  0.5453 -0.4839
 3267SOL     OW21262   1.182   0.061   3.132  0.0074  0.4155 -0.4743
 3267SOL    HW121263   1.117   4.716   3.105  1.4594 -0.3881 -1.9888
 3267SOL    HW221264   1.119   0.132   3.118  0.5264  1.1684  0.9599
 3268SOL     OW21265   0.224   3.414   5.084  0.7823  0.4656 -0.4530
 3268SOL    HW121266   0.215   3.459   5.001  1.3821 -1.3950 -1.5209
 3268SOL    HW221267   0.256   3.479   5.147 -0.3523  1.7042 -1.1498
 3269SOL     OW21268   0.472   0.642  12.558 -0.3992  0.4394  0.6966
 3269SOL    HW121269   0.475   0.719  12.501  1.0199  0.1919  0.4315
 3269SOL    HW221270   0.563   0.612  12.563 -0.4038  0.6261  1.9787
 3270SOL     OW21271   3.645   0.621   5.655 -0.0852 -0.1716  0.1458
 3270SOL    HW121272   3.703   0.549   5.680 -0.2511 -0.6523 -0.8582
 3270SOL    HW221273   3.701   0.699   5.656  1.2049 -1.1221  2.7062
 3271SOL     OW21274   3.168   4.699   3.851 -0.1641 -0.1452 -0.1502
 3271SOL    HW121275   3.240   0.035   3.825 -1.2045  1.3389  0.1976
 3271SOL    HW221276   3.104   0.006   3.786  0.8567  3.5785  0.4667
 3272SOL     OW21277   2.584   2.494   1.876  0.3673 -0.4227  0.2992
 3272SOL    HW121278   2.524   2.422   1.897 -0.4817  1.4542  4.3556
 3272SOL    HW221279   2.667   2.453   1.900  1.5251  1.3422 -0.7176
 3273SOL     OW21280   1.003   1.788   2.821  0.1972  0.2841 -0.8959
 3273SOL    HW121281   1.058   1.728   2.771  1.4219  0.9249 -0.3218
 3273SOL    HW221282   1.068   1.829   2.878 -0.8577  0.4182  0.2080
 3274SOL     OW21283   3.719   1.511   2.453  0.0481 -0.5801 -0.3838
 3274SOL    HW121284   3.712   1.479   2.543 -1.3722 -0.2814 -0.3933
 3274SOL    HW221285   3.764   1.592   2.478 -1.1296 -1.2353  3.9083
 3275SOL     OW21286   4.708   4.143   2.915 -0.0502  0.7553 -0.2044
 3275SOL    HW121287   0.034   4.193   2.848 -1.7928  1.4922 -0.8593
 3275SOL    HW221288   4.631   4.197   2.934  0.0554  1.4977 -1.9338
 3276SOL     OW21289   3.352   0.153   7.745  0.1091 -0.2270  0.9352
 3276SOL    HW121290   3.322   0.225   7.690  0.6902 -1.4504 -1.0066
 3276SOL    HW221291   3.279   0.091   7.741 -0.0871  0.1121 -0.8406
 3277SOL     OW21292   3.089   2.678   5.626  0.1796  0.1433  0.4457
 3277SOL    HW121293   3.134   2.598   5.652 -0.2667 -0.3265 -0.2327
 3277SOL    HW221294   3.156   2.740   5.655 -0.3363  0.7603  0.3308
 3278SOL     OW21295   2.050   1.805   8.732  0.2409  0.3735  0.5456
 3278SOL    HW121296   1.978   1.742   8.735  0.2799  0.3496  0.9877
 3278SOL    HW221297   2.096   1.769   8.656  1.2776  2.4808  0.1791
 3279SOL     OW21298   1.852   1.027   4.683 -0.0815 -0.2016 -0.2544
 3279SOL    HW121299   1.937   1.016   4.642  0.0180  0.4650 -0.2284
 3279SOL    HW221300   1.803   0.956   4.641  0.1105  0.3948 -1.5071
 3280SOL     OW21301   3.654   4.630  13.539  0.0907 -0.1004 -0.0752
 3280SOL    HW121302   3.652   4.632  13.443 -0.0236  2.1716 -0.0432
 3280SOL    HW221303   3.746   4.647  13.558 -0.0687  0.0801  0.5435
 3281SOL     OW21304   1.465   2.770   8.612  0.4214 -0.0974  0.0978
 3281SOL    HW121305   1.521   2.834   8.568  0.0941 -1.9868 -3.0711
 3281SOL    HW221306   1.427   2.822   8.683  1.2427  2.1357 -1.0722
 3282SOL     OW21307   4.013   2.214   3.699  0.5667 -0.4534 -0.2032
 3282SOL    HW121308   3.951   2.234   3.629 -0.2202  1.1357  0.9600
 3282SOL    HW221309   4.065   2.144   3.658 -1.0123 -0.4321 -2.2842
 3283SOL     OW21310   3.935   1.394   8.350  0.4174  0.0001  0.4149
 3283SOL    HW121311   4.016   1.444   8.341  0.3474 -0.0407 -0.4684
 3283SOL    HW221312   3.969   1.313   8.388 -1.2509 -1.9180 -2.1884
 3284SOL     OW21313   0.742   1.744  13.720 -0.4213  0.7132  0.5840
 3284SOL    HW121314   0.711   1.762  13.809  0.4238 -0.3898  1.1012
 3284SOL    HW221315   0.819   1.800  13.735  1.4263 -0.8751 -3.0191
 3285SOL     OW21316   2.633   1.124  17.274 -0.4487  0.2242  0.7836
 3285SOL    HW121317   2.647   1.200  17.331  2.4451 -0.2799  0.7348
 3285SOL    HW221318   2.542   1.101  17.288 -0.1617  0.1284  2.4151
 3286SOL     OW21319   0.206   1.173   6.314 -0.8345  0.1091  0.6139
 3286SOL    HW121320   0.171   1.261   6.331 -1.2661  0.1567 -0.5250
 3286SOL    HW221321   0.237   1.142   6.399 -3.7672 -1.0777  1.2763
 3287SOL     OW21322   2.133   0.840   5.155 -0.4178 -0.5150  0.2074
 3287SOL    HW121323   2.217   0.879   5.180 -0.3439 -1.0768  0.8215
 3287SOL    HW221324   2.085   0.875   5.230 -0.9322  2.2758 -1.4199
 3288SOL     OW21325   2.470   2.854   2.671  0.0109 -0.4747 -0.3999
 3288SOL    HW121326   2.375   2.864   2.666  0.0530  0.8900  1.5239
 3288SOL    HW221327   2.495   2.872   2.580 -1.3726 -0.6526 -0.8199
 3289SOL     OW21328   4.587   0.145   9.975 -0.4178 -0.2278  0.0775
 3289SOL    HW121329   4.656   0.209   9.954 -2.3481  1.1168 -2.2264
 3289SOL    HW221330   4.514   0.195   9.938 -0.0791 -0.1089 -0.4308
 3290SOL     OW21331   3.389   1.851  16.399 -0.2809  0.0407 -0.1617
 3290SOL    HW121332   3.419   1.939  16.380  0.5277  0.3276  2.5704
 3290SOL    HW221333   3.330   1.835  16.325 -0.3613 -0.4472  0.0037
 3291SOL     OW21334   2.239   4.611   2.671  0.2674 -0.1253  0.1181
 3291SOL    HW121335   2.308   4.550   2.644  1.7545 -0.1410  3.9187
 3291SOL    HW221336   2.263   4.674   2.603 -0.0080 -0.2314 -0.0724
 3292SOL     OW21337   4.341   1.831  17.665  0.0908 -0.2890  0.3603
 3292SOL    HW121338   4.254   1.832   0.020 -1.0510  2.9696 -2.1631
 3292SOL    HW221339   4.358   1.737  17.675 -3.8508 -1.1647 -1.2418
 3293SOL     OW21340   0.401   0.768   7.742  0.3164  0.0633  0.4522
 3293SOL    HW121341   0.348   0.715   7.682  1.3359 -1.9084  1.2758
 3293SOL    HW221342   0.414   0.709   7.816 -2.0348 -2.4340 -1.1042
 3294SOL     OW21343   0.065   1.914   8.818 -0.0619  0.4055 -0.1485
 3294SOL    HW121344   0.142   1.875   8.860 -0.6441  0.0368  0.5737
 3294SOL    HW221345   0.022   1.947   8.897  2.6450  0.7691  1.1714
 3295SOL     OW21346   1.463   4.592   5.822 -0.7857  0.3013 -0.1810
 3295SOL    HW121347   1.427   4.678   5.845 -0.8986  0.3073 -0.3787
 3295SOL    HW221348   1.523   4.615   5.751  1.1693  1.4834  1.8486
 3296SOL     OW21349   0.917   1.496   6.766  0.2808  0.5216  0.1538
 3296SOL    HW121350   0.960   1.517   6.683  1.0866 -0.7887  0.2473
 3296SOL    HW221351   0.994   1.497   6.822 -0.5723 -2.3687  1.3772
 3297SOL     OW21352   4.021   0.697  11.491 -0.1568  0.4661 -0.0327
 3297SOL    HW121353   3.940   0.663  11.453  0.5778 -0.4870 -0.7607
 3297SOL    HW221354   4.049   0.753  11.419  1.0024 -0.2601 -0.1608
 3298SOL     OW21355   4.117   2.585   9.682 -0.2318 -0.0919 -0.3837
 3298SOL    HW121356   4.206   2.618   9.696 -1.3737  2.0793  1.6754
 3298SOL    HW221357   4.103   2.603   9.589 -1.9175  3.2771  0.5127
 3299SOL     OW21358   3.731   3.624   4.985 -0.2616  0.4067 -0.2623
 3299SOL    HW121359   3.774   3.708   4.972  0.6658 -0.0441 -0.0673
 3299SOL    HW221360   3.725   3.622   5.081 -0.3981  2.3654 -0.2230
 3300SOL     OW21361   3.401   2.726  16.576  0.3843  0.0999 -1.3493
 3300SOL    HW121362   3.367   2.790  16.513 -0.5011 -0.4368 -1.4203
 3300SOL    HW221363   3.493   2.751  16.581  0.7212 -1.3307 -0.3468
 3301SOL     OW21364   3.039   3.733   7.040 -0.2142 -0.2850 -0.1249
 3301SOL    HW121365   2.974   3.745   6.971 -0.8707  1.0472  0.7254
 3301SOL    HW221366   3.099   3.807   7.030  1.0549 -1.4562 -1.2528
 3302SOL     OW21367   1.281   2.403  10.409  0.0722 -0.1037  0.2018
 3302SOL    HW121368   1.324   2.333  10.458 -1.2994 -0.9036  0.2469
 3302SOL    HW221369   1.349   2.419  10.343 -0.1033  1.8589  0.4980
 3303SOL     OW21370   3.125   3.007   6.197  0.7178 -0.5255  0.0341
 3303SOL    HW121371   3.189   3.019   6.127 -0.8073 -0.0074 -1.2760
 3303SOL    HW221372   3.098   3.097   6.213  0.0041 -0.6864 -0.2574
 3304SOL     OW21373   0.481   2.690  11.376  0.1468  0.5556 -0.1374
 3304SOL    HW121374   0.480   2.690  11.471 -1.3392  0.6256 -0.1523
 3304SOL    HW221375   0.443   2.775  11.357  0.2449  1.1141  2.1863
 3305SOL     OW21376   4.339   4.062   6.857  0.0004  0.5633 -0.1762
 3305SOL    HW121377   4.275   4.130   6.835 -0.0575  0.5625 -0.0132
 3305SOL    HW221378   4.421   4.102   6.827  0.5745  0.1072  0.7792
 3306SOL     OW21379   1.358   2.398   2.890  0.6033 -0.0498 -0.2775
 3306SOL    HW121380   1.366   2.315   2.843 -0.3030 -0.4198  0.2354
 3306SOL    HW221381   1.317   2.451   2.821  0.6040  0.0517 -0.2008
 3307SOL     OW21382   1.657   3.225   2.162 -0.0435  0.4775 -0.2433
 3307SOL    HW121383   1.730   3.192   2.111 -1.3878 -1.2861 -1.0206
 3307SOL    HW221384   1.632   3.159   2.226  0.1497 -1.1518 -1.8645
 3308SOL     OW21385   1.785   1.084  11.323 -0.2878  0.2471  0.2007
 3308SOL    HW121386   1.800   1.047  11.410  1.0396 -2.3490 -1.1249
 3308SOL    HW221387   1.853   1.151  11.319  1.8596 -1.9523 -0.6886
 3309SOL     OW21388   1.720   0.954   1.366  0.0251 -0.4395 -0.1378
 3309SOL    HW121389   1.704   0.968   1.273 -0.4879 -0.6372 -0.0818
 3309SOL    HW221390   1.755   1.041   1.385  3.4024 -1.7059 -0.5747
 3310SOL     OW21391   1.117   2.010   0.334  0.4730 -0.2779  0.0840
 3310SOL    HW121392   1.122   2.080   0.399 -1.0238  0.2097 -0.3475
 3310SOL    HW221393   1.023   1.993   0.342  0.2924  0.9827  0.6269
 3311SOL     OW21394   3.328   2.096   7.300  0.2690 -0.7083  0.6273
 3311SOL    HW121395   3.372   2.165   7.251  2.0658 -3.0949 -1.0569
 3311SOL    HW221396   3.242   2.103   7.258  0.0340  0.2304  1.2464
 3312SOL     OW21397   2.639   3.655   2.357  0.4930  0.0605  0.8904
 3312SOL    HW121398   2.636   3.748   2.376  1.0589  0.5758 -1.5165
 3312SOL    HW221399   2.731   3.644   2.333  0.4136 -0.5509  0.8684
 3313SOL     OW21400   3.130   2.105   2.382  0.4609 -0.0134 -0.2444
 3313SOL    HW121401   3.167   2.086   2.469 -1.3213  1.5367  0.8704
 3313SOL    HW221402   3.203   2.097   2.321  1.5374  0.4492  0.9581
 3314SOL     OW21403   1.189   1.054  13.037  0.1287 -0.1064  0.4947
 3314SOL    HW121404   1.195   1.150  13.037 -1.0146 -0.0444 -3.6232
 3314SOL    HW221405   1.109   1.043  12.986  1.3859  2.6864 -2.0784
 3315SOL     OW21406   3.097   4.360  14.806  0.1683 -0.3538 -0.1936
 3315SOL    HW121407   3.178   4.361  14.755  0.2671  0.9853 -0.0140
 3315SOL    HW221408   3.038   4.333  14.736 -1.1754 -1.3035  1.3158
 3316SOL     OW21409   1.265   0.106   0.283 -0.5150  0.6617 -0.0357
 3316SOL    HW121410   1.343   0.097   0.339 -2.3196 -0.6170  2.2654
 3316SOL    HW221411   1.302   0.131   0.199 -0.7831  0.7589 -0.1224
 3317SOL     OW21412   1.328   3.076   2.153 -0.6343 -0.3008 -0.1076
 3317SOL    HW121413   1.329   2.982   2.174  0.2635 -0.2032  0.2782
 3317SOL    HW221414   1.390   3.114   2.214 -0.9065 -0.2434  0.1329
 3318SOL     OW21415   3.252   4.023   5.800 -0.0730 -0.3710  0.4811
 3318SOL    HW121416   3.335   3.975   5.808  0.4175  0.6058  1.2262
 3318SOL    HW221417   3.194   3.948   5.813  1.0383 -1.5194 -1.1274
 3319SOL     OW21418   0.095   3.820   4.073 -0.0846  0.4789  0.1562
 3319SOL    HW121419   0.020   3.813   4.014  0.1772 -1.0063 -0.0014
 3319SOL    HW221420   0.154   3.863   4.012 -0.4233  2.2215  1.0700
 3320SOL     OW21421   0.840   2.037   0.383 -0.5860  0.3419 -0.1921
 3320SOL    HW121422   0.746   2.047   0.369 -1.1276 -2.4467  1.3145
 3320SOL    HW221423   0.864   2.127   0.362  0.0181  0.0908 -0.5639
 3321SOL     OW21424   4.486   0.885   4.773  0.2276  0.1412  0.0594
 3321SOL    HW121425   4.458   0.794   4.785 -1.3607  0.6426  0.1871
 3321SOL    HW221426   4.447   0.935   4.845 -2.0213  0.0600 -1.0941
 3322SOL     OW21427   1.967   2.369   5.163 -0.6123 -0.1479 -0.3835
 3322SOL    HW121428   1.930   2.454   5.143 -0.5735 -0.0370  0.0075
 3322SOL    HW221429   1.921   2.360   5.246  2.0079 -0.4653  1.0576
 3323SOL     OW21430   4.254   2.241  11.954 -0.0917  0.0796 -0.5472
 3323SOL    HW121431   4.201   2.253  11.875  0.8234  2.5763 -0.7767
 3323SOL    HW221432   4.226   2.317  12.005 -1.1153 -0.3667 -0.4410
 3324SOL     OW21433   3.016   2.569   8.895 -0.1451  0.0417  0.0661
 3324SOL    HW121434   2.931   2.596   8.860  0.7349  1.3737 -1.0578
 3324SOL    HW221435   3.022   2.628   8.971 -1.3112  0.7159 -0.3694
 3325SOL     OW21436   1.753   3.008   4.514 -0.1827  0.1004 -0.6839
 3325SOL    HW121437   1.784   2.930   4.560 -1.4893 -1.6837 -2.9010
 3325SOL    HW221438   1.669   3.021   4.558  1.0815  2.5191  1.0792
 3326SOL     OW21439   4.027   0.229   2.638  0.6120  0.1655  0.1371
 3326SOL    HW121440   4.017   0.163   2.570  0.0122  1.0281 -0.6235
 3326SOL    HW221441   4.121   0.233   2.650  0.8356 -0.6866 -1.3475
 3327SOL     OW21442   4.696   0.515  11.202  0.2235 -0.1637  1.2487
 3327SOL    HW121443   4.677   0.600  11.242 -1.2639  0.0734  0.0274
 3327SOL    HW221444   0.069   0.505  11.217  0.6006  0.7204 -0.5865
 3328SOL     OW21445   0.748   1.486   7.068 -0.4614  0.2903 -0.1299
 3328SOL    HW121446   0.723   1.442   7.149 -2.4229 -0.7953 -1.3142
 3328SOL    HW221447   0.841   1.490   7.087 -0.5191  0.7809  0.0529
 3329SOL     OW21448   2.428   0.838   5.714 -0.0810 -0.3664  0.3481
 3329SOL    HW121449   2.482   0.759   5.707  0.4867  0.1371 -0.8664
 3329SOL    HW221450   2.476   0.893   5.777 -0.3871 -0.3209  0.5404
 3330SOL     OW21451   3.086   0.630  15.434  0.2170 -0.8182 -0.7773
 3330SOL    HW121452   3.051   0.575  15.503  1.3442  1.3219  1.4842
 3330SOL    HW221453   3.179   0.633  15.455 -0.4219  0.7753  1.7707
 3331SOL     OW21454   1.386   1.235   1.270 -0.0812  0.4800 -0.1732
 3331SOL    HW121455   1.440   1.269   1.199 -0.5791  1.8033  0.0875
 3331SOL    HW221456   1.375   1.146   1.237  1.8095  0.7556 -1.5358
 3332SOL     OW21457   0.769   1.753   4.547  0.4921  0.1324 -0.2820
 3332SOL    HW121458   0.701   1.757   4.479 -2.2312  2.7276  2.6162
 3332SOL    HW221459   0.745   1.673   4.593  1.1057 -1.0852 -2.0649
 3333SOL     OW21460   0.177   2.742   3.102 -0.0391 -0.1131 -0.6905
 3333SOL    HW121461   0.231   2.775   3.174 -0.5276  0.1894 -0.4620
 3333SOL    HW221462   0.241   2.736   3.031 -1.6741 -0.7609 -2.1161
 3334SOL     OW21463   3.636   0.615   3.611  0.0439  0.0839  0.0461
 3334SOL    HW121464   3.730   0.620   3.630  0.2281  2.3893 -1.5491
 3334SOL    HW221465   3.617   0.523   3.590 -2.5867  0.9481 -1.3430
 3335SOL     OW21466   0.624   4.012   1.993  0.0272  0.2996  0.0049
 3335SOL    HW121467   0.644   4.003   1.899 -2.1047  0.5798 -0.4657
 3335SOL    HW221468   0.602   4.103   2.010  1.4536  0.5792  0.3905
 3336SOL     OW21469   2.706   0.097   7.094  0.0973 -0.0505 -0.0384
 3336SOL    HW121470   2.725   0.005   7.112  1.3845  0.8102  3.0198
 3336SOL    HW221471   2.649   0.113   7.169 -1.9215 -0.2626 -1.5433
 3337SOL     OW21472   1.136   0.765   6.721 -0.2535  0.1770 -0.6657
 3337SOL    HW121473   1.197   0.697   6.749  1.4763  2.1761  0.4474
 3337SOL    HW221474   1.196   0.822   6.674 -0.2645 -0.5102 -1.4995
 3338SOL     OW21475   0.968   3.379   8.416 -0.2849  0.0448 -0.1361
 3338SOL    HW121476   1.020   3.359   8.494  2.0259  0.7880 -1.4857
 3338SOL    HW221477   0.969   3.294   8.371  0.7753 -0.4759  0.8820
 3339SOL     OW21478   2.310   2.583   5.145 -0.1203  0.2379 -0.0456
 3339SOL    HW121479   2.282   2.659   5.196 -0.7119 -0.5580  0.8201
 3339SOL    HW221480   2.330   2.526   5.219  0.0655 -1.1912 -1.2034
 3340SOL     OW21481   3.522   3.963   0.283 -0.0238 -0.1318 -0.7214
 3340SOL    HW121482   3.496   4.055   0.294 -3.3360 -1.3413  1.6027
 3340SOL    HW221483   3.491   3.947   0.194 -1.9138  0.3495 -0.1682
 3341SOL     OW21484   1.154   4.213  16.333 -0.4397 -0.5039  0.2932
 3341SOL    HW121485   1.097   4.286  16.357  3.0010  2.3587 -0.3599
 3341SOL    HW221486   1.094   4.145  16.364  0.8989 -1.7269  0.1931
 3342SOL     OW21487   0.667   0.483   5.733 -0.3325 -0.3689  0.0341
 3342SOL    HW121488   0.636   0.412   5.788 -1.5875  0.2091  0.0816
 3342SOL    HW221489   0.759   0.485   5.757 -0.5231  0.0006  0.7447
 3343SOL     OW21490   1.766   1.586  11.120  0.0126 -0.6826 -0.1735
 3343SOL    HW121491   1.785   1.580  11.026 -1.4214  1.1595 -0.5776
 3343SOL    HW221492   1.786   1.494  11.138  1.9208 -0.4594 -1.1566
 3344SOL     OW21493   4.119   0.284   6.018  0.5186  0.0688 -0.2197
 3344SOL    HW121494   4.138   0.369   6.059  0.9455 -0.9287  1.6514
 3344SOL    HW221495   4.085   0.311   5.933  1.4059  0.3358 -0.4790
 3345SOL     OW21496   3.852   4.598   8.813 -0.0573  0.4668  0.0134
 3345SOL    HW121497   3.942   4.566   8.823 -0.6891 -1.1247  0.7149
 3345SOL    HW221498   3.816   4.585   8.901  0.9638  0.4025  0.4206
 3346SOL     OW21499   0.266   0.544   3.072  0.1408 -0.5492  0.1305
 3346SOL    HW121500   0.205   0.606   3.032 -0.4189  0.1906  2.1079
 3346SOL    HW221501   0.220   0.465   3.043 -2.1298  1.2883 -1.3139
 3347SOL     OW21502   0.694   3.955  10.860  0.2775 -0.2400 -0.1260
 3347SOL    HW121503   0.626   3.889  10.869 -1.5268  1.6306  0.0130
 3347SOL    HW221504   0.655   4.041  10.874 -0.4076 -0.1203 -2.6173
 3348SOL     OW21505   2.959   2.655  11.719 -0.0463  0.1188  0.1934
 3348SOL    HW121506   2.947   2.703  11.801  2.7718  0.5636  0.3400
 3348SOL    HW221507   3.039   2.604  11.731  0.2053  0.9859  2.1738
 3349SOL     OW21508   4.234   0.381   3.028 -0.5501 -0.1548  0.7843
 3349SOL    HW121509   4.168   0.313   3.025 -0.3743 -0.2865 -0.3225
 3349SOL    HW221510   4.231   0.404   2.935 -1.0352  0.0737  0.8538
 3350SOL     OW21511   1.521   2.237  17.089  0.0478  0.1404  0.2327
 3350SOL    HW121512   1.502   2.144  17.105 -0.7613  0.1372 -0.6983
 3350SOL    HW221513   1.598   2.233  17.033 -0.4611  2.0842 -0.5871
 3351SOL     OW21514   3.238   0.401  12.726 -0.5534 -0.4533  0.4998
 3351SOL    HW121515   3.220   0.334  12.660  0.8387  1.8701 -2.1681
 3351SOL    HW221516   3.328   0.376  12.747 -0.5419  0.1591  1.1792
 3352SOL     OW21517   4.526   1.112   0.078 -0.2008 -0.1747  0.4657
 3352SOL    HW121518   4.465   1.182   0.102  4.1637  2.8181  2.8017
 3352SOL    HW221519   4.577   1.103   0.158 -1.5467  2.7223  1.6730
 3353SOL     OW21520   1.258   0.846   6.448  0.5471  0.6746  0.7126
 3353SOL    HW121521   1.201   0.922   6.461 -3.2382 -1.6965 -2.0899
 3353SOL    HW221522   1.323   0.882   6.388  1.5111 -1.8913  0.1979
 3354SOL     OW21523   1.526   0.915   0.577 -0.0259  0.0276  0.1023
 3354SOL    HW121524   1.461   0.982   0.599  0.5415  0.5830  0.0859
 3354SOL    HW221525   1.566   0.953   0.499 -0.8053 -0.0389 -0.3354
 3355SOL     OW21526   1.910   0.119   2.862 -0.0942 -0.3552 -0.2852
 3355SOL    HW121527   1.852   0.110   2.938 -0.5255  0.4258 -0.5256
 3355SOL    HW221528   1.974   0.050   2.879 -0.9595 -1.3779 -1.1248
 3356SOL     OW21529   2.015   4.314  16.715  0.0281  0.3779 -0.1175
 3356SOL    HW121530   1.928   4.275  16.729  0.5892 -0.4695  1.0437
 3356SOL    HW221531   2.026   4.281  16.626 -1.2416  1.0557 -0.5135
 3357SOL     OW21532   3.047   0.359   8.957 -0.0677 -0.4379  0.3515
 3357SOL    HW121533   3.126   0.309   8.941 -0.2779 -0.5363 -0.4187
 3357SOL    HW221534   2.981   0.310   8.908 -1.6016  2.1928 -0.2410
 3358SOL     OW21535   1.852   1.059  11.578  1.1973 -0.1335  0.4544
 3358SOL    HW121536   1.925   1.014  11.620 -1.3087 -3.9688  0.7722
 3358SOL    HW221537   1.854   1.145  11.618  0.8490 -0.9460  2.2332
 3359SOL     OW21538   0.361   4.416   7.393  0.3136 -0.4888 -0.4240
 3359SOL    HW121539   0.412   4.463   7.459 -2.1345  0.0228  1.1035
 3359SOL    HW221540   0.420   4.408   7.318 -1.7423  1.0568 -2.2097
 3360SOL     OW21541   4.286   2.004   6.910 -0.1747  0.2005  0.1696
 3360SOL    HW121542   4.236   2.032   6.987 -1.8306 -1.7978 -0.1560
 3360SOL    HW221543   4.244   1.920   6.892  1.4796 -0.3780 -0.9894
 3361SOL     OW21544   2.640   2.792   3.895  0.3001  0.4763 -0.0316
 3361SOL    HW121545   2.549   2.781   3.921  1.1097 -2.7924  1.5157
 3361SOL    HW221546   2.686   2.774   3.977  1.0643 -0.1780 -0.6085
 3362SOL     OW21547   2.235   0.185  13.145 -0.1480  0.0572 -0.3163
 3362SOL    HW121548   2.241   0.271  13.104 -2.4632  0.7816  0.8873
 3362SOL    HW221549   2.307   0.133  13.108 -0.3903  0.4101 -1.2832
 3363SOL     OW21550   1.962   3.628   5.916 -0.4472 -0.3993 -0.2586
 3363SOL    HW121551   2.051   3.634   5.952 -0.1628 -0.3556 -0.9592
 3363SOL    HW221552   1.978   3.566   5.845  0.2683  0.0854 -0.5247
 3364SOL     OW21553   1.985   1.435   6.997  0.7046 -0.0840 -0.1722
 3364SOL    HW121554   1.985   1.361   7.058 -0.0515  0.9657  1.0986
 3364SOL    HW221555   1.937   1.393   6.926  2.6009 -1.1896 -0.8118
 3365SOL     OW21556   2.814   1.933  13.105 -0.1506 -0.1155  0.0700
 3365SOL    HW121557   2.729   1.954  13.144  0.2391 -0.0211  0.8695
 3365SOL    HW221558   2.822   1.839  13.119  0.6550 -0.1097 -0.3658
 3366SOL     OW21559   4.480   3.260  11.895  0.0292  0.0401 -0.8372
 3366SOL    HW121560   4.516   3.322  11.959 -0.3200  0.2195 -0.8192
 3366SOL    HW221561   4.553   3.245  11.835 -0.6553 -1.1485 -1.3710
 3367SOL     OW21562   1.031   4.300  10.179  0.3761  0.3099 -0.4563
 3367SOL    HW121563   0.993   4.385  10.203  0.0923  0.2022 -0.5173
 3367SOL    HW221564   1.122   4.328  10.181  0.8765 -1.3415 -0.4913
 3368SOL     OW21565   0.876   1.635  11.210  0.0075  0.0924 -0.6780
 3368SOL    HW121566   0.891   1.712  11.263 -0.3817 -2.0762  2.5832
 3368SOL    HW221567   0.791   1.608  11.245  0.0102 -1.3139 -1.7298
 3369SOL     OW21568   1.392   0.583  10.687 -0.1238  0.2972 -0.3843
 3369SOL    HW121569   1.307   0.619  10.714 -0.4033 -1.4106  1.0336
 3369SOL    HW221570   1.414   0.517  10.752 -0.5051 -0.0282 -0.5895
 3370SOL     OW21571   0.175   2.970   5.837  0.3987 -0.0144  0.0150
 3370SOL    HW121572   0.239   2.999   5.903 -0.9369  0.2872  1.1828
 3370SOL    HW221573   0.108   2.927   5.890  0.0607 -0.4838 -0.7970
 3371SOL     OW21574   4.589   1.362   3.623 -0.7355  0.2991 -0.0926
 3371SOL    HW121575   4.539   1.326   3.696  1.4899 -1.8953  0.3288
 3371SOL    HW221576   4.585   1.457   3.635  0.5306  0.2135  1.0553
 3372SOL     OW21577   0.693   2.869   5.782 -0.2523  0.0545 -0.4200
 3372SOL    HW121578   0.732   2.782   5.795  3.7434  2.0812  1.2078
 3372SOL    HW221579   0.605   2.848   5.748 -0.4641 -0.9709  0.7536
 3373SOL     OW21580   4.312   3.976   1.048  0.6443  0.0770  1.1044
 3373SOL    HW121581   4.266   4.040   0.994  1.1117 -0.6399 -0.1568
 3373SOL    HW221582   4.277   3.904   0.996  1.4932  0.2270  0.3191
 3374SOL     OW21583   2.057   2.678  15.303  0.4301 -0.1187  0.3105
 3374SOL    HW121584   1.974   2.669  15.256  1.5620  1.1178 -1.9463
 3374SOL    HW221585   2.097   2.751  15.256 -1.9938  1.1954  0.2667
 3375SOL     OW21586   0.240   4.651   5.903  0.1150 -0.4260  0.7359
 3375SOL    HW121587   0.167   4.709   5.927 -1.4325 -2.4055  0.8212
 3375SOL    HW221588   0.281   4.675   5.820 -0.0470  0.2692  0.8546
 3376SOL     OW21589   1.802   4.542   5.353 -0.1534  0.3953  0.2005
 3376SOL    HW121590   1.788   4.637   5.347 -2.0682  0.0396 -1.1520
 3376SOL    HW221591   1.891   4.533   5.386  0.9785  1.0804 -2.6444
 3377SOL     OW21592   4.467   3.837   2.187  0.8344 -0.1388  0.1460
 3377SOL    HW121593   4.499   3.776   2.253  1.2365  0.6140  0.6360
 3377SOL    HW221594   4.418   3.903   2.236 -0.0046 -0.4699 -0.2323
 3378SOL     OW21595   0.232   4.058   7.831 -0.2547 -0.4509  0.2611
 3378SOL    HW121596   0.189   4.073   7.915 -0.6710  0.6781 -0.1431
 3378SOL    HW221597   0.196   4.122   7.769 -1.7069 -0.4609  1.0996
 3379SOL     OW21598   1.768   1.284  15.615 -0.6752 -0.1260  0.6984
 3379SOL    HW121599   1.759   1.276  15.710  0.2269  2.0131  0.9752
 3379SOL    HW221600   1.861   1.264  15.604 -0.8835  0.5619 -2.2176
 3380SOL     OW21601   2.609   2.119   8.562  0.4224 -0.5971  0.6026
 3380SOL    HW121602   2.658   2.187   8.607 -0.1646 -0.0798  0.4514
 3380SOL    HW221603   2.558   2.084   8.635  2.7765 -2.0482  1.5423
 3381SOL     OW21604   2.466   1.691  16.869  0.9081 -0.2025  0.0267
 3381SOL    HW121605   2.386   1.675  16.819 -0.7915 -0.4446  2.8452
 3381SOL    HW221606   2.484   1.783  16.847  0.4439 -0.3915 -1.1360
 3382SOL     OW21607   3.592   3.917  14.701 -0.0782  0.1940 -0.4492
 3382SOL    HW121608   3.562   3.860  14.630 -1.0905 -0.9853  0.9197
 3382SOL    HW221609   3.510   3.945  14.741  1.1805  1.5895  1.1448
 3383SOL     OW21610   4.518   1.979   7.476 -0.8739  0.2803  0.2624
 3383SOL    HW121611   4.478   1.900   7.438  1.9556 -2.5384  3.1113
 3383SOL    HW221612   4.563   1.945   7.553 -1.0007  0.2739  0.3347
 3384SOL     OW21613   2.298   2.570   4.867 -0.4959 -0.1806 -0.0126
 3384SOL    HW121614   2.294   2.572   4.963 -0.3438 -2.4559  0.0321
 3384SOL    HW221615   2.227   2.508   4.853  0.6229 -1.2375 -1.0008
 3385SOL     OW21616   3.904   1.536  10.878  1.0018 -0.0341  0.1175
 3385SOL    HW121617   3.952   1.511  10.799  0.7905  1.7678 -0.5795
 3385SOL    HW221618   3.887   1.447  10.910 -1.5724  0.3002 -0.3427
 3386SOL     OW21619   1.522   1.112  13.740 -0.1082  0.2211  0.3328
 3386SOL    HW121620   1.426   1.106  13.738 -0.0764 -1.3404  2.8089
 3386SOL    HW221621   1.554   1.056  13.669 -2.0619 -1.2157  0.5815
 3387SOL     OW21622   1.199   2.929   7.757 -0.1115  0.8078 -0.2064
 3387SOL    HW121623   1.203   3.017   7.719  0.4751  0.6599 -0.4873
 3387SOL    HW221624   1.270   2.938   7.820 -1.1359 -2.3049  1.3596
 3388SOL     OW21625   1.935   3.789   0.939  0.1490  0.3032 -0.1834
 3388SOL    HW121626   1.840   3.793   0.949  0.2762  1.6217  0.4801
 3388SOL    HW221627   1.957   3.742   1.020  0.7024  0.0356 -0.4838
 3389SOL     OW21628   2.412   3.651   5.819 -0.1362 -0.9491 -0.4099
 3389SOL    HW121629   2.402   3.745   5.837  0.4630 -0.7517 -1.1297
 3389SOL    HW221630   2.355   3.644   5.742  1.6672 -0.7018 -1.7441
 3390SOL     OW21631   3.663   0.186  11.560 -0.0612 -0.0300 -0.0894
 3390SOL    HW121632   3.677   0.242  11.637  0.5092  0.4887 -0.5713
 3390SOL    HW221633   3.592   0.128  11.587 -1.1490  0.3320 -2.1866
 3391SOL     OW21634   4.548   1.748  11.809 -0.3542  0.2563  0.1105
 3391SOL    HW121635   4.604   1.695  11.867 -0.1933  0.6061  0.2734
 3391SOL    HW221636   4.578   1.711  11.726 -3.4435  0.7747 -1.2579
 3392SOL     OW21637   4.582   3.652   3.209  0.0880 -0.6349 -0.1897
 3392SOL    HW121638   4.592   3.697   3.293  3.2792  0.2782 -1.0894
 3392SOL    HW221639   4.486   3.660   3.211  0.0053 -1.0472 -2.2549
 3393SOL     OW21640   4.717   1.567   2.123 -0.1555  0.0665 -0.4882
 3393SOL    HW121641   0.038   1.518   2.052  0.0121 -0.5778  0.0516
 3393SOL    HW221642   0.020   1.657   2.102 -1.3196  0.3303 -0.6771
 3394SOL     OW21643   3.608   2.756   3.774 -0.2023 -0.2227 -0.1795
 3394SOL    HW121644   3.683   2.725   3.825 -0.6186 -0.7746  0.0864
 3394SOL    HW221645   3.645   2.809   3.703  0.6697 -3.0997 -1.9023
 3395SOL     OW21646   0.283   4.105  11.078 -0.2517 -0.1894  0.2660
 3395SOL    HW121647   0.241   4.167  11.138 -2.0698 -1.4500  0.2797
 3395SOL    HW221648   0.208   4.089  11.021 -0.8124 -0.5937  1.1068
 3396SOL     OW21649   2.742   3.790  10.623  0.1805 -0.7349 -0.6674
 3396SOL    HW121650   2.691   3.755  10.697  1.1242  0.0975  0.3797
 3396SOL    HW221651   2.723   3.883  10.638 -1.1684 -1.2217  0.6769
 3397SOL     OW21652   0.211   4.439   1.283 -0.4444  0.3326 -0.7000
 3397SOL    HW121653   0.295   4.414   1.322 -0.5508  1.2800  0.1465
 3397SOL    HW221654   0.241   4.456   1.194 -1.6389 -0.8539 -1.3265
 3398SOL     OW21655   1.796   3.034   7.803  0.1233  0.2194 -0.2015
 3398SOL    HW121656   1.735   3.102   7.774  0.7101  1.1407  0.7271
 3398SOL    HW221657   1.846   3.032   7.722 -0.0342 -2.8159 -0.2022
 3399SOL     OW21658   1.884   1.735   5.667 -0.0012 -0.5789 -0.1980
 3399SOL    HW121659   1.939   1.811   5.684 -1.3090  0.1985  0.6324
 3399SOL    HW221660   1.839   1.764   5.588 -0.0250  1.1671  0.4464
 3400SOL     OW21661   4.254   3.471   4.140  0.3045  0.2844 -0.2719
 3400SOL    HW121662   4.169   3.432   4.121 -0.2442  0.5133  1.7516
 3400SOL    HW221663   4.312   3.396   4.151  2.5411  1.5404 -3.2589
 3401SOL     OW21664   4.192   3.408  14.941  0.0409 -0.4687  0.0701
 3401SOL    HW121665   4.205   3.349  14.867 -2.5521  0.7060 -1.3090
 3401SOL    HW221666   4.214   3.347  15.012  3.8775  1.0976  0.2536
 3402SOL     OW21667   2.034   1.700   3.944  0.0999  0.7139 -0.0414
 3402SOL    HW121668   2.002   1.638   3.879 -0.1558 -0.4999  1.2215
 3402SOL    HW221669   2.008   1.650   4.022 -0.4859 -1.1826 -1.4657
 3403SOL     OW21670   2.343   0.773   1.294 -0.0872  0.9125 -0.3711
 3403SOL    HW121671   2.406   0.714   1.252 -0.5387 -0.4269  0.8316
 3403SOL    HW221672   2.266   0.735   1.253  0.3838 -1.1310  0.6432
 3404SOL     OW21673   4.116   2.090   7.740 -0.1486  0.2694  0.2798
 3404SOL    HW121674   4.169   2.128   7.811 -1.7575  1.1219  1.0189
 3404SOL    HW221675   4.107   2.010   7.791 -2.8431 -0.8707 -1.9974
 3405SOL     OW21676   0.653   3.581   3.961  0.2958 -0.4634 -0.5550
 3405SOL    HW121677   0.697   3.577   3.876 -1.8903  0.0170 -1.6980
 3405SOL    HW221678   0.617   3.669   3.955  0.1633 -0.5326 -0.7712
 3406SOL     OW21679   0.204   0.281   9.243 -0.5995 -0.3019 -0.2072
 3406SOL    HW121680   0.258   0.276   9.321 -0.8840 -1.7098 -0.1014
 3406SOL    HW221681   0.135   0.338   9.277 -0.7916 -1.5410  1.4487
 3407SOL     OW21682   3.886   2.813   7.928 -0.3813 -0.2506 -0.2436
 3407SOL    HW121683   3.911   2.905   7.935  0.3611 -0.4235 -0.6465
 3407SOL    HW221684   3.971   2.771   7.943  0.1626  0.2444 -1.9447
 3408SOL     OW21685   0.064   3.044   9.531  1.2654  0.3380  0.2328
 3408SOL    HW121686   0.052   3.128   9.574 -1.3126  0.3734 -0.5851
 3408SOL    HW221687   0.012   2.988   9.588 -0.8885  1.3140 -0.7979
 3409SOL     OW21688   4.019   2.957  14.902 -0.5441  0.5551 -0.5836
 3409SOL    HW121689   3.947   2.998  14.854 -1.8156 -1.4908 -0.4186
 3409SOL    HW221690   4.010   2.866  14.873  2.2936  0.2464 -0.5113
 3410SOL     OW21691   1.593   2.257  12.105 -0.7681 -0.0924 -0.4373
 3410SOL    HW121692   1.661   2.204  12.146  0.5753  1.2818 -0.9147
 3410SOL    HW221693   1.520   2.226  12.159  1.0567  0.6573  2.4205
 3411SOL     OW21694   2.645   4.065   5.283 -0.3043 -0.5785 -0.8470
 3411SOL    HW121695   2.563   4.099   5.246  0.2888  3.2057  1.2424
 3411SOL    HW221696   2.710   4.116   5.234  0.7962 -1.0630  0.1290
 3412SOL     OW21697   3.267   3.730   7.385 -0.8996 -0.0235  0.7836
 3412SOL    HW121698   3.312   3.673   7.447  0.6218  0.8400  0.4616
 3412SOL    HW221699   3.296   3.700   7.299 -2.0810 -0.5166  0.5492
 3413SOL     OW21700   2.706   3.110  13.818 -0.4666 -0.5138 -0.7111
 3413SOL    HW121701   2.785   3.056  13.820 -0.6146 -0.7084 -0.0442
 3413SOL    HW221702   2.647   3.064  13.878  0.5235 -3.2661 -1.8229
 3414SOL     OW21703   1.937   3.180   0.902  0.2971  0.9157 -0.4766
 3414SOL    HW121704   1.971   3.103   0.947 -2.6753 -0.4606 -0.6021
 3414SOL    HW221705   1.849   3.150   0.880  0.5095  1.0234 -1.4665
 3415SOL     OW21706   4.317   0.885   3.266  0.1919 -0.6468  0.4212
 3415SOL    HW121707   4.362   0.885   3.350 -0.6514 -0.5155  0.8676
 3415SOL    HW221708   4.252   0.814   3.265  0.5671 -0.9762 -2.8892
 3416SOL     OW21709   2.598   1.849  13.284 -0.2398  0.1191 -0.3466
 3416SOL    HW121710   2.521   1.870  13.232  0.5557 -3.0764 -2.8094
 3416SOL    HW221711   2.584   1.762  13.321  1.7509 -0.4090 -0.8291
 3417SOL     OW21712   1.246   1.972   7.119 -0.0036 -0.2993 -0.1032
 3417SOL    HW121713   1.252   2.027   7.041  0.9915  2.1925  1.7310
 3417SOL    HW221714   1.151   1.967   7.110 -0.0418  0.6287 -0.2435
 3418SOL     OW21715   4.437   2.601   4.487  0.3437 -0.4523  0.4717
 3418SOL    HW121716   4.447   2.673   4.549  2.9673 -0.7501  0.4088
 3418SOL    HW221717   4.458   2.641   4.402  0.2924  1.9292  1.5904
 3419SOL     OW21718   4.584   2.843   4.239  0.7178 -0.2283 -0.1777
 3419SOL    HW121719   4.637   2.771   4.272  0.3846 -0.2026  0.4127
 3419SOL    HW221720   4.624   2.924   4.270 -2.5217  1.7459 -1.0730
 3420SOL     OW21721   4.150   2.251   0.840 -1.2221  0.4320 -0.2104
 3420SOL    HW121722   4.104   2.245   0.924  0.8192  1.9365  0.9880
 3420SOL    HW221723   4.187   2.339   0.850  0.8972 -0.4536 -0.2484
 3421SOL     OW21724   1.976   3.901   2.959 -0.1836  0.3210 -0.1014
 3421SOL    HW121725   2.024   3.972   2.915  0.1179  0.5274  0.5709
 3421SOL    HW221726   2.048   3.858   3.004 -1.2239  0.3186  1.5407
 3422SOL     OW21727   1.516   1.340   8.840  0.1922 -0.1334 -0.3117
 3422SOL    HW121728   1.562   1.319   8.759 -2.1264 -1.6231 -1.2337
 3422SOL    HW221729   1.463   1.419   8.828  0.3163  0.3241  2.1369
 3423SOL     OW21730   4.090   1.850   3.268 -0.2264  0.2912  0.1189
 3423SOL    HW121731   4.076   1.756   3.278  2.7894 -0.2757 -1.0604
 3423SOL    HW221732   4.098   1.869   3.361  0.7461  0.2867  0.0331
 3424SOL     OW21733   2.259   4.466   5.740 -0.2372 -0.3194 -0.1476
 3424SOL    HW121734   2.342   4.472   5.787  0.0860  2.0082 -1.0037
 3424SOL    HW221735   2.242   4.560   5.745  1.3838  0.0724 -1.7788
 3425SOL     OW21736   0.480   1.116   7.194  0.3512 -0.3096  0.2809
 3425SOL    HW121737   0.561   1.095   7.240 -0.1877 -1.0862  0.8734
 3425SOL    HW221738   0.430   1.034   7.199  0.7785 -0.5525  0.5406
 3426SOL     OW21739   2.772   2.992   9.399 -0.3542 -0.3345 -0.0383
 3426SOL    HW121740   2.724   3.000   9.482  0.9757  1.6657  0.5292
 3426SOL    HW221741   2.699   3.011   9.340 -0.9426 -0.3966  0.6667
 3427SOL     OW21742   2.864   3.058  11.811  0.0956  0.5578  0.6472
 3427SOL    HW121743   2.878   3.020  11.724 -1.2457  0.3018  0.5284
 3427SOL    HW221744   2.853   3.150  11.788  1.2927  1.0265  1.9689
 3428SOL     OW21745   0.457   1.156   4.814  0.3753  0.1579  0.1802
 3428SOL    HW121746   0.378   1.198   4.780  1.4697  1.1855 -1.0283
 3428SOL    HW221747   0.421   1.068   4.827 -0.2222  0.5527  1.2147
 3429SOL     OW21748   3.111   0.432   6.470 -0.3684  0.7649 -0.2777
 3429SOL    HW121749   3.088   0.382   6.549 -1.1238  1.1053 -0.2836
 3429SOL    HW221750   3.144   0.518   6.498  0.4700 -0.7131  3.2921
 3430SOL     OW21751   0.635   1.214   3.206  0.2467 -0.0765 -0.3631
 3430SOL    HW121752   0.695   1.144   3.183  0.7251  0.7031 -1.4909
 3430SOL    HW221753   0.647   1.264   3.125  1.5452  1.8063  0.9868
 3431SOL     OW21754   0.920   3.159   7.569  0.2920 -0.5060  0.1023
 3431SOL    HW121755   0.926   3.083   7.626 -0.3037  0.6125  1.6661
 3431SOL    HW221756   0.839   3.149   7.519 -0.0716 -0.4848  0.6806
 3432SOL     OW21757   3.719   0.621   8.056  0.4744 -0.2795 -0.3747
 3432SOL    HW121758   3.745   0.629   8.148  1.4222 -2.3841 -0.4734
 3432SOL    HW221759   3.655   0.549   8.056  0.8230 -0.5861 -1.2705
 3433SOL     OW21760   4.389   2.823   7.684 -0.0429 -0.5462  0.2601
 3433SOL    HW121761   4.373   2.740   7.638 -2.4599  0.5989 -0.9449
 3433SOL    HW221762   4.369   2.884   7.613 -0.1756  0.7903  1.4432
 3434SOL     OW21763   1.664   4.084   4.909 -0.7853 -0.8371  0.2631
 3434SOL    HW121764   1.713   4.167   4.914 -1.2918 -0.6449  1.9860
 3434SOL    HW221765   1.661   4.066   5.003 -0.0612  0.8855  0.6263
 3435SOL     OW21766   1.539   0.188  10.868  0.2107  0.6117 -0.3658
 3435SOL    HW121767   1.486   0.258  10.906  1.5841  1.6090 -0.2806
 3435SOL    HW221768   1.556   0.131  10.943  1.2262  2.1993  0.6239
 3436SOL     OW21769   0.292   0.000  14.445  0.2805 -0.3054 -0.5093
 3436SOL    HW121770   0.223   4.691  14.386  2.3270 -1.7249 -2.1662
 3436SOL    HW221771   0.285   4.662  14.520  1.8700  0.0861 -0.0573
 3437SOL     OW21772   1.468   2.686   8.359 -0.1004  0.1314  0.3083
 3437SOL    HW121773   1.426   2.719   8.438  0.0159  0.8063  0.0867
 3437SOL    HW221774   1.533   2.749   8.331  0.7255 -1.5041 -1.4681
 3438SOL     OW21775   3.730   4.050   3.874 -0.2738  0.0952 -0.0839
 3438SOL    HW121776   3.813   4.038   3.919 -0.5539  0.9874  0.6555
 3438SOL    HW221777   3.750   4.137   3.840  0.2197 -1.1549 -2.9578
 3439SOL     OW21778   3.598   3.908  17.363  0.2256 -0.0617 -0.2785
 3439SOL    HW121779   3.535   3.843  17.393  1.5183 -1.7954 -1.3380
 3439SOL    HW221780   3.540   3.963  17.310  1.7226  3.2737  1.5739
 3440SOL     OW21781   4.599   0.462   6.893 -0.0924 -0.5166  0.4526
 3440SOL    HW121782   4.569   0.519   6.822  1.9713 -0.0805 -0.0768
 3440SOL    HW221783   4.540   0.497   6.960 -0.8104 -1.7563  0.4690
 3441SOL     OW21784   3.559   0.362   3.515  0.3134  0.3733 -0.1320
 3441SOL    HW121785   3.468   0.380   3.538  0.6967  0.7443  1.0949
 3441SOL    HW221786   3.553   0.332   3.424  0.7445 -0.7144  0.2025
 3442SOL     OW21787   1.074   3.817   5.299 -0.5476 -0.3184  0.1181
 3442SOL    HW121788   1.042   3.751   5.238  0.0581 -0.3657 -0.1482
 3442SOL    HW221789   1.150   3.848   5.250 -0.7601  1.8099  1.0984
 3443SOL     OW21790   1.913   4.475   6.373  0.0651  0.3730  0.0318
 3443SOL    HW121791   1.870   4.539   6.430 -0.1299  0.3819 -0.1253
 3443SOL    HW221792   1.874   4.495   6.288 -0.3623 -1.4486 -0.2131
 3444SOL     OW21793   0.143   3.387   7.225 -0.1363 -0.1825 -0.1716
 3444SOL    HW121794   0.204   3.315   7.241 -0.9650 -0.9085 -0.2679
 3444SOL    HW221795   0.093   3.348   7.152  0.0416  0.0136 -0.3948
 3445SOL     OW21796   2.294   1.721   2.341  0.2761  0.4449  0.1368
 3445SOL    HW121797   2.290   1.738   2.435  0.7890  0.4725  0.1517
 3445SOL    HW221798   2.374   1.672   2.324  1.1474  2.3499 -1.2037
 3446SOL     OW21799   4.502   2.804   4.689  0.4693 -0.2702 -0.7764
 3446SOL    HW121800   4.456   2.816   4.772  1.8756 -2.8727  0.3709
 3446SOL    HW221801   4.489   2.891   4.651  0.1413  1.1292  2.4846
 3447SOL     OW21802   0.231   3.915  11.398 -0.0655 -0.5505 -0.1987
 3447SOL    HW121803   0.312   3.881  11.436 -0.0792 -0.8237 -0.4154
 3447SOL    HW221804   0.259   3.930  11.308 -3.6175  2.0418 -0.8485
 3448SOL     OW21805   0.338   0.136  16.105 -0.0827  0.4090  0.1189
 3448SOL    HW121806   0.347   0.213  16.160 -1.2888  0.8690 -0.3440
 3448SOL    HW221807   0.274   0.155  16.036 -1.1348  0.1394  1.0223
 3449SOL     OW21808   3.697   0.844  15.554  0.0536  0.0564 -0.1058
 3449SOL    HW121809   3.723   0.817  15.466 -0.8396  0.0581 -0.3664
 3449SOL    HW221810   3.781   0.837  15.601  1.4517  1.2531 -2.4332
 3450SOL     OW21811   0.701   0.275   9.488 -0.8192 -0.2008  0.3705
 3450SOL    HW121812   0.771   0.224   9.528 -0.3252 -0.9434 -1.4014
 3450SOL    HW221813   0.733   0.362   9.511 -2.3000  0.0855  1.3451
 3451SOL     OW21814   2.354   1.719   1.819 -0.7259  0.3261 -0.5808
 3451SOL    HW121815   2.368   1.692   1.728 -0.7873 -0.8610 -0.2365
 3451SOL    HW221816   2.433   1.689   1.863  0.8112  1.7969 -2.3371
 3452SOL     OW21817   0.901   3.971   2.329  0.3102  0.1240 -0.1764
 3452SOL    HW121818   0.903   4.060   2.293  1.2481  1.4851  3.1352
 3452SOL    HW221819   0.994   3.950   2.327 -0.0653 -1.5521  0.5088
 3453SOL     OW21820   1.219   0.618   8.365 -0.0133 -0.1159  0.3231
 3453SOL    HW121821   1.170   0.595   8.285  0.5046 -0.4398  0.0946
 3453SOL    HW221822   1.190   0.709   8.364 -1.0535 -0.4475  0.4899
 3454SOL     OW21823   4.013   4.233   3.225 -0.5198  0.2064  0.0800
 3454SOL    HW121824   4.085   4.210   3.166  0.6790 -2.1324  2.4533
 3454SOL    HW221825   4.033   4.178   3.301  0.6211  1.5687  0.7544
 3455SOL     OW21826   4.595   1.870   7.775  0.0702  0.3356  0.1115
 3455SOL    HW121827   4.554   1.918   7.847 -1.3686 -0.0208 -0.4558
 3455SOL    HW221828   4.615   1.788   7.819  0.3199  0.4232  0.1628
 3456SOL     OW21829   2.709   1.496  13.332 -0.6897 -0.4318 -0.3017
 3456SOL    HW121830   2.707   1.562  13.402  1.3412  1.1319 -1.7362
 3456SOL    HW221831   2.728   1.555  13.259  0.2688  0.0899  0.3612
 3457SOL     OW21832   3.189   2.392   6.538 -0.0400  0.2239  0.4287
 3457SOL    HW121833   3.192   2.488   6.541 -1.7709  0.3966 -4.1281
 3457SOL    HW221834   3.124   2.382   6.468  0.9624  0.4282 -0.5273
 3458SOL     OW21835   0.860   0.469   6.313 -0.3002 -0.6872  0.1381
 3458SOL    HW121836   0.909   0.544   6.348 -1.1280 -0.6718  1.2793
 3458SOL    HW221837   0.891   0.474   6.223 -1.3232  1.5918 -0.0915
 3459SOL     OW21838   1.243   2.183   5.696  0.3411  0.1986 -0.3666
 3459SOL    HW121839   1.241   2.095   5.733  0.7686 -0.4425 -1.8517
 3459SOL    HW221840   1.323   2.221   5.730 -0.3225 -1.3972  2.9371
 3460SOL     OW21841   3.693   2.240   9.073  0.1917 -0.1879 -0.2868
 3460SOL    HW121842   3.659   2.329   9.061  2.1331  0.4058 -1.4225
 3460SOL    HW221843   3.771   2.232   9.018 -0.9611 -2.0627 -1.6514
 3461SOL     OW21844   0.904   3.029   1.226  0.4396 -0.1765 -0.0756
 3461SOL    HW121845   0.822   3.010   1.272  0.2549  0.2539 -0.2230
 3461SOL    HW221846   0.894   3.121   1.204 -1.1025 -0.6558 -1.3808
 3462SOL     OW21847   3.186   3.628   7.954  0.0797 -0.1193  0.6680
 3462SOL    HW121848   3.198   3.568   7.880  0.7596  3.1830 -1.8467
 3462SOL    HW221849   3.221   3.575   8.026  2.7946  0.6419 -0.1194
 3463SOL     OW21850   3.292   0.240   6.382 -0.3981 -0.3833 -0.2483
 3463SOL    HW121851   3.227   0.169   6.382 -1.9119  1.0148 -0.9406
 3463SOL    HW221852   3.246   0.315   6.419  0.6272  0.7202 -1.2104
 3464SOL     OW21853   2.284   4.422  13.418 -0.0367 -0.0625 -0.8085
 3464SOL    HW121854   2.363   4.367  13.419  0.5835  0.8426 -0.1422
 3464SOL    HW221855   2.246   4.417  13.506  2.7313  0.7290  0.4320
 3465SOL     OW21856   0.770   1.611   9.800 -0.7318 -0.0193 -0.1106
 3465SOL    HW121857   0.779   1.519   9.827  1.2050  0.3337  0.4678
 3465SOL    HW221858   0.852   1.634   9.756 -0.7471 -0.3997 -0.3392
 3466SOL     OW21859   0.131   1.823  11.738 -0.8358  0.5710 -0.8605
 3466SOL    HW121860   0.073   1.824  11.813 -0.2285  1.7543 -0.4036
 3466SOL    HW221861   0.075   1.855  11.667  0.8654  2.3869 -1.3923
 3467SOL     OW21862   2.931   0.475   2.049 -0.6081 -0.3343 -0.0072
 3467SOL    HW121863   2.919   0.459   2.143 -1.5054 -0.8072 -0.2083
 3467SOL    HW221864   2.842   0.472   2.013  0.0002  1.2667 -1.6490
 3468SOL     OW21865   0.556   0.106   6.838  0.3323 -0.0426 -0.2034
 3468SOL    HW121866   0.547   0.166   6.912 -0.5726 -0.9629  0.4474
 3468SOL    HW221867   0.497   0.146   6.774 -1.5366 -1.2901  0.7131
 3469SOL     OW21868   0.751   0.203   6.331 -0.4405 -0.4448 -0.6186
 3469SOL    HW121869   0.818   0.196   6.263  0.9210 -2.4598  0.9156
 3469SOL    HW221870   0.741   0.298   6.331  2.0054 -0.1937 -0.6723
 3470SOL     OW21871   3.369   2.904   6.009 -0.5758  1.1477  0.0377
 3470SOL    HW121872   3.385   2.827   5.954  2.5589  1.3945  0.5828
 3470SOL    HW221873   3.439   2.897   6.075 -0.0663 -0.6768 -0.6832
 3471SOL     OW21874   3.142   2.642   5.356  0.4060  0.9386 -0.1818
 3471SOL    HW121875   3.230   2.679   5.358  0.5090  0.6892 -0.1359
 3471SOL    HW221876   3.113   2.635   5.447  1.8117 -0.4334  0.1573
 3472SOL     OW21877   3.970   1.153  14.425  0.4155  0.2363 -0.1572
 3472SOL    HW121878   4.016   1.232  14.395 -1.0295  2.0837  2.5070
 3472SOL    HW221879   4.000   1.155  14.516  0.1610 -0.8879 -0.0404
 3473SOL     OW21880   4.671   0.815   5.642 -0.5831 -0.0183 -0.2751
 3473SOL    HW121881   4.598   0.754   5.655 -2.4686  2.4369  0.6620
 3473SOL    HW221882   4.617   0.893   5.632 -0.8862  0.2380  3.3386
 3474SOL     OW21883   3.300   2.945  17.542  0.2882  0.2742 -0.1793
 3474SOL    HW121884   3.233   3.000  17.501  1.0288  0.2210 -1.4446
 3474SOL    HW221885   3.369   2.931  17.477 -0.7956 -0.4057 -1.1770
 3475SOL     OW21886   3.581   2.305   4.771  0.0287  0.2306  0.2195
 3475SOL    HW121887   3.544   2.323   4.858 -0.6374 -1.1602  0.2357
 3475SOL    HW221888   3.653   2.245   4.789  0.3419  0.5483  0.0041
 3476SOL     OW21889   2.999   4.614   6.753 -0.0047  0.6840 -0.9340
 3476SOL    HW121890   2.905   4.596   6.748  0.1467 -0.3585 -0.1963
 3476SOL    HW221891   3.002   4.689   6.813  1.1977 -0.5174  0.5021
 3477SOL     OW21892   2.849   3.536   0.275  0.0079  0.4980 -0.5089
 3477SOL    HW121893   2.884   3.469   0.334 -0.4802 -0.3572 -1.2018
 3477SOL    HW221894   2.798   3.491   0.209 -1.0882 -0.9045  1.2814
 3478SOL     OW21895   1.458   0.818   8.687  0.5470  0.2200 -0.5146
 3478SOL    HW121896   1.387   0.839   8.625 -2.1749 -0.4448  2.3822
 3478SOL    HW221897   1.519   0.771   8.631  1.6610 -0.1482  1.0175
 3479SOL     OW21898   0.191   1.473   8.495 -0.2074 -0.0806  0.1768
 3479SOL    HW121899   0.114   1.487   8.440  1.3573  3.7809 -0.9874
 3479SOL    HW221900   0.232   1.559   8.487 -0.0884 -0.0740  0.8636
 3480SOL     OW21901   1.194   1.046   6.047  0.0168 -0.1246  0.1011
 3480SOL    HW121902   1.125   1.072   6.109  0.6720  1.6805  0.0635
 3480SOL    HW221903   1.161   0.961   6.018 -0.4330 -0.5753  1.8893
 3481SOL     OW21904   1.537   0.731   5.402  0.4180  0.4324  0.0919
 3481SOL    HW121905   1.447   0.744   5.430  0.9834  0.5791  1.8460
 3481SOL    HW221906   1.577   0.787   5.468  1.6344  0.6590 -0.8348
 3482SOL     OW21907   0.298   4.491  15.905  0.0441 -0.0625 -0.2194
 3482SOL    HW121908   0.352   4.563  15.938  0.9444 -0.5071 -0.7418
 3482SOL    HW221909   0.365   4.440  15.859  1.2732 -0.3295  1.8612
 3483SOL     OW21910   1.592   0.502   5.819 -0.2478  0.4255  0.2364
 3483SOL    HW121911   1.613   0.580   5.870  0.9952 -0.4660  1.0690
 3483SOL    HW221912   1.508   0.479   5.857 -0.5704 -1.1656 -1.4493
 3484SOL     OW21913   2.052   1.101  14.354  0.0870  0.3323  0.4898
 3484SOL    HW121914   2.141   1.134  14.337 -0.0003 -1.5992 -3.6756
 3484SOL    HW221915   1.998   1.154  14.295 -0.6062 -0.0683  0.7605
 3485SOL     OW21916   4.524   1.472   6.886 -0.1534 -0.0290  0.5365
 3485SOL    HW121917   4.445   1.517   6.916 -0.7804 -1.3354  0.8175
 3485SOL    HW221918   4.547   1.530   6.813  0.1292 -0.6694  0.1112
 3486SOL     OW21919   0.759   1.937   7.431  0.8255 -0.4210  0.4175
 3486SOL    HW121920   0.778   1.890   7.350  1.6377  1.3906 -0.4550
 3486SOL    HW221921   0.701   1.870   7.467  0.0596  0.4037  0.7337
 3487SOL     OW21922   3.463   0.992  12.687 -0.6631  0.4201  0.2323
 3487SOL    HW121923   3.446   1.055  12.617 -0.4942  0.2207  0.0105
 3487SOL    HW221924   3.559   0.992  12.679 -0.6509  0.2019  0.3733
 3488SOL     OW21925   3.393   1.882   2.223  0.4515 -0.2248  0.1540
 3488SOL    HW121926   3.433   1.816   2.166  1.1090 -0.7354  1.2178
 3488SOL    HW221927   3.382   1.954   2.161  0.2488  0.8079  1.3944
 3489SOL     OW21928   4.641   2.844  15.223  0.0941  0.1625  0.2915
 3489SOL    HW121929   4.665   2.929  15.259 -1.5191  0.3056  1.0023
 3489SOL    HW221930   4.571   2.822  15.284 -0.4163 -0.2432 -0.4386
 3490SOL     OW21931   2.813   3.250   0.970 -0.3739 -0.1951  0.1582
 3490SOL    HW121932   2.816   3.246   1.065  1.0755  1.3599  0.1742
 3490SOL    HW221933   2.784   3.339   0.954 -0.4178 -0.3481 -0.6500
 3491SOL     OW21934   2.329   1.850  17.320  0.3234 -0.3335  0.3618
 3491SOL    HW121935   2.250   1.841  17.374  0.0282  1.7306  0.2565
 3491SOL    HW221936   2.328   1.776  17.259 -0.4288  0.2233 -0.2942
 3492SOL     OW21937   4.567   2.391   6.018 -0.3918 -0.6169  0.6624
 3492SOL    HW121938   4.557   2.339   5.938  0.5594  0.6975 -0.3137
 3492SOL    HW221939   4.593   2.478   5.988 -2.6712 -0.0920  0.1939
 3493SOL     OW21940   2.069   3.261  14.840  0.2985  0.4515 -0.4548
 3493SOL    HW121941   2.098   3.277  14.930  2.8766  0.1335 -1.2424
 3493SOL    HW221942   2.148   3.221  14.804 -0.0188 -0.6457  0.0550
 3494SOL     OW21943   4.101   3.775   8.189 -0.1082 -0.0166  0.7973
 3494SOL    HW121944   4.086   3.728   8.271  0.3378 -0.9234  0.3640
 3494SOL    HW221945   4.019   3.824   8.186 -0.0818 -0.0261 -0.2423
 3495SOL     OW21946   2.096   4.611   6.175 -0.0085 -0.5840  0.0833
 3495SOL    HW121947   2.002   4.605   6.161 -0.1914 -0.0266  1.1160
 3495SOL    HW221948   2.108   4.565   6.258 -2.4470 -0.9202  0.2348
 3496SOL     OW21949   0.504   1.862   1.932  0.2701 -0.1708  0.0636
 3496SOL    HW121950   0.582   1.810   1.948 -0.6843 -2.4393 -2.7893
 3496SOL    HW221951   0.539   1.925   1.869  2.6700 -1.3771  0.2059
 3497SOL     OW21952   1.810   3.216   7.057  0.2738 -0.3618  0.1003
 3497SOL    HW121953   1.828   3.280   7.126  2.8724 -0.5675 -0.3748
 3497SOL    HW221954   1.828   3.133   7.101  1.5972 -0.2990 -0.3360
 3498SOL     OW21955   2.285   1.631   5.052 -0.0670 -0.2358 -0.2727
 3498SOL    HW121956   2.279   1.612   5.146 -1.3249 -0.2142 -0.3585
 3498SOL    HW221957   2.376   1.611   5.028 -0.0276  0.2646 -0.5413
 3499SOL     OW21958   2.902   1.340   1.126 -0.3161  0.1691 -0.1558
 3499SOL    HW121959   2.888   1.430   1.100 -1.0314  0.6499  1.8649
 3499SOL    HW221960   2.953   1.352   1.207  0.0291  2.5416 -0.7321
 3500SOL     OW21961   3.967   1.956  16.094  0.2072  0.2106 -0.2229
 3500SOL    HW121962   3.952   1.862  16.085  0.0907  0.3307 -1.3021
 3500SOL    HW221963   4.060   1.958  16.113 -0.0638  1.7601  0.9506
 3501SOL     OW21964   4.234   3.974   3.636  0.1789 -0.2074 -0.2686
 3501SOL    HW121965   4.229   4.025   3.717 -0.2915 -1.3848  0.4334
 3501SOL    HW221966   4.247   3.883   3.662 -2.4514 -0.7755 -0.9394
 3502SOL     OW21967   1.667   0.422   2.155  0.8907 -0.0384 -0.5065
 3502SOL    HW121968   1.604   0.372   2.103  2.4334 -1.7852 -0.6735
 3502SOL    HW221969   1.647   0.507   2.115  1.4243  0.5417  0.4853
 3503SOL     OW21970   3.169   3.081   1.721  0.2749 -0.2974  0.2962
 3503SOL    HW121971   3.234   3.080   1.651 -0.3019 -0.6093 -0.2248
 3503SOL    HW221972   3.228   3.098   1.795 -1.6587 -2.3266  2.3178
 3504SOL     OW21973   4.181   2.274   4.785 -0.3811 -0.0405  0.1650
 3504SOL    HW121974   4.153   2.188   4.816 -2.1930  0.8241  0.9493
 3504SOL    HW221975   4.149   2.271   4.694  0.4844 -0.5653 -0.1184
 3505SOL     OW21976   4.704   3.513   5.366 -0.3394  0.2111 -0.1087
 3505SOL    HW121977   0.018   3.468   5.443  0.4995  0.6785 -0.2113
 3505SOL    HW221978   4.664   3.446   5.311 -1.6482  2.5275 -1.9705
 3506SOL     OW21979   2.875   2.542   4.819  0.4202  0.2913 -0.3445
 3506SOL    HW121980   2.954   2.490   4.834  0.1083 -0.1989 -0.4085
 3506SOL    HW221981   2.828   2.479   4.764 -3.2728  0.7691  2.2286
 3507SOL     OW21982   3.981   1.077  17.161 -0.0940 -0.3553 -0.5539
 3507SOL    HW121983   3.903   1.127  17.183 -0.5075 -1.2107 -0.1017
 3507SOL    HW221984   4.034   1.096  17.238  0.0569  1.6303 -1.1408
 3508SOL     OW21985   4.401   0.896   7.509  0.2683 -0.3898  0.0933
 3508SOL    HW121986   4.380   0.982   7.473 -1.4302 -1.1212 -0.6803
 3508SOL    HW221987   4.408   0.921   7.601  0.0770  0.2253 -0.0596
 3509SOL     OW21988   1.172   3.020   1.354 -0.1673 -0.1517 -0.0899
 3509SOL    HW121989   1.205   2.976   1.276 -1.3373  1.3462 -1.4251
 3509SOL    HW221990   1.078   3.010   1.341 -0.1351  1.0151 -1.1669
 3510SOL     OW21991   2.350   3.110   6.692 -0.1330 -0.0549  0.5833
 3510SOL    HW121992   2.420   3.138   6.751  1.1984 -0.5914 -0.7514
 3510SOL    HW221993   2.373   3.024   6.659 -1.0489 -0.6884  1.5992
 3511SOL     OW21994   2.091   0.899   2.191 -0.3928 -0.1659  0.5706
 3511SOL    HW121995   2.167   0.953   2.215  0.9378 -1.6938 -0.1662
 3511SOL    HW221996   2.017   0.953   2.217  1.6911  1.4469  3.1412
 3512SOL     OW21997   1.810   4.503   7.140  0.4006  0.1584 -0.3262
 3512SOL    HW121998   1.815   4.536   7.229  0.7739  0.7296 -0.5535
 3512SOL    HW221999   1.728   4.455   7.143 -1.4760  3.2072 -2.3560
 3513SOL     OW22000   2.600   1.793   3.534 -0.1145  0.3436 -0.8413
 3513SOL    HW122001   2.653   1.745   3.599  1.0674  2.6163 -0.1183
 3513SOL    HW222002   2.515   1.751   3.546 -1.3649  1.9040 -4.5542
 3514SOL     OW22003   0.708   2.022   6.706 -0.9153  0.7395 -0.7744
 3514SOL    HW122004   0.628   2.066   6.678 -2.3038 -0.6018  1.0661
 3514SOL    HW222005   0.734   1.980   6.624  0.3308 -2.3707  1.2189
 3515SOL     OW22006   2.814   1.733  17.627  0.1695 -0.1216 -0.2346
 3515SOL    HW122007   2.767   1.783   0.007 -1.3708  1.7038 -2.7173
 3515SOL    HW222008   2.860   1.805  17.584  0.1722  0.4023  0.6565
 3516SOL     OW22009   2.534   1.098   3.429 -0.2770  0.1194 -0.1032
 3516SOL    HW122010   2.543   1.013   3.387 -0.4063 -0.5555  1.2321
 3516SOL    HW222011   2.580   1.086   3.512  0.1169  1.6472 -0.0998
 3517SOL     OW22012   0.121   1.550   8.938  0.3472  0.7596 -0.1243
 3517SOL    HW122013   0.150   1.467   8.976 -2.0725  0.0511  0.1618
 3517SOL    HW222014   0.066   1.588   9.006  0.8048  0.5722  0.3554
 3518SOL     OW22015   3.835   2.277  11.333  0.0832 -0.1096 -0.1024
 3518SOL    HW122016   3.928   2.273  11.355 -0.0704 -0.3221  0.4843
 3518SOL    HW222017   3.844   2.255  11.240 -2.3034 -1.7465  0.0556
 3519SOL     OW22018   3.932   3.753  17.250  0.0433 -0.3273 -0.1793
 3519SOL    HW122019   3.885   3.836  17.255 -0.2479 -0.5569  1.0175
 3519SOL    HW222020   3.921   3.715  17.163  0.3418  0.2640 -0.4793
 3520SOL     OW22021   3.875   0.783   5.693 -0.3270 -0.2330  0.1814
 3520SOL    HW122022   3.932   0.710   5.668 -0.9063 -0.4455 -0.5000
 3520SOL    HW222023   3.895   0.839   5.618 -0.8508 -0.0593  0.1747
 3521SOL     OW22024   3.336   4.387  17.055 -0.0938  0.1390 -0.3009
 3521SOL    HW122025   3.304   4.296  17.060 -0.3013  0.2809  1.2350
 3521SOL    HW222026   3.269   4.429  17.002 -1.7281  0.6493  2.1418
 3522SOL     OW22027   2.044   3.589   3.148 -0.0158 -0.0121 -0.4966
 3522SOL    HW122028   2.118   3.535   3.175  0.8048  0.0967 -2.5037
 3522SOL    HW222029   2.085   3.657   3.095  0.3588  0.8634  0.9148
 3523SOL     OW22030   0.741   4.450   8.789 -0.0816 -0.3101  0.1608
 3523SOL    HW122031   0.653   4.485   8.805 -0.5997 -1.3875 -0.3439
 3523SOL    HW222032   0.732   4.361   8.755 -0.2087 -0.0451 -0.5013
 3524SOL     OW22033   0.913   0.101   9.235  0.0290  0.9024 -0.1529
 3524SOL    HW122034   0.894   0.007   9.236 -2.2593  1.3831 -0.2907
 3524SOL    HW222035   0.981   0.100   9.167 -0.0429  0.4119 -0.2153
 3525SOL     OW22036   3.217   3.931  11.884 -0.0269  0.0932  0.0803
 3525SOL    HW122037   3.235   3.998  11.949  0.1994 -0.2420  0.3668
 3525SOL    HW222038   3.192   3.857  11.940 -2.0919 -0.2385 -1.2856
 3526SOL     OW22039   0.408   0.719   7.454  0.2281 -0.0095 -0.4073
 3526SOL    HW122040   0.411   0.791   7.516  0.6034 -0.3431 -0.0409
 3526SOL    HW222041   0.328   0.676   7.482 -0.0747  2.1760  2.0665
 3527SOL     OW22042   0.891   1.468   4.284  0.6735 -0.0813 -0.5089
 3527SOL    HW122043   0.903   1.562   4.289  0.8287 -0.1492  0.4001
 3527SOL    HW222044   0.903   1.461   4.189 -0.5817  0.6904 -0.7243
 3528SOL     OW22045   0.297   3.747  10.190  0.5276  0.5422 -0.0154
 3528SOL    HW122046   0.259   3.748  10.278 -1.6442  1.4273 -0.9790
 3528SOL    HW222047   0.384   3.782  10.211  1.3178 -2.0215  1.0281
 3529SOL     OW22048   1.301   4.428   8.349  0.2218  0.3201  0.2223
 3529SOL    HW122049   1.361   4.481   8.402 -1.3312  1.7850  0.5079
 3529SOL    HW222050   1.233   4.413   8.415 -2.7688  1.8955 -2.5217
 3530SOL     OW22051   4.513   1.320   4.244 -0.2013 -0.5798  0.7666
 3530SOL    HW122052   4.420   1.338   4.255 -0.6235 -2.0658 -0.3964
 3530SOL    HW222053   4.550   1.389   4.188 -0.7118  1.1632  2.5744
 3531SOL     OW22054   1.712   2.016   6.742  0.5871  0.3092 -0.4007
 3531SOL    HW122055   1.784   1.966   6.781 -0.3529  0.1126  1.1326
 3531SOL    HW222056   1.754   2.036   6.659 -1.2122 -0.3916 -1.4646
 3532SOL     OW22057   0.174   1.186   5.552 -0.1058  0.0573  1.1799
 3532SOL    HW122058   0.148   1.257   5.611 -0.4898  0.2854  0.7325
 3532SOL    HW222059   0.090   1.182   5.507  0.6902 -0.6190 -0.2582
 3533SOL     OW22060   3.973   1.771  13.968  0.0281 -0.1704 -0.9024
 3533SOL    HW122061   4.038   1.737  13.906  1.1838  0.6295 -0.1385
 3533SOL    HW222062   3.934   1.848  13.927 -0.8445  0.2610  0.7654
 3534SOL     OW22063   4.643   1.545   5.296 -0.0172  0.0837 -0.0612
 3534SOL    HW122064   4.594   1.599   5.234 -0.9631  0.5336  1.0736
 3534SOL    HW222065   4.598   1.573   5.376  0.9575 -1.6245  1.0851
 3535SOL     OW22066   4.672   2.044   9.028  0.2292 -0.3464  0.1935
 3535SOL    HW122067   4.580   2.049   9.052  0.4902  0.0356  1.1057
 3535SOL    HW222068   4.713   2.052   9.114 -0.1436  0.2290  0.3178
 3536SOL     OW22069   2.616   2.106   8.289 -0.1501 -0.0083  0.0192
 3536SOL    HW122070   2.579   2.192   8.267  0.5138 -0.0902 -1.4296
 3536SOL    HW222071   2.612   2.117   8.384  2.0412  1.2965 -0.0360
 3537SOL     OW22072   0.105   1.110   4.905 -0.1531  0.1185 -0.2227
 3537SOL    HW122073   0.095   1.020   4.876 -0.9139 -0.3851  1.6242
 3537SOL    HW222074   0.157   1.144   4.832 -0.4095 -2.4184 -1.5662
 3538SOL     OW22075   1.120   0.183   1.556 -0.0593 -0.0214  0.5768
 3538SOL    HW122076   1.107   0.089   1.564 -0.5967  0.0475  0.4820
 3538SOL    HW222077   1.048   0.225   1.509 -1.9096 -1.0172  2.5796
 3539SOL     OW22078   3.764   3.953  16.867 -0.1960  0.0578  0.2776
 3539SOL    HW122079   3.672   3.927  16.870 -0.2263 -0.0857 -1.5927
 3539SOL    HW222080   3.758   4.029  16.924  2.1416  0.9632 -0.6746
 3540SOL     OW22081   3.382   0.299  10.482  0.2110  0.0326 -0.4535
 3540SOL    HW122082   3.373   0.250  10.564  0.0742  0.4310 -0.2281
 3540SOL    HW222083   3.291   0.300  10.454  0.5671 -0.0567 -1.6088
 3541SOL     OW22084   2.629   2.256   7.463  0.4112  0.1789 -0.3523
 3541SOL    HW122085   2.627   2.351   7.473  2.5903  0.1970 -0.0207
 3541SOL    HW222086   2.622   2.228   7.554 -2.9093  0.0618 -0.6642
 3542SOL     OW22087   4.041   0.873  12.665 -0.0134 -0.1949 -0.4231
 3542SOL    HW122088   4.086   0.791  12.681  0.5785  0.3129  0.5172
 3542SOL    HW222089   4.108   0.916  12.612 -0.1350 -2.0300 -2.0576
 3543SOL     OW22090   3.909   0.734   5.231  0.0099 -0.3132 -0.0065
 3543SOL    HW122091   3.934   0.649   5.196  2.1895  0.3555 -0.0896
 3543SOL    HW222092   3.965   0.736   5.308 -0.7618  0.6679  0.5296
 3544SOL     OW22093   0.460   3.018   6.900  0.3062 -0.2760  0.4202
 3544SOL    HW122094   0.449   2.923   6.912 -3.8552  0.0380 -0.5744
 3544SOL    HW222095   0.368   3.046   6.902  0.1825 -0.6822  0.4632
 3545SOL     OW22096   0.460   2.024  10.178  0.0847 -0.1783  0.4063
 3545SOL    HW122097   0.516   2.073  10.238  0.2008  0.5603 -0.3088
 3545SOL    HW222098   0.402   1.972  10.234 -0.8294 -0.9370 -1.2514
 3546SOL     OW22099   3.484   3.056   2.615 -0.0821 -0.1428 -0.0699
 3546SOL    HW122100   3.438   3.084   2.536 -1.0180  2.6308  1.4544
 3546SOL    HW222101   3.543   2.993   2.575 -1.2471 -1.0495 -0.3778
 3547SOL     OW22102   3.803   3.821   6.729 -0.4106 -0.2883  0.4707
 3547SOL    HW122103   3.737   3.887   6.748 -0.3003  0.4729 -1.8921
 3547SOL    HW222104   3.810   3.833   6.634 -1.2987 -1.3173  0.2778
 3548SOL     OW22105   3.197   3.099   9.366 -0.0021  0.0628 -0.3847
 3548SOL    HW122106   3.157   3.079   9.450 -0.7822  3.1628 -0.0109
 3548SOL    HW222107   3.119   3.094   9.310 -0.3522 -0.0212  0.1160
 3549SOL     OW22108   3.105   1.664   0.858  0.0520 -0.2371  0.6111
 3549SOL    HW122109   3.153   1.611   0.922  2.5702  1.0691 -0.2057
 3549SOL    HW222110   3.128   1.751   0.890  1.2519 -0.7334  1.0991
 3550SOL     OW22111   3.000   4.283  10.922 -0.0194  0.4537 -0.3567
 3550SOL    HW122112   2.951   4.300  10.842  0.0884  0.5062 -0.4118
 3550SOL    HW222113   3.062   4.223  10.881  0.2479  0.0059  0.6968
 3551SOL     OW22114   1.503   1.767   6.478 -0.2232 -0.8096 -0.1950
 3551SOL    HW122115   1.488   1.698   6.543  2.5428  0.0902  1.4168
 3551SOL    HW222116   1.430   1.829   6.483 -0.4734 -1.2669  1.7597
 3552SOL     OW22117   1.720   3.347   6.426  0.4791  0.1504 -0.3026
 3552SOL    HW122118   1.781   3.419   6.415  0.2594  0.5102  0.8304
 3552SOL    HW222119   1.631   3.383   6.423  0.9532  1.5695  2.2777
 3553SOL     OW22120   2.227   1.576   5.324 -0.3434 -0.3609 -0.0816
 3553SOL    HW122121   2.132   1.566   5.315 -0.3569 -2.1480  2.1424
 3553SOL    HW222122   2.250   1.495   5.369 -3.1511 -1.0702  0.0793
 3554SOL     OW22123   2.466   0.151   6.954  0.0286  0.1332 -0.0772
 3554SOL    HW122124   2.456   0.057   6.937  1.6782 -0.0194 -0.2071
 3554SOL    HW222125   2.553   0.151   6.995 -1.2115 -1.6081  2.5813
 3555SOL     OW22126   4.063   3.014  13.389  0.3508 -0.5202  0.2442
 3555SOL    HW122127   4.072   2.958  13.466 -1.4282  1.4234  1.8473
 3555SOL    HW222128   4.103   3.093  13.424 -0.7984 -0.1485  0.7157
 3556SOL     OW22129   0.948   0.707  11.923  0.0587 -0.6047  0.5088
 3556SOL    HW122130   0.961   0.705  12.018  0.5990 -1.2982  0.4192
 3556SOL    HW222131   0.912   0.796  11.915 -0.0854 -0.6025  1.1224
 3557SOL     OW22132   3.178   2.661   1.824  0.1460 -0.4128 -0.1314
 3557SOL    HW122133   3.216   2.578   1.853 -2.0213 -1.4567 -0.2723
 3557SOL    HW222134   3.261   2.708   1.824 -0.2872  0.3547  0.5452
 3558SOL     OW22135   0.842   1.065   1.970 -0.0782  0.4270  0.0975
 3558SOL    HW122136   0.826   0.972   1.983  0.6249  0.4920  1.4593
 3558SOL    HW222137   0.924   1.067   1.920  0.5435 -0.6251  1.0786
 3559SOL     OW22138   3.784   0.380   7.298 -0.3551 -0.6745 -0.1962
 3559SOL    HW122139   3.745   0.297   7.329  2.2132 -2.8443 -2.8275
 3559SOL    HW222140   3.869   0.370   7.341 -0.9584 -2.1135  0.6933
 3560SOL     OW22141   3.085   1.143   3.547  0.4751  0.7626 -0.6576
 3560SOL    HW122142   3.021   1.208   3.519  0.4941  0.9153 -0.3411
 3560SOL    HW222143   3.166   1.188   3.527  1.7886 -0.6890  1.3582
 3561SOL     OW22144   0.087   0.684   3.434 -0.3730 -0.2790 -0.0764
 3561SOL    HW122145   0.168   0.642   3.465  1.2449  0.6837 -3.0738
 3561SOL    HW222146   0.119   0.773   3.422  0.4535 -0.7837 -1.5814
 3562SOL     OW22147   4.302   2.433   6.803  0.2243 -0.1348 -0.3936
 3562SOL    HW122148   4.368   2.414   6.870 -1.2833  0.2972  1.2105
 3562SOL    HW222149   4.228   2.441   6.863  2.1275  1.0633  1.8003
 3563SOL     OW22150   0.235   3.259   0.614 -0.2879  0.3224  0.0701
 3563SOL    HW122151   0.169   3.285   0.678  0.8175 -0.7210  1.6300
 3563SOL    HW222152   0.206   3.173   0.583  0.1628  0.1956  0.0014
 3564SOL     OW22153   0.355   1.554   7.684 -0.0173 -0.2683 -0.1178
 3564SOL    HW122154   0.267   1.590   7.669  0.0074  0.7548  2.1420
 3564SOL    HW222155   0.342   1.530   7.776 -1.6170  2.5632  0.4179
 3565SOL     OW22156   1.462   4.717   8.029  0.4319 -0.5004 -0.1234
 3565SOL    HW122157   1.414   4.660   8.089  1.5637 -0.2326  1.0374
 3565SOL    HW222158   1.410   0.075   8.048 -0.4689 -0.7403 -1.5666
 3566SOL     OW22159   0.994   1.745   0.626  0.2138 -0.1076  0.1004
 3566SOL    HW122160   0.930   1.714   0.561 -0.7223 -0.9299  1.4093
 3566SOL    HW222161   0.938   1.792   0.688 -2.1081  1.3381 -3.0776
 3567SOL     OW22162   1.807   2.109   4.548 -0.3379 -0.1089 -0.1410
 3567SOL    HW122163   1.804   2.191   4.499 -0.8902 -1.4347 -2.3525
 3567SOL    HW222164   1.712   2.100   4.561 -0.2619 -0.1199  0.3812
 3568SOL     OW22165   0.674   4.650   8.273 -0.3564  0.4476  0.3202
 3568SOL    HW122166   0.685   4.713   8.201 -0.4327 -0.4032 -0.4360
 3568SOL    HW222167   0.713   4.693   8.349  1.2943  1.8638 -1.3411
 3569SOL     OW22168   2.733   0.466   7.139  0.4478  0.0205 -0.4324
 3569SOL    HW122169   2.735   0.380   7.182  1.4524 -0.1200 -0.7609
 3569SOL    HW222170   2.783   0.520   7.200  1.4704 -1.0093 -0.3516
 3570SOL     OW22171   0.094   1.372  11.720 -0.1552 -0.7605  0.2816
 3570SOL    HW122172   0.155   1.446  11.716  1.8232 -2.4395 -0.6166
 3570SOL    HW222173   0.110   1.332  11.634 -2.6418  1.9716 -1.4714
 3571SOL     OW22174   0.930   1.894   4.386 -0.0137  0.2289 -0.4112
 3571SOL    HW122175   0.907   1.987   4.379  1.5747  0.7421  1.1247
 3571SOL    HW222176   0.872   1.858   4.453 -1.4306 -0.1180 -1.8130
 3572SOL     OW22177   3.825   3.249   0.863 -0.2696 -0.2706  0.0086
 3572SOL    HW122178   3.742   3.289   0.886 -0.7449 -1.2667  0.0042
 3572SOL    HW222179   3.805   3.170   0.812  1.2167 -1.0152  0.5573
 3573SOL     OW22180   0.106   2.511   1.840  0.0286  0.3840 -0.1537
 3573SOL    HW122181   0.124   2.422   1.870  1.0707  0.8085  0.4727
 3573SOL    HW222182   0.024   2.528   1.886  0.0054 -2.0525  0.7016
 3574SOL     OW22183   4.685   3.572   8.793  0.2969 -1.0244  0.7036
 3574SOL    HW122184   4.597   3.537   8.805  0.3355 -2.1175 -2.2405
 3574SOL    HW222185   4.675   3.647   8.734  1.0115 -0.8829  0.7676
 3575SOL     OW22186   0.452   1.206   3.914 -0.0497  0.6465 -0.1803
 3575SOL    HW122187   0.542   1.176   3.927 -0.0053  0.8423 -0.0329
 3575SOL    HW222188   0.457   1.238   3.824  1.6837  0.4209 -0.1688
 3576SOL     OW22189   2.337   3.147   0.080 -0.2544 -0.0289 -0.3511
 3576SOL    HW122190   2.268   3.205   0.048  0.2293  1.3285  1.0614
 3576SOL    HW222191   2.384   3.133  17.683  0.2189 -0.6135  0.0187
 3577SOL     OW22192   1.951   0.467   3.847 -0.0781  0.4249 -0.1522
 3577SOL    HW122193   1.895   0.437   3.775 -0.5684 -0.1829  0.4718
 3577SOL    HW222194   2.035   0.494   3.811  1.2937 -0.4082  2.4040
 3578SOL     OW22195   3.962   3.668   4.252  0.1443  0.3946 -0.2068
 3578SOL    HW122196   3.868   3.675   4.233  0.2424 -0.8686 -1.2028
 3578SOL    HW222197   3.962   3.724   4.329 -2.1190 -0.8957  0.7293
 3579SOL     OW22198   2.405   3.342   3.468  0.2315 -0.2916 -0.1629
 3579SOL    HW122199   2.487   3.329   3.420  1.6307 -2.6466  2.9041
 3579SOL    HW222200   2.350   3.369   3.393 -0.0851 -0.6001 -0.0442
 3580SOL     OW22201   2.667   0.734  16.886  0.1342  0.5102 -0.0491
 3580SOL    HW122202   2.612   0.663  16.919 -0.8876 -0.2673 -3.4047
 3580SOL    HW222203   2.641   0.818  16.924 -3.4070 -1.5146  2.0083
 3581SOL     OW22204   3.127   2.602   0.418  0.0267 -0.2062 -0.4501
 3581SOL    HW122205   3.067   2.672   0.392 -0.0891 -0.2005 -0.1685
 3581SOL    HW222206   3.210   2.645   0.439 -0.2692 -0.2794  0.9003
 3582SOL     OW22207   1.754   3.709   8.197  0.9560  0.0034 -0.5913
 3582SOL    HW122208   1.839   3.752   8.205  0.3821  1.0446 -0.0701
 3582SOL    HW222209   1.687   3.770   8.229  2.8205  0.4285  2.5327
 3583SOL     OW22210   0.687   0.902   7.463 -0.0789  0.1918  0.5348
 3583SOL    HW122211   0.598   0.934   7.477 -0.6726 -1.7948  1.2885
 3583SOL    HW222212   0.677   0.811   7.488  0.6731  0.1092  0.5414
 3584SOL     OW22213   3.820   3.927  16.583 -0.2418  0.0877  0.4995
 3584SOL    HW122214   3.796   3.965  16.668 -1.5224  0.6513 -0.1291
 3584SOL    HW222215   3.911   3.958  16.576 -1.4512  2.4736 -4.0225
 3585SOL     OW22216   0.915   2.888   8.412  0.0255 -0.0617 -0.1146
 3585SOL    HW122217   0.884   2.838   8.487  0.0501  1.6047  0.9923
 3585SOL    HW222218   0.903   2.813   8.353  2.6011 -0.9986  0.5818
 3586SOL     OW22219   3.850   1.952  15.218  0.2328 -0.4139  0.0426
 3586SOL    HW122220   3.923   2.007  15.248  0.4398  0.2252 -1.6297
 3586SOL    HW222221   3.791   1.965  15.292  1.8346 -0.5859  1.3624
 3587SOL     OW22222   3.928   2.297  15.811  0.0721  0.1199  0.4922
 3587SOL    HW122223   3.934   2.336  15.898 -0.1618 -0.7852  0.9219
 3587SOL    HW222224   3.848   2.247  15.828 -0.5301  0.5261 -1.0877
 3588SOL     OW22225   3.455   2.221   8.457 -0.4269 -0.4140  0.0036
 3588SOL    HW122226   3.409   2.275   8.521  1.4381  0.4146  0.6566
 3588SOL    HW222227   3.407   2.139   8.465  1.5280 -1.2571  3.1886
 3589SOL     OW22228   0.970   1.114   4.138 -0.0071 -0.0632  0.3766
 3589SOL    HW122229   1.025   1.144   4.210  1.7468 -0.4981 -0.7625
 3589SOL    HW222230   0.922   1.048   4.188 -1.1810  1.8020  1.6790
 3590SOL     OW22231   1.669   0.285   0.297  0.3336  0.0220 -0.3174
 3590SOL    HW122232   1.652   0.196   0.326  1.1451 -0.5512 -1.5685
 3590SOL    HW222233   1.603   0.347   0.328 -0.3293 -0.8313 -0.0372
 3591SOL     OW22234   2.446   1.962  15.678 -0.5648  0.4175 -0.2551
 3591SOL    HW122235   2.379   1.978  15.611  0.5901  1.4051 -1.1809
 3591SOL    HW222236   2.441   1.867  15.691 -3.4555  1.0110  2.9660
 3592SOL     OW22237   1.538   3.628  10.162  0.3952  0.3019 -0.4814
 3592SOL    HW122238   1.622   3.626  10.209 -1.0345 -2.1977  1.9542
 3592SOL    HW222239   1.483   3.561  10.203  2.0687 -0.2959  0.8332
 3593SOL     OW22240   3.789   4.152   6.489 -0.2772 -0.4338  0.3220
 3593SOL    HW122241   3.804   4.065   6.451 -1.8763 -1.0612  1.1545
 3593SOL    HW222242   3.849   4.147   6.563  1.0622 -0.3630 -0.7547
 3594SOL     OW22243   3.304   4.526   3.467 -0.4651 -0.5295  0.2270
 3594SOL    HW122244   3.344   4.494   3.548 -0.7204 -2.2416 -0.3174
 3594SOL    HW222245   3.304   4.447   3.413  0.5822 -1.5066  1.6691
 3595SOL     OW22246   4.659   2.032   2.702  0.5654  0.4499  0.1716
 3595SOL    HW122247   4.592   1.999   2.762 -1.2059  1.9351 -0.9696
 3595SOL    HW222248   4.700   1.953   2.667 -3.0530 -0.4383 -2.1429
 3596SOL     OW22249   1.555   0.244   4.685 -0.4522 -0.1786 -0.6136
 3596SOL    HW122250   1.572   0.170   4.743 -1.5579  0.0801  0.0164
 3596SOL    HW222251   1.488   0.286   4.737  1.3928  0.9016  0.8867
 3597SOL     OW22252   0.092   0.863   8.367  0.6704  0.1174  0.0202
 3597SOL    HW122253   0.073   0.812   8.288 -2.1715  0.4321  0.5013
 3597SOL    HW222254   0.134   0.942   8.333  0.7472  0.6296  1.2817
 3598SOL     OW22255   1.096   0.083   2.226  0.0978  0.0116  0.1646
 3598SOL    HW122256   1.182   0.090   2.268  0.0385 -0.8174  0.4285
 3598SOL    HW222257   1.111   0.131   2.145 -1.6730 -1.4406 -1.0229
 3599SOL     OW22258   1.116   3.726  17.386  0.0510  0.5045 -0.1255
 3599SOL    HW122259   1.021   3.728  17.400 -0.0373 -0.0425 -0.6668
 3599SOL    HW222260   1.144   3.643  17.425 -1.6669  0.5208  1.1493
 3600SOL     OW22261   3.508   2.765   9.497  0.2731  0.1032 -0.8306
 3600SOL    HW122262   3.546   2.853   9.504  0.5581  0.1680 -3.3848
 3600SOL    HW222263   3.534   2.723   9.579  0.9643  0.2288 -0.9843
 3601SOL     OW22264   3.301   4.163   6.795 -0.1030  0.1255 -0.2376
 3601SOL    HW122265   3.235   4.131   6.857  0.4910 -0.1132  0.2652
 3601SOL    HW222266   3.361   4.207   6.854 -0.4976 -0.0191  0.2753
 3602SOL     OW22267   3.666   1.606   5.470 -0.2386  0.0743 -0.9408
 3602SOL    HW122268   3.643   1.646   5.554 -2.6795 -1.3935 -0.9148
 3602SOL    HW222269   3.761   1.598   5.475  0.0354  2.6872 -1.7949
 3603SOL     OW22270   2.209   3.378  10.818 -0.3235 -0.3215  0.0051
 3603SOL    HW122271   2.150   3.305  10.798  0.3136 -0.8678  0.1411
 3603SOL    HW222272   2.165   3.445  10.766 -0.0141 -1.0841 -1.2391
 3604SOL     OW22273   0.204   2.118  10.876  0.3443 -0.4205  0.1048
 3604SOL    HW122274   0.198   2.210  10.847 -1.7343 -0.7251 -0.4665
 3604SOL    HW222275   0.113   2.101  10.899 -0.3249  0.9033 -1.5373
 3605SOL     OW22276   0.044   3.877   5.479  0.1323  0.2540 -0.3600
 3605SOL    HW122277   0.067   3.819   5.552 -2.0702 -1.9563 -1.4411
 3605SOL    HW222278   4.680   3.847   5.448  0.3789  0.8170 -1.6040
 3606SOL     OW22279   4.662   4.433  10.994 -0.0897  0.0620  0.1733
 3606SOL    HW122280   4.619   4.505  11.040  2.1460  0.9289  0.8896
 3606SOL    HW222281   0.031   4.456  11.016 -0.0239  1.0960 -1.1479
 3607SOL     OW22282   1.067   1.258  10.740  0.1439 -0.1340 -0.0547
 3607SOL    HW122283   1.075   1.341  10.787  1.0404 -0.9372  1.2375
 3607SOL    HW222284   1.089   1.286  10.651 -0.5898  1.7533  0.3534
 3608SOL     OW22285   1.615   1.180  14.052  0.1795  0.0502 -0.4792
 3608SOL    HW122286   1.674   1.215  14.119 -0.2886  1.0490 -0.5874
 3608SOL    HW222287   1.555   1.253  14.034  3.1993  2.3472 -1.2722
 3609SOL     OW22288   0.638   4.674   6.007 -0.5946  0.0388 -0.0731
 3609SOL    HW122289   0.686   4.658   6.088  0.0811 -2.3451 -0.9281
 3609SOL    HW222290   0.625   4.582   5.982 -0.5586 -0.3614  1.4019
 3610SOL     OW22291   4.206   3.115   3.249 -0.2243  0.3395 -0.3071
 3610SOL    HW122292   4.202   3.079   3.337 -1.2478 -1.4994 -1.0941
 3610SOL    HW222293   4.227   3.207   3.261 -0.9666  0.1211  2.5772
 3611SOL     OW22294   4.453   0.880   3.491  0.1520 -0.1443 -0.5978
 3611SOL    HW122295   4.479   0.952   3.548  0.9380 -0.4533 -0.5582
 3611SOL    HW222296   4.513   0.812   3.522 -1.1570 -0.5933  0.9491
 3612SOL     OW22297   3.102   2.346   1.869  0.8162  0.3987  0.5711
 3612SOL    HW122298   3.196   2.340   1.882  0.5297 -0.5493  2.1451
 3612SOL    HW222299   3.063   2.266   1.903  0.1172  1.0320  1.2411
 3613SOL     OW22300   3.076   3.537   4.176 -0.1164 -0.2544 -0.4029
 3613SOL    HW122301   3.099   3.481   4.101  2.0125  0.7886 -0.5290
 3613SOL    HW222302   2.984   3.550   4.152 -0.2229 -0.6380 -0.1977
 3614SOL     OW22303   2.550   1.681   4.679  0.0506  0.3176  0.1727
 3614SOL    HW122304   2.536   1.644   4.766  0.1267 -3.2453 -1.3241
 3614SOL    HW222305   2.639   1.648   4.668  0.3365  0.9008  0.7146
 3615SOL     OW22306   4.142   4.415   8.845 -0.2638 -0.1272  0.5305
 3615SOL    HW122307   4.177   4.447   8.761 -1.1603  2.0532  0.9888
 3615SOL    HW222308   4.153   4.321   8.829 -0.2340  0.2052 -1.4852
 3616SOL     OW22309   3.120   1.498   3.037 -0.1134  0.1695  0.1784
 3616SOL    HW122310   3.173   1.567   3.076 -2.6754  1.4130  1.4893
 3616SOL    HW222311   3.086   1.549   2.963  0.6134 -0.1453 -0.3712
 3617SOL     OW22312   4.094   4.101   1.746 -0.2274  0.3721  0.2451
 3617SOL    HW122313   4.061   4.108   1.657  1.0495 -0.5009 -0.3067
 3617SOL    HW222314   4.114   4.008   1.759 -0.9402  0.3814  1.4127
 3618SOL     OW22315   2.501   1.586  14.849 -0.5222  0.1895 -0.8104
 3618SOL    HW122316   2.440   1.589  14.922 -0.1245 -0.7779 -0.4272
 3618SOL    HW222317   2.482   1.660  14.791 -0.1304 -0.4400 -1.7549
 3619SOL     OW22318   1.936   1.278   1.698 -0.2049 -0.0547  0.3135
 3619SOL    HW122319   2.005   1.344   1.701  1.1345 -1.3705 -0.9517
 3619SOL    HW222320   1.978   1.207   1.748  1.2612  0.0718 -0.7261
 3620SOL     OW22321   1.655   2.048   2.684  0.0055  0.2164 -0.4541
 3620SOL    HW122322   1.727   2.077   2.740  1.3774 -1.8174 -1.1947
 3620SOL    HW222323   1.599   2.120   2.717 -0.4163 -0.1673 -0.3275
 3621SOL     OW22324   3.680   2.505  12.473 -0.4819  0.1291  0.3265
 3621SOL    HW122325   3.695   2.503  12.378  1.0100 -2.8223  0.6464
 3621SOL    HW222326   3.756   2.555  12.503  0.6682  0.3975 -3.0320
 3622SOL     OW22327   4.416   4.086   9.269 -0.0549  0.3286  0.1135
 3622SOL    HW122328   4.381   4.102   9.357 -1.4335 -0.5623 -0.2638
 3622SOL    HW222329   4.448   4.175   9.260  0.7868 -0.0640 -0.7158
 3623SOL     OW22330   2.300   0.508   0.084  0.5587  0.1090 -0.0499
 3623SOL    HW122331   2.291   0.420   0.048  0.4355 -0.0532  0.3763
 3623SOL    HW222332   2.395   0.494   0.081  0.6431  0.2001  1.8279
 3624SOL     OW22333   3.377   1.344   2.687  0.6475  0.0028  0.3434
 3624SOL    HW122334   3.407   1.422   2.640  1.0598 -0.4684 -0.1752
 3624SOL    HW222335   3.451   1.284   2.681 -0.0774 -0.9998  1.6875
 3625SOL     OW22336   1.304   2.161   7.724  0.4655  0.2906  0.3541
 3625SOL    HW122337   1.314   2.247   7.684  1.8652 -1.1719 -2.4963
 3625SOL    HW222338   1.256   2.109   7.659 -1.8241  1.0865  1.4371
 3626SOL     OW22339   1.003   0.564   8.189 -0.2337 -0.0282  0.1234
 3626SOL    HW122340   0.956   0.542   8.270 -0.9236  2.6232  0.4707
 3626SOL    HW222341   0.973   0.652   8.165  3.7439  1.8155  1.7470
 3627SOL     OW22342   1.866   2.631   7.818  0.2521  0.3164 -0.1934
 3627SOL    HW122343   1.816   2.555   7.847  1.9417 -0.4153  0.8156
 3627SOL    HW222344   1.822   2.701   7.867 -0.8053 -1.7686  1.8361
 3628SOL     OW22345   4.433   3.911   3.950 -0.1940  0.1511  0.0391
 3628SOL    HW122346   4.363   3.887   4.011  0.3159 -0.4957  0.3782
 3628SOL    HW222347   4.498   3.847   3.981 -1.6336 -1.1081  0.4757
 3629SOL     OW22348   0.402   2.236   8.937  0.3836  0.4556  0.2480
 3629SOL    HW122349   0.461   2.311   8.947  0.3212  0.6334 -0.7307
 3629SOL    HW222350   0.311   2.262   8.954 -0.6613 -2.0513 -1.5654
 3630SOL     OW22351   0.480   1.410  14.149 -0.0507  0.3518 -0.5454
 3630SOL    HW122352   0.403   1.387  14.098  0.1843  0.1839 -0.8265
 3630SOL    HW222353   0.539   1.345  14.110  1.5262  2.6228 -1.9551
 3631SOL     OW22354   2.375   0.951   3.844  0.1003  0.0384  0.1560
 3631SOL    HW122355   2.446   1.012   3.862 -0.7993  1.3642 -0.7222
 3631SOL    HW222356   2.308   1.015   3.817  0.4856 -0.0301 -0.9659
 3632SOL     OW22357   2.083   2.645   1.581 -0.2052  0.5645 -0.0577
 3632SOL    HW122358   2.168   2.663   1.541 -0.1668 -0.6688 -0.5482
 3632SOL    HW222359   2.106   2.574   1.641 -2.2431 -1.6517 -1.8882
 3633SOL     OW22360   0.769   0.234  16.677 -0.0736 -0.1668 -0.0239
 3633SOL    HW122361   0.833   0.207  16.741  1.0890 -1.3339 -1.6751
 3633SOL    HW222362   0.686   0.202  16.713 -0.6375 -0.8009 -1.8818
 3634SOL     OW22363   1.785   3.199   4.927 -0.1418  0.4574 -0.6126
 3634SOL    HW122364   1.876   3.213   4.901  0.0333  0.5417  0.0498
 3634SOL    HW222365   1.796   3.151   5.009 -2.0545  0.9125 -0.0954
 3635SOL     OW22366   4.547   0.701   6.727  0.5476 -0.1749  0.5164
 3635SOL    HW122367   4.545   0.789   6.688 -0.6548 -0.4878 -0.1238
 3635SOL    HW222368   4.457   0.679   6.703  0.9635 -0.3187 -0.9433
 3636SOL     OW22369   1.228   1.928   2.004 -0.4855  0.1904 -0.0487
 3636SOL    HW122370   1.322   1.941   2.019 -0.5803  2.9588 -1.9945
 3636SOL    HW222371   1.231   1.839   1.968  0.2920 -0.2963  1.2367
 3637SOL     OW22372   4.715   0.744   8.978  0.2221 -0.3596  0.3367
 3637SOL    HW122373   0.071   0.790   8.945  0.1762 -0.8651 -0.4711
 3637SOL    HW222374   0.019   0.711   9.064  0.6278 -1.1697 -0.0969
 3638SOL     OW22375   3.342   3.374   6.031 -0.6239  0.0800  0.8674
 3638SOL    HW122376   3.380   3.442   6.087  2.1260 -0.6303 -0.1450
 3638SOL    HW222377   3.252   3.374   6.064 -2.2064  2.4599 -3.5064
 3639SOL     OW22378   4.447   3.168  14.539  0.2174  0.6416  0.1178
 3639SOL    HW122379   4.381   3.228  14.575 -0.3159  0.7892 -1.0804
 3639SOL    HW222380   4.434   3.183  14.445  1.1943 -1.6983 -0.3667
 3640SOL     OW22381   2.394   0.572   2.187 -0.1027  0.1405 -0.5204
 3640SOL    HW122382   2.403   0.549   2.279 -0.4108 -1.8389 -0.9702
 3640SOL    HW222383   2.479   0.544   2.152  0.5902  1.5547  0.0680
 3641SOL     OW22384   2.276   1.184   6.677  0.4154  0.0183  0.3240
 3641SOL    HW122385   2.187   1.177   6.642  0.3044  0.3731  0.5294
 3641SOL    HW222386   2.272   1.274   6.710  2.5744  1.1088 -2.4561
 3642SOL     OW22387   4.152   0.890   3.868  0.2319 -0.0097  0.1722
 3642SOL    HW122388   4.106   0.812   3.837 -1.5148  1.4387 -0.8644
 3642SOL    HW222389   4.239   0.852   3.874 -0.8050 -2.4598 -0.2701
 3643SOL     OW22390   4.245   0.674   7.568  0.3888 -0.2411 -0.1390
 3643SOL    HW122391   4.171   0.734   7.579  0.0219 -0.8565  0.8236
 3643SOL    HW222392   4.297   0.750   7.545 -2.3125  1.2656 -1.3168
 3644SOL     OW22393   2.019   0.512   1.013 -0.0753 -0.4560  0.4853
 3644SOL    HW122394   1.940   0.565   1.022  0.7498  0.3329  2.8394
 3644SOL    HW222395   2.082   0.575   1.047  1.1444 -1.4911  0.1422
 3645SOL     OW22396   4.498   4.148   9.999  0.1832 -0.7608 -0.6257
 3645SOL    HW122397   4.490   4.059   9.965 -0.6715  0.0693 -2.5899
 3645SOL    HW222398   4.534   4.140  10.088 -1.4408 -2.2015 -0.0928
 3646SOL     OW22399   2.258   3.406   4.301  0.6900 -0.3782 -0.1505
 3646SOL    HW122400   2.316   3.368   4.367  0.0527 -1.8894 -0.4668
 3646SOL    HW222401   2.320   3.443   4.238 -0.2362  0.0687 -0.8112
 3647SOL     OW22402   1.971   2.900   6.855  0.3794 -0.1270 -0.2796
 3647SOL    HW122403   1.882   2.866   6.846  0.3598 -0.1852  0.1185
 3647SOL    HW222404   1.987   2.868   6.944  3.4499 -1.5587 -1.3535
 3648SOL     OW22405   3.004   1.833   8.785  0.0634 -0.0484  0.0878
 3648SOL    HW122406   3.003   1.835   8.881  2.7885 -0.1766  0.1283
 3648SOL    HW222407   3.080   1.890   8.773  0.2000 -0.2596 -0.0723
 3649SOL     OW22408   1.072   0.948   1.822  0.3881  0.5802 -0.1330
 3649SOL    HW122409   1.104   0.928   1.910 -4.8928 -1.3651  1.3385
 3649SOL    HW222410   1.135   0.892   1.777 -0.7214  0.4749 -1.5273
 3650SOL     OW22411   2.401   2.982   4.283  0.3074  0.3013 -0.1083
 3650SOL    HW122412   2.438   3.036   4.353 -0.3408  0.0715  0.4113
 3650SOL    HW222413   2.362   3.054   4.233 -1.7969  0.2612  1.4873
 3651SOL     OW22414   4.158   2.920  16.116  0.0140 -0.4331 -0.5299
 3651SOL    HW122415   4.130   3.000  16.160 -1.1539 -0.7679 -0.6434
 3651SOL    HW222416   4.250   2.906  16.136  0.1863 -0.3745 -1.2472
 3652SOL     OW22417   0.685   1.906   7.945 -0.1973  0.1475  0.0466
 3652SOL    HW122418   0.738   1.877   8.020  0.0473 -0.2758 -0.2864
 3652SOL    HW222419   0.601   1.862   7.954 -1.4677  2.4826 -0.3717
 3653SOL     OW22420   1.464   0.165   0.501  0.0400 -0.7744  0.1768
 3653SOL    HW122421   1.385   0.219   0.506  1.0181  0.8110 -1.2562
 3653SOL    HW222422   1.477   0.139   0.592 -1.8701 -1.3524  0.2966
 3654SOL     OW22423   2.111   3.184   4.304  0.2373 -0.1479  0.0197
 3654SOL    HW122424   2.147   3.132   4.232  0.5419  0.0523  0.0297
 3654SOL    HW222425   2.164   3.263   4.294  1.4832 -0.9849  0.0498
 3655SOL     OW22426   2.604   4.579   9.240  0.2755  0.0230 -0.0407
 3655SOL    HW122427   2.693   4.564   9.273  1.1555  1.4738 -1.7577
 3655SOL    HW222428   2.542   4.527   9.291 -0.0621  1.9905  1.5395
 3656SOL     OW22429   2.807   2.193   2.067  0.0435  0.0890  0.1810
 3656SOL    HW122430   2.898   2.166   2.058  0.2386  2.5646 -5.4164
 3656SOL    HW222431   2.821   2.287   2.082 -0.3111  0.2848 -0.7251
 3657SOL     OW22432   1.922   1.163   6.868  0.7355 -0.2913 -0.8326
 3657SOL    HW122433   1.847   1.103   6.871  0.3147  0.2483 -0.6620
 3657SOL    HW222434   1.955   1.156   6.957 -0.4248  1.5650 -0.2437
 3658SOL     OW22435   1.521   4.625   2.857  0.4026 -0.6595 -0.1026
 3658SOL    HW122436   1.581   4.551   2.854  1.3539  0.1005  0.3469
 3658SOL    HW222437   1.506   4.649   2.949  0.4378  2.1471 -0.8321
 3659SOL     OW22438   0.332   0.235   6.693 -0.6933  0.4487  0.3132
 3659SOL    HW122439   0.308   0.249   6.601 -0.8276  1.5751  0.5297
 3659SOL    HW222440   0.252   0.190   6.718 -0.7065  0.3704  0.1278
 3660SOL     OW22441   1.233   0.648  14.768  0.2042 -0.3328  0.4098
 3660SOL    HW122442   1.302   0.663  14.832 -1.1799  3.6336  0.9692
 3660SOL    HW222443   1.191   0.734  14.768  0.3397 -0.2673  2.3570
 3661SOL     OW22444   1.684   2.895   8.918 -0.1116 -0.2300  0.1057
 3661SOL    HW122445   1.712   2.956   8.850  0.6337 -1.6128 -0.8223
 3661SOL    HW222446   1.595   2.929   8.925 -0.8917 -2.0334 -1.1438
 3662SOL     OW22447   1.355   4.144  12.157  0.1223  0.5385 -0.7373
 3662SOL    HW122448   1.391   4.116  12.073  0.2116 -1.4113 -0.0535
 3662SOL    HW222449   1.339   4.056  12.192  2.5378  0.6239  0.6077
 3663SOL     OW22450   4.644   1.649  10.992  0.2326  0.3983 -0.3567
 3663SOL    HW122451   4.586   1.678  10.921 -1.7651 -2.2075  0.2161
 3663SOL    HW222452   4.582   1.615  11.056 -1.1231 -0.1988 -1.9859
 3664SOL     OW22453   0.849   0.095   6.557 -0.5445 -0.9786  0.2398
 3664SOL    HW122454   0.829   0.114   6.465  0.8054  0.4396  0.2398
 3664SOL    HW222455   0.860   0.189   6.575  1.4256 -0.9285 -1.1974
 3665SOL     OW22456   3.226   2.490   2.371  0.2631 -0.4399  1.0292
 3665SOL    HW122457   3.155   2.479   2.435 -1.2817 -0.0380 -0.6013
 3665SOL    HW222458   3.275   2.565   2.404 -1.3531 -0.1861  2.9019
 3666SOL     OW22459   0.720   0.537   9.548 -0.3705 -0.0726  0.3610
 3666SOL    HW122460   0.760   0.589   9.617 -0.1829 -1.2186  1.1241
 3666SOL    HW222461   0.693   0.599   9.481 -0.4461 -1.3747 -0.8115
 3667SOL     OW22462   1.361   0.905   3.430 -0.3827 -0.5268  0.1242
 3667SOL    HW122463   1.289   0.952   3.471 -1.0520  0.7168 -2.4960
 3667SOL    HW222464   1.355   0.811   3.448  0.7938 -1.1882 -2.9161
 3668SOL     OW22465   3.452   4.077  17.226 -0.9499 -0.4472  0.0074
 3668SOL    HW122466   3.453   4.172  17.215 -0.5634 -0.5559 -0.9046
 3668SOL    HW222467   3.395   4.054  17.152 -0.2547  1.1385 -1.0283
 3669SOL     OW22468   2.913   3.603   7.888  0.2416  0.3182  0.1362
 3669SOL    HW122469   2.998   3.603   7.932  0.7403 -2.0631 -0.8192
 3669SOL    HW222470   2.874   3.672   7.942 -0.7881  1.7917 -2.4926
 3670SOL     OW22471   4.331   1.578   3.678  0.3489  0.4955 -0.1860
 3670SOL    HW122472   4.384   1.612   3.606 -0.8665 -1.5899 -2.0480
 3670SOL    HW222473   4.290   1.661   3.705 -0.2647  0.9074 -2.4346
 3671SOL     OW22474   3.821   1.581   8.759 -0.3388  0.3695 -0.3451
 3671SOL    HW122475   3.742   1.620   8.722  0.0390  0.7641 -0.7292
 3671SOL    HW222476   3.890   1.632   8.717  1.1413  0.2821  1.9932
 3672SOL     OW22477   3.668   1.020   3.196  0.4320 -0.3644  0.0231
 3672SOL    HW122478   3.639   0.958   3.263 -0.8426  1.2470  0.9672
 3672SOL    HW222479   3.588   1.071   3.182  1.2942  0.7491 -0.9320
 3673SOL     OW22480   4.095   1.529   5.645 -0.1991  0.1338 -0.0691
 3673SOL    HW122481   4.017   1.569   5.606  1.2378  1.6237 -1.4661
 3673SOL    HW222482   4.164   1.562   5.587  2.2490  1.2844  3.4971
 3674SOL     OW22483   2.654   2.402  17.046  0.4663 -0.3212  0.0530
 3674SOL    HW122484   2.738   2.378  17.009  1.8911 -0.2388  3.1912
 3674SOL    HW222485   2.666   2.496  17.039  2.1813 -0.6034 -0.6029
 3675SOL     OW22486   2.991   2.751  12.805 -0.0721  0.5105 -0.0351
 3675SOL    HW122487   3.050   2.735  12.878 -1.1061 -0.4945  0.5891
 3675SOL    HW222488   3.036   2.732  12.723  0.7635  0.4064  0.4455
 3676SOL     OW22489   3.971   0.247  16.791  0.3149 -0.2772 -0.4905
 3676SOL    HW122490   3.916   0.271  16.866  1.3506  1.5600 -0.3155
 3676SOL    HW222491   3.898   0.201  16.750  0.3665  0.5863 -1.5350
 3677SOL     OW22492   1.009   2.349   3.944  0.1438  0.6056  0.2084
 3677SOL    HW122493   0.959   2.423   3.976  1.5699  2.4647 -1.8964
 3677SOL    HW222494   1.064   2.391   3.878 -0.8759  2.0737  0.3120
 3678SOL     OW22495   4.501   0.190   6.765 -0.3086  0.5928  0.1778
 3678SOL    HW122496   4.530   0.258   6.825 -0.3480 -1.0572  2.0659
 3678SOL    HW222497   4.419   0.157   6.799  0.5543 -2.3339 -0.5797
 3679SOL     OW22498   1.478   1.788   2.073 -0.4442  0.1415 -0.1466
 3679SOL    HW122499   1.519   1.712   2.034 -0.8844  0.6103 -1.5372
 3679SOL    HW222500   1.555   1.836   2.104 -1.0761  1.6761 -0.9452
 3680SOL     OW22501   4.719   2.742   6.427  0.7945 -0.5804 -0.0634
 3680SOL    HW122502   0.040   2.797   6.361 -0.2786 -0.4469 -0.6325
 3680SOL    HW222503   4.631   2.740   6.391  0.3144 -1.4449  1.1596
 3681SOL     OW22504   1.139   3.433   8.617 -0.2281 -0.4917  0.3373
 3681SOL    HW122505   1.228   3.469   8.611 -0.8095  0.9886  0.8573
 3681SOL    HW222506   1.152   3.395   8.704 -0.4246 -0.9123  0.1834
 3682SOL     OW22507   3.528   1.505   3.473  0.2241 -0.4849 -0.1371
 3682SOL    HW122508   3.590   1.552   3.416  1.7743 -0.3525  1.6534
 3682SOL    HW222509   3.572   1.421   3.487 -0.7232 -1.0264 -0.4527
 3683SOL     OW22510   2.317   1.676   2.613  0.3632  0.3286 -0.0001
 3683SOL    HW122511   2.281   1.658   2.699 -1.6512  0.8213 -0.7560
 3683SOL    HW222512   2.410   1.659   2.629 -0.0888 -1.2726  0.8526
 3684SOL     OW22513   1.167   1.064  15.221  0.0467  0.1377 -0.0563
 3684SOL    HW122514   1.230   1.118  15.270 -0.3479 -2.0221  2.8506
 3684SOL    HW222515   1.214   0.984  15.200  1.1580  0.9691 -0.7392
 3685SOL     OW22516   1.159   4.206   8.931  0.4298  0.5397  0.2694
 3685SOL    HW122517   1.253   4.208   8.949  0.5882 -2.1636 -0.2352
 3685SOL    HW222518   1.136   4.279   8.989 -1.2418  0.7931 -0.7261
 3686SOL     OW22519   1.878   2.168  12.955  0.5236 -1.0224 -0.1467
 3686SOL    HW122520   1.865   2.120  13.037 -1.0803  2.4586  1.6346
 3686SOL    HW222521   1.806   2.231  12.947  0.7761 -0.5167  1.5276
 3687SOL     OW22522   0.531   2.392  16.847  0.2836  0.5103  0.0952
 3687SOL    HW122523   0.438   2.375  16.835  1.1192 -2.2128 -2.7856
 3687SOL    HW222524   0.561   2.303  16.827  1.5795  0.8223  0.6521
 3688SOL     OW22525   1.101   2.252   7.211 -0.1541 -0.0529 -0.1162
 3688SOL    HW122526   1.039   2.180   7.206  1.0179 -0.9667 -1.5285
 3688SOL    HW222527   1.047   2.322   7.247 -1.0257 -1.2840  0.9486
 3689SOL     OW22528   4.112   4.158   2.805 -0.0567  0.2586 -0.7212
 3689SOL    HW122529   4.031   4.131   2.849  1.4798 -0.6486  1.5157
 3689SOL    HW222530   4.117   4.251   2.829  0.6349 -0.1762  0.7847
 3690SOL     OW22531   1.755   0.698   7.531 -0.0181  0.3156 -0.2212
 3690SOL    HW122532   1.796   0.613   7.518  0.0857  0.3425 -0.0592
 3690SOL    HW222533   1.828   0.759   7.532  0.3912 -0.1754 -0.6094
 3691SOL     OW22534   0.393   2.551   1.305 -0.1085 -0.8814 -0.2942
 3691SOL    HW122535   0.479   2.592   1.316 -1.1669  1.3913 -0.4521
 3691SOL    HW222536   0.400   2.523   1.214  1.4022 -0.6493 -0.2575
 3692SOL     OW22537   4.521   2.517   8.201 -0.3105  0.1436  0.0788
 3692SOL    HW122538   4.586   2.555   8.261  0.3036 -0.8081  0.0163
 3692SOL    HW222539   4.479   2.460   8.265  1.6015 -0.6678  0.6360
 3693SOL     OW22540   3.260   4.530  10.259 -0.3490  0.0997  0.1161
 3693SOL    HW122541   3.331   4.466  10.259 -0.9066 -0.5254  0.6736
 3693SOL    HW222542   3.192   4.470  10.226  1.1990  0.0520 -2.9397
 3694SOL     OW22543   3.839   2.162   2.071 -0.5644 -0.2375  0.2604
 3694SOL    HW122544   3.855   2.256   2.056  1.7212 -1.2149 -3.4472
 3694SOL    HW222545   3.750   2.149   2.039 -0.8500  1.4915  0.3430
 3695SOL     OW22546   0.235   3.964   1.839 -0.1999 -1.1359 -0.0387
 3695SOL    HW122547   0.227   3.874   1.806  1.5231 -1.6685  0.9903
 3695SOL    HW222548   0.231   3.941   1.932  2.1445 -1.4761 -0.0124
 3696SOL     OW22549   3.773   1.805  11.598  0.3054 -0.4678 -0.3440
 3696SOL    HW122550   3.810   1.823  11.512  1.6150  2.5701  0.8342
 3696SOL    HW222551   3.738   1.888  11.632 -0.2661  0.0149 -2.1378
 3697SOL     OW22552   0.494   1.120   5.708  0.0211 -0.3829 -0.6106
 3697SOL    HW122553   0.423   1.164   5.661 -0.1834  0.4860  0.4953
 3697SOL    HW222554   0.453   1.081   5.785  0.7275  0.4245  0.1736
 3698SOL     OW22555   1.143   3.720   6.103 -0.3404 -0.6113 -0.3574
 3698SOL    HW122556   1.079   3.690   6.039 -1.0293  0.7171 -0.2874
 3698SOL    HW222557   1.190   3.777   6.043  1.1660 -0.0970  1.2899
 3699SOL     OW22558   0.052   2.664  11.989  0.2642  0.4581  0.0624
 3699SOL    HW122559   4.677   2.655  11.982  0.2609 -0.2547  0.9284
 3699SOL    HW222560   0.095   2.582  11.967  1.3455  1.2505 -0.7219
 3700SOL     OW22561   1.097   1.949   6.877  0.2646  0.6300 -0.5262
 3700SOL    HW122562   1.161   2.019   6.860  1.3368 -0.9807 -3.1567
 3700SOL    HW222563   1.017   2.001   6.878  0.3925  0.7837  0.8356
 3701SOL     OW22564   4.532   3.309  12.202 -0.0997 -0.0939  0.2301
 3701SOL    HW122565   4.597   3.241  12.189  0.9665  1.1930 -1.2674
 3701SOL    HW222566   4.562   3.378  12.142  3.1533 -1.1383  0.6387
 3702SOL     OW22567   2.136   3.178   2.568 -0.5285  0.5636  0.0279
 3702SOL    HW122568   2.055   3.214   2.604 -0.5999  1.6941 -1.2579
 3702SOL    HW222569   2.162   3.235   2.495 -1.5162  0.5621 -0.3159
 3703SOL     OW22570   2.286   4.167  13.171  0.3325 -0.3469 -0.3782
 3703SOL    HW122571   2.358   4.214  13.213 -0.0836  0.3994 -0.4908
 3703SOL    HW222572   2.222   4.178  13.242  1.0387  2.6964 -0.2333
 3704SOL     OW22573   2.367   4.513   6.741 -0.2781  0.3379  0.1048
 3704SOL    HW122574   2.384   4.570   6.666  1.3503 -0.0304  0.1837
 3704SOL    HW222575   2.273   4.518   6.755 -0.8042 -1.6873 -2.5444
 3705SOL     OW22576   3.741   0.656   8.354  0.4344  0.4900  0.6114
 3705SOL    HW122577   3.817   0.692   8.309  0.5073 -2.3035 -1.4517
 3705SOL    HW222578   3.784   0.606   8.424 -0.8706 -0.3544  0.8053
 3706SOL     OW22579   3.154   2.657   6.497  0.1614  1.3789  0.1532
 3706SOL    HW122580   3.147   2.705   6.579  1.1411 -0.5560  1.3868
 3706SOL    HW222581   3.101   2.708   6.436  1.1265  2.1942 -0.0135
 3707SOL     OW22582   0.828   4.242  14.681  0.7216 -0.1498  0.3094
 3707SOL    HW122583   0.780   4.265  14.602  1.0168  1.3106  0.5532
 3707SOL    HW222584   0.749   4.212  14.725  0.4275  0.6250  0.3102
 3708SOL     OW22585   1.156   0.323   4.633  0.0160 -0.2204  0.0118
 3708SOL    HW122586   1.088   0.381   4.599 -0.3544  0.3790  1.7332
 3708SOL    HW222587   1.232   0.381   4.624 -0.2343 -0.0039 -0.6754
 3709SOL     OW22588   2.773   2.268   2.915 -0.7328  0.2891  0.0965
 3709SOL    HW122589   2.765   2.295   3.006  1.6436  0.1961  0.3232
 3709SOL    HW222590   2.795   2.175   2.925  1.3231  0.9451  1.5108
 3710SOL     OW22591   2.075   3.340   0.578  0.0162  0.1600  0.1022
 3710SOL    HW122592   2.078   3.422   0.530 -0.0639  0.0528 -0.0854
 3710SOL    HW222593   2.131   3.291   0.518 -2.0175 -0.1220 -1.5338
 3711SOL     OW22594   4.477   0.303  12.755 -0.6534  0.1060  0.1082
 3711SOL    HW122595   4.493   0.371  12.822  3.0233 -1.7237  1.1115
 3711SOL    HW222596   4.496   0.354  12.677 -1.2277 -2.6020 -1.7820
 3712SOL     OW22597   1.304   4.442   4.766 -0.4883  0.3391  0.7793
 3712SOL    HW122598   1.265   4.386   4.834 -2.2101  0.1156 -0.3934
 3712SOL    HW222599   1.246   4.413   4.696  0.9431 -1.3038  0.2865
 3713SOL     OW22600   2.906   2.530   5.827  0.6710 -0.1765  0.6061
 3713SOL    HW122601   2.959   2.607   5.849 -0.2564  0.8356 -0.7210
 3713SOL    HW222602   2.862   2.556   5.746  2.0285 -1.4861 -0.5437
 3714SOL     OW22603   1.839   3.412   7.642 -0.0826  0.0515  0.6935
 3714SOL    HW122604   1.914   3.396   7.585  0.3228 -1.1145  1.5549
 3714SOL    HW222605   1.795   3.474   7.584  0.5295 -0.4800 -0.3463
 3715SOL     OW22606   3.309   1.731   3.463  0.1390  0.2745  0.4129
 3715SOL    HW122607   3.387   1.677   3.477 -0.7862 -0.5352  2.3455
 3715SOL    HW222608   3.348   1.819   3.465 -0.9867  0.8822 -3.9135
 3716SOL     OW22609   2.763   4.492   6.067  0.2264  0.6408 -0.1138
 3716SOL    HW122610   2.713   4.410   6.060  2.6947 -0.8969  0.2043
 3716SOL    HW222611   2.854   4.462   6.062  0.8025  2.2279  0.8715
 3717SOL     OW22612   2.923   0.135  14.694  0.1392 -0.4180  0.5784
 3717SOL    HW122613   2.938   0.115  14.602 -1.7664  0.4706  0.0627
 3717SOL    HW222614   2.965   0.221  14.699  1.7578 -1.1671 -0.3502
 3718SOL     OW22615   1.548   2.261   6.540 -0.6415  0.0678 -0.0659
 3718SOL    HW122616   1.605   2.245   6.615  0.3200  0.6309 -0.6797
 3718SOL    HW222617   1.481   2.194   6.553 -0.6619  0.2831  0.9208
 3719SOL     OW22618   1.651   0.541   4.168  0.7082  0.9441 -0.2070
 3719SOL    HW122619   1.661   0.561   4.261  0.8861 -1.1122  0.2084
 3719SOL    HW222620   1.740   0.524   4.137  0.2735 -0.0739 -0.8833
 3720SOL     OW22621   3.241   0.758   1.777  0.0203  0.1030 -0.0030
 3720SOL    HW122622   3.282   0.695   1.835  0.8905  1.3517  0.7205
 3720SOL    HW222623   3.319   0.811   1.765 -0.7598  0.6865 -2.4930
 3721SOL     OW22624   3.403   1.678   7.451 -0.6313  0.3923 -0.0660
 3721SOL    HW122625   3.477   1.739   7.447 -0.8260  0.5919 -0.6547
 3721SOL    HW222626   3.449   1.594   7.460 -0.9240 -0.1245 -3.1896
 3722SOL     OW22627   3.476   0.951   1.708 -0.3437  0.3354 -0.1277
 3722SOL    HW122628   3.511   0.910   1.629 -0.2153 -2.2725  1.2619
 3722SOL    HW222629   3.553   0.945   1.764 -1.3561  1.2395  1.3648
 3723SOL     OW22630   2.974   1.883   2.341 -1.3521  0.5524 -0.1119
 3723SOL    HW122631   3.034   1.954   2.362  0.1291 -0.7831  0.1687
 3723SOL    HW222632   3.028   1.805   2.327 -1.7338  0.3789 -0.6437
 3724SOL     OW22633   4.390   0.260  15.669 -0.0343 -0.1330  0.0310
 3724SOL    HW122634   4.473   0.217  15.692  0.1017  0.3049  0.3669
 3724SOL    HW222635   4.431   0.332  15.621  3.2741 -0.9145  1.6388
 3725SOL     OW22636   4.700   3.777   0.210  0.2770 -0.2810  0.1104
 3725SOL    HW122637   4.663   3.826   0.283  0.9839  2.6077 -1.4400
 3725SOL    HW222638   4.717   3.691   0.249 -1.5026 -0.9695 -0.6161
 3726SOL     OW22639   2.887   1.802   3.676  0.1309 -0.4379 -0.1757
 3726SOL    HW122640   2.949   1.875   3.676 -0.6989  0.2632  1.0756
 3726SOL    HW222641   2.954   1.741   3.646  0.2352  0.2357 -1.2921
 3727SOL     OW22642   0.655   1.634   9.362 -0.3984  0.6762  0.3927
 3727SOL    HW122643   0.647   1.688   9.283  0.5245 -0.1399 -0.2548
 3727SOL    HW222644   0.696   1.556   9.326  1.3892  0.6324  2.5339
 3728SOL     OW22645   4.607   0.834   7.794  0.7422 -0.3667 -0.7432
 3728SOL    HW122646   4.657   0.899   7.745  1.1277  0.2515  0.4699
 3728SOL    HW222647   4.520   0.872   7.782  1.6009  2.0835  0.8289
 3729SOL     OW22648   0.568   2.229   4.704  0.3204  0.6338  0.0942
 3729SOL    HW122649   0.492   2.206   4.757 -0.3054  3.0529  0.2447
 3729SOL    HW222650   0.600   2.303   4.754  0.1740  2.0670 -1.9369
 3730SOL     OW22651   4.033   2.237   5.917 -0.2455  0.4218 -0.2866
 3730SOL    HW122652   3.984   2.186   5.982  0.7266 -0.0981  0.0308
 3730SOL    HW222653   4.125   2.237   5.943  0.1186 -1.2318 -1.5392
 3731SOL     OW22654   2.799   2.840   8.281 -0.0037  0.3710 -0.3160
 3731SOL    HW122655   2.835   2.778   8.218 -0.6663 -0.2026 -0.1389
 3731SOL    HW222656   2.874   2.899   8.284  0.9318 -0.8957  0.6995
 3732SOL     OW22657   2.089   1.587   7.334  0.2526  0.4674  0.2301
 3732SOL    HW122658   2.024   1.657   7.337 -0.6871 -0.3868 -0.1072
 3732SOL    HW222659   2.110   1.589   7.241 -2.2233 -0.9704 -0.3576
 3733SOL     OW22660   2.507   4.216   5.054  0.3356 -0.0350 -0.0123
 3733SOL    HW122661   2.521   4.310   5.063  1.3147 -0.3501  1.8255
 3733SOL    HW222662   2.415   4.214   5.029  0.2526  1.6633  0.2062
 3734SOL     OW22663   0.843   0.744  16.781  0.3523  0.0667  0.3891
 3734SOL    HW122664   0.817   0.778  16.867 -0.8249  0.8516 -0.2789
 3734SOL    HW222665   0.774   0.777  16.724  0.8433 -1.4831 -1.0997
 3735SOL     OW22666   0.671   0.324   8.281  0.1180 -0.2655  0.4616
 3735SOL    HW122667   0.584   0.293   8.257 -0.2619  1.3911 -0.3292
 3735SOL    HW222668   0.729   0.258   8.241  2.1939  2.7489 -1.5574
 3736SOL     OW22669   1.594   0.621  14.751 -0.0755  0.6255  0.1070
 3736SOL    HW122670   1.539   0.548  14.723  0.9109 -0.1215  0.0794
 3736SOL    HW222671   1.545   0.647  14.828 -0.3355  2.6409 -0.7435
 3737SOL     OW22672   3.234   3.623   4.904  0.9579 -0.7919 -0.0436
 3737SOL    HW122673   3.242   3.547   4.846 -0.7747 -1.1783  0.2241
 3737SOL    HW222674   3.163   3.673   4.864  1.6326  0.5666  0.4509
 3738SOL     OW22675   1.101   1.762  16.303  0.0098 -0.1198  0.1928
 3738SOL    HW122676   1.116   1.852  16.275 -0.9101 -0.1965 -0.5849
 3738SOL    HW222677   1.029   1.778  16.364  0.2063 -0.6555  0.5642
 3739SOL     OW22678   4.241   0.610   3.376  0.4566  0.6231  0.0991
 3739SOL    HW122679   4.247   0.556   3.297  0.4279  2.4133 -1.1304
 3739SOL    HW222680   4.196   0.542   3.426  0.2541  1.8256  1.5308
 3740SOL     OW22681   0.586   2.695   0.969 -0.1547  0.0487  0.6553
 3740SOL    HW122682   0.512   2.718   0.913  0.9760  0.5497 -0.6495
 3740SOL    HW222683   0.617   2.778   1.005  2.0501 -0.5593  0.1940
 3741SOL     OW22684   0.001   3.978  11.775 -0.2241 -0.3621  0.1836
 3741SOL    HW122685   0.072   3.958  11.836 -1.4026  0.0603  1.6959
 3741SOL    HW222686   0.038   4.016  11.695 -0.6468 -1.3723 -0.4942
 3742SOL     OW22687   1.108   3.324   4.433  0.3433  0.3834 -0.8103
 3742SOL    HW122688   1.137   3.365   4.515  2.7485 -1.0210 -0.9620
 3742SOL    HW222689   1.046   3.390   4.404  1.3984  1.4987 -0.4913
 3743SOL     OW22690   2.597   0.579   2.483  0.0151  0.0817  0.5705
 3743SOL    HW122691   2.573   0.625   2.563 -1.6282 -1.0424  0.7233
 3743SOL    HW222692   2.671   0.631   2.452 -0.0766  0.1997  0.5537
 3744SOL     OW22693   2.180   1.652   1.370  0.5360 -0.6432  0.2408
 3744SOL    HW122694   2.195   1.726   1.312 -2.5670  0.4498  0.8342
 3744SOL    HW222695   2.195   1.572   1.319  0.2160  0.8163 -2.1519
 3745SOL     OW22696   1.724   1.738  15.164 -0.0132  0.2608  0.4110
 3745SOL    HW122697   1.652   1.771  15.110 -1.2032  1.7930  2.8823
 3745SOL    HW222698   1.741   1.813  15.222 -2.5315  1.4735 -0.3907
 3746SOL     OW22699   3.563   1.630   6.973  0.6038  0.2214 -0.0055
 3746SOL    HW122700   3.590   1.589   7.055  0.9951  0.8248  0.1656
 3746SOL    HW222701   3.520   1.559   6.925 -1.7192  1.4934  0.2065
 3747SOL     OW22702   4.121   2.859  13.595 -0.6839 -0.0615 -0.5200
 3747SOL    HW122703   4.208   2.827  13.570 -1.7893 -1.4750 -2.5601
 3747SOL    HW222704   4.085   2.789  13.650  0.7700  2.1784  3.3299
 3748SOL     OW22705   3.629   0.090   7.304  0.0980  0.3754 -0.1096
 3748SOL    HW122706   3.615   0.123   7.216 -0.2847  1.5495  0.3972
 3748SOL    HW222707   3.584   0.150   7.364 -0.8595  1.4346 -1.8962
 3749SOL     OW22708   0.978   0.187   7.784 -0.3776 -0.6545  0.0181
 3749SOL    HW122709   1.067   0.166   7.757  1.1303  0.5726  4.1734
 3749SOL    HW222710   0.992   0.247   7.857 -3.0352 -2.6353  2.1252
 3750SOL     OW22711   4.334   1.642  16.734 -0.2614  0.2236 -0.4299
 3750SOL    HW122712   4.287   1.621  16.653 -2.6343 -1.0343  1.2843
 3750SOL    HW222713   4.372   1.725  16.705  1.2286  0.0841  1.1578
 3751SOL     OW22714   1.310   3.691  12.630 -0.1347 -0.2713  0.0724
 3751SOL    HW122715   1.377   3.752  12.663 -0.0063 -0.3575 -0.0286
 3751SOL    HW222716   1.249   3.749  12.585  0.7686  0.8593  0.2976
 3752SOL     OW22717   4.394   4.256  11.881 -0.1605 -0.3624  0.1877
 3752SOL    HW122718   4.436   4.341  11.869 -0.4486 -0.1642  0.5899
 3752SOL    HW222719   4.358   4.237  11.795  0.5608  0.2350 -0.2466
 3753SOL     OW22720   2.383   3.033   2.383 -0.3273 -0.2270 -0.1537
 3753SOL    HW122721   2.313   2.985   2.339  0.4473 -0.8869 -0.6565
 3753SOL    HW222722   2.346   3.058   2.468  0.0779 -0.3719  0.0637
 3754SOL     OW22723   4.194   0.592  11.695 -0.3309 -0.2836  0.6371
 3754SOL    HW122724   4.216   0.675  11.737  1.2856  0.1766 -1.1185
 3754SOL    HW222725   4.145   0.630  11.622  0.3404  0.1539  0.4164
 3755SOL     OW22726   3.919   2.513   7.202 -0.1200 -0.0183 -0.3926
 3755SOL    HW122727   3.887   2.588   7.254  1.4987  1.2389 -1.2075
 3755SOL    HW222728   3.941   2.464   7.282 -0.7164 -1.4048 -1.0869
 3756SOL     OW22729   3.848   4.541   4.503  0.3353  0.1003 -0.2452
 3756SOL    HW122730   3.818   4.630   4.519 -1.2634 -0.2748 -1.1377
 3756SOL    HW222731   3.929   4.539   4.554  0.3598  3.4152 -0.2088
 3757SOL     OW22732   1.635   0.984   1.908 -0.4088  0.3928  0.0335
 3757SOL    HW122733   1.723   0.989   1.945 -0.1923 -1.3132 -0.2531
 3757SOL    HW222734   1.638   1.052   1.841  1.3313  1.5266  1.2722
 3758SOL     OW22735   4.165   2.906   0.900  0.1474 -0.6915  0.2663
 3758SOL    HW122736   4.260   2.914   0.906  0.0571 -0.3543  1.1843
 3758SOL    HW222737   4.152   2.946   0.814 -2.0394 -0.2081  0.8132
 3759SOL     OW22738   2.675   2.566   5.042 -0.5421 -0.3908  0.0491
 3759SOL    HW122739   2.633   2.488   5.006  0.1282 -0.1517 -1.2550
 3759SOL    HW222740   2.755   2.573   4.990 -1.2452  0.8987 -0.8686
 3760SOL     OW22741   4.691   4.670   2.678  0.4586 -0.1006  0.5532
 3760SOL    HW122742   4.629   0.004   2.727 -0.2578 -0.6210  0.2344
 3760SOL    HW222743   4.626   4.646   2.612 -0.5709 -0.3384  1.6524
 3761SOL     OW22744   1.027   3.135   8.316 -0.1482  0.2561  0.4182
 3761SOL    HW122745   0.987   3.058   8.356  2.7693 -1.1797  0.5635
 3761SOL    HW222746   1.119   3.113   8.333  0.2623  0.5975 -1.3679
 3762SOL     OW22747   1.854   0.020  12.829 -0.3200 -0.6218  0.1529
 3762SOL    HW122748   1.792   0.092  12.841 -0.1458 -0.6209  1.0416
 3762SOL    HW222749   1.901   0.021  12.912  1.8473 -1.8107 -1.0534
 3763SOL     OW22750   1.579   1.554  11.371 -0.2026 -0.5363 -0.3638
 3763SOL    HW122751   1.588   1.460  11.358 -1.9585 -0.9077  1.0590
 3763SOL    HW222752   1.498   1.575  11.323 -0.1924  0.8391  0.1988
 3764SOL     OW22753   3.255   2.427  17.306 -0.0884 -0.4082  0.0696
 3764SOL    HW122754   3.182   2.421  17.244  0.0748  0.1966 -0.1787
 3764SOL    HW222755   3.316   2.483  17.258  0.3333 -0.9378 -0.0091
 3765SOL     OW22756   0.023   0.740   2.668  0.3298  0.0878  0.1007
 3765SOL    HW122757   0.117   0.729   2.682  0.3887 -1.4607 -1.4882
 3765SOL    HW222758   4.701   0.761   2.750  0.3694  0.9227 -0.0889
 3766SOL     OW22759   0.722   1.308   5.240 -0.2031 -0.1168  0.2205
 3766SOL    HW122760   0.685   1.259   5.167 -0.1050  2.3196 -1.4734
 3766SOL    HW222761   0.732   1.388   5.189  2.3532  0.4002  1.5426
 3767SOL     OW22762   0.028   1.076  11.006 -0.2613  0.1593 -0.0085
 3767SOL    HW122763   0.017   1.134  10.930 -0.0763 -0.1257 -0.2527
 3767SOL    HW222764   4.682   1.099  11.070 -1.3544 -0.0136 -1.0857
 3768SOL     OW22765   4.202   3.940   9.727 -0.0376 -0.5019 -0.2965
 3768SOL    HW122766   4.222   3.880   9.799  1.0977  0.2244 -0.0084
 3768SOL    HW222767   4.108   3.948   9.744  0.2665  0.9963  0.6966
 3769SOL     OW22768   0.741   0.522  13.566 -0.1624 -0.1032 -0.3410
 3769SOL    HW122769   0.677   0.592  13.572 -1.0458 -0.8932 -0.5231
 3769SOL    HW222770   0.743   0.508  13.471  0.5640  2.4530 -0.7027
 3770SOL     OW22771   3.160   0.986   6.299 -0.3458 -0.2193  0.3961
 3770SOL    HW122772   3.175   0.928   6.224  0.0212 -0.9321  1.0230
 3770SOL    HW222773   3.122   0.925   6.362  1.2817 -1.4356  0.2150
 3771SOL     OW22774   2.890   4.566  17.112  0.7902 -0.6095  0.0263
 3771SOL    HW122775   2.838   4.550  17.033  0.5268 -0.1069  0.0952
 3771SOL    HW222776   2.838   4.528  17.183  1.6028 -1.3437  0.2248
 3772SOL     OW22777   2.292   3.406   7.865 -0.3768 -0.4707 -0.1982
 3772SOL    HW122778   2.348   3.442   7.796  0.0417  1.3319  1.0700
 3772SOL    HW222779   2.229   3.353   7.816 -0.9549 -0.2212  0.2802
 3773SOL     OW22780   0.574   2.685   8.358 -0.3999  0.1349 -0.1079
 3773SOL    HW122781   0.655   2.677   8.408 -0.9979 -0.7267  0.7262
 3773SOL    HW222782   0.611   2.667   8.271 -2.7900  0.7386 -1.2551
 3774SOL     OW22783   1.232   3.559   6.915  0.2582 -0.1388 -0.3775
 3774SOL    HW122784   1.192   3.604   6.841 -1.9282  0.3877  1.1299
 3774SOL    HW222785   1.173   3.575   6.989  3.4806  0.2335  2.0887
 3775SOL     OW22786   2.023   3.592   4.232 -0.2634 -0.1470  0.3619
 3775SOL    HW122787   2.089   3.530   4.262 -1.3324 -0.0571  2.8342
 3775SOL    HW222788   1.948   3.547   4.270 -0.8840  1.1196  0.6445
 3776SOL     OW22789   2.313   4.590   7.665  0.0738  0.1042  0.2466
 3776SOL    HW122790   2.311   4.641   7.746  0.9756  1.9117 -0.8743
 3776SOL    HW222791   2.245   4.527   7.688 -0.7904  0.1067 -2.2905
 3777SOL     OW22792   4.496   4.607   9.989 -0.1597 -0.2190 -0.2381
 3777SOL    HW122793   4.515   4.700   9.974  1.5209 -0.4030  0.7336
 3777SOL    HW222794   4.422   4.608  10.050  0.3955 -1.8564  0.4591
 3778SOL     OW22795   2.977   4.105   7.129 -0.5294 -0.1618 -0.7315
 3778SOL    HW122796   3.008   4.032   7.075  3.6201  0.4476  0.7850
 3778SOL    HW222797   3.003   4.086   7.219  1.1802  0.8711 -0.9944
 3779SOL     OW22798   0.879   1.808   5.770  0.3585  0.2014 -0.0535
 3779SOL    HW122799   0.962   1.785   5.728  0.4690  0.2732  0.1267
 3779SOL    HW222800   0.812   1.758   5.722  0.2552  0.1112  0.1837
 3780SOL     OW22801   2.653   2.957   9.653  0.5007  0.2502  0.0872
 3780SOL    HW122802   2.607   2.920   9.728  2.9836 -0.7093  1.1458
 3780SOL    HW222803   2.746   2.944   9.675  0.3989 -2.5303 -1.1346
 3781SOL     OW22804   3.479   1.623   0.290  0.2005  0.0541 -0.0584
 3781SOL    HW122805   3.483   1.581   0.376 -0.5239  0.1052 -0.0026
 3781SOL    HW222806   3.573   1.626   0.273  0.4598  1.7159  1.8048
 3782SOL     OW22807   3.790   0.603   6.395 -0.0956 -0.0493  0.2197
 3782SOL    HW122808   3.716   0.658   6.419  0.1637  0.8297 -0.9875
 3782SOL    HW222809   3.743   0.547   6.333  1.3648  1.8271 -2.5715
 3783SOL     OW22810   0.033   2.251   1.943 -0.6136 -0.0738  0.2152
 3783SOL    HW122811   4.706   2.206   1.873  0.8433  0.9352 -1.4461
 3783SOL    HW222812   0.013   2.194   2.017 -0.8313 -0.3623 -0.0648
 3784SOL     OW22813   3.132   0.795   6.929  0.4616 -0.5254 -0.5385
 3784SOL    HW122814   3.137   0.870   6.870  1.4777  1.3834  1.9825
 3784SOL    HW222815   3.128   0.847   7.009  1.6250 -2.1089  0.5592
 3785SOL     OW22816   0.168   0.250   1.917  0.3910 -0.6299 -0.3785
 3785SOL    HW122817   0.134   0.317   1.858 -0.7707 -0.5843  0.3419
 3785SOL    HW222818   0.251   0.288   1.943  0.2316  0.5773 -1.6191
 3786SOL     OW22819   1.319   1.430   7.441 -0.4098  0.5325 -0.2150
 3786SOL    HW122820   1.414   1.442   7.435 -0.6143  0.8781 -2.5535
 3786SOL    HW222821   1.316   1.357   7.503  1.1658  0.0110 -0.7638
 3787SOL     OW22822   1.670   1.845  10.342 -0.1775  0.0465 -0.1292
 3787SOL    HW122823   1.765   1.838  10.338 -0.1186  2.1693 -2.3162
 3787SOL    HW222824   1.647   1.887  10.259 -1.2179 -0.4075 -0.0767
 3788SOL     OW22825   3.721   3.815   5.963  0.1177  0.1144 -0.0056
 3788SOL    HW122826   3.715   3.729   5.921  0.4884  0.0513  0.0640
 3788SOL    HW222827   3.795   3.804   6.023  0.1687  0.3997 -0.0184
 3789SOL     OW22828   2.809   4.058   6.536  0.1010  0.0636 -0.4628
 3789SOL    HW122829   2.805   4.132   6.476 -1.4814 -0.5243 -1.0698
 3789SOL    HW222830   2.747   3.997   6.496 -0.0516 -1.8118  2.6420
 3790SOL     OW22831   2.892   4.280  10.390  0.0475  0.7535  0.2730
 3790SOL    HW122832   2.800   4.293  10.412 -0.3662 -1.3390 -0.1889
 3790SOL    HW222833   2.904   4.219  10.463 -0.5229 -0.8378 -0.9758
 3791SOL     OW22834   0.605   3.977   8.281 -0.0722  0.4585  0.1833
 3791SOL    HW122835   0.578   3.895   8.241 -0.2884  1.0155 -0.8130
 3791SOL    HW222836   0.652   3.942   8.357  1.1320  2.1559  0.2243
 3792SOL     OW22837   3.978   3.991   3.990  0.2098 -0.3808  0.5602
 3792SOL    HW122838   4.006   4.082   3.987 -0.2788 -0.2601 -0.4718
 3792SOL    HW222839   4.002   3.956   4.076 -0.7399 -2.8271 -0.1577
 3793SOL     OW22840   0.692   3.062  16.830  0.3481  0.2540  0.0412
 3793SOL    HW122841   0.745   3.094  16.903 -1.4537  1.9721  0.5926
 3793SOL    HW222842   0.764   3.022  16.781  0.7663  0.9604  0.0791
 3794SOL     OW22843   2.146   2.441  17.661 -0.2692 -0.5942  0.3173
 3794SOL    HW122844   2.227   2.391  17.662  0.6044  0.8361  0.7241
 3794SOL    HW222845   2.185   2.528  17.671 -0.3389 -0.4166 -0.8878
 3795SOL     OW22846   4.164   0.144   6.263 -0.3292  0.0213  0.0467
 3795SOL    HW122847   4.159   0.173   6.172 -1.3006 -1.7247 -0.4411
 3795SOL    HW222848   4.076   0.174   6.287  0.2715  2.4500 -0.7168
 3796SOL     OW22849   0.323   4.416   1.882  0.1544  0.5897  0.1081
 3796SOL    HW122850   0.369   4.497   1.903  1.3962 -0.3589  1.0492
 3796SOL    HW222851   0.285   4.434   1.796  2.1292 -1.1311 -1.1081
 3797SOL     OW22852   2.068   0.963  14.678 -0.3623 -0.2366 -0.3790
 3797SOL    HW122853   2.164   0.961  14.683 -0.3641  0.1201 -0.2351
 3797SOL    HW222854   2.056   0.916  14.760 -0.2435 -0.0002 -0.2288
 3798SOL     OW22855   1.005   3.634   4.082  0.1013 -0.0877 -0.4100
 3798SOL    HW122856   1.100   3.639   4.089  0.1106  1.0281 -1.4445
 3798SOL    HW222857   0.993   3.618   3.989 -0.7303 -1.8075 -0.0166
 3799SOL     OW22858   1.885   0.349  15.532  0.1313  0.3884  1.0030
 3799SOL    HW122859   1.835   0.427  15.509  1.3403  0.7992 -0.2094
 3799SOL    HW222860   1.862   0.359  15.625 -0.1693 -0.9043  1.0684
 3800SOL     OW22861   3.582   4.190   7.270  0.1263  0.2818 -0.3422
 3800SOL    HW122862   3.676   4.174   7.274  0.0529 -0.3229 -0.9986
 3800SOL    HW222863   3.554   4.118   7.327 -2.5354  1.4842 -0.1232
 3801SOL     OW22864   2.541   1.618   2.281  0.4759 -0.1983 -0.0183
 3801SOL    HW122865   2.620   1.669   2.260  0.9829 -1.1759 -0.5245
 3801SOL    HW222866   2.580   1.531   2.274 -2.0938 -1.3371  0.0210
 3802SOL     OW22867   2.450   0.015  12.247 -0.6720  0.1058  0.0548
 3802SOL    HW122868   2.416   4.717  12.334  0.1088  2.4744  0.8655
 3802SOL    HW222869   2.545   0.013  12.257 -0.6122 -0.3689 -0.6099
 3803SOL     OW22870   1.459   1.049  13.065  0.2463  0.2275  0.8665
 3803SOL    HW122871   1.363   1.049  13.064  0.2641  0.4598 -0.7217
 3803SOL    HW222872   1.472   0.980  13.000 -0.0809  0.1529  0.8790
 3804SOL     OW22873   2.147   4.449   7.822 -0.4739 -0.5417 -0.0479
 3804SOL    HW122874   2.202   4.426   7.897 -1.3898 -1.1962  0.4141
 3804SOL    HW222875   2.079   4.499   7.866 -1.4206  1.0178 -3.2724
 3805SOL     OW22876   2.834   3.699   8.467 -0.0056 -0.9938 -0.0229
 3805SOL    HW122877   2.739   3.698   8.453 -0.1945 -2.4593  1.2860
 3805SOL    HW222878   2.867   3.766   8.408 -0.6179  0.7824  1.6389
 3806SOL     OW22879   2.062   3.088  11.821 -0.4181  0.4066  0.2046
 3806SOL    HW122880   2.119   3.164  11.833 -0.4381  0.1102  2.1974
 3806SOL    HW222881   2.016   3.104  11.739 -2.4105 -0.5069  1.1507
 3807SOL     OW22882   3.966   4.084   1.452  0.0474 -0.0493 -0.5904
 3807SOL    HW122883   3.909   4.054   1.381 -0.0573 -2.0128  0.3233
 3807SOL    HW222884   4.047   4.088   1.401 -0.1705 -0.6971 -0.9862
 3808SOL     OW22885   2.226   1.707  16.464  0.2106 -0.0310 -0.0604
 3808SOL    HW122886   2.235   1.800  16.482  1.8727  0.0821 -1.4817
 3808SOL    HW222887   2.241   1.679  16.554 -2.1818 -0.9643  0.0454
 3809SOL     OW22888   2.532   3.123  16.773  0.5526  0.6167 -0.5383
 3809SOL    HW122889   2.557   3.031  16.768 -1.6913  0.0269 -0.7784
 3809SOL    HW222890   2.616   3.169  16.769  0.9942  0.0102  1.7788
 3810SOL     OW22891   0.450   2.259   7.599  0.0210  0.3385  0.4345
 3810SOL    HW122892   0.425   2.234   7.688 -0.8772 -0.3666 -0.0175
 3810SOL    HW222893   0.388   2.329   7.585 -2.3663 -2.0044 -0.6664
 3811SOL     OW22894   3.154   2.727   8.284 -0.4036  0.1035  0.1796
 3811SOL    HW122895   3.089   2.676   8.331  0.5147 -2.4882 -1.3442
 3811SOL    HW222896   3.115   2.814   8.290 -2.0885 -0.5269 -1.7048
 3812SOL     OW22897   1.740   1.989   1.256 -0.1797 -1.0544  0.1919
 3812SOL    HW122898   1.769   2.025   1.173 -2.2269  3.2859  1.3059
 3812SOL    HW222899   1.823   1.987   1.303 -0.6880  0.2271  1.1579
 3813SOL     OW22900   2.692   0.274   8.612 -0.0451  0.5438  0.1308
 3813SOL    HW122901   2.744   0.308   8.539 -0.3180 -0.4157 -0.5088
 3813SOL    HW222902   2.614   0.237   8.571  2.3903 -1.4509 -2.6690
 3814SOL     OW22903   4.718   0.959   6.296  0.1427  0.0665  0.7510
 3814SOL    HW122904   0.057   0.887   6.272  0.3256  0.4533  0.0478
 3814SOL    HW222905   0.062   1.027   6.309 -0.6830  0.6406  1.8392
 3815SOL     OW22906   4.132   4.400   1.354 -0.5626  0.3405  0.3158
 3815SOL    HW122907   4.063   4.357   1.303  0.2785 -1.9382  1.0847
 3815SOL    HW222908   4.168   4.463   1.292  0.4735  0.1659  0.7367
 3816SOL     OW22909   0.785   2.799   7.629 -0.5435 -0.1533  0.1344
 3816SOL    HW122910   0.808   2.826   7.540  1.6336 -0.9301  0.4627
 3816SOL    HW222911   0.690   2.812   7.633 -0.4084  0.5397  1.1755
 3817SOL     OW22912   2.216   2.068  15.507 -0.2133 -0.0397  0.0056
 3817SOL    HW122913   2.165   2.148  15.519  1.0954  0.8118 -0.1631
 3817SOL    HW222914   2.147   2.014  15.546 -0.5032  0.4866  0.2269
 3818SOL     OW22915   3.884   2.394  12.124 -0.3577 -0.3707  0.0064
 3818SOL    HW122916   3.825   2.426  12.192  4.0526  2.1061  2.6561
 3818SOL    HW222917   3.844   2.307  12.120 -0.1849 -0.3644 -1.7023
 3819SOL     OW22918   3.646   1.256   3.429  0.4387 -0.2863  0.6872
 3819SOL    HW122919   3.667   1.227   3.340  1.9218  0.0530  0.9242
 3819SOL    HW222920   3.646   1.173   3.477  0.3769 -2.3060 -2.8121
 3820SOL     OW22921   2.774   0.183  15.839  0.6603 -0.2542  0.0296
 3820SOL    HW122922   2.686   0.196  15.804  0.7281  1.3077  0.4414
 3820SOL    HW222923   2.770   0.201  15.933 -2.0885 -0.3624 -0.0705
 3821SOL     OW22924   1.128   2.233  17.345 -0.3060 -0.9015  0.2083
 3821SOL    HW122925   1.122   2.318  17.302 -0.2389 -0.7014  0.5970
 3821SOL    HW222926   1.206   2.237  17.399 -0.7144 -0.6523  0.7761
 3822SOL     OW22927   0.465   0.361  15.289 -0.5802  0.0356  0.5325
 3822SOL    HW122928   0.502   0.321  15.211  0.8571  2.9416 -0.2732
 3822SOL    HW222929   0.474   0.453  15.267  0.5468  0.0303  0.9779
 3823SOL     OW22930   4.655   4.443   0.289  0.3832 -0.1506  0.4704
 3823SOL    HW122931   4.721   4.510   0.271 -0.1547 -0.3339 -2.1462
 3823SOL    HW222932   4.596   4.437   0.214 -0.6789 -0.0130  1.2875
 3824SOL     OW22933   3.797   2.419  10.711  0.1132  0.3778  0.3213
 3824SOL    HW122934   3.736   2.471  10.658  0.7735  2.5736  1.7047
 3824SOL    HW222935   3.878   2.469  10.707  0.5584 -0.2855  1.1835
 3825SOL     OW22936   4.636   1.317   6.152 -0.1199 -0.3251  0.2100
 3825SOL    HW122937   4.617   1.224   6.145 -3.4732  0.2939  0.9215
 3825SOL    HW222938   4.585   1.331   6.231 -1.0483  0.0733 -0.4659
 3826SOL     OW22939   0.794   4.339  10.639 -0.1817 -0.9431  0.2265
 3826SOL    HW122940   0.776   4.356  10.731 -1.2242  1.3160 -0.3970
 3826SOL    HW222941   0.783   4.429  10.608  2.6235 -0.1944  1.4105
 3827SOL     OW22942   0.728   1.019   5.834 -0.3582  0.5970 -0.0269
 3827SOL    HW122943   0.710   1.036   5.927  1.3318 -1.3970  0.6648
 3827SOL    HW222944   0.660   1.072   5.792  0.7842  0.7068 -1.7438
 3828SOL     OW22945   4.253   2.926  11.958 -0.3798  0.1675 -0.0013
 3828SOL    HW122946   4.259   2.831  11.954 -1.2124  0.0953  0.5706
 3828SOL    HW222947   4.275   2.933  11.865  3.2917  4.1183  1.1353
 3829SOL     OW22948   3.513   2.479  16.477  0.4660 -0.1844 -0.7325
 3829SOL    HW122949   3.438   2.420  16.482  1.1135 -0.7610  2.3955
 3829SOL    HW222950   3.477   2.566  16.489  0.2953 -0.4858  0.9283
 3830SOL     OW22951   1.106   3.076   6.794  0.0213  0.4362  0.3590
 3830SOL    HW122952   1.050   3.057   6.869 -0.2118  2.8872  0.7991
 3830SOL    HW222953   1.088   3.007   6.730  0.2714  0.2678  0.4723
 3831SOL     OW22954   0.649   2.218   2.633 -0.2056  0.9493 -0.2114
 3831SOL    HW122955   0.683   2.188   2.549  0.0904  1.0653 -0.1333
 3831SOL    HW222956   0.611   2.137   2.667  0.7460  0.8407  0.6190
 3832SOL     OW22957   3.859   3.432   8.031  0.5584 -0.1836 -0.4042
 3832SOL    HW122958   3.867   3.378   7.953 -0.2803 -1.2729  0.2594
 3832SOL    HW222959   3.832   3.365   8.094  1.9591 -1.7748 -1.4828
 3833SOL     OW22960   4.705   4.345   5.476  0.6457 -0.0699 -0.4800
 3833SOL    HW122961   0.038   4.266   5.484 -1.4127 -1.3531  0.7453
 3833SOL    HW222962   4.626   4.326   5.528  2.0048  1.3562  2.0927
 3834SOL     OW22963   2.994   4.330   6.643  0.0804 -0.0695  0.0493
 3834SOL    HW122964   3.044   4.392   6.696  1.4694  0.4185 -1.8262
 3834SOL    HW222965   2.998   4.257   6.705 -2.7815 -0.7175 -0.5349
 3835SOL     OW22966   4.052   3.687   2.119  0.2806  0.3000  0.8376
 3835SOL    HW122967   4.082   3.748   2.186 -0.1748 -0.0163  1.3326
 3835SOL    HW222968   3.964   3.722   2.103  0.9719  0.8722 -1.7978
 3836SOL     OW22969   1.389   0.316   1.651 -0.1858 -0.3202 -0.1839
 3836SOL    HW122970   1.336   0.239   1.674  0.0051 -0.9556 -1.8609
 3836SOL    HW222971   1.424   0.288   1.566  0.2604  2.3266 -0.8744
 3837SOL     OW22972   2.946   4.488   3.996  0.2774  0.1496 -0.1753
 3837SOL    HW122973   2.882   4.417   3.995 -0.4013  0.7741 -0.9750
 3837SOL    HW222974   2.994   4.472   3.915  0.8000  0.6246  0.0373
 3838SOL     OW22975   4.361   0.830  16.512  0.6762 -0.2477  0.1851
 3838SOL    HW122976   4.411   0.833  16.594 -1.4511 -0.0005  1.4574
 3838SOL    HW222977   4.333   0.739  16.522 -2.3905  0.5611 -1.0127
 3839SOL     OW22978   4.283   3.102   7.142  0.2921  0.4051  0.4022
 3839SOL    HW122979   4.362   3.054   7.116  0.9315  1.6426  0.0867
 3839SOL    HW222980   4.314   3.163   7.209 -0.3322  0.1003  0.9815
 3840SOL     OW22981   4.669   0.590   7.707 -0.3097 -0.2729 -0.0435
 3840SOL    HW122982   4.639   0.679   7.727  0.7227  0.4059 -1.4903
 3840SOL    HW222983   4.593   0.560   7.657 -0.7114 -1.4470  1.2828
 3841SOL     OW22984   1.652   0.309  10.482 -0.1720 -0.3174 -0.5773
 3841SOL    HW122985   1.611   0.323  10.397 -0.8438 -0.3109 -0.2537
 3841SOL    HW222986   1.577   0.289  10.538 -0.1475  3.5180  0.7869
 3842SOL     OW22987   3.131   0.203   5.815 -0.6589 -0.7521 -0.2399
 3842SOL    HW122988   3.040   0.226   5.797 -0.7496  0.2311  1.4210
 3842SOL    HW222989   3.131   0.111   5.790 -0.2920 -0.7358 -0.2999
 3843SOL     OW22990   1.696   0.779   7.053 -0.3484 -0.5614 -0.1229
 3843SOL    HW122991   1.715   0.779   6.959  1.1632  1.1747  0.1876
 3843SOL    HW222992   1.765   0.721   7.085  0.2519 -1.8017 -3.6274
 3844SOL     OW22993   3.065   3.600   2.701 -0.1945 -0.3110 -0.3757
 3844SOL    HW122994   2.976   3.633   2.716  0.6449  2.2679 -1.1110
 3844SOL    HW222995   3.051   3.542   2.626 -1.7257 -1.1622  0.5455
 3845SOL     OW22996   3.304   2.411  14.921  0.0599 -0.1833  0.4858
 3845SOL    HW122997   3.280   2.400  15.013  0.8590  0.8516  0.8308
 3845SOL    HW222998   3.395   2.439  14.932 -0.1373 -0.0437  1.7714
 3846SOL     OW22999   3.061   2.956   7.838  0.5987  0.2505  0.0234
 3846SOL    HW123000   2.977   2.930   7.800  0.3769  1.2245 -0.1472
 3846SOL    HW223001   3.039   3.007   7.915  0.7529  0.7641 -0.2647
 3847SOL     OW23002   0.708   0.408   4.475 -0.3774 -0.7605  0.3494
 3847SOL    HW123003   0.797   0.405   4.441 -0.4497 -0.5156  0.1476
 3847SOL    HW223004   0.696   0.496   4.511  1.8159 -0.9814  1.6374
 3848SOL     OW23005   4.712   4.141   1.937 -0.3861 -0.5507 -0.0653
 3848SOL    HW123006   0.054   4.128   1.867  1.0830 -1.1367  1.3782
 3848SOL    HW223007   4.678   4.053   1.952 -0.6593 -0.2431  1.1206
 3849SOL     OW23008   1.625   1.089   0.356 -0.6043  0.0873 -0.3342
 3849SOL    HW123009   1.642   1.183   0.351  3.0634 -0.5431  0.6162
 3849SOL    HW223010   1.701   1.047   0.316  1.6991  0.5115  3.5570
 3850SOL     OW23011   0.643   2.183  10.292  0.6329  0.3465  0.0411
 3850SOL    HW123012   0.721   2.169  10.346 -0.0680 -1.3795  0.5945
 3850SOL    HW223013   0.678   2.247  10.231  1.3847 -1.5157 -1.4681
 3851SOL     OW23014   4.057   3.203   1.444 -0.0326  0.4685  0.7777
 3851SOL    HW123015   4.069   3.205   1.349 -1.6748 -0.8489  0.5498
 3851SOL    HW223016   4.091   3.117   1.468 -0.9839  0.6081  2.6150
 3852SOL     OW23017   3.702   3.912   5.467  0.2499 -0.6836  0.5507
 3852SOL    HW123018   3.613   3.911   5.433  0.9254 -0.2581 -1.2092
 3852SOL    HW223019   3.697   3.995   5.516 -1.7380 -0.8913  0.7085
 3853SOL     OW23020   1.919   3.156   2.015  0.0590 -0.1419  0.5965
 3853SOL    HW123021   1.966   3.077   1.990 -0.4837  0.0093 -0.9242
 3853SOL    HW223022   1.935   3.160   2.109  0.5130 -2.5427  0.6207
 3854SOL     OW23023   2.453   3.891   5.028  0.3222  0.3374 -0.2854
 3854SOL    HW123024   2.379   3.946   5.001  0.4655  0.4473 -0.4555
 3854SOL    HW223025   2.525   3.952   5.046  0.6038 -0.0938  0.0366
 3855SOL     OW23026   1.800   1.697   9.403 -0.0704  0.2525  0.2272
 3855SOL    HW123027   1.788   1.627   9.338  0.3236  2.2137 -1.9866
 3855SOL    HW223028   1.887   1.668   9.432 -0.6692  0.8288  2.5910
 3856SOL     OW23029   2.086   1.947   2.017 -0.3469  0.3213 -0.6422
 3856SOL    HW123030   2.166   1.949   2.069 -0.6805 -1.9305 -0.0157
 3856SOL    HW223031   2.041   1.873   2.059 -0.6440  1.9828  1.9476
 3857SOL     OW23032   3.535   2.917   7.038  0.0167 -0.1261 -0.2687
 3857SOL    HW123033   3.606   2.921   7.102 -0.8353 -0.3182  0.6784
 3857SOL    HW223034   3.524   2.822   7.043 -2.2109  0.1797  0.5822
 3858SOL     OW23035   2.971   1.158   3.145  0.7710 -0.0566  0.0521
 3858SOL    HW123036   2.926   1.076   3.163  0.2190 -0.2115 -2.0896
 3858SOL    HW223037   2.944   1.212   3.220  0.9908  1.2569 -0.8077
 3859SOL     OW23038   3.574   0.182   7.888  0.1311  0.8637 -0.7530
 3859SOL    HW123039   3.629   0.126   7.834 -0.9409 -0.6930 -0.2223
 3859SOL    HW223040   3.492   0.179   7.839 -0.1159 -1.3694 -0.1952
 3860SOL     OW23041   0.486   4.124  10.887 -0.5840  0.0784 -0.2693
 3860SOL    HW123042   0.421   4.127  10.957  0.1635 -0.8799  0.4607
 3860SOL    HW223043   0.432   4.108  10.809  0.5584 -0.6352 -0.9068
 3861SOL     OW23044   2.956   2.074   3.172 -0.0093 -0.5051  0.9306
 3861SOL    HW123045   2.868   2.038   3.183 -0.4515 -0.5467 -2.7872
 3861SOL    HW223046   2.955   2.106   3.262  1.0533  1.4385  0.2502
 3862SOL     OW23047   0.174   2.485   5.524 -0.1241 -0.1217  0.8083
 3862SOL    HW123048   0.112   2.422   5.560 -1.9849  2.0263  1.3180
 3862SOL    HW223049   0.245   2.427   5.496 -0.8393  0.1888 -1.7345
 3863SOL     OW23050   0.018   2.683   9.748  0.3098 -0.4315  0.7841
 3863SOL    HW123051   0.102   2.691   9.794  1.0865 -1.5664 -0.4377
 3863SOL    HW223052   4.682   2.756   9.773 -0.3638 -0.5304 -0.4945
 3864SOL     OW23053   2.244   2.711  17.651  0.1319  0.1065 -0.2659
 3864SOL    HW123054   2.268   2.764   0.041 -0.1865  1.4076 -1.0766
 3864SOL    HW223055   2.248   2.791  17.599  0.7426  0.2775  0.0405
 3865SOL     OW23056   1.190   1.104   2.898 -0.1774 -0.0310  0.2321
 3865SOL    HW123057   1.175   1.013   2.871  1.8411  0.0725 -1.2048
 3865SOL    HW223058   1.283   1.096   2.922 -0.3715  1.4264  1.4643
 3866SOL     OW23059   0.747   2.805   9.506 -0.7389  0.5866  0.1127
 3866SOL    HW123060   0.762   2.868   9.436  0.5047  1.7391  1.4153
 3866SOL    HW223061   0.708   2.868   9.567 -0.3194 -0.6544  1.6882
 3867SOL     OW23062   0.757   3.502   4.509 -0.3516  0.1629 -0.0756
 3867SOL    HW123063   0.836   3.503   4.563 -0.3848  2.4946 -0.0458
 3867SOL    HW223064   0.767   3.573   4.444  0.3531 -0.1716 -0.3338
 3868SOL     OW23065   1.401   0.726  14.954 -0.1477  0.4435  0.5378
 3868SOL    HW123066   1.389   0.716  15.048  1.7587  2.6469  1.0312
 3868SOL    HW223067   1.464   0.798  14.946  0.9290 -0.3986  1.5185
 3869SOL     OW23068   2.941   1.777   5.150  0.2870  0.5001  0.0460
 3869SOL    HW123069   2.968   1.869   5.142 -0.5563  0.6045 -1.7234
 3869SOL    HW223070   3.015   1.731   5.190  0.4101  2.0326  1.6053
 3870SOL     OW23071   0.713   3.532   1.516  0.1480  0.1691 -0.0796
 3870SOL    HW123072   0.631   3.491   1.544 -0.8211  1.3868 -1.1305
 3870SOL    HW223073   0.691   3.625   1.509 -0.2474  0.0477 -0.5361
 3871SOL     OW23074   1.079   0.974  11.125 -0.0238  0.1668  0.0324
 3871SOL    HW123075   0.998   1.021  11.145  0.6594  0.5138  2.0245
 3871SOL    HW223076   1.106   1.038  11.060  2.7610 -0.0739  0.9585
 3872SOL     OW23077   2.488   0.936   6.925 -0.6379  0.0790 -0.6244
 3872SOL    HW123078   2.573   0.918   6.964 -2.6292 -0.1387  3.6012
 3872SOL    HW223079   2.445   0.960   7.007  0.6882  1.9209 -0.4515
 3873SOL     OW23080   2.580   1.054  14.960  0.3420  0.5590  0.4612
 3873SOL    HW123081   2.666   1.092  14.975  0.6210  0.8101 -1.7897
 3873SOL    HW223082   2.537   1.123  14.911  1.8885  0.7143 -0.6666
 3874SOL     OW23083   0.666   1.076   6.100  0.4589 -0.2993 -0.0599
 3874SOL    HW123084   0.687   1.030   6.181 -1.7205  1.2023  1.3885
 3874SOL    HW223085   0.643   1.167   6.123  0.3866 -0.3146 -0.0711
 3875SOL     OW23086   2.245   3.422   3.243  0.0249  0.2629  0.1371
 3875SOL    HW123087   2.206   3.342   3.206  0.6194  0.1763 -0.3037
 3875SOL    HW223088   2.307   3.447   3.174  0.2678  0.0088  0.2644
 3876SOL     OW23089   3.188   3.992   3.794  0.3705 -0.2538 -0.1506
 3876SOL    HW123090   3.274   4.026   3.819  0.4931 -1.0916  0.5429
 3876SOL    HW223091   3.148   4.030   3.872 -0.3977 -0.5109 -0.4156
 3877SOL     OW23092   3.420   4.597   6.707 -0.3529 -0.6902 -1.0458
 3877SOL    HW123093   3.483   4.574   6.775  1.6083 -1.0465 -3.0081
 3877SOL    HW223094   3.353   4.535   6.737 -0.2040  0.1380  1.0170
 3878SOL     OW23095   2.916   1.382   9.447 -0.0193  0.0091  0.2403
 3878SOL    HW123096   2.888   1.336   9.367 -0.3592 -0.9098  0.8826
 3878SOL    HW223097   2.896   1.472   9.422  0.3210 -0.7174 -2.6437
 3879SOL     OW23098   2.203   2.458   6.253  0.1688 -0.2592  0.2045
 3879SOL    HW123099   2.110   2.474   6.241 -0.1499  0.4232  3.6174
 3879SOL    HW223100   2.246   2.542   6.235  2.3845 -1.3511  0.3495
 3880SOL     OW23101   0.176   0.242   1.244  0.4430 -0.1925 -0.4182
 3880SOL    HW123102   0.145   0.293   1.319  1.5167  0.7866 -0.6328
 3880SOL    HW223103   0.129   0.160   1.256  0.6010 -0.2202 -0.0074
 3881SOL     OW23104   0.593   2.623   9.600  0.3603  0.2870 -0.2948
 3881SOL    HW123105   0.520   2.647   9.543  0.0261 -0.5018 -0.1941
 3881SOL    HW223106   0.652   2.693   9.570 -0.0316  0.0045 -1.7587
 3882SOL     OW23107   3.848   2.544   6.318 -0.4755  0.0393  0.1550
 3882SOL    HW123108   3.896   2.572   6.396 -1.0333  2.4684 -0.3611
 3882SOL    HW223109   3.802   2.465   6.347 -1.3876 -0.2356 -2.0436
 3883SOL     OW23110   0.632   2.262   5.017 -0.0579 -0.3885 -0.1423
 3883SOL    HW123111   0.662   2.352   5.005  0.5282 -0.7018 -1.0311
 3883SOL    HW223112   0.558   2.273   5.077  0.3387  0.1260  0.2525
 3884SOL     OW23113   0.860   0.129   9.637 -0.7008 -0.3262 -0.5973
 3884SOL    HW123114   0.942   0.171   9.611  1.3451 -3.9119  0.1951
 3884SOL    HW223115   0.894   0.041   9.652  1.8301  0.3452 -2.2658
 3885SOL     OW23116   0.459   3.516  14.823  0.1238 -0.7780 -0.6916
 3885SOL    HW123117   0.402   3.531  14.748  1.5085 -0.9317 -1.7633
 3885SOL    HW223118   0.441   3.425  14.845 -0.3415 -0.8236 -1.2785
 3886SOL     OW23119   2.894   2.255   7.730 -0.2128 -0.2278 -0.6579
 3886SOL    HW123120   2.870   2.182   7.786 -1.0349  1.1026  0.7132
 3886SOL    HW223121   2.944   2.309   7.792  1.8714 -2.3423 -0.4983
 3887SOL     OW23122   0.211   2.193  11.759 -0.1650 -0.5560 -0.2051
 3887SOL    HW123123   0.126   2.150  11.771 -0.2710  0.2949  2.1030
 3887SOL    HW223124   0.198   2.267  11.700  2.4149  0.4234  0.4683
 3888SOL     OW23125   1.249   4.423   7.646  0.6981  0.2517 -0.6639
 3888SOL    HW123126   1.178   4.487   7.644 -0.5473 -1.1555 -0.9824
 3888SOL    HW223127   1.213   4.357   7.705 -0.4968  0.8620 -0.7151
 3889SOL     OW23128   1.141   3.045   6.322  0.2846 -0.2862 -0.7193
 3889SOL    HW123129   1.129   3.139   6.330  0.2778 -0.3062 -0.5024
 3889SOL    HW223130   1.237   3.044   6.324  0.2662  0.0153  0.2088
 3890SOL     OW23131   3.386   2.084   2.003 -0.1513  0.4728  0.1782
 3890SOL    HW123132   3.447   2.132   1.947 -0.4447  0.5961 -0.0276
 3890SOL    HW223133   3.353   2.142   2.072 -1.3705  0.2221 -0.2026
 3891SOL     OW23134   3.035   2.084   1.957 -0.6158 -0.1151  0.0117
 3891SOL    HW123135   3.115   2.043   1.924 -0.3435 -0.4879  1.1341
 3891SOL    HW223136   2.965   2.024   1.932 -0.3009 -0.5179  0.0991
 3892SOL     OW23137   2.606   1.594   2.647 -0.3318 -0.5838  0.6437
 3892SOL    HW123138   2.651   1.595   2.731 -1.4333  0.0954  1.2260
 3892SOL    HW223139   2.646   1.667   2.600 -0.1144 -1.5922 -0.7495
 3893SOL     OW23140   0.941   0.848  14.460  0.8962 -0.3190  0.3303
 3893SOL    HW123141   0.872   0.914  14.449  1.3840  0.1809  0.2496
 3893SOL    HW223142   0.904   0.769  14.420  0.3857 -0.6857  1.5253
 3894SOL     OW23143   0.075   1.162   1.065 -0.0292  0.8194 -0.0363
 3894SOL    HW123144   0.149   1.104   1.084 -1.9847 -0.8902  2.2837
 3894SOL    HW223145   0.118   1.247   1.079 -0.9908  1.1708  0.7616
 3895SOL     OW23146   4.044   2.668   5.338 -0.1379 -0.3632 -0.3091
 3895SOL    HW123147   4.039   2.578   5.370 -0.3711 -0.4988 -0.7213
 3895SOL    HW223148   4.036   2.658   5.243  2.4781 -0.0003 -0.5442
 3896SOL     OW23149   1.707   3.958   6.920  0.0566  0.8740  0.0886
 3896SOL    HW123150   1.685   3.934   7.010 -2.1859 -1.5019 -1.1057
 3896SOL    HW223151   1.759   4.037   6.934 -1.6255  2.0684 -0.4495
 3897SOL     OW23152   0.151   2.442   5.999 -0.1957 -0.1330  0.2755
 3897SOL    HW123153   0.092   2.417   6.070  0.1239  0.4506  0.7431
 3897SOL    HW223154   0.216   2.485   6.055  0.5756 -0.0484 -0.6971
 3898SOL     OW23155   1.038   2.854  14.185 -0.2661 -0.2936 -0.3784
 3898SOL    HW123156   1.078   2.879  14.101 -0.1550  1.2470  0.1315
 3898SOL    HW223157   1.121   2.817  14.216  1.0791  1.7370 -1.4948
 3899SOL     OW23158   0.702   2.520   7.822  0.3076  0.5792 -0.2331
 3899SOL    HW123159   0.718   2.427   7.839  1.5822  0.6381 -1.0647
 3899SOL    HW223160   0.676   2.516   7.730 -1.7539 -0.5351  0.4024
 3900SOL     OW23161   0.116   1.673   7.672  0.7827  0.4462  0.2311
 3900SOL    HW123162   0.043   1.669   7.733  0.3890 -4.0561 -0.5189
 3900SOL    HW223163   0.070   1.650   7.591  0.4432 -0.7870  0.7729
 3901SOL     OW23164   4.490   2.054   9.693  0.3443  0.3748  0.6261
 3901SOL    HW123165   4.425   2.056   9.764 -0.6947  0.8795 -0.3339
 3901SOL    HW223166   4.449   2.101   9.620 -2.1191 -0.5399  1.3967
 3902SOL     OW23167   1.576   3.835   4.446  0.4790  0.3374 -0.2570
 3902SOL    HW123168   1.563   3.929   4.432  0.7159  0.3611 -0.3277
 3902SOL    HW223169   1.669   3.821   4.426  0.2049 -2.8409  0.6676
 3903SOL     OW23170   3.378   2.210   6.094 -0.1624 -0.2046 -0.7113
 3903SOL    HW123171   3.411   2.191   6.181  0.4987  1.4046 -0.6061
 3903SOL    HW223172   3.283   2.211   6.104 -0.1131 -0.4953 -0.2214
 3904SOL     OW23173   4.248   2.844   8.854  0.6524  0.0153 -0.5226
 3904SOL    HW123174   4.181   2.848   8.922 -1.9775  1.7035 -3.2134
 3904SOL    HW223175   4.228   2.758   8.815 -1.5698 -0.4433  1.6644
 3905SOL     OW23176   1.471   3.514   8.245  0.2617  0.4422 -0.2530
 3905SOL    HW123177   1.459   3.608   8.234 -3.1037 -0.0636 -0.6678
 3905SOL    HW223178   1.490   3.488   8.154  1.7548 -0.5879  0.3424
 3906SOL     OW23179   3.805   1.953   4.920  0.8129  0.0124  0.4934
 3906SOL    HW123180   3.778   1.866   4.889  0.8988 -0.4209  1.6055
 3906SOL    HW223181   3.723   1.983   4.960  0.6481  0.1530  0.0470
 3907SOL     OW23182   2.373   3.933   8.096 -0.1675 -0.5695  0.3110
 3907SOL    HW123183   2.314   3.925   8.171 -0.5997  2.4923  0.3149
 3907SOL    HW223184   2.327   3.876   8.034 -0.5170  0.8132 -0.6953
 3908SOL     OW23185   3.886   0.227   2.872  0.8235 -0.5217 -0.4106
 3908SOL    HW123186   3.839   0.307   2.849  1.3205  0.6574  2.7895
 3908SOL    HW223187   3.942   0.218   2.794 -0.8464 -0.4323 -1.6264
 3909SOL     OW23188   2.206   0.313   3.082 -0.0432  0.2235 -0.4839
 3909SOL    HW123189   2.183   0.222   3.068 -3.0330  1.1357 -1.5197
 3909SOL    HW223190   2.259   0.330   3.004 -0.1426  2.0818 -0.1646
 3910SOL     OW23191   1.895   3.804   7.881  0.3402 -0.4740 -0.0295
 3910SOL    HW123192   1.973   3.773   7.837  1.3978 -0.0962  1.5869
 3910SOL    HW223193   1.823   3.754   7.841 -0.8274 -0.3388  1.8737
 3911SOL     OW23194   1.424   0.334   7.803 -0.4298  0.0111  0.0926
 3911SOL    HW123195   1.368   0.398   7.846 -0.1980  1.2286 -1.4139
 3911SOL    HW223196   1.457   0.283   7.878  0.3903  1.3235  0.6158
 3912SOL     OW23197   0.780   1.853   6.468  0.1671  0.3909 -0.0356
 3912SOL    HW123198   0.800   1.762   6.488  3.4458  0.7901 -1.5480
 3912SOL    HW223199   0.708   1.844   6.405 -1.4657  0.6812  1.7735
 3913SOL     OW23200   3.565   0.160  10.947 -0.2877 -0.4211 -0.6739
 3913SOL    HW123201   3.472   0.174  10.931 -0.3511 -2.3173 -1.9098
 3913SOL    HW223202   3.596   0.245  10.979 -0.2307 -0.1208 -1.5413
 3914SOL     OW23203   2.788   4.479   8.787 -0.1488 -0.1329 -0.1948
 3914SOL    HW123204   2.843   4.544   8.743  0.2347  0.4507  1.1260
 3914SOL    HW223205   2.708   4.529   8.805 -0.7748 -1.7150  1.3599
 3915SOL     OW23206   1.635   3.728   6.194 -0.2800  0.0696 -0.2792
 3915SOL    HW123207   1.700   3.770   6.138 -1.0050 -0.5442 -1.5768
 3915SOL    HW223208   1.564   3.707   6.134 -0.4209 -0.6498  0.1492
 3916SOL     OW23209   3.431   0.643   3.268 -0.0898 -0.0323 -0.0446
 3916SOL    HW123210   3.415   0.609   3.180  2.0829 -3.3525  0.8424
 3916SOL    HW223211   3.344   0.669   3.299 -1.1393  0.9985 -3.8711
 3917SOL     OW23212   4.200   2.032   2.582  0.9089 -0.7999  0.2017
 3917SOL    HW123213   4.229   2.011   2.670 -1.4679 -0.2876  1.1078
 3917SOL    HW223214   4.174   2.124   2.590 -1.4403 -1.3318 -1.1795
 3918SOL     OW23215   4.307   1.472   5.369 -0.3508 -0.2341 -0.0877
 3918SOL    HW123216   4.303   1.448   5.276  0.6482 -1.8141  0.2947
 3918SOL    HW223217   4.390   1.519   5.382 -0.4622  0.4990 -1.9715
 3919SOL     OW23218   1.383   2.276  11.826 -0.1791 -0.0483 -0.6446
 3919SOL    HW123219   1.381   2.207  11.891 -1.2721  1.1222  0.5798
 3919SOL    HW223220   1.388   2.356  11.878  0.2823 -0.1159 -0.5849
 3920SOL     OW23221   2.709   2.889   6.980  0.3162 -0.5391 -0.0367
 3920SOL    HW123222   2.697   2.811   6.927  0.7388 -0.2336 -0.5847
 3920SOL    HW223223   2.803   2.904   6.993  0.4153  0.3904 -1.7792
 3921SOL     OW23224   1.819   1.730   7.084  0.1558 -0.0433 -0.3901
 3921SOL    HW123225   1.826   1.807   7.141 -3.5575  1.1780 -1.5536
 3921SOL    HW223226   1.870   1.658   7.120 -0.5925  0.3630  1.4687
 3922SOL     OW23227   0.140   2.834   8.643  0.0635 -0.3495  0.1507
 3922SOL    HW123228   0.127   2.879   8.727  1.2800 -0.5503  0.4516
 3922SOL    HW223229   0.230   2.862   8.631  0.1584  0.1969  2.0409
 3923SOL     OW23230   2.881   4.378  13.762 -0.2180  0.5820  0.0665
 3923SOL    HW123231   2.847   4.315  13.825  1.8062  0.1464  0.7094
 3923SOL    HW223232   2.925   4.428  13.831 -0.8562  1.9067 -0.4786
 3924SOL     OW23233   0.712   0.668   4.578  0.5053  0.0009 -0.3399
 3924SOL    HW123234   0.673   0.727   4.643 -1.3116  0.1414 -1.5542
 3924SOL    HW223235   0.694   0.721   4.500 -1.0504  0.5399  0.3991
 3925SOL     OW23236   4.236   0.706   4.826  0.1695 -0.5051  0.0418
 3925SOL    HW123237   4.217   0.648   4.900 -1.3613  0.9625  0.7916
 3925SOL    HW223238   4.202   0.790   4.857  1.9202  0.7409 -1.4605
 3926SOL     OW23239   3.757   2.361   6.518 -0.0386  0.1716 -0.3329
 3926SOL    HW123240   3.813   2.435   6.544 -0.0525  0.7792 -2.0535
 3926SOL    HW223241   3.684   2.385   6.575 -0.1503  0.5819 -0.6523
 3927SOL     OW23242   1.656   0.858   1.071 -0.8965  0.6400 -0.2663
 3927SOL    HW123243   1.651   0.841   0.977 -3.0918  1.3987 -0.2916
 3927SOL    HW223244   1.728   0.921   1.073 -0.0552 -0.3511  1.2300
 3928SOL     OW23245   2.298   1.636   8.379 -0.1508  0.0841 -0.4877
 3928SOL    HW123246   2.358   1.566   8.407 -1.0366  1.0617  3.8768
 3928SOL    HW223247   2.356   1.695   8.331 -0.9828  2.1818  1.0774
 3929SOL     OW23248   2.101   4.126   8.168  0.3773 -0.1250 -0.3548
 3929SOL    HW123249   2.020   4.095   8.128  1.0153  1.4259 -2.8486
 3929SOL    HW223250   2.072   4.094   8.254 -0.0086 -0.0692 -0.4627
 3930SOL     OW23251   0.643   1.084   3.577  0.0996  0.3088  0.3502
 3930SOL    HW123252   0.609   1.171   3.597  2.7927  1.0528  1.7490
 3930SOL    HW223253   0.718   1.102   3.521  0.0605  0.6786  0.4134
 3931SOL     OW23254   4.513   0.699   0.054  0.2860 -0.2227  0.0171
 3931SOL    HW123255   4.546   0.742  17.662  3.7446 -0.7142  1.2384
 3931SOL    HW223256   4.558   0.614   0.049 -0.1817 -0.4471 -0.4720
 3932SOL     OW23257   3.361   1.055   2.855  0.3599 -0.3171  0.8233
 3932SOL    HW123258   3.379   1.121   2.922  1.4524  1.4599 -1.2199
 3932SOL    HW223259   3.268   1.065   2.831  0.9009  1.6703 -0.4989
 3933SOL     OW23260   1.945   1.689  16.453  0.0436  0.2690 -0.3054
 3933SOL    HW123261   2.039   1.696  16.467 -0.1969 -0.1493  1.5973
 3933SOL    HW223262   1.910   1.755  16.513  0.3342  0.4258 -0.3103
 3934SOL     OW23263   2.424   2.915   6.961  0.5745  0.6883 -0.3529
 3934SOL    HW123264   2.518   2.906   6.976  0.3796  1.5426  1.2838
 3934SOL    HW223265   2.395   2.831   6.927 -0.6139  1.0079 -0.1134
 3935SOL     OW23266   1.109   1.207   6.875 -0.6164 -0.4528  0.2749
 3935SOL    HW123267   1.055   1.228   6.951 -0.8224 -1.1009  0.3062
 3935SOL    HW223268   1.072   1.127   6.839 -1.5745  0.9994 -1.9818
 3936SOL     OW23269   3.515   0.819  11.586 -0.1848  0.5996 -0.0267
 3936SOL    HW123270   3.429   0.804  11.547  0.3160 -4.5130  0.8563
 3936SOL    HW223271   3.555   0.734  11.571 -1.3436  0.1800 -0.7286
 3937SOL     OW23272   1.946   4.714   1.578  0.8257 -0.1534  0.1309
 3937SOL    HW123273   1.989   0.061   1.526 -1.9484  0.9996 -0.6099
 3937SOL    HW223274   1.961   0.016   1.670 -1.0542 -1.0199  0.6532
 3938SOL     OW23275   2.944   1.820   9.073 -0.6993 -0.3726  0.4706
 3938SOL    HW123276   3.027   1.774   9.067  0.3317  1.6779 -0.7524
 3938SOL    HW223277   2.949   1.857   9.161 -0.2502  1.4109 -0.3089
 3939SOL     OW23278   1.569   2.672   1.461  0.7283  0.2427 -0.1603
 3939SOL    HW123279   1.582   2.580   1.485  1.4794 -0.3461 -2.7622
 3939SOL    HW223280   1.660   2.699   1.451  0.1104  1.3609 -2.6733
 3940SOL     OW23281   0.055   2.094   6.750 -0.2418 -0.5622  0.2457
 3940SOL    HW123282   0.062   2.081   6.655  2.2588  2.3544  0.0101
 3940SOL    HW223283   0.148   2.074   6.760 -0.0602  0.5154  0.6874
 3941SOL     OW23284   3.109   2.118   4.547  0.5100  0.1986 -0.1512
 3941SOL    HW123285   3.105   2.202   4.501  0.0077  1.1964  1.7002
 3941SOL    HW223286   3.181   2.082   4.496 -0.6798 -0.5247 -1.3334
 3942SOL     OW23287   0.400   3.257   3.651 -0.1122 -0.2270  0.4559
 3942SOL    HW123288   0.493   3.249   3.675 -1.0232  1.2590  4.4066
 3942SOL    HW223289   0.380   3.347   3.676 -2.1897 -0.7890  0.8453
 3943SOL     OW23290   2.325   2.348   9.999  0.3708  0.4045  0.1524
 3943SOL    HW123291   2.257   2.412  10.021 -0.4115 -0.5374  0.4720
 3943SOL    HW223292   2.372   2.347  10.082  0.6053  3.2499  0.0660
 3944SOL     OW23293   1.910   4.408   4.648 -0.3849  0.0836  0.6634
 3944SOL    HW123294   1.873   4.351   4.580 -1.0066 -0.4154  1.4291
 3944SOL    HW223295   1.983   4.456   4.609 -1.4613  1.3766  0.2449
 3945SOL     OW23296   2.197   2.541   2.521  0.2202 -0.5586 -0.3593
 3945SOL    HW123297   2.192   2.628   2.559  1.0694 -1.5173  1.9573
 3945SOL    HW223298   2.284   2.510   2.548  0.6592  0.7898 -0.2593
 3946SOL     OW23299   4.410   1.639   2.175 -0.4227  0.1642 -0.0612
 3946SOL    HW123300   4.377   1.560   2.131 -2.7153  2.2612 -2.0364
 3946SOL    HW223301   4.503   1.630   2.155 -0.0363  2.4987  0.7302
 3947SOL     OW23302   0.314   1.188  11.457  0.3055 -0.0379 -0.5360
 3947SOL    HW123303   0.347   1.265  11.410  1.5198 -2.3214 -3.4948
 3947SOL    HW223304   0.384   1.123  11.446 -0.6566 -1.1781  0.1880
 3948SOL     OW23305   2.372   2.295   1.425  0.3695  0.4734 -0.2931
 3948SOL    HW123306   2.321   2.236   1.480 -0.0346  0.0592 -1.1087
 3948SOL    HW223307   2.452   2.311   1.475  0.3919 -1.3039  0.2245
 3949SOL     OW23308   2.060   1.124   3.224  0.1839 -0.0876  0.4129
 3949SOL    HW123309   2.097   1.164   3.303 -1.1073  0.5424  0.6885
 3949SOL    HW223310   1.984   1.177   3.203 -1.8312 -1.8096  3.3215
 3950SOL     OW23311   2.065   0.878   0.962 -0.0025  0.1501 -0.0243
 3950SOL    HW123312   2.042   0.956   0.912  0.0076  0.0103 -0.2462
 3950SOL    HW223313   2.154   0.885   0.999  0.8792  2.7820 -2.6489
 3951SOL     OW23314   3.905   3.539   4.690 -0.1597 -0.0781  0.3540
 3951SOL    HW123315   3.950   3.535   4.774 -1.1068  2.5525  0.9831
 3951SOL    HW223316   3.814   3.557   4.716 -0.9910 -1.1171 -1.8559
 3952SOL     OW23317   3.326   1.487   5.916  0.0768  1.1124 -0.5830
 3952SOL    HW123318   3.304   1.394   5.916 -1.3351  1.4499 -1.7934
 3952SOL    HW223319   3.293   1.513   6.002 -2.6465 -2.3197 -0.5648
 3953SOL     OW23320   4.199   4.158   0.862  0.1805 -0.0134 -0.3578
 3953SOL    HW123321   4.233   4.119   0.781 -0.7223 -0.9109 -0.3053
 3953SOL    HW223322   4.222   4.251   0.862  1.3616 -0.3106  3.1010
 3954SOL     OW23323   0.582   0.596   7.017 -0.1812  0.4186  0.0130
 3954SOL    HW123324   0.623   0.676   7.050  1.2903 -0.3156 -0.0420
 3954SOL    HW223325   0.566   0.624   6.927  0.1327  0.1289 -0.1331
 3955SOL     OW23326   3.684   1.159  16.427 -0.0031  0.3797 -0.2155
 3955SOL    HW123327   3.652   1.080  16.384  0.6024  0.4173 -0.7442
 3955SOL    HW223328   3.776   1.137  16.444 -0.6142 -1.0234  1.2956
 3956SOL     OW23329   2.672   0.318  13.237 -0.3889  0.7912  0.7302
 3956SOL    HW123330   2.744   0.275  13.283  0.0751 -0.6294 -1.3559
 3956SOL    HW223331   2.663   0.413  13.252 -0.1526  0.4635  2.9085
 3957SOL     OW23332   1.915   1.047   1.985  0.1214  0.1196 -0.0443
 3957SOL    HW123333   1.988   0.990   1.962 -1.9411 -2.5330  0.0091
 3957SOL    HW223334   1.958   1.132   1.991 -0.2083  0.1889  1.5139
 3958SOL     OW23335   3.577   1.521   7.235  0.8174 -0.1880  0.2712
 3958SOL    HW123336   3.484   1.503   7.220  0.9338  1.8711 -2.8440
 3958SOL    HW223337   3.581   1.524   7.331 -1.6169 -0.3359  0.3710
 3959SOL     OW23338   3.371   1.837   4.059 -0.5426  0.3422 -0.7727
 3959SOL    HW123339   3.452   1.846   4.110 -0.9928  0.2151 -0.0389
 3959SOL    HW223340   3.320   1.910   4.095  2.0919  1.3124  1.0258
 3960SOL     OW23341   0.443   1.020   7.542 -0.1034  0.3015 -0.2308
 3960SOL    HW123342   0.440   1.116   7.544  1.7775  0.3110  2.0133
 3960SOL    HW223343   0.392   1.008   7.622  1.7898  1.3016  1.1270
 3961SOL     OW23344   2.040   3.163  10.530 -0.4107 -0.4769 -0.5705
 3961SOL    HW123345   2.012   3.253  10.517 -1.6033 -0.9950 -1.5260
 3961SOL    HW223346   2.039   3.167  10.625 -1.8502  0.6218 -0.6432
 3962SOL     OW23347   4.092   3.079   0.687  0.0058 -0.2010 -0.9940
 3962SOL    HW123348   4.127   3.135   0.618  1.8137 -0.9538 -0.6732
 3962SOL    HW223349   4.101   3.138   0.762  0.2380  0.0737 -1.2395
 3963SOL     OW23350   3.041   0.188  13.464  0.1992  0.1964  0.4106
 3963SOL    HW123351   3.008   0.260  13.517 -0.8057 -0.5316  0.7781
 3963SOL    HW223352   3.133   0.170  13.484  0.0979  1.2744  1.7944
 3964SOL     OW23353   1.498   1.523   8.463 -0.2105  0.0643 -0.8449
 3964SOL    HW123354   1.561   1.466   8.507  0.6586  2.3303  0.8640
 3964SOL    HW223355   1.429   1.521   8.529  0.7553  0.3619  0.1717
 3965SOL     OW23356   4.113   2.209   7.297  0.3422  0.2568 -0.6237
 3965SOL    HW123357   4.163   2.178   7.373  0.5077 -0.5832 -1.0766
 3965SOL    HW223358   4.157   2.294   7.296  2.2749 -0.7180  1.5082
 3966SOL     OW23359   2.823   1.195  16.171 -0.2647 -0.0056 -0.0527
 3966SOL    HW123360   2.872   1.210  16.252 -3.2730  1.0341  1.5780
 3966SOL    HW223361   2.889   1.205  16.102 -0.4408 -0.6399 -0.3210
 3967SOL     OW23362   0.418   4.460   3.757  0.6119 -0.0707 -0.2418
 3967SOL    HW123363   0.502   4.416   3.741 -0.3950 -1.6225 -1.2431
 3967SOL    HW223364   0.357   4.389   3.739  3.2699 -3.0537  2.4358
 3968SOL     OW23365   0.877   4.184   1.812 -0.1066 -0.3038  0.4519
 3968SOL    HW123366   0.800   4.237   1.791 -1.4926 -2.9043 -1.0091
 3968SOL    HW223367   0.934   4.246   1.856  0.4249  0.2625 -1.0351
 3969SOL     OW23368   4.553   1.400  11.462  0.1045 -0.2462 -0.1457
 3969SOL    HW123369   4.494   1.340  11.418  1.4131  0.0867 -2.3353
 3969SOL    HW223370   4.633   1.368  11.421  0.7996 -0.7974  1.6173
 3970SOL     OW23371   3.174   1.038   1.817  0.5268  0.3717 -0.0322
 3970SOL    HW123372   3.203   0.948   1.804 -1.2440 -0.0302 -1.2153
 3970SOL    HW223373   3.139   1.038   1.906  1.6666  2.5928  0.4042
 3971SOL     OW23374   1.745   1.089   5.391 -0.0603 -0.1850 -0.0414
 3971SOL    HW123375   1.798   1.126   5.320 -0.9128 -2.1199 -1.6775
 3971SOL    HW223376   1.725   1.169   5.440  2.1355 -0.3707  1.1145
 3972SOL     OW23377   2.061   2.334   9.705 -0.2662 -0.0951 -0.2305
 3972SOL    HW123378   2.008   2.257   9.687 -1.6732  0.8495 -0.0721
 3972SOL    HW223379   2.029   2.348   9.794 -1.6790 -1.2484 -0.5567
 3973SOL     OW23380   3.689   0.839   6.590  0.0621 -0.4954 -0.2276
 3973SOL    HW123381   3.624   0.870   6.526  1.1333 -0.0002 -1.0752
 3973SOL    HW223382   3.624   0.804   6.651  0.6216 -0.7027  0.2385
 3974SOL     OW23383   3.113   4.407   3.783  0.3815  0.1532 -0.3465
 3974SOL    HW123384   3.107   4.476   3.717  0.5021 -1.4116 -1.9879
 3974SOL    HW223385   3.169   4.345   3.737 -1.5386 -1.4622 -0.4819
 3975SOL     OW23386   2.005   3.857   9.610  0.4848  0.3783  0.1074
 3975SOL    HW123387   2.084   3.814   9.576 -0.5723 -1.2492 -0.2777
 3975SOL    HW223388   2.014   3.816   9.696 -0.8710 -0.3149 -0.0798
 3976SOL     OW23389   0.959   1.227   6.202 -0.2161 -0.5074 -0.6211
 3976SOL    HW123390   0.869   1.227   6.233 -0.0215  2.1958 -0.0648
 3976SOL    HW223391   1.006   1.278   6.268 -0.5356 -1.5232  0.4021
 3977SOL     OW23392   1.701   1.268   2.247 -1.1089 -0.1258  0.2578
 3977SOL    HW123393   1.715   1.223   2.330 -1.2230  1.1211  0.9570
 3977SOL    HW223394   1.605   1.266   2.249 -1.0851 -0.6783  0.5433
 3978SOL     OW23395   3.818   2.579   8.261 -0.1126 -0.1002  0.3610
 3978SOL    HW123396   3.810   2.668   8.229 -0.5439  0.8402  3.1047
 3978SOL    HW223397   3.727   2.558   8.282  0.8027 -1.1563  3.2911
 3979SOL     OW23398   0.473   4.673   5.178  0.0220 -0.2714 -0.3303
 3979SOL    HW123399   0.473   0.009   5.255 -0.1514  1.8959 -1.9100
 3979SOL    HW223400   0.481   0.026   5.118  0.7256  0.5887  0.8175
 3980SOL     OW23401   3.663   2.815   6.477 -0.8240 -0.3440  0.1265
 3980SOL    HW123402   3.728   2.885   6.482 -1.4932  0.4115 -1.5389
 3980SOL    HW223403   3.657   2.799   6.383 -0.2051 -0.6340  0.1356
 3981SOL     OW23404   3.282   1.895  13.504  0.1410  0.1367  0.0300
 3981SOL    HW123405   3.297   1.911  13.411  0.1890  1.0131  0.1853
 3981SOL    HW223406   3.198   1.934  13.528 -1.1193 -1.9354 -1.0534
 3982SOL     OW23407   4.460   4.017   8.410 -0.0464  0.1081  0.0043
 3982SOL    HW123408   4.523   4.050   8.475  0.2362  0.3381 -0.3850
 3982SOL    HW223409   4.413   4.094   8.375 -0.0365  1.1118  2.1835
 3983SOL     OW23410   2.449   3.808   6.704  0.5230  0.2660  0.0906
 3983SOL    HW123411   2.402   3.889   6.724 -1.0285 -0.3716 -0.9572
 3983SOL    HW223412   2.383   3.758   6.656  0.5379 -0.7318  1.1024
 3984SOL     OW23413   0.458   0.552   7.894 -0.2063  0.4751 -0.2714
 3984SOL    HW123414   0.536   0.542   7.948 -0.8693 -0.5774  0.4819
 3984SOL    HW223415   0.453   0.471   7.844  0.6062 -0.3305  0.9736
 3985SOL     OW23416   0.094   0.403   7.839 -0.5370 -0.2070 -0.5607
 3985SOL    HW123417   0.058   0.461   7.772 -0.6686 -0.4884 -0.7350
 3985SOL    HW223418   0.032   0.330   7.838 -1.7887  0.8693 -1.1510
 3986SOL     OW23419   4.488   2.279   8.669 -0.1035 -0.3715  0.3808
 3986SOL    HW123420   4.582   2.262   8.674  0.0661  0.8074  1.2823
 3986SOL    HW223421   4.471   2.311   8.758 -0.5580  0.5170 -0.0270
 3987SOL     OW23422   0.473   1.608   5.966  0.0663 -0.3867  0.8466
 3987SOL    HW123423   0.535   1.611   6.039  1.9679  1.0190 -0.8219
 3987SOL    HW223424   0.525   1.561   5.900  0.9380  1.3640  0.2950
 3988SOL     OW23425   3.883   4.410  17.619 -0.1227 -0.0302 -0.0578
 3988SOL    HW123426   3.850   4.343  17.559  0.1662  0.8188 -1.1587
 3988SOL    HW223427   3.816   4.396   0.001  1.8615 -2.5228  1.3868
 3989SOL     OW23428   4.467   1.605  13.183 -0.4552  0.8657  0.2538
 3989SOL    HW123429   4.432   1.665  13.249  0.3217  0.4016  1.0917
 3989SOL    HW223430   4.559   1.602  13.211 -0.0144  1.2303 -1.1567
 3990SOL     OW23431   4.055   4.615  16.716  0.1798  0.0160 -0.5082
 3990SOL    HW123432   4.054   4.638  16.809  0.1484 -1.1343 -0.2307
 3990SOL    HW223433   4.134   4.663  16.688  0.0278 -0.0807 -1.1114
 3991SOL     OW23434   4.293   1.254  12.480  0.5364 -0.0728  0.6117
 3991SOL    HW123435   4.274   1.204  12.560  1.4626  0.5274  1.2099
 3991SOL    HW223436   4.275   1.344  12.506  2.2843 -0.4388  3.1658
 3992SOL     OW23437   1.904   2.280  10.241 -0.6454  0.2521 -0.5440
 3992SOL    HW123438   1.871   2.198  10.277 -0.5231  0.4599  0.0449
 3992SOL    HW223439   1.885   2.348  10.306  2.3282 -0.4525  1.0964
 3993SOL     OW23440   3.849   3.464   3.946 -0.0752  0.3204 -0.1663
 3993SOL    HW123441   3.805   3.539   3.905 -0.2241  0.3710  0.0888
 3993SOL    HW223442   3.777   3.427   3.996 -0.5049 -1.4615 -2.0987
 3994SOL     OW23443   1.943   0.876   3.347  0.7412 -0.0892  0.1080
 3994SOL    HW123444   1.996   0.892   3.425 -0.8461  1.6644  0.8205
 3994SOL    HW223445   1.961   0.950   3.289 -3.7824  0.7617 -0.2400
 3995SOL     OW23446   1.152   1.167   5.781  0.4410 -0.3881 -0.0882
 3995SOL    HW123447   1.067   1.144   5.742  1.4206 -0.7576 -1.9872
 3995SOL    HW223448   1.163   1.100   5.848 -3.4213  0.8372  1.7531
 3996SOL     OW23449   3.516   0.505   1.691 -0.0242 -0.3515  0.5006
 3996SOL    HW123450   3.513   0.417   1.652 -1.9458  0.3547 -0.9457
 3996SOL    HW223451   3.515   0.551   1.607  1.0430  0.3793  0.8857
 3997SOL     OW23452   2.052   0.463   2.637 -0.2721 -0.1058 -0.0047
 3997SOL    HW123453   1.970   0.511   2.625 -1.2994 -2.1485 -1.3802
 3997SOL    HW223454   2.111   0.499   2.570 -1.3620 -0.4098 -1.1349
 3998SOL     OW23455   1.568   1.422   3.646 -0.0707 -0.8435 -0.3852
 3998SOL    HW123456   1.498   1.476   3.609  0.3573 -0.5265 -0.7379
 3998SOL    HW223457   1.528   1.341   3.676 -0.5742 -0.4721 -0.0375
 3999SOL     OW23458   3.774   0.429   1.856 -0.4181  0.3742  0.5532
 3999SOL    HW123459   3.747   0.504   1.908 -1.9941  0.6911 -0.7154
 3999SOL    HW223460   3.692   0.422   1.807 -0.9390  0.2651  1.4304
 4000SOL     OW23461   0.342   1.827   2.853 -0.2702 -0.6072  0.4159
 4000SOL    HW123462   0.407   1.814   2.922  0.4145  0.7809  0.0379
 4000SOL    HW223463   0.312   1.738   2.835 -1.3166 -0.6790  2.4754
 4001SOL     OW23464   1.574   2.408   1.542 -0.3167  0.0026 -0.5847
 4001SOL    HW123465   1.575   2.321   1.582 -1.2769 -0.0352 -0.6381
 4001SOL    HW223466   1.517   2.455   1.602  0.9433  0.2190  0.4458
 4002SOL     OW23467   0.698   2.460   4.698  0.3859 -0.4398 -0.6181
 4002SOL    HW123468   0.717   2.514   4.774 -0.4033  0.3837 -1.0120
 4002SOL    HW223469   0.624   2.507   4.660 -0.3426 -0.5559  0.6644
 4003SOL     OW23470   4.670   0.764  16.440  0.5285  0.4686 -0.0686
 4003SOL    HW123471   4.666   0.682  16.489 -0.5695  0.3815 -0.3089
 4003SOL    HW223472   0.043   0.781  16.443  0.7395 -0.9646  1.3901
 4004SOL     OW23473   2.366   0.906   6.667  0.4851  0.1496 -0.3294
 4004SOL    HW123474   2.399   0.924   6.755  0.1867  0.2449 -0.2405
 4004SOL    HW223475   2.327   0.991   6.648 -2.4261 -1.3316 -1.0324
 4005SOL     OW23476   2.261   1.609   5.607  0.5269 -0.5976 -0.2133
 4005SOL    HW123477   2.228   1.637   5.522  2.5966 -0.6179 -1.0019
 4005SOL    HW223478   2.234   1.686   5.658 -0.9449 -0.7772 -0.7283
 4006SOL     OW23479   4.364   0.409   4.152  0.1841  0.0690  0.0654
 4006SOL    HW123480   4.297   0.464   4.192 -0.6247 -0.6716 -0.2604
 4006SOL    HW223481   4.311   0.373   4.081  0.8371 -1.9101  0.5544
 4007SOL     OW23482   3.421   0.516  11.194  0.7709 -0.0051  0.1690
 4007SOL    HW123483   3.484   0.456  11.235 -0.6347 -0.5238  1.5636
 4007SOL    HW223484   3.362   0.447  11.165 -0.9795  1.0918  1.1088
 4008SOL     OW23485   4.352   2.829   3.805 -0.8393  0.4094 -0.3526
 4008SOL    HW123486   4.313   2.758   3.754 -0.5593 -0.2719  0.3771
 4008SOL    HW223487   4.447   2.815   3.802 -0.5481  2.9141 -2.4448
 4009SOL     OW23488   0.642   3.687   2.669  0.6271 -0.7529  0.0831
 4009SOL    HW123489   0.549   3.697   2.652  1.2408 -0.5829 -3.0339
 4009SOL    HW223490   0.636   3.675   2.764 -0.7500  2.5784  0.3874
 4010SOL     OW23491   3.541   0.128   6.752  0.0460  0.8178 -0.0274
 4010SOL    HW123492   3.622   0.094   6.714 -0.3083 -0.7700  0.6216
 4010SOL    HW223493   3.495   0.047   6.731 -1.9120  1.9049  0.0019
 4011SOL     OW23494   4.444   0.262   7.220  0.2686  0.2410 -0.4931
 4011SOL    HW123495   4.431   0.168   7.214 -0.6433  0.3083  0.3700
 4011SOL    HW223496   4.521   0.266   7.276 -0.0016 -4.2448  0.1258
 4012SOL     OW23497   3.077   4.668   5.420 -0.7028  0.1663  0.1255
 4012SOL    HW123498   3.070   4.596   5.357 -2.1352 -0.1890  0.6808
 4012SOL    HW223499   3.006   4.641   5.479 -0.1953 -0.3856  0.4969
 4013SOL     OW23500   1.210   1.643  16.575 -0.1908  0.7755 -0.2597
 4013SOL    HW123501   1.270   1.570  16.558 -1.0826 -0.1257  0.4908
 4013SOL    HW223502   1.203   1.679  16.487  0.5874  1.1043 -0.1889
 4014SOL     OW23503   0.187   4.570  14.664 -0.2644  0.3223 -0.0746
 4014SOL    HW123504   0.179   4.629  14.740 -2.7894  0.9057 -0.7963
 4014SOL    HW223505   0.097   4.538  14.656  0.8265 -2.4768 -1.1222
 4015SOL     OW23506   3.816   4.260   6.794  0.1914  0.1128  0.0557
 4015SOL    HW123507   3.849   4.171   6.779  0.6066  0.4800 -1.2057
 4015SOL    HW223508   3.727   4.245   6.762 -0.4407  0.5679  1.5746
 4016SOL     OW23509   2.884   2.129   8.061  0.0172  0.2541  0.7160
 4016SOL    HW123510   2.801   2.147   8.106 -0.7815 -0.7261 -0.3385
 4016SOL    HW223511   2.860   2.057   8.002  0.9317  1.1988 -0.8074
 4017SOL     OW23512   0.828   2.077   4.992 -0.3233 -0.4360 -0.2086
 4017SOL    HW123513   0.881   2.118   5.060 -0.0726 -0.1010 -0.6156
 4017SOL    HW223514   0.757   2.142   4.991 -0.3998 -0.5062  0.5052
 4018SOL     OW23515   2.932   1.962   7.376 -0.0945 -0.1955  0.1055
 4018SOL    HW123516   3.008   1.907   7.357 -0.7367 -0.9708 -0.2212
 4018SOL    HW223517   2.962   2.032   7.317  1.6508 -1.9021 -1.0117
 4019SOL     OW23518   4.464   3.643   9.039 -0.3082  0.2974 -0.2424
 4019SOL    HW123519   4.433   3.555   9.062 -0.2841  0.5349  0.7042
 4019SOL    HW223520   4.482   3.680   9.126 -1.1807  1.7454 -0.6888
 4020SOL     OW23521   4.135   2.580  10.004 -0.5804  0.3551  0.1016
 4020SOL    HW123522   4.041   2.578  10.022 -0.8939 -0.4035 -1.5602
 4020SOL    HW223523   4.148   2.675  10.004  0.1296  0.2582  0.8261
 4021SOL     OW23524   1.376   1.480  17.463 -0.3926  0.0532  0.4784
 4021SOL    HW123525   1.338   1.394  17.480  0.5191 -0.1762  1.3388
 4021SOL    HW223526   1.295   1.532  17.461  0.9664  2.2350  2.4261
 4022SOL     OW23527   3.241   1.676  10.266  0.0082  0.0092 -0.6323
 4022SOL    HW123528   3.261   1.747  10.327 -0.5057  0.1426 -0.6223
 4022SOL    HW223529   3.241   1.605  10.331 -0.8985  0.6970  0.1127
 4023SOL     OW23530   3.168   2.363   3.763  0.0495 -0.6642  0.0422
 4023SOL    HW123531   3.148   2.450   3.729 -0.5187 -0.5981  0.5431
 4023SOL    HW223532   3.083   2.322   3.780 -0.4713  0.1769 -0.5445
 4024SOL     OW23533   3.289   4.135   5.186 -0.0414  0.6206 -0.3092
 4024SOL    HW123534   3.238   4.129   5.106 -0.4147 -2.8877  0.1679
 4024SOL    HW223535   3.267   4.056   5.236  0.5270  1.2874  1.0190
 4025SOL     OW23536   3.050   4.463   7.689 -0.6600  0.3046 -0.3938
 4025SOL    HW123537   3.096   4.414   7.621  0.1108  0.4572  0.0216
 4025SOL    HW223538   2.962   4.438   7.662 -1.6744  1.9400  1.4063
 4026SOL     OW23539   2.064   1.585   6.415 -0.3222  0.0038  0.2583
 4026SOL    HW123540   2.084   1.667   6.370  2.7244 -0.6457  0.4935
 4026SOL    HW223541   1.988   1.560   6.361 -0.0647 -1.3676  0.5238
 4027SOL     OW23542   3.524   1.186   7.715  0.2713  0.1157  0.2655
 4027SOL    HW123543   3.451   1.192   7.653  1.0279  3.8047 -0.2742
 4027SOL    HW223544   3.518   1.271   7.758  2.6227  0.5640 -0.3121
 4028SOL     OW23545   2.560   0.802   4.286 -0.2172  0.1451  0.0475
 4028SOL    HW123546   2.478   0.848   4.266 -0.8863 -2.1315 -2.4680
 4028SOL    HW223547   2.557   0.780   4.379 -0.6155  1.5364  0.3633
 4029SOL     OW23548   2.355   3.360  12.312  0.1167 -0.4147  0.0956
 4029SOL    HW123549   2.268   3.334  12.343  0.5821  0.6810  2.3076
 4029SOL    HW223550   2.375   3.298  12.241 -1.2001  0.9464 -1.4906
 4030SOL     OW23551   0.029   2.607   9.435 -0.0873  0.5254  0.0243
 4030SOL    HW123552   0.015   2.626   9.528 -2.0840  0.0161 -0.1687
 4030SOL    HW223553   0.062   2.518   9.440  1.2506  1.0920  1.5717
 4031SOL     OW23554   2.902   3.081   7.413  0.0551 -0.2907  0.0098
 4031SOL    HW123555   2.867   2.992   7.412 -2.1915  0.5437  2.8219
 4031SOL    HW223556   2.993   3.053   7.403 -0.3870 -0.9131 -2.1619
 4032SOL     OW23557   2.208   0.027   5.227 -0.0983 -0.2336 -0.1036
 4032SOL    HW123558   2.301   0.048   5.218  0.4599 -1.2317  3.4989
 4032SOL    HW223559   2.204   4.657   5.258  1.7567  0.0770  1.0273
 4033SOL     OW23560   4.425   3.021   9.198  0.1308 -0.4582  0.5453
 4033SOL    HW123561   4.371   2.964   9.143  0.9514  1.1772 -1.9425
 4033SOL    HW223562   4.510   2.995   9.165 -0.1864 -0.8390  0.0211
 4034SOL     OW23563   0.792   1.549  16.147  0.3620 -0.1154 -0.3647
 4034SOL    HW123564   0.811   1.562  16.054 -1.0327 -2.6988 -1.0096
 4034SOL    HW223565   0.875   1.515  16.180 -0.8551 -0.5309  2.3025
 4035SOL     OW23566   3.653   4.677   7.758  0.4388  0.2240  0.1259
 4035SOL    HW123567   3.598   4.643   7.688  2.2515 -0.3115 -1.0357
 4035SOL    HW223568   3.744   4.674   7.728  0.1982  0.6622 -0.6253
 4036SOL     OW23569   4.312   3.185   4.105 -0.1501  0.0064  0.3079
 4036SOL    HW123570   4.308   3.091   4.123 -1.8798  0.0643  0.1820
 4036SOL    HW223571   4.255   3.193   4.028 -1.1523  1.4357  1.2133
 4037SOL     OW23572   3.593   3.573   6.198 -0.1056  0.4106  0.0328
 4037SOL    HW123573   3.603   3.529   6.283  0.7872  1.0088  0.2307
 4037SOL    HW223574   3.582   3.665   6.221  2.0272  0.4248  0.9376
 4038SOL     OW23575   0.609   4.708   9.690 -0.7366 -0.1710 -0.1215
 4038SOL    HW123576   0.675   0.033   9.638 -0.1785  0.5747  1.2437
 4038SOL    HW223577   0.536   0.048   9.698  1.0081  1.8428  0.3981
 4039SOL     OW23578   2.139   0.643   8.032  0.2516 -0.5956  0.0081
 4039SOL    HW123579   2.096   0.721   7.996  0.3548  0.6421  2.5468
 4039SOL    HW223580   2.106   0.646   8.121  1.2042 -1.9963  0.4012
 4040SOL     OW23581   4.326   1.041   5.826 -0.3187 -0.0970  0.1425
 4040SOL    HW123582   4.256   0.995   5.779 -0.2776 -0.3082  0.2867
 4040SOL    HW223583   4.288   1.125   5.850  1.0834  0.9244 -1.2908
 4041SOL     OW23584   4.669   3.325   8.709  0.1170  0.3815  0.7794
 4041SOL    HW123585   4.647   3.299   8.798  0.4947  2.6227  1.5275
 4041SOL    HW223586   4.709   3.411   8.723  3.4492 -0.9899 -0.3814
 4042SOL     OW23587   0.610   1.690   4.927 -0.2303 -0.5538 -0.0297
 4042SOL    HW123588   0.591   1.773   4.882  1.0139 -0.3493 -0.1845
 4042SOL    HW223589   0.522   1.680   4.964  0.6834  0.1856  2.3237
 4043SOL     OW23590   0.031   1.697   1.722  0.8541  0.5082 -0.6710
 4043SOL    HW123591   0.048   1.608   1.689 -1.2721 -0.1856  0.1295
 4043SOL    HW223592   0.102   1.753   1.690  1.1108  1.0075  0.7975
 4044SOL     OW23593   4.346   4.009   2.369 -0.1705 -0.5594  0.3048
 4044SOL    HW123594   4.285   3.950   2.411  2.0690 -2.2046  1.2245
 4044SOL    HW223595   4.332   4.094   2.412  2.4079 -0.4781  1.0229
 4045SOL     OW23596   3.219   2.459   5.691 -0.2885  1.3592  0.3906
 4045SOL    HW123597   3.180   2.373   5.681 -1.1199  1.7222  0.5338
 4045SOL    HW223598   3.297   2.438   5.743 -1.4809  0.9137  1.9873
 4046SOL     OW23599   2.613   0.951  17.011 -0.5331 -0.0657 -0.1769
 4046SOL    HW123600   2.623   0.924  17.102 -2.9213 -0.0040  0.1060
 4046SOL    HW223601   2.594   1.044  17.021  2.1847  0.1433  3.0049
 4047SOL     OW23602   0.307   2.999  16.825  0.1774 -0.0400 -0.0261
 4047SOL    HW123603   0.248   3.068  16.793 -1.6019 -1.5549 -0.0521
 4047SOL    HW223604   0.371   3.049  16.874 -0.3774 -0.2540  0.9185
 4048SOL     OW23605   1.271   1.152   8.155 -0.3307  0.2072  0.9963
 4048SOL    HW123606   1.308   1.237   8.179  0.4860 -0.2108  1.2159
 4048SOL    HW223607   1.300   1.096   8.227 -0.4816 -1.3538 -0.1743
 4049SOL     OW23608   2.124   1.826   8.458  0.6004 -0.6029 -0.2281
 4049SOL    HW123609   2.181   1.751   8.440  1.6226  0.0998  0.0357
 4049SOL    HW223610   2.190   1.891   8.433  0.7361 -1.6171 -2.5016
 4050SOL     OW23611   0.610   2.094   2.119 -0.4854  0.2992 -0.1993
 4050SOL    HW123612   0.647   2.035   2.053  1.1865  0.1296  0.8725
 4050SOL    HW223613   0.583   2.168   2.065  0.9997 -0.1355 -1.5324
 4051SOL     OW23614   2.578   1.388   6.238 -0.1451  0.2842  0.3714
 4051SOL    HW123615   2.654   1.388   6.295 -0.2316  0.1078  0.4859
 4051SOL    HW223616   2.571   1.482   6.220 -0.9072 -0.0938 -1.2694
 4052SOL     OW23617   1.571   0.032   4.265  0.0786 -0.6767 -0.2901
 4052SOL    HW123618   1.543   4.703   4.342  0.0450 -0.3131 -0.0694
 4052SOL    HW223619   1.586   0.114   4.311  0.7067 -0.4095 -0.9770
 4053SOL     OW23620   0.350   4.252   4.642  0.2756 -0.5519 -0.4302
 4053SOL    HW123621   0.413   4.294   4.700  0.8160 -0.7358 -0.8812
 4053SOL    HW223622   0.377   4.161   4.652  2.7326  0.1736 -0.5182
 4054SOL     OW23623   2.625   1.476   5.321  0.1662  0.7603  0.3585
 4054SOL    HW123624   2.708   1.450   5.282  0.4872  1.7875  0.3612
 4054SOL    HW223625   2.659   1.536   5.388 -1.3191  0.4353  1.3934
 4055SOL     OW23626   0.957   0.405   3.708  0.1043 -0.4815 -0.1597
 4055SOL    HW123627   0.958   0.482   3.765  1.8319  0.5268 -1.5487
 4055SOL    HW223628   1.053   0.401   3.707  0.1341  0.1069  0.8048
 4056SOL     OW23629   1.649   0.096  13.126  0.1871 -0.1815  0.6392
 4056SOL    HW123630   1.590   0.021  13.126 -2.7189  2.1155  0.5354
 4056SOL    HW223631   1.604   0.168  13.081 -3.1654 -2.3277  0.5179
 4057SOL     OW23632   2.128   0.946   3.525 -0.0494 -0.1820 -0.2958
 4057SOL    HW123633   2.108   0.971   3.615  0.1360 -1.2607  0.0503
 4057SOL    HW223634   2.178   1.021   3.491 -0.3219  0.6624  1.1621
 4058SOL     OW23635   2.990   0.414  10.753  0.4375  0.4669  0.1067
 4058SOL    HW123636   3.002   0.481  10.685 -0.5737 -1.1730 -1.6879
 4058SOL    HW223637   2.940   0.348  10.705  0.0418  1.1943 -0.4927
 4059SOL     OW23638   3.017   0.355  16.785 -0.3718 -0.6654 -0.0027
 4059SOL    HW123639   2.944   0.418  16.779  0.6651  0.7354  1.8563
 4059SOL    HW223640   3.090   0.407  16.752  0.1206  0.7885  3.3167
 4060SOL     OW23641   4.335   4.116   0.617 -0.1760  0.5688  0.5813
 4060SOL    HW123642   4.279   4.113   0.540 -1.0423  0.1726  1.2152
 4060SOL    HW223643   4.410   4.167   0.588 -0.0690  0.5657  0.8483
 4061SOL     OW23644   1.520   0.457   6.920 -0.4994 -0.4864 -0.2878
 4061SOL    HW123645   1.476   0.511   6.854 -2.6074 -0.9685  0.7112
 4061SOL    HW223646   1.445   0.417   6.964 -0.4638 -0.3128 -0.0660
 4062SOL     OW23647   3.406   0.038   3.359  0.8465  0.3909 -0.3470
 4062SOL    HW123648   3.364   4.683   3.399  0.6930  0.4212 -0.4500
 4062SOL    HW223649   3.348   0.083   3.297 -0.3155 -0.8211 -0.1486
 4063SOL     OW23650   0.716   2.135   3.025 -0.0746 -0.0520  0.0544
 4063SOL    HW123651   0.637   2.189   3.023  0.4208  0.6897  0.9965
 4063SOL    HW223652   0.775   2.173   3.089  0.8717  0.9700 -1.4502
 4064SOL     OW23653   1.364   2.607   0.542  0.1318 -1.1476  0.4007
 4064SOL    HW123654   1.295   2.655   0.495  0.2976 -0.5333  0.7861
 4064SOL    HW223655   1.412   2.579   0.464 -1.7417 -0.0457 -1.1485
 4065SOL     OW23656   0.644   1.921   6.244  0.4510 -0.6779 -0.0373
 4065SOL    HW123657   0.677   1.905   6.155 -1.8303 -2.2181 -0.6284
 4065SOL    HW223658   0.574   1.856   6.255 -1.7783  1.6180 -0.5148
 4066SOL     OW23659   3.632   2.889  15.186 -0.4213 -0.8869 -0.4595
 4066SOL    HW123660   3.706   2.844  15.226  0.7353  1.7920  0.3991
 4066SOL    HW223661   3.588   2.815  15.145 -0.7016 -0.8622 -0.2051
 4067SOL     OW23662   2.839   3.344   4.545  0.4365  0.0774  0.1954
 4067SOL    HW123663   2.823   3.378   4.457 -2.4307 -1.7443 -0.0166
 4067SOL    HW223664   2.827   3.433   4.579  0.8783  0.7339 -1.3823
 4068SOL     OW23665   0.755   0.003   8.905  0.6664  0.3129 -0.4846
 4068SOL    HW123666   0.775   4.646   8.854 -0.4416 -0.2841 -0.0094
 4068SOL    HW223667   0.842   0.036   8.925  0.2598 -0.2629  2.2364
 4069SOL     OW23668   4.246   2.385   9.358 -0.5062 -0.3574 -0.1822
 4069SOL    HW123669   4.224   2.298   9.325 -0.7753  0.1934 -1.4822
 4069SOL    HW223670   4.166   2.421   9.396  0.8891  1.7935  0.6954
 4070SOL     OW23671   0.849   3.299   7.929  0.2921  0.0104  1.2179
 4070SOL    HW123672   0.940   3.271   7.939 -0.2146 -1.8014  0.8577
 4070SOL    HW223673   0.797   3.269   8.004  0.4548 -1.8013  0.6231
 4071SOL     OW23674   1.441   0.296   3.535 -0.3589 -0.5092  0.7190
 4071SOL    HW123675   1.416   0.253   3.454  2.9909  0.6709 -0.9513
 4071SOL    HW223676   1.519   0.251   3.567  1.2700  1.7424 -0.0612
 4072SOL     OW23677   3.416   3.532   7.534 -0.4822 -0.2540 -0.1785
 4072SOL    HW123678   3.430   3.591   7.608  2.7167  1.1261 -1.9108
 4072SOL    HW223679   3.469   3.456   7.557 -1.8425 -0.8687  0.8759
 4073SOL     OW23680   3.895   1.729  13.564  0.3483  0.9827  0.6614
 4073SOL    HW123681   3.948   1.667  13.614  0.9741 -0.9842 -2.4843
 4073SOL    HW223682   3.967   1.790  13.550  2.5921 -2.2618 -1.8328
 4074SOL     OW23683   4.718   3.902   2.530 -0.1602 -0.2285  0.3868
 4074SOL    HW123684   4.669   3.863   2.458 -1.3261 -0.4507  1.2946
 4074SOL    HW223685   4.691   3.994   2.529  1.6681  0.2946 -0.1190
 4075SOL     OW23686   3.102   1.347   6.981  1.0904  0.4032 -0.5821
 4075SOL    HW123687   3.007   1.344   6.994  0.6818  0.3919 -3.5880
 4075SOL    HW223688   3.118   1.387   6.896  3.0755 -1.2886 -1.0160
 4076SOL     OW23689   3.122   1.080   2.747 -0.3662 -0.1042  0.7147
 4076SOL    HW123690   3.026   1.087   2.750 -0.5084 -1.0947 -1.3881
 4076SOL    HW223691   3.150   1.032   2.669  1.7559  1.1544  0.7116
 4077SOL     OW23692   0.557   1.225   2.577 -0.0386  0.9056 -0.4953
 4077SOL    HW123693   0.470   1.236   2.616  0.1080  1.5532 -0.3482
 4077SOL    HW223694   0.618   1.226   2.650  2.9386  1.4080 -2.9890
 4078SOL     OW23695   4.476   2.119  12.275 -0.0549  0.1131 -0.3093
 4078SOL    HW123696   4.454   2.208  12.300 -0.9883 -0.0745 -0.4590
 4078SOL    HW223697   4.422   2.075  12.341 -1.7422 -0.3018 -1.9636
 4079SOL     OW23698   2.975   2.362   7.498  0.1290  0.7143 -0.1456
 4079SOL    HW123699   2.952   2.312   7.577 -0.3108 -0.5312 -1.0667
 4079SOL    HW223700   2.994   2.288   7.440  3.0876  1.6486 -0.3990
 4080SOL     OW23701   0.485   2.112   8.182  0.3339 -0.4558  0.7250
 4080SOL    HW123702   0.408   2.107   8.239 -0.6885 -1.0278 -0.6981
 4080SOL    HW223703   0.506   2.021   8.161 -0.1432 -0.2726 -0.5580
 4081SOL     OW23704   0.634   4.497   4.861 -0.2393 -0.4578  0.3959
 4081SOL    HW123705   0.590   4.581   4.850  1.9967  0.5993 -0.5539
 4081SOL    HW223706   0.559   4.445   4.889  0.6419 -2.0912 -0.2521
 4082SOL     OW23707   4.324   3.322   5.631 -0.1725 -0.1162 -0.2551
 4082SOL    HW123708   4.347   3.415   5.635 -2.0889  0.3047  0.7450
 4082SOL    HW223709   4.403   3.282   5.667  0.0088  0.4305 -0.0286
 4083SOL     OW23710   0.479   3.170   4.698 -0.6075  0.1202 -0.4658
 4083SOL    HW123711   0.514   3.119   4.625 -0.0458  0.7578 -0.6418
 4083SOL    HW223712   0.395   3.207   4.669 -0.8874  0.4770  0.8246
 4084SOL     OW23713   3.514   3.017   4.634 -0.1869  0.1481  0.2120
 4084SOL    HW123714   3.533   3.092   4.578  1.6896 -0.7614 -0.3682
 4084SOL    HW223715   3.453   3.060   4.693 -0.4122  0.8248 -0.5120
 4085SOL     OW23716   4.145   1.595   0.861  0.1107  0.3959  0.3586
 4085SOL    HW123717   4.145   1.686   0.889 -0.0344 -0.2796  2.5185
 4085SOL    HW223718   4.052   1.574   0.873  0.2476 -1.3781 -1.6520
 4086SOL     OW23719   1.895   1.149   8.137 -0.3610  0.2262 -0.6064
 4086SOL    HW123720   1.924   1.239   8.124  1.9059 -0.2874  0.8607
 4086SOL    HW223721   1.821   1.142   8.077 -0.9472  0.1401  0.1150
 4087SOL     OW23722   2.781   2.581  13.065  0.4444 -0.2071  0.2102
 4087SOL    HW123723   2.794   2.507  13.006  0.5388  0.2711 -0.3610
 4087SOL    HW223724   2.686   2.581  13.071  0.5809 -1.7684  2.4509
 4088SOL     OW23725   0.941   0.836   5.298  0.2060 -0.3624 -0.1226
 4088SOL    HW123726   0.946   0.918   5.248 -1.3571  0.2437  0.7468
 4088SOL    HW223727   0.958   0.871   5.385 -1.6556  2.7975 -1.0293
 4089SOL     OW23728   2.448   0.822   4.956 -0.4391  0.2146  0.4196
 4089SOL    HW123729   2.496   0.903   4.940  2.0146 -1.1795  0.6335
 4089SOL    HW223730   2.507   0.771   5.012  2.4860  1.8756 -1.1403
 4090SOL     OW23731   2.258   4.266   9.257 -0.1396 -0.0885  0.4730
 4090SOL    HW123732   2.218   4.352   9.243  0.5615 -0.1691 -2.0343
 4090SOL    HW223733   2.240   4.224   9.172  1.0678 -1.0925  0.7151
 4091SOL     OW23734   2.903   2.923   2.722  0.2686 -0.9374  0.4651
 4091SOL    HW123735   2.832   2.949   2.662 -1.1541 -0.1307  2.4845
 4091SOL    HW223736   2.942   2.858   2.664 -0.1944  1.0036 -2.0163
 4092SOL     OW23737   4.404   2.346   3.121 -0.3739 -0.0339  0.3839
 4092SOL    HW123738   4.351   2.423   3.101  0.8191  0.6033 -0.2680
 4092SOL    HW223739   4.340   2.277   3.101  0.1274 -0.1566 -0.7344
 4093SOL     OW23740   0.280   0.737  15.863 -0.2712 -0.1983 -0.3624
 4093SOL    HW123741   0.261   0.645  15.881  1.5001 -0.2246  1.4550
 4093SOL    HW223742   0.238   0.781  15.937 -0.8799  0.3406 -1.0396
 4094SOL     OW23743   1.983   4.230   1.598  0.2372  0.8422 -0.1121
 4094SOL    HW123744   1.982   4.166   1.669  2.3735  1.2240  0.2540
 4094SOL    HW223745   1.895   4.267   1.595 -0.0132  0.2952  0.5328
 4095SOL     OW23746   3.879   3.466   0.683  0.4125 -0.2291 -0.1047
 4095SOL    HW123747   3.909   3.396   0.742  1.6588 -0.2867 -0.8086
 4095SOL    HW223748   3.788   3.465   0.711  0.6262  2.8231  0.7026
 4096SOL     OW23749   0.686   2.166   4.071  0.4790  0.4256  0.1449
 4096SOL    HW123750   0.615   2.129   4.019  0.6564 -1.3684  1.1938
 4096SOL    HW223751   0.753   2.115   4.026 -1.2343 -1.8962  0.2550
 4097SOL     OW23752   2.967   2.638   1.651 -0.6647  0.0406  0.1812
 4097SOL    HW123753   2.950   2.732   1.660 -0.1468  0.2477 -1.0235
 4097SOL    HW223754   3.053   2.643   1.694 -0.3957  0.6124 -0.4215
 4098SOL     OW23755   3.220   3.389   6.503 -0.3945  0.5161  0.0626
 4098SOL    HW123756   3.180   3.472   6.529  1.8814  0.9707  2.0684
 4098SOL    HW223757   3.256   3.361   6.587 -0.6349 -0.0169 -0.0064
 4099SOL     OW23758   1.185   1.251   1.944  0.4921  0.0337 -0.2445
 4099SOL    HW123759   1.250   1.183   1.961  0.6577 -0.1103 -1.4129
 4099SOL    HW223760   1.218   1.276   1.857  2.9238 -0.0260  0.6601
 4100SOL     OW23761   1.152   0.612   0.727 -0.4693 -0.4029 -0.2223
 4100SOL    HW123762   1.161   0.594   0.821  0.0127  1.4493  0.0996
 4100SOL    HW223763   1.115   0.701   0.725 -0.8916 -0.5664  0.2131
 4101SOL     OW23764   2.565   0.445   0.083 -0.1653  0.7532 -0.4967
 4101SOL    HW123765   2.625   0.414   0.150 -0.8786 -0.3520 -0.3603
 4101SOL    HW223766   2.623   0.460   0.009  1.5352  0.4665  0.7764
 4102SOL     OW23767   0.943   0.347  17.674 -0.0483  0.3295 -0.3827
 4102SOL    HW123768   0.919   0.279   0.051  2.4319 -1.8642 -1.8458
 4102SOL    HW223769   0.925   0.428   0.036 -1.0379 -0.9856  1.4591
 4103SOL     OW23770   1.954   0.572  14.378  0.0171  0.0811  0.2417
 4103SOL    HW123771   1.928   0.481  14.389  0.0355  0.1394  0.7689
 4103SOL    HW223772   2.045   0.560  14.404  0.0307 -0.1406  0.0894
 4104SOL     OW23773   4.483   0.044  16.731 -0.3038 -0.5225 -0.4818
 4104SOL    HW123774   4.411   0.019  16.789  0.1018 -1.3821 -0.3511
 4104SOL    HW223775   4.501   0.133  16.760 -1.6339 -0.2762 -0.4054
 4105SOL     OW23776   0.714   4.053   9.830  0.7981  0.4646  0.0453
 4105SOL    HW123777   0.659   4.024   9.903 -1.2189 -0.3219 -1.7903
 4105SOL    HW223778   0.648   4.102   9.780 -0.4558  0.3011  1.5215
 4106SOL     OW23779   0.427   2.951   6.018  0.2479  0.0773  0.7439
 4106SOL    HW123780   0.446   2.858   6.008 -0.8135 -0.0458 -0.0997
 4106SOL    HW223781   0.385   2.963   6.103 -1.6649  1.2507 -0.3871
 4107SOL     OW23782   0.705   2.338  10.658 -0.1615  0.2914 -0.1621
 4107SOL    HW123783   0.611   2.319  10.655  0.1110 -1.1538  0.3827
 4107SOL    HW223784   0.709   2.397  10.734  1.5230 -1.0813  0.8092
 4108SOL     OW23785   1.461   3.433   7.596 -1.0933  0.0212  0.3090
 4108SOL    HW123786   1.432   3.516   7.632  1.5377  0.8017  0.6177
 4108SOL    HW223787   1.427   3.435   7.507  2.1500 -1.1651 -0.9792
 4109SOL     OW23788   3.428   3.114   1.208 -0.3162 -0.1341  0.0089
 4109SOL    HW123789   3.514   3.072   1.207 -0.1345  0.2093  1.0200
 4109SOL    HW223790   3.376   3.056   1.153 -0.4760 -0.5314  0.5768
 4110SOL     OW23791   0.353   1.225  17.396 -0.1888  0.3453  0.0523
 4110SOL    HW123792   0.434   1.223  17.448 -0.3342 -0.1536  0.2579
 4110SOL    HW223793   0.373   1.161  17.329  0.6637  0.5478  0.1147
 4111SOL     OW23794   3.932   3.881   3.203 -0.3340 -0.6741 -0.2941
 4111SOL    HW123795   3.922   3.832   3.285 -3.7871  0.3838 -0.0820
 4111SOL    HW223796   3.914   3.967   3.240 -0.9869 -1.5604  1.4936
 4112SOL     OW23797   2.314   3.132  14.254  0.2762  0.3987  0.2734
 4112SOL    HW123798   2.342   3.128  14.163 -0.8182 -0.1291 -0.0464
 4112SOL    HW223799   2.275   3.045  14.264  1.4076 -0.1216  0.0916
 4113SOL     OW23800   4.314   1.723   2.412  0.4442  0.1442 -0.4565
 4113SOL    HW123801   4.253   1.649   2.406  3.1483 -2.1714  0.7295
 4113SOL    HW223802   4.353   1.708   2.326  1.1864  2.0641 -0.4600
 4114SOL     OW23803   4.369   2.731   8.076  0.8296 -0.0592 -0.4125
 4114SOL    HW123804   4.430   2.663   8.104 -0.4485 -1.5714 -1.2985
 4114SOL    HW223805   4.424   2.809   8.070  2.9451 -1.4182  1.2764
 4115SOL     OW23806   2.782   3.275   7.556  0.0421  0.4165 -0.5128
 4115SOL    HW123807   2.828   3.210   7.503  0.5443  0.2040  0.1867
 4115SOL    HW223808   2.838   3.274   7.634  0.8823  2.2781 -1.0916
 4116SOL     OW23809   2.799   0.192   9.144  0.1497  0.5424 -0.0329
 4116SOL    HW123810   2.773   0.150   9.061  0.4995 -0.4183  0.3444
 4116SOL    HW223811   2.713   0.183   9.184  0.1425 -2.1144 -0.6211
 4117SOL     OW23812   0.602   0.432  15.885 -0.3453 -0.1988  0.1594
 4117SOL    HW123813   0.625   0.419  15.793 -0.3112 -0.0522  0.1467
 4117SOL    HW223814   0.675   0.483  15.921 -1.2448 -0.5248  2.4258
 4118SOL     OW23815   4.492   1.518  12.919  0.1265  0.3791  0.7634
 4118SOL    HW123816   4.474   1.496  13.010 -2.5178  0.1957  0.1882
 4118SOL    HW223817   4.452   1.605  12.912  1.8662  1.0840 -0.4896
 4119SOL     OW23818   3.724   0.849   6.977  0.3120 -0.4736 -0.0719
 4119SOL    HW123819   3.774   0.818   7.053  2.4610  1.2081 -0.7918
 4119SOL    HW223820   3.736   0.944   6.982 -1.9412 -0.1341 -1.2631
 4120SOL     OW23821   1.747   4.044  13.273 -0.3345 -0.0386  0.6198
 4120SOL    HW123822   1.794   4.056  13.355  0.4180 -1.3053  0.3675
 4120SOL    HW223823   1.711   4.133  13.267  0.5194  0.3248  0.9133
 4121SOL     OW23824   3.987   2.956   3.425 -0.2345 -0.8757  0.3471
 4121SOL    HW123825   4.016   2.890   3.488 -0.3636 -0.8008  0.4845
 4121SOL    HW223826   4.015   3.035   3.470  1.1460 -1.5102  0.5805
 4122SOL     OW23827   1.305   0.185  13.445 -0.3016  0.4739 -0.0666
 4122SOL    HW123828   1.310   0.280  13.443  0.6116  0.4536  1.3008
 4122SOL    HW223829   1.398   0.162  13.440 -0.1647  1.2167 -1.1512
 4123SOL     OW23830   1.856   2.423   8.142  0.2033 -0.0559  0.2852
 4123SOL    HW123831   1.793   2.441   8.072 -0.0701  0.7058  0.7330
 4123SOL    HW223832   1.855   2.328   8.128 -0.9970  0.2159 -1.5791
 4124SOL     OW23833   2.153   3.725   2.420 -0.1850 -0.0772  0.1183
 4124SOL    HW123834   2.076   3.668   2.417 -0.4042  0.1889  0.7629
 4124SOL    HW223835   2.124   3.810   2.454 -0.2458  0.6203 -1.6243
 4125SOL     OW23836   0.892   4.604   2.278  0.3407  0.9813  0.4710
 4125SOL    HW123837   0.849   4.597   2.193  0.1912  0.7321  0.5655
 4125SOL    HW223838   0.966   4.665   2.279  0.2467  1.1358 -1.5972
 4126SOL     OW23839   0.373   3.321  17.075  0.0031  0.4299  0.0172
 4126SOL    HW123840   0.403   3.412  17.070 -0.6028  0.6959  1.2817
 4126SOL    HW223841   0.399   3.287  16.990 -0.3151  1.3428 -0.4435
 4127SOL     OW23842   4.289   3.313   2.359 -0.5370 -0.6891 -0.2938
 4127SOL    HW123843   4.371   3.357   2.338 -2.0618  1.3334 -1.9157
 4127SOL    HW223844   4.308   3.227   2.319 -0.1882 -0.7941  0.0921
 4128SOL     OW23845   3.236   3.585   5.164 -0.4289 -0.5594  0.3420
 4128SOL    HW123846   3.236   3.590   5.068 -3.5162 -0.5899  0.3376
 4128SOL    HW223847   3.142   3.602   5.175 -0.5066 -1.0465  0.4394
 4129SOL     OW23848   2.569   3.093  14.442 -0.2964 -0.2487 -0.5097
 4129SOL    HW123849   2.605   3.016  14.400  2.3808  0.4358  0.5169
 4129SOL    HW223850   2.542   3.142  14.365  0.0734  0.6153 -0.0907
 4130SOL     OW23851   0.894   3.965  13.204  0.1386  0.2223 -0.5233
 4130SOL    HW123852   0.823   3.952  13.267 -1.0552 -2.0443 -2.3758
 4130SOL    HW223853   0.958   4.000  13.266 -1.2033  0.4011  0.7798
 4131SOL     OW23854   1.747   4.451   8.220 -0.6020  0.0761  0.1820
 4131SOL    HW123855   1.786   4.526   8.265 -0.8940 -1.1326  2.4267
 4131SOL    HW223856   1.788   4.385   8.276 -0.6953 -0.3539 -0.2606
 4132SOL     OW23857   0.075   3.533  12.347  0.1477  0.2497  0.2256
 4132SOL    HW123858   0.128   3.555  12.423  1.2522  1.0248 -0.7764
 4132SOL    HW223859   4.714   3.563  12.386  0.5735  0.5080  0.9208
 4133SOL     OW23860   1.225   0.362   3.690  0.1443 -0.5578  0.2662
 4133SOL    HW123861   1.273   0.416   3.753 -1.6491  1.4833 -0.1246
 4133SOL    HW223862   1.288   0.352   3.620  0.6024 -0.8349  0.7172
 4134SOL     OW23863   0.447   0.126  11.459 -0.3076  0.3613 -0.1985
 4134SOL    HW123864   0.501   0.077  11.521  1.1569  1.4219 -0.6378
 4134SOL    HW223865   0.494   0.207  11.481 -0.1767 -0.0735  1.1323
 4135SOL     OW23866   2.066   1.735   2.191 -0.1408 -0.3672 -0.5101
 4135SOL    HW123867   2.141   1.713   2.246  0.3782  2.8660  0.1155
 4135SOL    HW223868   1.993   1.722   2.252 -0.1419  2.8452  0.1885
 4136SOL     OW23869   4.352   0.000   7.932  0.2413 -0.5302  0.0695
 4136SOL    HW123870   4.383   0.004   8.023 -0.6658  1.2953  0.3023
 4136SOL    HW223871   4.350   0.095   7.921 -1.7541 -0.4840  0.7865
 4137SOL     OW23872   3.702   2.746   0.808  0.2266 -0.1901 -0.3233
 4137SOL    HW123873   3.792   2.745   0.840  0.8648 -0.0220 -2.0884
 4137SOL    HW223874   3.705   2.819   0.746  0.2873  0.2093  0.1511
 4138SOL     OW23875   3.067   4.605   3.359  0.3961  0.0121  0.4659
 4138SOL    HW123876   3.085   4.562   3.275  2.5601 -0.9706  1.4192
 4138SOL    HW223877   3.154   4.596   3.398  0.2214 -1.9757  0.4189
 4139SOL     OW23878   1.039   4.552   9.923 -0.0081  0.4864 -0.1486
 4139SOL    HW123879   1.018   4.606   9.847 -0.2171 -0.0078 -0.4481
 4139SOL    HW223880   0.998   4.468   9.900 -0.1502 -0.0842  2.2624
 4140SOL     OW23881   1.952   2.532   9.124 -0.0621  1.0963  0.0145
 4140SOL    HW123882   1.901   2.595   9.175 -1.5654 -0.7065  0.7452
 4140SOL    HW223883   1.883   2.504   9.064  0.3461 -0.1644  0.1499
 4141SOL     OW23884   0.855   2.559   7.059 -0.1209  0.4283  0.0591
 4141SOL    HW123885   0.863   2.505   7.137  0.4398  0.4904  0.0430
 4141SOL    HW223886   0.854   2.496   6.987  2.0797 -0.4947  0.8505
 4142SOL     OW23887   1.240   0.732   1.318  0.3318 -0.3860 -0.1602
 4142SOL    HW123888   1.164   0.783   1.292  0.6934  0.1900 -0.0732
 4142SOL    HW223889   1.281   0.714   1.234  0.6000 -1.0156  0.1006
 4143SOL     OW23890   0.183   0.827  15.591  0.4353 -0.0293  0.0489
 4143SOL    HW123891   0.246   0.899  15.600  0.7755 -0.6173  2.4154
 4143SOL    HW223892   0.213   0.758  15.650  0.9422  0.2001  0.0628
 4144SOL     OW23893   2.155   4.627   8.442  0.2688 -0.4891  0.4583
 4144SOL    HW123894   2.159   4.689   8.515 -1.1342  0.9949 -0.7260
 4144SOL    HW223895   2.167   4.545   8.490 -0.5275 -0.8836 -0.0078
 4145SOL     OW23896   1.083   2.348   4.872 -0.2530 -0.1425 -0.8458
 4145SOL    HW123897   1.036   2.408   4.930  0.3537  0.6745 -1.2117
 4145SOL    HW223898   1.167   2.392   4.882 -0.7997  1.0702 -1.6353
 4146SOL     OW23899   2.352   4.281   4.188  0.1482  0.3025  0.0641
 4146SOL    HW123900   2.407   4.360   4.182  0.2811  0.2585  0.6507
 4146SOL    HW223901   2.413   4.213   4.218  0.4624 -0.6696 -2.8034
 4147SOL     OW23902   0.822   1.428  10.448  0.6623 -0.0850 -0.4261
 4147SOL    HW123903   0.914   1.411  10.466  1.1381  3.4205  0.3066
 4147SOL    HW223904   0.832   1.432  10.353  0.6585  0.9659 -0.3814
 4148SOL     OW23905   2.011   1.482  14.240 -0.3830  0.5742  0.2160
 4148SOL    HW123906   1.994   1.552  14.303 -0.8831  0.5673  0.0898
 4148SOL    HW223907   2.103   1.495  14.214 -0.3313 -0.6520 -0.2229
 4149SOL     OW23908   2.688   3.586   4.326  0.0837  0.3745 -0.0246
 4149SOL    HW123909   2.662   3.663   4.275  0.6217  1.3785  1.2556
 4149SOL    HW223910   2.728   3.635   4.397  1.9135  1.0085 -1.4759
 4150SOL     OW23911   0.397   2.634   7.191 -0.1133 -0.2761 -0.5277
 4150SOL    HW123912   0.467   2.612   7.253 -0.9292  0.8563  0.7912
 4150SOL    HW223913   0.387   2.728   7.199  0.6785 -0.2720  0.4197
 4151SOL     OW23914   3.747   0.606   9.011 -0.2392  0.3612 -0.3220
 4151SOL    HW123915   3.741   0.552   9.091 -0.1296  0.1055 -0.4873
 4151SOL    HW223916   3.688   0.679   9.029 -0.4656  0.3418 -1.0016
 4152SOL     OW23917   2.113   4.502   1.389  0.3390  0.1880  0.0575
 4152SOL    HW123918   2.126   4.517   1.295  1.8078  0.6436  0.3310
 4152SOL    HW223919   2.027   4.542   1.402  0.3871  0.6922 -1.1885
 4153SOL     OW23920   3.495   2.066   5.586 -1.1178 -0.3977  0.3606
 4153SOL    HW123921   3.527   1.980   5.556  0.7331 -0.4363  2.4379
 4153SOL    HW223922   3.527   2.059   5.676 -0.2846 -0.5904  0.0536
 4154SOL     OW23923   3.319   2.415  12.214 -0.5247 -0.2381 -0.0467
 4154SOL    HW123924   3.402   2.436  12.170 -0.6814 -1.6972 -1.0643
 4154SOL    HW223925   3.316   2.320  12.202  0.1217  0.0481 -2.6721
 4155SOL     OW23926   2.641   1.488  15.473 -0.5033  0.4360 -0.0742
 4155SOL    HW123927   2.661   1.579  15.449  1.0763  0.4768  1.3666
 4155SOL    HW223928   2.638   1.451  15.384  0.3567 -0.3196  0.2068
 4156SOL     OW23929   1.331   3.369  16.667 -0.0291  0.1164  0.0274
 4156SOL    HW123930   1.287   3.426  16.604 -1.0349 -0.4277  0.2455
 4156SOL    HW223931   1.421   3.372  16.635 -0.0518  0.3397 -0.0203
 4157SOL     OW23932   0.332   2.515   8.172 -0.4103 -0.4692  0.1227
 4157SOL    HW123933   0.318   2.607   8.193 -2.4749 -0.3019 -2.0301
 4157SOL    HW223934   0.428   2.514   8.163 -0.5107  1.6796 -1.1155
 4158SOL     OW23935   1.358   0.404  10.918 -0.3928 -0.1908  0.1163
 4158SOL    HW123936   1.272   0.433  10.890 -0.4216 -0.1475  0.2504
 4158SOL    HW223937   1.354   0.432  11.009  0.3680  0.5502 -0.0725
 4159SOL     OW23938   4.181   1.618   4.033 -0.8695 -0.1058 -0.3134
 4159SOL    HW123939   4.123   1.569   3.974 -1.1527 -0.5284  0.3135
 4159SOL    HW223940   4.269   1.583   4.017 -1.1768 -1.3567  0.6972
 4160SOL     OW23941   0.039   4.664  16.038  0.0675 -0.2947  0.4974
 4160SOL    HW123942   0.026   4.582  15.990  0.7588  0.5031 -1.0384
 4160SOL    HW223943   0.067   4.625  16.121 -1.5794 -1.6692  0.4092
 4161SOL     OW23944   2.609   3.414  12.394  0.5816  0.0373  0.3238
 4161SOL    HW123945   2.515   3.401  12.379  0.8221 -0.9056 -0.3321
 4161SOL    HW223946   2.621   3.356  12.469 -0.9706  0.1564  0.6650
 4162SOL     OW23947   3.483   4.078   8.024 -0.0300 -0.2302 -0.5090
 4162SOL    HW123948   3.436   4.010   7.975 -1.4420  0.5832 -0.2734
 4162SOL    HW223949   3.542   4.018   8.070  0.2124  1.4098  1.2687
 4163SOL     OW23950   2.948   1.907   5.693 -0.4069  0.0039 -0.4254
 4163SOL    HW123951   2.935   1.995   5.731  1.2982  0.7846 -1.6745
 4163SOL    HW223952   2.992   1.930   5.612 -1.2967  0.2458 -0.8433
 4164SOL     OW23953   1.721   3.750   2.598 -0.0289 -0.1408 -0.3339
 4164SOL    HW123954   1.797   3.713   2.643  0.4978  0.4261 -0.7607
 4164SOL    HW223955   1.758   3.835   2.573  0.4424  0.4201  2.2610
 4165SOL     OW23956   2.131   3.933   4.534 -0.0728  0.6892 -0.4141
 4165SOL    HW123957   2.188   4.005   4.560  2.7518 -1.5695 -0.3043
 4165SOL    HW223958   2.187   3.865   4.572 -0.5646  1.2821  1.3724
 4166SOL     OW23959   0.288   3.043   9.116  0.1216 -0.2001 -0.3472
 4166SOL    HW123960   0.322   2.972   9.170 -1.5286  0.6343  1.8098
 4166SOL    HW223961   0.355   3.111   9.120 -1.5679  1.6268 -2.7370
 4167SOL     OW23962   4.247   2.028  15.047 -0.0564 -0.4561 -0.3282
 4167SOL    HW123963   4.320   2.069  15.092 -0.5269 -1.2931  1.2079
 4167SOL    HW223964   4.192   2.106  15.044 -0.5533 -0.7449  1.4021
 4168SOL     OW23965   1.964   2.354  13.661  0.4370 -0.1581  0.2286
 4168SOL    HW123966   1.923   2.357  13.575 -0.8493 -0.6952  0.8210
 4168SOL    HW223967   1.990   2.446  13.665  0.5953 -0.2376  0.9744
 4169SOL     OW23968   1.835   1.124   9.810 -0.1473  0.2772  0.1300
 4169SOL    HW123969   1.800   1.210   9.785 -1.2929  0.1541  1.3182
 4169SOL    HW223970   1.928   1.144   9.825  0.4088 -0.4276 -2.3332
 4170SOL     OW23971   0.893   4.320   9.909 -0.0059  0.5317 -0.1968
 4170SOL    HW123972   0.889   4.228   9.881 -0.0359  0.8089 -1.1031
 4170SOL    HW223973   0.891   4.317  10.005 -0.1811 -0.2727 -0.2211
 4171SOL     OW23974   1.073   1.686   0.914  0.5728 -0.1651 -0.1344
 4171SOL    HW123975   1.071   1.591   0.897  1.2841 -0.2867  0.4709
 4171SOL    HW223976   1.051   1.724   0.830 -0.1766  0.3279  0.2847
 4172SOL     OW23977   2.445   0.543  13.698  0.2197  0.1582  0.1964
 4172SOL    HW123978   2.377   0.565  13.634 -1.7777  1.8255  2.8554
 4172SOL    HW223979   2.392   0.520  13.775  0.0575  0.3365  0.1400
 4173SOL     OW23980   1.494   3.872  15.055  0.5066 -0.0023  0.6036
 4173SOL    HW123981   1.426   3.928  15.018  1.1510 -0.1912 -0.8426
 4173SOL    HW223982   1.446   3.794  15.084 -0.7509  0.2456 -0.8301
 4174SOL     OW23983   4.143   4.575   9.054 -0.4694  0.4080  0.2565
 4174SOL    HW123984   4.190   4.519   9.116 -3.3307 -0.8791  1.2121
 4174SOL    HW223985   4.125   4.509   8.987  2.3773 -1.6846  1.5283
 4175SOL     OW23986   2.527   0.202  15.703  0.4543 -0.5754 -0.0221
 4175SOL    HW123987   2.521   0.109  15.682  1.0388 -0.4297 -0.8498
 4175SOL    HW223988   2.498   0.242  15.621  0.3154 -0.5424  0.0431
 4176SOL     OW23989   2.792   0.556  16.704 -0.3632  0.0254  0.0495
 4176SOL    HW123990   2.787   0.600  16.619 -0.8425  1.2101  0.6924
 4176SOL    HW223991   2.754   0.615  16.768 -0.6940 -0.8694  0.6848
 4177SOL     OW23992   0.607   3.372   4.844 -0.2680  0.2092  0.0064
 4177SOL    HW123993   0.533   3.433   4.835 -0.4946 -0.0969 -0.1991
 4177SOL    HW223994   0.568   3.296   4.801  2.5049 -1.5223  0.5697
 4178SOL     OW23995   0.074   0.089   7.456 -0.2172 -0.2282  0.0317
 4178SOL    HW123996   0.136   0.110   7.386  2.0402 -0.7685  1.8463
 4178SOL    HW223997   0.003   0.152   7.450  0.3132  0.0144 -3.6716
 4179SOL     OW23998   0.324   3.021   0.251 -0.8372  0.1995  0.1824
 4179SOL    HW123999   0.230   3.010   0.236 -0.7734  0.8314 -0.7122
 4179SOL    HW224000   0.335   3.116   0.254  0.1242  0.0799  0.1432
 4180SOL     OW24001   1.490   3.572  12.409 -0.7703 -0.1279  0.1733
 4180SOL    HW124002   1.553   3.503  12.386 -0.0730  1.3328 -2.3017
 4180SOL    HW224003   1.468   3.568  12.502 -0.6085 -2.8231  0.0922
 4181SOL     OW24004   2.491   3.273   3.110  0.4132 -0.3749  0.0286
 4181SOL    HW124005   2.568   3.244   3.158 -0.5738  0.7244  2.2928
 4181SOL    HW224006   2.476   3.192   3.061 -1.5812 -0.7607  1.2558
 4182SOL     OW24007   3.357   2.013  17.088 -0.2989 -0.0025  0.4721
 4182SOL    HW124008   3.394   1.931  17.122 -0.7128  0.3924  1.8957
 4182SOL    HW224009   3.382   2.072  17.159  1.2334  0.4760 -0.4806
 4183SOL     OW24010   4.024   0.403   8.317  0.3816  0.0889 -0.3585
 4183SOL    HW124011   3.937   0.378   8.286 -0.5987  1.4357  1.3213
 4183SOL    HW224012   4.054   0.422   8.228  0.6467  1.5572  0.0493
 4184SOL     OW24013   1.531   0.099  11.353 -0.0798  0.6485 -0.1472
 4184SOL    HW124014   1.466   0.049  11.304  1.3250 -1.6989  0.3458
 4184SOL    HW224015   1.586   0.028  11.387 -1.2837  0.1107  0.6809
 4185SOL     OW24016   0.531   2.756   6.193 -0.4579 -0.2339 -0.3844
 4185SOL    HW124017   0.569   2.814   6.259 -0.3420 -0.9442  0.1806
 4185SOL    HW224018   0.574   2.795   6.117  0.9984  2.2757  1.7358
 4186SOL     OW24019   3.946   1.113   2.549 -0.0614  0.2033  0.1601
 4186SOL    HW124020   3.953   1.203   2.579 -0.9592  0.7160 -1.2139
 4186SOL    HW224021   3.856   1.104   2.519  0.0640  0.6718 -0.3404
 4187SOL     OW24022   0.310   3.206   8.392 -0.2946 -0.2879 -0.5760
 4187SOL    HW124023   0.230   3.237   8.351 -0.1010  0.3585 -0.4678
 4187SOL    HW224024   0.280   3.212   8.483 -0.0505 -1.4216 -0.4302
 4188SOL     OW24025   1.259   0.457   2.208 -0.1745  0.1661  0.0345
 4188SOL    HW124026   1.178   0.453   2.259  0.3785 -1.0029  0.8235
 4188SOL    HW224027   1.230   0.381   2.157 -0.5201  1.5103 -1.7554
 4189SOL     OW24028   1.137   3.916  11.906 -0.0305 -0.2566 -0.7369
 4189SOL    HW124029   1.139   4.009  11.884  0.3102 -0.1018 -0.0451
 4189SOL    HW224030   1.226   3.909  11.940 -0.1928 -0.2738 -0.3117
 4190SOL     OW24031   4.422   0.245   6.300 -0.3063 -0.0329  0.0803
 4190SOL    HW124032   4.440   0.273   6.390  2.2318  2.5476 -1.2415
 4190SOL    HW224033   4.346   0.188   6.312  0.6804 -1.5059 -0.5544
 4191SOL     OW24034   3.190   1.014  10.160  0.5235  0.0296 -0.6597
 4191SOL    HW124035   3.235   0.937  10.194  0.6639  0.1395 -0.5974
 4191SOL    HW224036   3.251   1.054  10.097  0.1834  2.5108  0.5852
 4192SOL     OW24037   2.440   3.219  13.476  0.6453 -0.1837 -0.0762
 4192SOL    HW124038   2.427   3.312  13.494 -0.0468 -0.1992 -0.4785
 4192SOL    HW224039   2.513   3.224  13.414  0.0427  3.6753 -0.4309
 4193SOL     OW24040   1.863   3.805   4.433  0.5345 -0.4473  0.6614
 4193SOL    HW124041   1.941   3.821   4.486 -0.3826 -1.3926  2.3132
 4193SOL    HW224042   1.891   3.720   4.400 -0.9528 -0.4768 -0.5233
 4194SOL     OW24043   3.545   4.210   8.787  0.0850  0.0472  0.0097
 4194SOL    HW124044   3.584   4.153   8.854 -0.3354 -0.3338 -0.0709
 4194SOL    HW224045   3.466   4.240   8.831  0.1264  0.8185 -0.4520
 4195SOL     OW24046   3.406   2.854   9.235 -0.4175  0.5267  0.9254
 4195SOL    HW124047   3.400   2.826   9.326 -0.5611  1.0176  1.0659
 4195SOL    HW224048   3.353   2.934   9.240 -0.8913  0.1991  1.1883
 4196SOL     OW24049   0.986   2.294   8.782 -0.2742  0.0579 -0.2902
 4196SOL    HW124050   0.997   2.325   8.872 -0.9547  1.9886 -0.8746
 4196SOL    HW224051   1.031   2.210   8.793  1.6382  1.3438  1.5340
 4197SOL     OW24052   1.388   1.207   5.230 -0.0681  0.5182  0.3080
 4197SOL    HW124053   1.482   1.225   5.230 -0.1889  1.1482  0.3726
 4197SOL    HW224054   1.365   1.201   5.137  0.9568  1.5023 -0.0114
 4198SOL     OW24055   4.203   1.945   6.397  0.1120  0.2659 -0.3084
 4198SOL    HW124056   4.215   1.885   6.471 -0.7233  0.2134 -0.2127
 4198SOL    HW224057   4.151   1.891   6.337  0.7887 -0.2570 -0.4196
 4199SOL     OW24058   2.431   3.972  13.505  0.1531  0.4415 -0.3478
 4199SOL    HW124059   2.345   3.956  13.543  0.0423  0.9953 -0.3646
 4199SOL    HW224060   2.485   3.905  13.548 -0.0828  2.7942  3.6653
 4200SOL     OW24061   3.912   3.975   9.736 -0.0077 -0.3092 -0.0613
 4200SOL    HW124062   3.859   4.039   9.784 -0.6442 -2.1266  1.6594
 4200SOL    HW224063   3.867   3.969   9.652 -2.0196  1.3514  0.8853
 4201SOL     OW24064   0.308   3.896   6.704  0.4670  0.0642  0.3874
 4201SOL    HW124065   0.268   3.955   6.768  0.6079 -2.0289  2.4129
 4201SOL    HW224066   0.403   3.904   6.714  0.1100  0.6517  3.2857
 4202SOL     OW24067   2.711   2.364  14.269  0.1770  0.6881  0.2843
 4202SOL    HW124068   2.795   2.321  14.249 -1.6233 -0.9909 -3.5999
 4202SOL    HW224069   2.652   2.292  14.245  2.3659 -1.0413  0.0160
 4203SOL     OW24070   2.427   2.671  15.266 -0.0131 -0.1511 -0.3252
 4203SOL    HW124071   2.434   2.581  15.234 -0.1547 -0.6026  0.8952
 4203SOL    HW224072   2.505   2.711  15.228  0.1189  1.7362  1.9078
 4204SOL     OW24073   2.161   2.108  17.371 -0.2742  0.5885  0.4165
 4204SOL    HW124074   2.090   2.139  17.428 -0.9511 -0.4239  0.1210
 4204SOL    HW224075   2.111   2.057  17.307 -1.3809  0.8652  1.0757
 4205SOL     OW24076   3.739   4.535   8.191  0.3160  0.2315 -0.1018
 4205SOL    HW124077   3.687   4.607   8.227  0.3652  0.3892 -0.3480
 4205SOL    HW224078   3.789   4.586   8.127  0.8424  1.4924  1.3115
 4206SOL     OW24079   1.755   0.025  16.989  0.1624 -0.2123  0.3591
 4206SOL    HW124080   1.827   4.704  16.943 -1.9472 -1.4465 -1.8572
 4206SOL    HW224081   1.791   0.041  17.076  1.0469  1.4506 -0.3263
 4207SOL     OW24082   2.656   3.430   7.891 -0.2729  0.6657 -0.3455
 4207SOL    HW124083   2.670   3.474   7.975  1.3310 -0.5134 -0.0105
 4207SOL    HW224084   2.571   3.461   7.860  0.7722  1.3731 -2.4640
 4208SOL     OW24085   3.897   3.562  16.690  0.1646  0.3734 -0.2960
 4208SOL    HW124086   3.970   3.623  16.697  0.2846  0.2094 -0.1184
 4208SOL    HW224087   3.825   3.613  16.726  0.8248 -0.1797  1.8207
 4209SOL     OW24088   3.178   4.021   0.985  0.2265  0.4341  0.0460
 4209SOL    HW124089   3.222   4.023   0.900  1.2995  1.0626  0.6113
 4209SOL    HW224090   3.084   4.011   0.969 -0.0526  1.7081  0.9094
 4210SOL     OW24091   2.107   4.365   2.084 -0.2457  0.4591  0.3810
 4210SOL    HW124092   2.092   4.372   2.178 -2.2421 -2.9069  0.3175
 4210SOL    HW224093   2.152   4.281   2.075  0.5422  1.0009 -0.8084
 4211SOL     OW24094   3.944   1.641  11.147 -0.0898  0.3326 -0.1684
 4211SOL    HW124095   3.935   1.645  11.052 -3.0529  1.1610  0.1461
 4211SOL    HW224096   3.902   1.555  11.159 -0.6082  0.3451 -1.8599
 4212SOL     OW24097   4.562   0.308   5.285  0.1159  0.3911  0.2284
 4212SOL    HW124098   4.510   0.235   5.320 -0.4257  0.1213 -1.1652
 4212SOL    HW224099   4.587   0.276   5.198  1.2232  1.8491  0.0176
 4213SOL     OW24100   0.317   2.990   6.260  0.0800 -0.4308  0.4979
 4213SOL    HW124101   0.222   2.977   6.261  0.0833 -0.6369 -3.8941
 4213SOL    HW224102   0.338   3.083   6.252 -2.5911 -0.1608 -3.6458
 4214SOL     OW24103   4.626   2.887  13.692  0.2723  0.2728 -0.2790
 4214SOL    HW124104   4.606   2.939  13.614  0.1455  0.5990 -0.0293
 4214SOL    HW224105   4.587   2.945  13.756  1.1577 -0.0540  0.5569
 4215SOL     OW24106   4.406   0.818  14.971  0.3622 -0.3742 -0.4516
 4215SOL    HW124107   4.380   0.892  15.026 -0.1802 -1.4754  0.7746
 4215SOL    HW224108   4.478   0.779  15.020 -2.2050 -1.4417  2.4578
 4216SOL     OW24109   2.975   0.854   4.247 -0.3018 -0.0309 -0.2578
 4216SOL    HW124110   2.897   0.799   4.248  0.2810 -0.8580 -0.9580
 4216SOL    HW224111   3.034   0.779   4.245 -0.4278 -0.1688  0.7406
 4217SOL     OW24112   3.382   0.575   6.285  0.8406  0.1451 -0.7584
 4217SOL    HW124113   3.354   0.498   6.236 -0.9166 -0.4762  1.2227
 4217SOL    HW224114   3.474   0.579   6.257  0.3424 -0.6790 -2.4956
 4218SOL     OW24115   1.806   3.437   4.590 -0.1299 -0.0441 -0.6045
 4218SOL    HW124116   1.836   3.366   4.534 -1.7461  0.9872 -2.7701
 4218SOL    HW224117   1.745   3.485   4.533  0.0279 -0.4414 -1.1001
 4219SOL     OW24118   1.184   1.923   3.527  0.0120  0.4875 -0.0039
 4219SOL    HW124119   1.228   1.955   3.605 -0.5893 -1.9988  1.3650
 4219SOL    HW224120   1.096   1.955   3.546 -0.3619 -0.8501  0.5391
 4220SOL     OW24121   4.433   3.149  11.108  0.5631  0.0255 -0.0398
 4220SOL    HW124122   4.416   3.059  11.135  1.1574 -0.2902 -0.7032
 4220SOL    HW224123   4.521   3.163  11.145  1.4255 -0.7235 -1.8214
 4221SOL     OW24124   4.376   2.608   2.153  0.3495 -0.0389 -0.5813
 4221SOL    HW124125   4.339   2.692   2.181 -0.0029 -1.1605  2.3094
 4221SOL    HW224126   4.346   2.554   2.226 -2.7475 -1.5540 -2.9719
 4222SOL     OW24127   0.395   0.208   8.189  0.5521  0.1312  0.2023
 4222SOL    HW124128   0.329   0.277   8.178  2.8377  2.6555  2.2654
 4222SOL    HW224129   0.399   0.179   8.098 -0.8539 -0.6532  0.3946
 4223SOL     OW24130   3.818   3.897  13.346 -0.0028  0.3497 -0.8450
 4223SOL    HW124131   3.801   3.986  13.316 -2.5580  0.2597  0.2701
 4223SOL    HW224132   3.910   3.887  13.322 -0.4253 -1.1874 -1.8116
 4224SOL     OW24133   2.704   1.025   4.186  0.3609 -0.5719 -0.2792
 4224SOL    HW124134   2.791   0.989   4.174  1.3167  0.9347  2.1134
 4224SOL    HW224135   2.660   0.949   4.223 -0.1376  0.7068  1.7673
 4225SOL     OW24136   2.045   1.990  16.570  0.1709  0.7973  0.2754
 4225SOL    HW124137   2.140   1.995  16.557  0.2292  0.6319  0.6199
 4225SOL    HW224138   2.038   2.033  16.655  0.8763  0.5905  0.4374
 4226SOL     OW24139   1.847   2.319   0.244  0.6127 -0.0548  0.3537
 4226SOL    HW124140   1.797   2.397   0.269  1.6780  0.7504 -0.0116
 4226SOL    HW224141   1.863   2.281   0.330  0.8002  2.0983  1.2518
 4227SOL     OW24142   4.127   3.145   9.269 -0.0752 -0.0928  0.3384
 4227SOL    HW124143   4.033   3.137   9.250 -0.1290 -0.4712  0.7560
 4227SOL    HW224144   4.151   3.054   9.288  0.2362 -0.2063 -0.6083
 4228SOL     OW24145   0.156   3.677  11.245 -0.0536 -0.1306 -0.3702
 4228SOL    HW124146   0.175   3.641  11.158  3.0585 -1.1402  0.7227
 4228SOL    HW224147   0.241   3.720  11.258  0.2520 -0.6929 -0.4903
 4229SOL     OW24148   1.315   1.194   2.662 -0.3088  0.2019 -0.4206
 4229SOL    HW124149   1.278   1.206   2.749  0.1604 -2.7938  0.1700
 4229SOL    HW224150   1.332   1.282   2.629 -2.3003 -0.0484 -2.1335
 4230SOL     OW24151   0.557   0.513   6.249  0.6023 -0.1677 -0.8175
 4230SOL    HW124152   0.616   0.540   6.320  1.7149 -0.8148 -1.5064
 4230SOL    HW224153   0.612   0.466   6.187  2.1190 -0.8580  1.0507
 4231SOL     OW24154   3.581   0.495  17.531 -0.1004 -0.4824  0.0084
 4231SOL    HW124155   3.544   0.479  17.618  2.5314  1.1469  1.4275
 4231SOL    HW224156   3.625   0.412  17.514 -0.6702 -0.8705  0.4126
 4232SOL     OW24157   2.604   3.814  17.029 -0.2853  0.1183 -0.5881
 4232SOL    HW124158   2.589   3.847  17.118  2.7006  1.1399 -0.4434
 4232SOL    HW224159   2.514   3.807  17.000 -0.8839 -0.0968  1.2764
 4233SOL     OW24160   2.524   2.014  14.430 -0.2536 -0.4866 -0.5537
 4233SOL    HW124161   2.591   1.999  14.497  1.3472 -1.4823 -2.3645
 4233SOL    HW224162   2.575   2.029  14.350 -1.1732 -0.3923 -1.1163
 4234SOL     OW24163   4.049   0.555   8.745 -0.4169  0.3505  0.5971
 4234SOL    HW124164   4.137   0.518   8.741 -0.7481 -0.5902  1.9742
 4234SOL    HW224165   4.048   0.628   8.683 -0.9796  1.3453  1.7697
 4235SOL     OW24166   4.694   1.022   7.629  0.1234 -1.0346 -0.2950
 4235SOL    HW124167   0.025   0.978   7.562  0.1687 -1.4751  0.0273
 4235SOL    HW224168   4.691   1.109   7.590 -0.7077 -0.1747  1.7121
 4236SOL     OW24169   4.396   1.416   2.688  0.3350 -0.3143  0.2729
 4236SOL    HW124170   4.384   1.361   2.611  4.1802 -1.4829  0.5419
 4236SOL    HW224171   4.332   1.377   2.748 -0.5742 -1.2794 -1.3298
 4237SOL     OW24172   2.558   1.780   8.740  0.0526 -0.5508  0.5164
 4237SOL    HW124173   2.532   1.865   8.777  0.5443 -0.1031 -0.1441
 4237SOL    HW224174   2.544   1.808   8.650  1.8111  2.4656  1.1368
 4238SOL     OW24175   1.446   0.126   6.380 -0.2225 -0.9645  0.1065
 4238SOL    HW124176   1.400   0.055   6.425  0.1976 -0.4330  1.3661
 4238SOL    HW224177   1.377   0.180   6.342  0.4257 -1.6040 -1.9729
 4239SOL     OW24178   0.663   2.645   6.620  0.7460  0.1967 -0.1043
 4239SOL    HW124179   0.744   2.654   6.669 -0.3901  1.1171  1.5929
 4239SOL    HW224180   0.625   2.728   6.648  1.0393  0.4398 -0.4154
 4240SOL     OW24181   4.357   0.959   7.784  0.6142 -0.2745  0.1111
 4240SOL    HW124182   4.275   0.929   7.822 -0.5625 -0.5355 -2.6368
 4240SOL    HW224183   4.377   1.033   7.841 -0.0434 -1.0589  1.3397
 4241SOL     OW24184   1.569   4.674   6.223 -0.3428 -0.8664 -0.1599
 4241SOL    HW124185   1.636   0.018   6.246  0.0435 -0.9616 -0.9960
 4241SOL    HW224186   1.506   4.713   6.283 -0.2974  1.5836 -1.6840
 4242SOL     OW24187   4.712   0.387   3.366  0.0040  0.0779 -0.0728
 4242SOL    HW124188   0.009   0.308   3.315  0.6981  0.8002 -0.9568
 4242SOL    HW224189   0.079   0.420   3.385 -0.8052  1.3556  1.5063
 4243SOL     OW24190   0.496   0.192  11.202 -0.0974  0.2399  0.4918
 4243SOL    HW124191   0.489   0.146  11.286  1.8624 -0.0916  0.4776
 4243SOL    HW224192   0.453   0.275  11.223  0.0751  0.3728  0.3186
 4244SOL     OW24193   1.340   1.994  17.387  0.4175 -0.4468 -0.5382
 4244SOL    HW124194   1.328   2.072  17.441  0.0390 -0.1383 -1.0660
 4244SOL    HW224195   1.314   2.034  17.304  0.2118  0.9123  0.1786
 4245SOL     OW24196   1.306   2.529   5.990 -0.2581  0.0470  0.4281
 4245SOL    HW124197   1.220   2.489   6.001 -0.9659  1.1411 -1.1721
 4245SOL    HW224198   1.295   2.617   6.026 -1.7227 -0.0675  0.2434
 4246SOL     OW24199   4.558   3.758   5.319  0.5120 -0.4521  0.4967
 4246SOL    HW124200   4.575   3.664   5.328  1.4493 -0.4000 -0.7085
 4246SOL    HW224201   4.490   3.750   5.253 -1.3078  1.8179  2.1168
 4247SOL     OW24202   3.916   0.070   5.743 -0.4955  0.0360 -0.3576
 4247SOL    HW124203   3.963   0.075   5.660  0.9473  2.2259  0.6043
 4247SOL    HW224204   3.964   0.006   5.796  0.2560 -0.2053 -1.3279
 4248SOL     OW24205   0.236   1.832   7.958  0.0116  0.0091  0.1067
 4248SOL    HW124206   0.159   1.830   8.015  1.7284 -0.2050  2.4097
 4248SOL    HW224207   0.229   1.909   7.902 -1.7187  1.3549  2.1964
 4249SOL     OW24208   2.059   4.174   7.779 -0.1823 -0.3615 -0.5791
 4249SOL    HW124209   2.097   4.136   7.700 -1.9321 -0.0924 -1.5667
 4249SOL    HW224210   2.099   4.259   7.793 -1.0098 -0.1978  0.8886
 4250SOL     OW24211   3.142   0.341   6.984 -0.1881  0.0190  0.4862
 4250SOL    HW124212   3.131   0.410   7.049 -1.7944  0.5682 -0.3567
 4250SOL    HW224213   3.219   0.369   6.935 -2.1569  1.9759 -1.4733
 4251SOL     OW24214   1.746   4.188  16.366 -0.0774  0.6759 -0.2459
 4251SOL    HW124215   1.659   4.158  16.391 -0.2589  0.3169 -1.3046
 4251SOL    HW224216   1.785   4.161  16.449  0.0638 -1.3494 -0.9668
 4252SOL     OW24217   0.980   3.699   7.826  0.0454 -0.1963 -0.4974
 4252SOL    HW124218   0.957   3.786   7.792  1.6398 -0.2314 -1.6570
 4252SOL    HW224219   0.890   3.668   7.814 -0.1368  0.4717 -0.8735
 4253SOL     OW24220   2.510   3.456   3.882  0.4181  0.0057 -0.0740
 4253SOL    HW124221   2.493   3.522   3.815  2.9047 -0.6266 -1.3235
 4253SOL    HW224222   2.602   3.446   3.858  0.6052 -0.5486  0.9045
 4254SOL     OW24223   2.526   1.715   5.195 -0.1425  0.1612 -0.0119
 4254SOL    HW124224   2.496   1.757   5.275  1.8145 -0.2031  0.9127
 4254SOL    HW224225   2.552   1.627   5.223 -2.8992 -0.5007  0.4760
 4255SOL     OW24226   1.677   2.346  11.836  0.0369 -0.5441 -0.7700
 4255SOL    HW124227   1.603   2.309  11.789 -1.4934 -1.3295  2.2186
 4255SOL    HW224228   1.682   2.301  11.920  1.4564  0.1217 -0.4978
 4256SOL     OW24229   2.421   4.274   8.410  0.2404 -0.0367  0.1644
 4256SOL    HW124230   2.389   4.344   8.352  0.7391 -0.5070 -0.6866
 4256SOL    HW224231   2.411   4.316   8.495  0.4668  1.5485 -0.5899
 4257SOL     OW24232   1.689   0.850   4.556  0.2758 -0.0325  0.3185
 4257SOL    HW124233   1.693   0.917   4.488 -1.1205 -2.5714 -2.2289
 4257SOL    HW224234   1.596   0.839   4.576  0.8449 -1.2724  2.2887
 4258SOL     OW24235   1.360   2.238  17.506  0.0916  0.0685 -0.4994
 4258SOL    HW124236   1.442   2.269  17.468 -0.3752 -0.0528 -1.6257
 4258SOL    HW224237   1.360   2.295  17.583  3.7467  0.5621 -0.8467
 4259SOL     OW24238   1.658   2.758  12.448 -0.2543  0.3499  0.3623
 4259SOL    HW124239   1.641   2.664  12.462  0.1460 -0.0303 -1.5984
 4259SOL    HW224240   1.656   2.756  12.352 -0.1621 -1.4862  0.3852
 4260SOL     OW24241   4.004   1.065  14.891 -0.2647  0.0944 -0.3675
 4260SOL    HW124242   4.096   1.083  14.911 -0.0482 -0.7618 -0.5574
 4260SOL    HW224243   3.957   1.086  14.971 -0.6598 -0.2057 -0.5221
 4261SOL     OW24244   2.767   3.216   6.300  0.2098 -0.1333 -0.5054
 4261SOL    HW124245   2.774   3.132   6.254 -1.0107  0.0326 -1.0025
 4261SOL    HW224246   2.857   3.245   6.289  0.5879 -2.3083 -3.0523
 4262SOL     OW24247   4.195   1.931   9.601 -0.1649 -0.1143  0.3777
 4262SOL    HW124248   4.199   1.943   9.696 -1.8578  0.1261  0.4290
 4262SOL    HW224249   4.184   2.019   9.565 -1.4153 -0.2233  0.4888
 4263SOL     OW24250   0.880   3.119   2.604 -0.2144  0.3006  0.4059
 4263SOL    HW124251   0.801   3.168   2.580  0.9128  1.7517 -0.3744
 4263SOL    HW224252   0.842   3.084   2.685  1.3791 -1.6662  0.3008
 4264SOL     OW24253   4.469   0.887   2.342 -0.5222  0.7360  0.0573
 4264SOL    HW124254   4.483   0.816   2.279  1.7257  0.0687  1.2929
 4264SOL    HW224255   4.376   0.907   2.329 -1.1640 -0.6583  2.6974
 4265SOL     OW24256   3.721   2.866   4.560  0.3510 -0.2673 -0.6600
 4265SOL    HW124257   3.783   2.926   4.602 -0.8675  1.0560 -0.7675
 4265SOL    HW224258   3.644   2.908   4.596  0.5565 -2.9351  2.9041
 4266SOL     OW24259   2.127   0.457   4.663 -0.3100  0.4516  0.2386
 4266SOL    HW124260   2.044   0.494   4.693 -1.6098  0.0701 -2.8255
 4266SOL    HW224261   2.194   0.502   4.715 -0.4193  0.5406  0.3006
 4267SOL     OW24262   0.775   3.135   2.020 -0.2931 -0.7818  0.1704
 4267SOL    HW124263   0.764   3.050   2.063  0.9192 -0.9392  0.1683
 4267SOL    HW224264   0.783   3.193   2.095 -0.4974  0.2600 -0.6041
 4268SOL     OW24265   2.163   0.289  13.581  0.0882  0.1549 -0.0242
 4268SOL    HW124266   2.189   0.216  13.525 -0.7011 -1.8705  2.2253
 4268SOL    HW224267   2.069   0.271  13.581  0.0343  0.3529  2.4705
 4269SOL     OW24268   3.932   0.212   1.901  0.6070  0.0795  0.7087
 4269SOL    HW124269   3.899   0.216   1.991 -1.2869  2.3511 -0.0646
 4269SOL    HW224270   3.874   0.280   1.865 -0.7898 -0.9949  0.9397
 4270SOL     OW24271   3.325   1.531   8.789 -0.1766  0.0488  0.0242
 4270SOL    HW124272   3.341   1.554   8.881  0.0964 -0.5264  0.1216
 4270SOL    HW224273   3.361   1.602   8.736  1.0502 -0.6743 -0.1092
 4271SOL     OW24274   0.347   4.182   1.510  0.4697  0.5631 -0.1345
 4271SOL    HW124275   0.353   4.125   1.433 -5.6910 -1.5630  0.8967
 4271SOL    HW224276   0.375   4.271   1.489 -1.5290  1.0664 -0.6496
 4272SOL     OW24277   0.961   0.018   6.256  0.0955  0.3695 -0.1376
 4272SOL    HW124278   0.885   4.684   6.276  0.8063 -1.7031 -3.0765
 4272SOL    HW224279   1.006   4.677   6.198 -0.6701  0.0491 -0.3970
 4273SOL     OW24280   1.958   1.820  14.382 -0.2753  0.1646  0.0541
 4273SOL    HW124281   1.936   1.742  14.433  2.0952 -1.8388 -2.0235
 4273SOL    HW224282   1.965   1.887  14.450  3.3091 -0.6272  0.4572
 4274SOL     OW24283   1.931   4.708  11.588  0.2052  0.1515 -0.1219
 4274SOL    HW124284   1.842   4.677  11.569  0.1582 -0.2189  0.6946
 4274SOL    HW224285   1.911   0.076  11.560  0.6875  0.5389  0.7848
 4275SOL     OW24286   0.444   3.208   5.310 -0.1671 -0.0432 -0.0982
 4275SOL    HW124287   0.458   3.275   5.243 -1.3139  0.9156  0.6219
 4275SOL    HW224288   0.349   3.212   5.326  0.1176 -0.3944  1.7067
 4276SOL     OW24289   1.795   3.336   8.196 -0.2791  0.0879  0.6917
 4276SOL    HW124290   1.883   3.373   8.208 -0.3675  1.1647 -2.0427
 4276SOL    HW224291   1.766   3.386   8.120  1.4057 -1.8607 -1.2477
 4277SOL     OW24292   1.725   1.077   4.393 -0.2786  0.4028  0.4176
 4277SOL    HW124293   1.657   1.123   4.442 -1.5013 -0.3952 -0.5329
 4277SOL    HW224294   1.797   1.128   4.431  0.3538  1.2591 -1.9106
 4278SOL     OW24295   1.452   4.608  13.133 -0.2332  0.4855  0.1030
 4278SOL    HW124296   1.364   4.647  13.133  0.5431  2.2475  0.7552
 4278SOL    HW224297   1.437   4.522  13.094 -0.8718  0.8314 -0.4362
 4279SOL     OW24298   0.313   2.599   3.779  0.0816  0.1498  0.2169
 4279SOL    HW124299   0.241   2.542   3.807 -1.0648  2.9194  2.9244
 4279SOL    HW224300   0.325   2.650   3.859 -1.4097  2.4016 -1.0160
 4280SOL     OW24301   0.686   0.598   7.435 -0.3727 -0.4103 -0.0907
 4280SOL    HW124302   0.744   0.638   7.370 -0.7691  0.7823  0.2904
 4280SOL    HW224303   0.596   0.614   7.406 -0.3060 -1.4270 -0.8789
 4281SOL     OW24304   2.800   0.073   7.491 -0.1774 -0.0945  0.1696
 4281SOL    HW124305   2.745   4.717   7.511 -0.4692  0.3841  1.2081
 4281SOL    HW224306   2.790   0.113   7.577  2.0220  3.5140 -1.2811
 4282SOL     OW24307   4.637   3.905   6.080 -0.4173  0.7495  0.4120
 4282SOL    HW124308   4.612   3.983   6.031 -2.8841 -0.9745 -1.0757
 4282SOL    HW224309   0.009   3.925   6.070 -0.9456  1.8395 -2.1977
 4283SOL     OW24310   4.452   0.696  14.065 -0.2725  0.7358 -0.6579
 4283SOL    HW124311   4.376   0.739  14.105 -0.0317  0.1958  0.3872
 4283SOL    HW224312   4.489   0.774  14.022 -0.5214 -0.3476 -2.8402
 4284SOL     OW24313   2.242   2.110  14.033 -0.2830 -0.1380  0.8392
 4284SOL    HW124314   2.179   2.063  14.087  0.5844 -0.3940  1.6271
 4284SOL    HW224315   2.236   2.058  13.953 -0.4927 -1.9581  2.0458
 4285SOL     OW24316   0.828   0.891   3.457  0.0614 -0.3715  0.1563
 4285SOL    HW124317   0.820   0.810   3.407  1.6915 -0.2740 -0.2771
 4285SOL    HW224318   0.798   0.960   3.398 -2.6950 -1.9990 -0.3224
 4286SOL     OW24319   3.870   2.316   8.728  0.0426 -0.4869  0.7654
 4286SOL    HW124320   3.796   2.315   8.667 -0.5369  1.1610  1.4367
 4286SOL    HW224321   3.838   2.365   8.804 -0.0588  2.4038 -1.1291
 4287SOL     OW24322   3.393   4.256  13.562  0.3478 -0.5447 -0.7627
 4287SOL    HW124323   3.318   4.242  13.619 -0.2773  1.9706 -0.9465
 4287SOL    HW224324   3.367   4.184  13.505 -1.3545 -0.5579  0.0277
 4288SOL     OW24325   2.295   2.818   3.466 -0.0376  0.1362  0.0877
 4288SOL    HW124326   2.347   2.797   3.544 -3.3595 -0.8904  2.0052
 4288SOL    HW224327   2.202   2.805   3.479  0.1355 -0.6832  0.4739
 4289SOL     OW24328   2.264   1.851   0.469 -0.1711 -0.2678  0.0896
 4289SOL    HW124329   2.324   1.893   0.407 -1.5061  2.4284  0.6406
 4289SOL    HW224330   2.209   1.807   0.405  1.3576 -1.0193 -0.7095
 4290SOL     OW24331   1.401   1.762   3.823  0.1424  0.0766 -0.0601
 4290SOL    HW124332   1.359   1.693   3.874  2.2601 -2.7313 -2.1965
 4290SOL    HW224333   1.371   1.742   3.735 -1.1481  0.4074  0.3007
 4291SOL     OW24334   2.827   0.777   5.134  0.2577 -0.0777 -0.1348
 4291SOL    HW124335   2.768   0.750   5.204  0.2137 -0.0252 -0.1521
 4291SOL    HW224336   2.778   0.768   5.053 -1.2634 -1.1202  0.9101
 4292SOL     OW24337   3.755   1.777   6.153  0.2357 -0.1534 -0.8590
 4292SOL    HW124338   3.707   1.707   6.197  0.5234  0.2332  0.0780
 4292SOL    HW224339   3.771   1.832   6.231  0.8381 -0.1987 -0.9511
 4293SOL     OW24340   2.771   1.551   7.265 -0.2945  0.0564  0.3449
 4293SOL    HW124341   2.764   1.643   7.293  0.7771  0.1936  0.1560
 4293SOL    HW224342   2.797   1.563   7.174  3.4970 -0.3698  1.3649
 4294SOL     OW24343   2.005   2.287   6.834  0.4588  0.0744  0.1066
 4294SOL    HW124344   2.029   2.225   6.765  0.4855 -0.5032  0.6398
 4294SOL    HW224345   2.090   2.330   6.847  1.3002 -2.0614  1.5697
 4295SOL     OW24346   1.967   4.130   2.324 -0.3833 -0.9497 -0.1621
 4295SOL    HW124347   1.888   4.181   2.308 -1.3715 -1.4735  3.1934
 4295SOL    HW224348   1.972   4.072   2.247  0.3678 -0.6389 -0.3535
 4296SOL     OW24349   4.523   0.432  10.114  0.0202 -0.0561  0.4216
 4296SOL    HW124350   4.502   0.437  10.021  0.6681 -0.1021  0.2697
 4296SOL    HW224351   4.606   0.479  10.110 -0.1682  0.1610 -0.7668
 4297SOL     OW24352   0.316   2.464  12.106  0.0528  0.3968  0.0271
 4297SOL    HW124353   0.258   2.480  12.181 -1.6007 -0.6782 -1.0032
 4297SOL    HW224354   0.246   2.433  12.047 -1.5665  0.0621  2.1270
 4298SOL     OW24355   1.422   3.001   3.746  0.4148 -0.4318 -0.2880
 4298SOL    HW124356   1.465   3.054   3.813  1.9846  0.1308 -1.7482
 4298SOL    HW224357   1.335   2.985   3.783  0.4863  0.7606  0.4163
 4299SOL     OW24358   4.429   2.074  10.070  0.2241  0.2715  0.5903
 4299SOL    HW124359   4.344   2.089  10.109 -0.6421 -2.0499 -0.4261
 4299SOL    HW224360   4.413   1.992  10.023 -0.3891  0.3637  0.6411
 4300SOL     OW24361   1.794   2.863   5.036  0.1087  0.5781  0.0562
 4300SOL    HW124362   1.748   2.937   5.075  0.1728 -0.3970  1.9925
 4300SOL    HW224363   1.884   2.884   5.061  0.4745  0.5819 -1.2448
 4301SOL     OW24364   1.204   1.465  16.021 -0.6564  0.4538 -0.3769
 4301SOL    HW124365   1.178   1.517  15.945  1.4045  1.8281 -0.1332
 4301SOL    HW224366   1.263   1.398  15.988  0.4827  1.2638  0.0272
 4302SOL     OW24367   3.266   3.430   9.168  0.6185 -0.3790 -0.1521
 4302SOL    HW124368   3.351   3.403   9.203  0.5881 -0.0063  0.2103
 4302SOL    HW224369   3.291   3.496   9.104 -2.9935  0.6493 -0.4967
 4303SOL     OW24370   2.438   4.102  13.951  0.4563  0.5254 -0.8198
 4303SOL    HW124371   2.407   4.013  13.937 -0.1960  0.7873 -1.0214
 4303SOL    HW224372   2.441   4.110  14.047 -0.7833 -1.4710 -0.6029
 4304SOL     OW24373   0.351   1.427   6.539  0.1059  0.1919  0.0551
 4304SOL    HW124374   0.258   1.440   6.523  0.3600  0.5202 -1.2076
 4304SOL    HW224375   0.343   1.408   6.632  0.8637  1.4892  0.3818
 4305SOL     OW24376   3.878   3.999   2.935  0.7190 -0.3658  0.1750
 4305SOL    HW124377   3.815   3.975   3.003 -2.9109  3.0454 -1.9740
 4305SOL    HW224378   3.957   3.958   2.970 -0.5435 -1.3919  1.8453
 4306SOL     OW24379   4.460   1.969   3.437  0.6423  0.2731 -0.5222
 4306SOL    HW124380   4.493   2.047   3.482  1.1010 -0.3566  0.2253
 4306SOL    HW224381   4.528   1.964   3.369  2.1507 -2.2828  1.1905
 4307SOL     OW24382   0.726   3.315   6.422 -0.0100  0.6962  0.0157
 4307SOL    HW124383   0.643   3.351   6.453  0.3246 -0.0174  1.7450
 4307SOL    HW224384   0.764   3.264   6.494  1.0253 -0.5067 -1.3721
 4308SOL     OW24385   0.040   1.623  14.517  0.0638 -0.5030  0.2999
 4308SOL    HW124386   0.105   1.584  14.575  0.5503  2.8185  2.0297
 4308SOL    HW224387   0.057   1.575  14.436 -0.8209 -1.7893  0.8902
 4309SOL     OW24388   4.195   4.599   6.996  1.1076 -0.1196  0.5244
 4309SOL    HW124389   4.132   4.610   7.067  1.6853 -1.3412  1.2287
 4309SOL    HW224390   4.227   4.689   6.990  1.7025 -0.3579  0.1323
 4310SOL     OW24391   4.186   0.360   3.968  0.3429  0.3685  0.9382
 4310SOL    HW124392   4.240   0.417   3.914 -1.3242 -1.0550 -2.2208
 4310SOL    HW224393   4.118   0.340   3.904  0.2090  0.1460  1.1514
 4311SOL     OW24394   1.033   1.803   7.591  0.3337  0.0535  0.4184
 4311SOL    HW124395   0.954   1.756   7.562  0.3792  0.4929 -0.4445
 4311SOL    HW224396   1.096   1.733   7.574  1.6572  1.3585 -0.1051
 4312SOL     OW24397   3.912   0.296  14.989 -0.1765 -0.5269 -0.2180
 4312SOL    HW124398   3.957   0.236  14.929  2.4617  0.4139  0.7852
 4312SOL    HW224399   3.838   0.239  15.007 -0.3644  0.1423  1.1383
 4313SOL     OW24400   3.927   3.114  16.358  0.2417 -0.6950  1.2724
 4313SOL    HW124401   3.996   3.156  16.307  0.3504 -1.0858  1.0949
 4313SOL    HW224402   3.900   3.175  16.426 -2.4540  0.5033 -0.8417
 4314SOL     OW24403   0.929   3.637   3.782  0.5849  0.9412  0.4843
 4314SOL    HW124404   0.986   3.647   3.705  0.1241  0.7321  0.1138
 4314SOL    HW224405   0.842   3.637   3.741  1.6792 -1.2226 -1.8936
 4315SOL     OW24406   4.572   1.161   2.156 -0.1182  0.2299  0.1622
 4315SOL    HW124407   4.616   1.174   2.240 -0.6154  1.1678  0.2766
 4315SOL    HW224408   4.588   1.068   2.138 -4.0436 -0.4871  0.3716
 4316SOL     OW24409   1.027   1.579   4.075  0.8815 -0.3559 -0.0337
 4316SOL    HW124410   1.080   1.620   4.143  1.7179  1.0492 -1.5161
 4316SOL    HW224411   1.044   1.635   3.999 -0.4014  0.0015 -0.0495
 4317SOL     OW24412   3.928   4.004   8.482  0.6780  0.3577  0.2425
 4317SOL    HW124413   3.986   4.035   8.413  1.1475 -0.6850  0.1686
 4317SOL    HW224414   3.844   4.010   8.438  0.8579  0.1291 -0.1273
 4318SOL     OW24415   3.879   3.913   8.168 -0.1692 -0.0066  0.4573
 4318SOL    HW124416   3.886   4.006   8.189  0.9896  0.3713 -1.6699
 4318SOL    HW224417   3.785   3.906   8.151 -0.4120  1.0738  1.3162
 4319SOL     OW24418   0.618   2.679   2.855  0.2071  0.1515  0.7799
 4319SOL    HW124419   0.706   2.656   2.885  0.3544 -1.1389 -0.6566
 4319SOL    HW224420   0.590   2.595   2.819  2.5592 -0.9121  1.4683
 4320SOL     OW24421   0.464   4.055  10.471 -0.5581 -0.0890 -0.1860
 4320SOL    HW124422   0.414   4.053  10.552  0.0744 -1.1201  0.1817
 4320SOL    HW224423   0.544   4.092  10.509 -0.5586 -1.2899  0.9709
 4321SOL     OW24424   3.437   1.660   2.721  0.0317  0.5854 -0.8822
 4321SOL    HW124425   3.449   1.619   2.636  1.9606 -0.1845 -0.2453
 4321SOL    HW224426   3.352   1.698   2.701 -0.8171 -1.4820 -1.1994
 4322SOL     OW24427   2.943   1.854   4.211 -0.3618  0.5283 -0.2938
 4322SOL    HW124428   2.972   1.863   4.302  2.0545 -2.6618 -0.7509
 4322SOL    HW224429   3.017   1.810   4.170  1.4463  1.8485  1.5152
 4323SOL     OW24430   1.695   4.630  14.605 -0.2116 -0.5579  0.3191
 4323SOL    HW124431   1.731   4.605  14.690 -0.3166  0.4335  0.6457
 4323SOL    HW224432   1.628   4.561  14.605 -1.6364  0.8462  1.4084
 4324SOL     OW24433   1.338   2.449  16.019  0.0864 -0.3465  0.3129
 4324SOL    HW124434   1.387   2.528  15.998 -1.4462  0.2689 -1.0185
 4324SOL    HW224435   1.402   2.378  16.023 -2.7865 -3.0854 -1.5086
 4325SOL     OW24436   2.267   3.629   6.538 -0.2582  0.3599 -1.0285
 4325SOL    HW124437   2.272   3.600   6.447  3.4567  0.7932 -0.9685
 4325SOL    HW224438   2.215   3.561   6.581  1.1810 -0.6194 -0.8354
 4326SOL     OW24439   2.437   3.088   2.892  0.6819  0.1542 -0.8293
 4326SOL    HW124440   2.436   2.993   2.877  0.6331  0.2762 -1.5757
 4326SOL    HW224441   2.462   3.125   2.807 -1.5141  1.6343 -0.7939
 4327SOL     OW24442   2.924   4.138  14.762 -0.2865  0.2497 -0.2723
 4327SOL    HW124443   2.991   4.107  14.824 -0.4434 -0.5831 -0.5280
 4327SOL    HW224444   2.880   4.056  14.741  0.8660  0.3866 -3.1835
 4328SOL     OW24445   4.332   2.539   9.166 -0.2175  0.1217  0.0420
 4328SOL    HW124446   4.377   2.612   9.208 -2.2650  1.2384  0.2466
 4328SOL    HW224447   4.342   2.484   9.244  1.0826  1.5297  0.8546
 4329SOL     OW24448   2.192   1.144   5.969 -0.1209 -0.4738 -0.1208
 4329SOL    HW124449   2.103   1.127   5.936 -0.8448 -0.5890  1.9258
 4329SOL    HW224450   2.248   1.151   5.892 -0.5412 -1.4822 -0.5155
 4330SOL     OW24451   1.053   4.541   3.097 -0.1124  0.2430  0.9389
 4330SOL    HW124452   0.992   4.472   3.071  0.3642  0.4735 -0.7568
 4330SOL    HW224453   1.083   4.497   3.177  3.7996  1.5738  0.1997
 4331SOL     OW24454   2.410   2.378   1.170  0.5877 -0.2730 -0.3264
 4331SOL    HW124455   2.391   2.341   1.256  0.9157  0.1614 -0.0725
 4331SOL    HW224456   2.500   2.404   1.189  1.2903 -3.6366  0.9365
 4332SOL     OW24457   3.587   4.336  15.033 -0.4472 -0.5308 -0.4726
 4332SOL    HW124458   3.593   4.241  15.018 -0.2941 -0.3917 -1.2568
 4332SOL    HW224459   3.527   4.333  15.108 -1.6355  0.7064 -1.3932
 4333SOL     OW24460   0.665   4.325  10.912 -0.0749 -0.6136  0.4525
 4333SOL    HW124461   0.603   4.392  10.940 -0.2836 -0.2008 -0.9803
 4333SOL    HW224462   0.613   4.254  10.876  0.5664 -0.9559  0.2071
 4334SOL     OW24463   4.379   1.237   7.119  0.1468 -0.3449 -0.7550
 4334SOL    HW124464   4.453   1.256   7.062  0.7444 -1.6506 -0.4286
 4334SOL    HW224465   4.317   1.204   7.054 -2.3646 -0.8511  1.9001
 4335SOL     OW24466   3.382   2.107  10.476 -0.3441 -0.2263  0.4872
 4335SOL    HW124467   3.341   2.149  10.552 -0.2115  0.3527  0.2398
 4335SOL    HW224468   3.473   2.135  10.487 -0.1714  0.6317 -3.0048
 4336SOL     OW24469   2.176   2.435  15.022  0.0455 -0.0690 -0.5900
 4336SOL    HW124470   2.189   2.419  15.115 -1.1596 -1.5190 -0.6812
 4336SOL    HW224471   2.266   2.438  14.990  0.6226  1.7836  1.2138
 4337SOL     OW24472   0.194   1.603   3.907 -0.0050 -0.1644  0.1117
 4337SOL    HW124473   0.226   1.693   3.899  0.0334 -0.4287 -2.9869
 4337SOL    HW224474   0.268   1.572   3.958  0.1401  0.5934  0.3593
 4338SOL     OW24475   0.847   3.226  12.792  0.1434 -0.2754 -0.6352
 4338SOL    HW124476   0.922   3.198  12.845  0.1912 -2.2808 -1.7685
 4338SOL    HW224477   0.872   3.311  12.755 -0.0380  0.6128  1.2914
 4339SOL     OW24478   1.746   3.140  14.760  0.1192  0.2940  0.3081
 4339SOL    HW124479   1.827   3.171  14.799  0.9484  1.1679 -2.1503
 4339SOL    HW224480   1.777   3.078  14.694  0.9245  1.3734 -0.3295
 4340SOL     OW24481   3.509   3.703   8.319 -0.1620 -0.2997  0.4340
 4340SOL    HW124482   3.573   3.714   8.389 -0.4698  0.9489  0.5317
 4340SOL    HW224483   3.540   3.627   8.271 -2.1866  0.9201 -2.8090
 4341SOL     OW24484   3.443   1.188   3.217  0.8314  0.4429  0.1991
 4341SOL    HW124485   3.453   1.233   3.301 -1.1102  0.5346  0.3684
 4341SOL    HW224486   3.411   1.259   3.162 -0.7718 -1.7013 -1.6112
 4342SOL     OW24487   4.089   1.506   7.268 -0.3123  0.3166  0.2903
 4342SOL    HW124488   4.053   1.544   7.348  0.2247 -1.3180  1.3036
 4342SOL    HW224489   4.028   1.543   7.204  0.8303 -1.1265 -1.6460
 4343SOL     OW24490   3.816   1.910   6.379 -0.3833  0.0998 -0.0575
 4343SOL    HW124491   3.737   1.949   6.417 -0.4602 -1.4589  1.4263
 4343SOL    HW224492   3.876   1.982   6.396 -0.4511 -0.0846  1.0249
 4344SOL     OW24493   1.294   0.076   8.537  0.0475 -0.2052 -0.5818
 4344SOL    HW124494   1.383   0.107   8.522  0.8947 -3.5015 -2.4021
 4344SOL    HW224495   1.249   0.140   8.592 -2.6341 -2.3023 -0.3229
 4345SOL     OW24496   1.764   0.238   1.135  0.2692 -0.7202  0.4778
 4345SOL    HW124497   1.741   0.306   1.199  0.1778 -2.4324  2.2509
 4345SOL    HW224498   1.858   0.237   1.152  0.4887 -1.2145 -0.7647
 4346SOL     OW24499   1.146   1.007   3.547 -0.0431  0.0419 -0.1764
 4346SOL    HW124500   1.109   1.051   3.623 -0.8812 -1.4893  0.3161
 4346SOL    HW224501   1.082   0.935   3.547 -0.6737  0.6007 -1.3174
 4347SOL     OW24502   2.116   2.293   3.055  0.2876 -0.0835  0.3347
 4347SOL    HW124503   2.086   2.328   3.139 -0.6482 -1.7539  0.6933
 4347SOL    HW224504   2.036   2.314   3.007  1.1347 -0.0567 -1.0564
 4348SOL     OW24505   3.823   0.976   5.880 -0.0430 -0.1309 -0.1186
 4348SOL    HW124506   3.911   1.009   5.900 -0.3612  0.0670  0.9048
 4348SOL    HW224507   3.849   0.908   5.817 -2.3695  0.1945 -1.4354
 4349SOL     OW24508   1.767   4.696   6.537 -0.5814  0.1081  0.6318
 4349SOL    HW124509   1.675   4.707   6.562 -0.9318 -0.0694 -0.5486
 4349SOL    HW224510   1.800   0.050   6.586 -2.6477  0.7615  1.0430
 4350SOL     OW24511   2.805   4.543  14.463 -0.3067  0.1991  0.6462
 4350SOL    HW124512   2.837   4.630  14.489 -1.1551  0.6064  0.3381
 4350SOL    HW224513   2.856   4.478  14.510  2.8211  2.0830 -0.1570
 4351SOL     OW24514   4.170   4.576   6.285  0.2768 -0.0750 -0.3219
 4351SOL    HW124515   4.263   4.582   6.302  0.1371 -2.0292  1.1997
 4351SOL    HW224516   4.171   4.667   6.258  1.2145  0.3522  1.1570
 4352SOL     OW24517   1.317   3.697   2.286 -0.4582  0.1104 -0.0974
 4352SOL    HW124518   1.250   3.653   2.339 -1.2705  1.5120  0.0432
 4352SOL    HW224519   1.368   3.629   2.242  2.5902  2.6825 -0.4597
 4353SOL     OW24520   2.580   0.129   6.672 -0.1029  0.4466  0.4182
 4353SOL    HW124521   2.562   0.217   6.705  2.5191  1.4887 -1.0080
 4353SOL    HW224522   2.614   0.151   6.586 -1.5920 -1.7444 -0.7193
 4354SOL     OW24523   4.273   3.415   6.571  0.0813  0.9765  0.0336
 4354SOL    HW124524   4.342   3.473   6.602  0.2317  0.1661  1.2356
 4354SOL    HW224525   4.262   3.353   6.644 -0.3327  1.3855  0.3165
 4355SOL     OW24526   1.960   3.896  14.434  0.0652  0.2535 -0.0063
 4355SOL    HW124527   1.896   3.827  14.418  0.0452  0.5765 -1.3661
 4355SOL    HW224528   1.987   3.885  14.525  1.7260 -3.1381 -0.9326
 4356SOL     OW24529   0.132   4.268  12.106 -0.3696 -0.5316  0.3331
 4356SOL    HW124530   0.114   4.175  12.096  0.9072 -0.8182  0.7406
 4356SOL    HW224531   0.116   4.291  12.198 -0.1534 -2.4599  0.8593
 4357SOL     OW24532   3.198   3.867   5.235 -0.1694 -0.5787  0.2164
 4357SOL    HW124533   3.194   3.846   5.328 -0.3394 -1.3456  0.0420
 4357SOL    HW224534   3.261   3.801   5.206 -0.3851 -1.1590  1.0866
 4358SOL     OW24535   1.672   2.014   6.405 -0.0205  0.3049  0.6236
 4358SOL    HW124536   1.626   1.940   6.444 -0.0230 -0.1806 -0.3201
 4358SOL    HW224537   1.624   2.084   6.450  0.0899  0.8276 -0.0686
 4359SOL     OW24538   0.909   1.841   4.757  0.0734  0.4905 -0.0808
 4359SOL    HW124539   0.872   1.802   4.678  1.0644  0.6736 -0.6324
 4359SOL    HW224540   0.877   1.929   4.737 -0.2272  0.0832 -1.4014
 4360SOL     OW24541   0.822   1.477   4.989 -0.0364  0.6087  0.1051
 4360SOL    HW124542   0.743   1.439   4.950 -0.9614 -0.4148  2.9400
 4360SOL    HW224543   0.789   1.563   5.016 -0.4584  0.2891  0.6332
 4361SOL     OW24544   2.294   1.384   2.474 -0.0709 -0.5272  0.8044
 4361SOL    HW124545   2.381   1.423   2.475 -1.1572  1.9315 -0.5725
 4361SOL    HW224546   2.242   1.464   2.481 -1.6961 -1.5701  0.5607
 4362SOL     OW24547   1.388   3.698   7.738 -0.9614  0.2856  0.0523
 4362SOL    HW124548   1.355   3.771   7.792 -0.6213 -0.1854  0.9032
 4362SOL    HW224549   1.336   3.729   7.664  0.2876  2.3067  0.0155
 4363SOL     OW24550   2.844   3.367  17.639 -0.2030  0.1871  0.3116
 4363SOL    HW124551   2.841   3.310  17.562  1.8744  0.6094 -0.0814
 4363SOL    HW224552   2.862   3.306   0.025  1.5693  2.6109  1.8882
 4364SOL     OW24553   3.461   3.000  15.380 -0.0657  0.2565 -0.5631
 4364SOL    HW124554   3.520   2.948  15.326 -1.6368 -0.7747 -1.2766
 4364SOL    HW224555   3.520   3.048  15.439  0.1842 -0.3734 -0.3038
 4365SOL     OW24556   1.961   3.588   8.704 -0.3525 -0.0544  0.0963
 4365SOL    HW124557   2.004   3.628   8.779 -1.4846  0.4373  0.4902
 4365SOL    HW224558   2.047   3.568   8.668 -0.4882  1.0202 -0.8098
 4366SOL     OW24559   0.672   2.426   5.605  0.2350  0.0666  0.4631
 4366SOL    HW124560   0.685   2.336   5.634 -2.4072 -0.2641  0.6258
 4366SOL    HW224561   0.763   2.447   5.582  0.0828  0.9746  0.6899
 4367SOL     OW24562   0.742   3.789   3.211 -0.2223  0.5597 -0.1098
 4367SOL    HW124563   0.791   3.867   3.234  0.3116 -0.0125  0.6750
 4367SOL    HW224564   0.665   3.789   3.267 -1.5251 -1.2301 -1.8842
 4368SOL     OW24565   0.611   0.286  13.670  0.0967  0.3151  0.1704
 4368SOL    HW124566   0.678   0.346  13.638  0.1376  1.5690  2.5975
 4368SOL    HW224567   0.590   0.227  13.598 -0.2060 -0.5613  0.9605
 4369SOL     OW24568   2.034   1.890   8.112  0.1897 -0.3921 -0.0502
 4369SOL    HW124569   2.111   1.849   8.073  1.1271 -0.3976  1.8432
 4369SOL    HW224570   1.968   1.868   8.046 -0.8325  2.0085  0.1832
 4370SOL     OW24571   4.556   3.657   2.414  0.2152 -0.0292  0.1622
 4370SOL    HW124572   4.550   3.570   2.374 -2.4828  0.5446 -0.7037
 4370SOL    HW224573   4.477   3.675   2.465 -0.6551 -2.6927 -0.2460
 4371SOL     OW24574   4.634   2.649   3.146  0.6023 -0.0341  0.0861
 4371SOL    HW124575   4.640   2.554   3.158 -0.9784  0.3144  3.5925
 4371SOL    HW224576   0.006   2.664   3.128  0.8709 -2.3003 -0.3553
 4372SOL     OW24577   2.085   0.193   6.880 -0.0342 -0.2647  0.0288
 4372SOL    HW124578   2.009   0.193   6.821  0.1853 -1.0262 -0.2471
 4372SOL    HW224579   2.154   0.180   6.815 -1.2683 -0.9166 -1.1421
 4373SOL     OW24580   0.446   0.709  16.835  0.3610 -0.2553  0.2709
 4373SOL    HW124581   0.384   0.691  16.764 -0.0887  0.0443  0.5889
 4373SOL    HW224582   0.512   0.758  16.786  0.5902 -0.7555  0.0852
 4374SOL     OW24583   3.739   2.682  10.643 -0.6028 -0.1934 -0.1268
 4374SOL    HW124584   3.818   2.636  10.669  0.0238  1.2532  0.5319
 4374SOL    HW224585   3.763   2.724  10.560  0.7136 -0.5045  0.0916
 4375SOL     OW24586   4.545   4.013   4.815  0.4570  0.3703 -0.5068
 4375SOL    HW124587   4.572   3.922   4.804  3.0043  0.7126  2.7701
 4375SOL    HW224588   4.575   4.051   4.733 -0.2855  1.6528 -0.1907
 4376SOL     OW24589   4.614   2.018   8.084 -0.4535 -0.0496  0.2001
 4376SOL    HW124590   4.563   2.013   8.165  0.6429  1.3885  0.9902
 4376SOL    HW224591   4.643   2.109   8.090  2.6977 -0.9370 -1.6700
 4377SOL     OW24592   3.547   4.499   7.969 -0.5613 -0.2341 -0.1422
 4377SOL    HW124593   3.629   4.477   8.014 -1.2332  2.0384  2.2579
 4377SOL    HW224594   3.574   4.569   7.910 -1.4887  0.1626 -0.0955
 4378SOL     OW24595   1.848   1.674   4.941 -0.3241 -0.5671 -0.2499
 4378SOL    HW124596   1.924   1.621   4.916  0.1575 -0.0061  0.0084
 4378SOL    HW224597   1.806   1.610   4.998 -2.1121 -0.3330 -1.3062
 4379SOL     OW24598   1.899   3.640   2.375 -0.0977 -0.4014  0.1105
 4379SOL    HW124599   1.849   3.692   2.439  1.3575  3.4303 -1.8636
 4379SOL    HW224600   1.846   3.621   2.298 -0.2572  2.2768 -0.4535
 4380SOL     OW24601   4.024   2.640  10.757  0.0739 -0.6149 -0.0764
 4380SOL    HW124602   4.038   2.733  10.737 -2.1671 -0.6320 -1.6867
 4380SOL    HW224603   4.006   2.652  10.850 -1.9898 -1.5138 -0.3518
 4381SOL     OW24604   3.061   2.820   3.296  0.4030 -0.4019 -0.1748
 4381SOL    HW124605   2.988   2.810   3.358  1.5369 -1.7187  0.9366
 4381SOL    HW224606   3.023   2.882   3.234 -2.1461 -0.8212  0.9801
 4382SOL     OW24607   4.214   1.666  15.426  0.2140 -0.3604  0.2882
 4382SOL    HW124608   4.263   1.658  15.344 -0.2769  1.3737 -0.1675
 4382SOL    HW224609   4.132   1.690  15.383  0.8511  2.4932  0.6728
 4383SOL     OW24610   0.505   4.389   2.252 -0.3491  0.1729  0.5329
 4383SOL    HW124611   0.483   4.309   2.298 -3.1781 -0.5675 -2.1401
 4383SOL    HW224612   0.537   4.360   2.167  1.2172 -0.7933  1.4566
 4384SOL     OW24613   4.251   3.329   9.977  0.0215  0.3940 -0.1117
 4384SOL    HW124614   4.277   3.352   9.888  2.7177  1.2003  0.8839
 4384SOL    HW224615   4.337   3.327  10.019  0.3909  0.5396 -0.8689
 4385SOL     OW24616   0.751   2.400   1.491  0.0836 -0.5189  0.3089
 4385SOL    HW124617   0.822   2.355   1.445 -0.6478  0.0518 -1.3620
 4385SOL    HW224618   0.786   2.427   1.575  0.0678  0.6822 -0.0727
 4386SOL     OW24619   3.212   0.330   7.576  0.3011 -0.0266 -0.2219
 4386SOL    HW124620   3.162   0.387   7.635  2.2207  0.2214  1.1326
 4386SOL    HW224621   3.163   0.351   7.496 -0.3681  1.4247  0.5739
 4387SOL     OW24622   4.498   3.805   5.728  0.2217 -0.0425  0.2490
 4387SOL    HW124623   4.463   3.838   5.811  0.5564 -1.1564  0.8449
 4387SOL    HW224624   4.514   3.884   5.677  0.9199 -0.3622 -0.0252
 4388SOL     OW24625   0.060   2.710   5.374 -0.3303 -0.3052 -0.4706
 4388SOL    HW124626   0.107   2.712   5.291 -3.3223  0.1440 -2.1257
 4388SOL    HW224627   0.113   2.659   5.435 -2.1788 -0.4220  1.0261
 4389SOL     OW24628   3.625   2.293   1.867  0.0272  0.6663 -0.3053
 4389SOL    HW124629   3.635   2.216   1.812 -0.8227 -1.5110  2.5511
 4389SOL    HW224630   3.702   2.342   1.838  0.0993  0.9973  0.4296
 4390SOL     OW24631   2.505   4.482   2.912  0.0311 -0.5725 -0.1678
 4390SOL    HW124632   2.491   4.417   2.982 -0.3656  0.5972  0.8469
 4390SOL    HW224633   2.477   4.425   2.840 -2.1180 -2.3616  2.0723
 4391SOL     OW24634   2.028   1.093   0.769 -0.2200  0.2462  0.1940
 4391SOL    HW124635   2.114   1.094   0.728 -0.4780  1.2989 -0.3285
 4391SOL    HW224636   2.030   1.185   0.795 -3.6528  0.1355  0.9487
 4392SOL     OW24637   1.308   3.305  12.025  0.1372  0.5419  0.1251
 4392SOL    HW124638   1.281   3.345  11.943  1.7108 -1.0733 -1.1584
 4392SOL    HW224639   1.224   3.289  12.068 -0.1765  0.7460 -0.4153
 4393SOL     OW24640   3.471   4.555   7.568  0.2678 -0.6081 -0.1295
 4393SOL    HW124641   3.400   4.534   7.628 -0.5830  1.1334 -0.5196
 4393SOL    HW224642   3.426   4.551   7.483  0.0064  0.4381 -0.0462
 4394SOL     OW24643   1.196   4.637   3.964 -0.5964  0.0972 -0.7081
 4394SOL    HW124644   1.270   4.644   3.905 -0.6181 -0.7841 -0.8383
 4394SOL    HW224645   1.236   4.696   4.028 -0.2260 -1.5733  0.6028
 4395SOL     OW24646   1.091   4.500   1.355  0.1136  0.1692  0.5592
 4395SOL    HW124647   1.104   4.471   1.265 -2.8780 -0.1982  0.2463
 4395SOL    HW224648   1.034   4.432   1.392 -1.3525  1.7442  1.2405
 4396SOL     OW24649   3.310   3.238   0.515  0.0391  0.1674 -0.3166
 4396SOL    HW124650   3.254   3.299   0.564 -0.1853  0.0913 -0.4767
 4396SOL    HW224651   3.270   3.161   0.555 -0.0085 -0.3042 -1.2649
 4397SOL     OW24652   0.600   0.321   2.050  0.2522 -0.2293  0.4262
 4397SOL    HW124653   0.655   0.252   2.088  0.7388 -0.2209 -0.2470
 4397SOL    HW224654   0.635   0.400   2.090 -1.1291  1.0179 -0.8608
 4398SOL     OW24655   4.315   4.332   9.823  0.1093 -0.3980  0.5505
 4398SOL    HW124656   4.308   4.258   9.883  0.1164 -2.0806 -1.5350
 4398SOL    HW224657   4.224   4.362   9.826 -0.6104 -2.4006 -1.1847
 4399SOL     OW24658   1.626   1.543  17.568 -0.3852 -0.1488  0.4272
 4399SOL    HW124659   1.606   1.636  17.565 -0.4565 -0.2194 -1.4063
 4399SOL    HW224660   1.543   1.515  17.529 -0.6404  1.7846 -0.4172
 4400SOL     OW24661   2.877   2.233   2.446 -0.2299  0.2604  0.2551
 4400SOL    HW124662   2.909   2.319   2.472  0.6089 -0.1365  0.5482
 4400SOL    HW224663   2.946   2.205   2.387  0.9899  2.8757  0.4517
 4401SOL     OW24664   3.252   3.571   8.860  0.5565  0.2708  0.1842
 4401SOL    HW124665   3.212   3.575   8.773  0.5086  2.2136  0.3003
 4401SOL    HW224666   3.255   3.476   8.873  0.3611  0.3154  0.5723
 4402SOL     OW24667   2.823   4.342  10.736  0.5056  0.3431 -0.4844
 4402SOL    HW124668   2.777   4.403  10.794 -0.2396 -0.3250 -0.3768
 4402SOL    HW224669   2.802   4.381  10.651 -1.9276  0.4578  0.1836
 4403SOL     OW24670   2.670   0.682   5.770  0.1536 -0.2530  0.1218
 4403SOL    HW124671   2.712   0.766   5.789 -1.0161  0.0367  1.3887
 4403SOL    HW224672   2.698   0.630   5.846 -0.8033  0.0396  0.6745
 4404SOL     OW24673   2.525   3.241  15.625 -0.1320 -0.1408  0.4050
 4404SOL    HW124674   2.515   3.222  15.718  0.0918  1.0001  0.6611
 4404SOL    HW224675   2.515   3.335  15.636  1.7402  0.0526  0.5186
 4405SOL     OW24676   3.828   0.908  14.777  0.2916 -0.1252  0.0026
 4405SOL    HW124677   3.807   0.849  14.849 -0.3068 -2.5121 -2.1180
 4405SOL    HW224678   3.905   0.948  14.818  1.2467  1.0365 -2.9038
 4406SOL     OW24679   0.757   4.331   6.856  0.3702  0.0179 -0.2886
 4406SOL    HW124680   0.750   4.413   6.906  3.1513 -0.9438  1.6847
 4406SOL    HW224681   0.821   4.360   6.792  0.8380 -1.1082 -0.3220
 4407SOL     OW24682   4.343   4.239   8.311  0.4098 -0.0218  0.0648
 4407SOL    HW124683   4.314   4.330   8.320 -2.4419 -0.9609  0.1246
 4407SOL    HW224684   4.295   4.208   8.235  2.2260 -1.6155 -0.4044
 4408SOL     OW24685   2.401   1.981   5.148  0.6544  0.1095  0.3913
 4408SOL    HW124686   2.421   1.891   5.125 -1.8715 -0.9262  2.1682
 4408SOL    HW224687   2.311   1.995   5.120  0.6477  1.1960  0.9388
 4409SOL     OW24688   2.487   3.488   8.233  0.5575 -0.2764  0.0032
 4409SOL    HW124689   2.501   3.519   8.322 -0.5611  0.6767 -0.1470
 4409SOL    HW224690   2.579   3.472   8.217  0.4795  0.2346 -0.9845
 4410SOL     OW24691   1.509   0.384  13.286  0.1701  0.1144 -0.0097
 4410SOL    HW124692   1.513   0.470  13.244  1.0337  0.8486  1.5688
 4410SOL    HW224693   1.419   0.400  13.317  0.6756  2.5778  0.1570
 4411SOL     OW24694   1.181   3.948   3.945 -0.0356  0.2556  0.2250
 4411SOL    HW124695   1.096   3.990   3.932  0.4671  0.7272 -1.5554
 4411SOL    HW224696   1.243   4.016   3.920 -0.7220  0.4266 -1.0089
 4412SOL     OW24697   4.171   2.497   4.328  0.2629 -0.6901 -0.5762
 4412SOL    HW124698   4.183   2.586   4.360 -0.8251 -1.4436  1.9012
 4412SOL    HW224699   4.080   2.478   4.349  0.1586  0.2574 -0.1707
 4413SOL     OW24700   0.411   0.604   9.945  0.2329 -0.3080  0.0721
 4413SOL    HW124701   0.472   0.532   9.924  0.3307 -0.1450 -0.2047
 4413SOL    HW224702   0.336   0.577   9.892  1.6041 -2.2284 -0.9162
 4414SOL     OW24703   2.053   2.112   1.256  0.2180 -0.2805 -0.5150
 4414SOL    HW124704   1.976   2.134   1.204 -1.5980  0.5409  2.5090
 4414SOL    HW224705   2.023   2.145   1.342 -1.8266 -2.9267 -0.2125
 4415SOL     OW24706   0.083   1.000   8.757 -0.0451 -0.1546 -0.1174
 4415SOL    HW124707   0.129   1.047   8.827  0.2279  0.3964 -0.6655
 4415SOL    HW224708   0.109   1.041   8.674  1.8011 -0.7283  0.1826
 4416SOL     OW24709   0.513   0.823   9.670 -0.2810 -0.6308  0.1859
 4416SOL    HW124710   0.585   0.770   9.702  0.5617 -0.1030 -0.8218
 4416SOL    HW224711   0.562   0.849   9.592 -0.7052 -1.1235 -0.2482
 4417SOL     OW24712   3.647   2.106   7.058  0.1243  0.3181  0.1635
 4417SOL    HW124713   3.574   2.148   7.105  2.4003  0.7496  3.3108
 4417SOL    HW224714   3.710   2.178   7.058 -0.3517  0.7396  1.4830
 4418SOL     OW24715   4.484   4.332   0.503 -0.5700 -0.6530  0.0710
 4418SOL    HW124716   4.542   4.385   0.449 -2.0636  0.5117 -0.3714
 4418SOL    HW224717   4.485   4.377   0.587 -1.6414  3.7699 -2.3243
 4419SOL     OW24718   1.111   4.611   7.283  0.4350  0.2824 -0.3812
 4419SOL    HW124719   1.050   4.594   7.355  1.9465 -0.4309  0.7173
 4419SOL    HW224720   1.104   4.707   7.279 -2.0369  0.1375  0.2985
 4420SOL     OW24721   2.882   2.241   6.051  0.1851  0.2434 -0.0685
 4420SOL    HW124722   2.959   2.267   6.101  0.2820  3.4493 -1.9419
 4420SOL    HW224723   2.850   2.181   6.118 -1.2493  0.9929 -0.0883
 4421SOL     OW24724   2.097   3.145   6.828 -0.2619 -0.1603 -0.1204
 4421SOL    HW124725   2.158   3.121   6.758 -1.2258 -0.6554 -0.7976
 4421SOL    HW224726   2.046   3.064   6.831  1.6807 -1.4097 -0.7948
 4422SOL     OW24727   2.064   1.571   6.679  0.7541  0.0662  0.1378
 4422SOL    HW124728   2.059   1.585   6.585  0.6855  0.1241  0.1504
 4422SOL    HW224729   2.064   1.476   6.671  0.5031 -0.1199  2.3762
 4423SOL     OW24730   0.650   4.422   8.495 -0.5222  0.0991  0.5693
 4423SOL    HW124731   0.700   4.358   8.546 -0.8949  0.2785  1.1536
 4423SOL    HW224732   0.688   4.505   8.522 -0.5223  0.4068 -0.3543
 4424SOL     OW24733   3.547   3.961   7.712  0.4720  0.1505 -0.4717
 4424SOL    HW124734   3.512   4.038   7.668  2.0932  1.6657  0.8790
 4424SOL    HW224735   3.639   3.981   7.730 -0.5448  2.9275  1.5141
 4425SOL     OW24736   1.331   2.877   1.145  0.0377  0.0129  0.0431
 4425SOL    HW124737   1.290   2.924   1.072  1.0094  0.7525 -0.0266
 4425SOL    HW224738   1.379   2.812   1.093  0.4599  0.2758  0.0998
 4426SOL     OW24739   4.192   1.198   6.165 -0.1096 -0.1486 -0.2172
 4426SOL    HW124740   4.196   1.104   6.147  0.6174 -0.3366  0.9312
 4426SOL    HW224741   4.230   1.233   6.085  0.6244 -0.6099 -0.0689
 4427SOL     OW24742   4.298   0.795   2.889  0.8113 -0.1155  0.0477
 4427SOL    HW124743   4.363   0.775   2.956  0.3432  2.9750  1.4312
 4427SOL    HW224744   4.339   0.777   2.804  1.4532  2.6779 -0.2675
 4428SOL     OW24745   4.301   3.694   3.220  0.3126  0.2892 -0.2016
 4428SOL    HW124746   4.264   3.744   3.147 -2.9867 -0.9433  0.6236
 4428SOL    HW224747   4.288   3.763   3.285 -0.2507  0.4164 -0.4562
 4429SOL     OW24748   3.414   1.489   8.264  0.4424 -0.6822  0.1826
 4429SOL    HW124749   3.418   1.585   8.272 -2.1072 -0.4153 -1.6369
 4429SOL    HW224750   3.337   1.465   8.316 -0.4988 -0.2244 -0.9882
 4430SOL     OW24751   2.319   2.019   0.160 -0.2117  0.0138 -0.0131
 4430SOL    HW124752   2.341   2.073   0.236  1.2547  2.6455 -2.3273
 4430SOL    HW224753   2.225   2.032   0.161 -0.0040  1.3914  1.3045
 4431SOL     OW24754   0.066   4.675  13.578  0.4086 -0.3942 -0.7735
 4431SOL    HW124755   0.066   0.046  13.603 -1.8996 -0.5093 -0.3323
 4431SOL    HW224756   0.091   4.686  13.487  0.1928  1.8289 -0.5654
 4432SOL     OW24757   0.671   2.746   1.634 -0.0020 -0.2269 -0.3121
 4432SOL    HW124758   0.752   2.696   1.623  1.4795  1.9193  1.0075
 4432SOL    HW224759   0.665   2.738   1.730  0.4172 -1.0134 -0.3499
 4433SOL     OW24760   3.166   2.666   9.805 -0.1965 -0.3063  0.3459
 4433SOL    HW124761   3.073   2.681   9.792  0.2373  1.4479 -0.6652
 4433SOL    HW224762   3.193   2.742   9.857  2.3075 -0.3469 -0.8820
 4434SOL     OW24763   3.136   2.134   6.188 -0.1907 -0.0197  0.2296
 4434SOL    HW124764   3.117   2.203   6.252  0.4372 -0.3664  0.7923
 4434SOL    HW224765   3.103   2.058   6.236  1.3384  0.6166  2.2906
 4435SOL     OW24766   3.731   3.823   7.524  0.6691  0.0355 -0.3342
 4435SOL    HW124767   3.801   3.827   7.589 -0.4288 -1.3405  0.9383
 4435SOL    HW224768   3.705   3.731   7.533  1.2903 -0.2680 -1.5381
 4436SOL     OW24769   0.102   3.243   9.190  0.0667  0.0232 -0.0319
 4436SOL    HW124770   0.042   3.170   9.174  0.0872  0.7300 -3.3844
 4436SOL    HW224771   0.180   3.202   9.151  1.1789  2.2423 -0.1746
 4437SOL     OW24772   1.851   1.324   4.452 -0.4010  0.0531  0.7855
 4437SOL    HW124773   1.789   1.368   4.394  1.6258 -0.4712 -1.7738
 4437SOL    HW224774   1.834   1.381   4.527 -0.3114 -0.0913  0.9165
 4438SOL     OW24775   3.076   0.411   7.357 -0.2759  0.3397  0.5274
 4438SOL    HW124776   3.011   0.480   7.339 -0.3771  0.3502  0.9311
 4438SOL    HW224777   3.023   0.333   7.340  0.2180 -0.4705  2.7601
 4439SOL     OW24778   0.078   0.828   0.952 -0.3924  0.1694 -0.2413
 4439SOL    HW124779   0.015   0.857   0.885 -0.9417  1.6937  0.9328
 4439SOL    HW224780   0.151   0.795   0.900 -0.2562  0.4953 -0.2570
 4440SOL     OW24781   4.016   3.294   8.604  0.5225  0.0751  0.9450
 4440SOL    HW124782   3.974   3.379   8.615  0.4734  0.0123  1.2424
 4440SOL    HW224783   4.005   3.249   8.688 -0.0349  0.4947  1.1000
 4441SOL     OW24784   3.639   3.590   4.735 -0.1184 -0.1805  0.0512
 4441SOL    HW124785   3.665   3.617   4.824  0.1434  0.3597 -0.1911
 4441SOL    HW224786   3.617   3.666   4.683 -2.1975 -0.9865 -0.2570
 4442SOL     OW24787   0.890   4.680   3.863 -0.2555  0.1989 -0.0982
 4442SOL    HW124788   0.983   4.699   3.870 -0.3075 -0.0284  1.1223
 4442SOL    HW224789   0.879   4.633   3.945  0.6162  1.4053  0.7077
 4443SOL     OW24790   3.869   3.520   1.736  0.0750  0.5477  0.1096
 4443SOL    HW124791   3.913   3.589   1.686 -0.6929  0.9853  0.0398
 4443SOL    HW224792   3.854   3.448   1.675  2.6067  0.7729 -0.8059
 4444SOL     OW24793   4.198   2.467   7.340 -0.2020  0.1176  0.5764
 4444SOL    HW124794   4.159   2.546   7.379 -0.0594  0.1363  0.6800
 4444SOL    HW224795   4.268   2.455   7.404  1.8578  0.0623 -1.6936
 4445SOL     OW24796   4.424   2.011  14.841  0.0357 -0.6124 -0.2690
 4445SOL    HW124797   4.352   1.968  14.886  3.1168 -1.9953  3.2935
 4445SOL    HW224798   4.377   2.065  14.778  1.3006 -0.4395 -1.0706
 4446SOL     OW24799   3.479   4.189   4.998  0.4657 -0.1374 -0.3987
 4446SOL    HW124800   3.427   4.258   4.958  0.3742 -0.3026 -0.5637
 4446SOL    HW224801   3.432   4.175   5.080  0.1440 -2.8974 -1.0413
 4447SOL     OW24802   0.107   2.824  16.824 -0.7105 -0.2005  0.3651
 4447SOL    HW124803   0.178   2.886  16.845 -1.5700  1.0041 -0.2800
 4447SOL    HW224804   0.148   2.741  16.848  2.6387  0.9587 -1.3732
 4448SOL     OW24805   1.426   3.449   5.990  0.0450  0.3185 -0.4595
 4448SOL    HW124806   1.515   3.460   6.024  0.0382 -0.5766 -0.1466
 4448SOL    HW224807   1.447   3.360   5.963 -0.7620  0.4708 -1.5759
 4449SOL     OW24808   4.598   4.512   5.305 -0.5041  0.0161  0.1777
 4449SOL    HW124809   4.621   4.597   5.343 -2.1488 -0.0748  1.3932
 4449SOL    HW224810   4.652   4.451   5.355 -1.1775 -1.1388 -0.5017
 4450SOL     OW24811   0.746   4.471  15.828 -0.0459  0.1605  0.6057
 4450SOL    HW124812   0.657   4.436  15.830 -0.0681  0.0274 -2.2723
 4450SOL    HW224813   0.754   4.471  15.733 -1.1677  0.5287  0.5079
 4451SOL     OW24814   1.991   3.765  14.663 -0.0590 -0.0472 -0.8490
 4451SOL    HW124815   2.083   3.738  14.671  0.1265  0.3691 -1.5153
 4451SOL    HW224816   1.951   3.684  14.694  2.0452 -1.0272 -0.6993
 4452SOL     OW24817   0.517   2.995  14.452  0.0270 -0.2885  0.2482
 4452SOL    HW124818   0.436   3.034  14.483 -1.0613 -2.3420  0.0030
 4452SOL    HW224819   0.578   3.064  14.476 -1.4483  1.5263 -1.2822
 4453SOL     OW24820   2.426   1.068  13.531  0.2094  0.2513  0.0242
 4453SOL    HW124821   2.504   1.028  13.568  1.3258  2.5012  0.1045
 4453SOL    HW224822   2.442   1.049  13.438 -1.2490 -0.3075 -0.1297
 4454SOL     OW24823   0.872   0.746   1.651  0.4378 -0.7347 -0.0176
 4454SOL    HW124824   0.963   0.760   1.677  0.3438  1.1041 -0.6797
 4454SOL    HW224825   0.876   0.772   1.559  0.8908  0.4126  0.3290
 4455SOL     OW24826   1.130   4.535   7.025 -0.3055  0.1424 -0.0419
 4455SOL    HW124827   1.121   4.564   7.116 -0.6880  0.0265 -0.0453
 4455SOL    HW224828   1.212   4.488   7.014 -0.5880  0.0230 -1.7105
 4456SOL     OW24829   0.311   2.472   3.234 -0.1551  0.2036  0.7117
 4456SOL    HW124830   0.284   2.543   3.176 -0.7800 -0.5012  0.1420
 4456SOL    HW224831   0.269   2.393   3.201  0.9049 -0.3582  0.7256
 4457SOL     OW24832   1.090   2.319   1.792 -0.2527  0.4785 -0.4755
 4457SOL    HW124833   1.017   2.279   1.745  0.9704 -2.0943 -0.2253
 4457SOL    HW224834   1.043   2.362   1.863  1.5653  0.4539  0.7586
 4458SOL     OW24835   1.757   2.013   1.981  0.1245  0.4076 -0.4639
 4458SOL    HW124836   1.773   1.934   1.929 -0.2157 -0.4430  0.7352
 4458SOL    HW224837   1.755   1.974   2.068 -1.4985 -0.2653 -0.7987
 4459SOL     OW24838   3.188   3.185   7.390 -0.6394  0.0334 -0.4664
 4459SOL    HW124839   3.143   3.194   7.473  0.0811  0.3162 -0.1119
 4459SOL    HW224840   3.205   3.278   7.376  2.6147 -0.1338  2.4634
 4460SOL     OW24841   2.892   2.451   3.538 -0.4857 -0.3289  0.3823
 4460SOL    HW124842   2.847   2.502   3.472 -1.1802  0.2128  1.2711
 4460SOL    HW224843   2.898   2.515   3.609 -0.7509  0.8502 -0.6790
 4461SOL     OW24844   2.220   3.873   2.751 -0.2076 -0.4091  0.2453
 4461SOL    HW124845   2.199   3.893   2.660  0.4016  0.4820  0.2971
 4461SOL    HW224846   2.247   3.960   2.780  0.7765 -0.9671  1.0103
 4462SOL     OW24847   4.508   2.332  13.475  0.2860  0.2430  0.2181
 4462SOL    HW124848   4.415   2.349  13.462  0.8301  2.2980 -0.8682
 4462SOL    HW224849   4.518   2.239  13.452  2.1156  0.6990 -0.8483
 4463SOL     OW24850   2.782   1.725   5.803  0.0035  0.0751  0.0464
 4463SOL    HW124851   2.821   1.800   5.760 -0.5115 -0.3499 -1.1588
 4463SOL    HW224852   2.851   1.683   5.855 -0.6167 -1.8841 -0.6951
 4464SOL     OW24853   2.200   4.317   0.235 -0.1269  0.1910 -0.6370
 4464SOL    HW124854   2.209   4.255   0.163  0.8295 -1.7750  1.1916
 4464SOL    HW224855   2.111   4.298   0.266 -0.4929  1.0698 -1.1393
 4465SOL     OW24856   2.850   1.951   8.503  1.0185 -0.0657 -0.1210
 4465SOL    HW124857   2.866   1.944   8.598  2.3187 -0.1649 -0.3439
 4465SOL    HW224858   2.763   1.990   8.497  0.2836 -1.3445  2.0058
 4466SOL     OW24859   3.947   2.654  10.254 -0.3804  0.1607 -0.5553
 4466SOL    HW124860   3.976   2.577  10.301 -0.7951  0.8657  0.8411
 4466SOL    HW224861   3.901   2.615  10.180 -0.9722  0.8566 -0.5566
 4467SOL     OW24862   1.877   0.544   8.224 -0.5720 -0.1278 -0.0374
 4467SOL    HW124863   1.922   0.628   8.218  0.4561 -0.6921 -0.1809
 4467SOL    HW224864   1.871   0.522   8.131 -1.7727  0.6478 -0.1474
 4468SOL     OW24865   0.315   3.517   3.689 -0.0292 -0.2697 -0.3178
 4468SOL    HW124866   0.221   3.523   3.706  0.2465 -2.1843  1.9005
 4468SOL    HW224867   0.344   3.590   3.743  0.1878 -0.4111 -0.2434
 4469SOL     OW24868   2.555   4.438   3.978  0.1743 -0.2949 -0.3128
 4469SOL    HW124869   2.594   4.525   3.989  2.1880 -1.6565  3.1937
 4469SOL    HW224870   2.633   4.383   3.977  0.8842  0.7009  0.1025
 4470SOL     OW24871   0.857   1.327  13.895  0.4834  0.0651 -0.1508
 4470SOL    HW124872   0.780   1.383  13.890  1.0313  0.7882 -0.3782
 4470SOL    HW224873   0.816   1.260  13.949  0.2818  0.8500  0.6665
 4471SOL     OW24874   0.308   1.053   0.566 -0.6011 -0.4954 -0.7976
 4471SOL    HW124875   0.238   1.043   0.630  1.2761  0.5169  1.3873
 4471SOL    HW224876   0.252   1.054   0.488 -0.2243  1.5291 -1.0543
 4472SOL     OW24877   4.230   3.757   9.492 -0.0533  0.3479  0.1722
 4472SOL    HW124878   4.183   3.796   9.566  0.9015  2.9524 -0.5970
 4472SOL    HW224879   4.295   3.706   9.540  0.3963  0.4145 -0.3645
 4473SOL     OW24880   1.992   1.254   9.537 -0.0313 -0.6338 -0.4970
 4473SOL    HW124881   2.049   1.269   9.613 -2.7280  1.5370  1.0872
 4473SOL    HW224882   1.923   1.317   9.557  2.1177  0.9364  1.9543
 4474SOL     OW24883   1.422   0.558   4.869  0.2494  0.6121  0.0764
 4474SOL    HW124884   1.357   0.565   4.939 -0.6411 -0.1402 -0.6731
 4474SOL    HW224885   1.478   0.488   4.902  1.0440  1.2635  0.1113
 4475SOL     OW24886   0.149   3.772   3.048  0.3934 -1.0001 -0.1388
 4475SOL    HW124887   0.134   3.795   2.957  0.0141 -2.3117 -0.3981
 4475SOL    HW224888   0.094   3.695   3.055 -1.5980  0.2696 -1.7374
 4476SOL     OW24889   4.123   3.817   1.733 -0.6855 -0.1462  0.4705
 4476SOL    HW124890   4.065   3.808   1.657  3.2339 -0.9379 -2.4106
 4476SOL    HW224891   4.158   3.728   1.740  0.1568 -0.0650 -2.9898
 4477SOL     OW24892   0.397   1.903   1.137 -0.3170 -0.1706 -0.0280
 4477SOL    HW124893   0.459   1.947   1.195 -1.7914  1.4242  0.3189
 4477SOL    HW224894   0.457   1.854   1.080 -1.9180 -1.1442 -0.8775
 4478SOL     OW24895   3.990   2.412  13.059 -0.0418 -0.1678  0.5565
 4478SOL    HW124896   3.968   2.327  13.022  0.7326  0.4028 -1.2314
 4478SOL    HW224897   3.948   2.473  12.998  0.0138 -0.9576 -0.2646
 4479SOL     OW24898   3.771   2.205   9.337 -0.1734 -0.4083  0.3654
 4479SOL    HW124899   3.698   2.191   9.277 -0.0264  0.3504  0.0159
 4479SOL    HW224900   3.766   2.295   9.368  1.3769 -0.5720  1.0902
 4480SOL     OW24901   0.494   2.479   0.084  0.8505  0.3299  0.2635
 4480SOL    HW124902   0.496   2.428   0.165 -0.1297 -0.8711 -0.4544
 4480SOL    HW224903   0.577   2.524   0.097  1.6967  0.1432 -4.3802
 4481SOL     OW24904   2.813   1.416  11.662  0.4100  0.1433 -0.5295
 4481SOL    HW124905   2.851   1.489  11.711  0.5744 -0.1543 -0.2098
 4481SOL    HW224906   2.845   1.339  11.710 -0.9676  0.6566  1.1897
 4482SOL     OW24907   1.590   2.940  10.891  0.3393 -0.5507  0.1693
 4482SOL    HW124908   1.558   3.013  10.838  1.1360  1.7591  2.8667
 4482SOL    HW224909   1.629   3.002  10.952  0.0013 -1.6350  1.4897
 4483SOL     OW24910   2.329   1.481  15.249 -0.1874 -0.1203 -0.2698
 4483SOL    HW124911   2.297   1.409  15.304  3.4884 -0.8739  0.8926
 4483SOL    HW224912   2.403   1.441  15.203 -0.9828 -0.6214 -1.1102
 4484SOL     OW24913   0.593   1.662   2.887 -0.1377  0.0150  0.2538
 4484SOL    HW124914   0.646   1.706   2.821 -0.3946  0.3223  0.2523
 4484SOL    HW224915   0.661   1.637   2.950 -0.8954 -1.0596  0.6495
 4485SOL     OW24916   0.143   3.216  16.944 -0.0882  0.1187  0.0192
 4485SOL    HW124917   0.085   3.151  16.982  1.4050 -1.7991 -0.9955
 4485SOL    HW224918   0.194   3.242  17.022  0.4415  0.1719 -0.3423
 4486SOL     OW24919   3.361   4.416   5.273 -0.1016  0.0844  0.0289
 4486SOL    HW124920   3.275   4.450   5.297  0.8674  3.0779 -0.7603
 4486SOL    HW224921   3.334   4.331   5.239  0.0751  0.5766 -1.3207
 4487SOL     OW24922   1.748   3.738  14.410 -0.4897  0.1103 -0.7224
 4487SOL    HW124923   1.710   3.720  14.324 -0.8015  0.8753 -0.7458
 4487SOL    HW224924   1.790   3.653  14.423 -0.2442  0.7166  2.4993
 4488SOL     OW24925   0.688   2.595   9.324  0.2446 -0.1394  0.2401
 4488SOL    HW124926   0.693   2.679   9.370 -1.0682 -0.9506  1.8465
 4488SOL    HW224927   0.719   2.528   9.384 -0.1825  0.2822  0.9332
 4489SOL     OW24928   1.396   0.656   2.358  0.0094 -0.5246 -0.5140
 4489SOL    HW124929   1.343   0.589   2.315 -1.9746  0.8602 -0.2721
 4489SOL    HW224930   1.333   0.728   2.366  0.1211 -0.4076 -0.6947
 4490SOL     OW24931   0.422   3.880   4.233 -0.3557 -0.5407 -0.2417
 4490SOL    HW124932   0.440   3.847   4.321  0.7478  0.3913 -0.1090
 4490SOL    HW224933   0.480   3.955   4.248  1.3210 -1.9201  0.0619
 4491SOL     OW24934   2.820   3.024  11.324 -0.2330 -0.1897 -1.0296
 4491SOL    HW124935   2.821   3.120  11.324  1.3909 -0.2111 -1.5032
 4491SOL    HW224936   2.849   3.002  11.235  0.9547  0.8127 -0.8910
 4492SOL     OW24937   3.186   0.486   5.898  0.0113 -0.0607 -0.0855
 4492SOL    HW124938   3.153   0.407   5.855 -1.5596 -0.2008  1.3799
 4492SOL    HW224939   3.254   0.460   5.960  0.7019 -2.7305 -1.9684
 4493SOL     OW24940   2.503   1.697  15.300  0.4702 -0.0716  0.4122
 4493SOL    HW124941   2.447   1.620  15.307 -0.2481  0.2746 -1.4643
 4493SOL    HW224942   2.454   1.744  15.233  1.7053  3.6372  2.0988
 4494SOL     OW24943   3.009   4.494  13.515  0.0747 -0.3857 -0.3197
 4494SOL    HW124944   3.009   4.501  13.610  2.0358 -1.7310 -0.2154
 4494SOL    HW224945   3.032   4.401  13.511 -0.7286 -0.5946  0.0235
 4495SOL     OW24946   4.449   0.167  13.641 -0.0991  0.4366  0.4212
 4495SOL    HW124947   4.419   0.128  13.559  2.0026 -2.0031  0.7943
 4495SOL    HW224948   4.392   0.118  13.701  1.3224  0.3568  1.7026
 4496SOL     OW24949   2.842   3.664   3.922 -0.6611  0.2743 -0.0586
 4496SOL    HW124950   2.903   3.609   3.872  0.9655  0.6627  1.4766
 4496SOL    HW224951   2.882   3.749   3.943  2.4232 -1.3847  0.7483
 4497SOL     OW24952   0.578   3.910   6.730 -0.1287 -0.1806 -0.2719
 4497SOL    HW124953   0.615   3.890   6.644 -0.7901 -1.2254 -0.3100
 4497SOL    HW224954   0.615   3.996   6.750  1.1107 -0.3470 -1.8906
 4498SOL     OW24955   3.157   1.359   8.674  0.1379  0.2488  0.2639
 4498SOL    HW124956   3.246   1.344   8.642  0.1762  1.1433 -0.0295
 4498SOL    HW224957   3.176   1.421   8.745  0.0146 -0.6998  1.1319
 4499SOL     OW24958   4.362   2.387   7.555  0.0353 -0.0163 -0.2177
 4499SOL    HW124959   4.343   2.295   7.536  0.2364 -0.0705 -0.1579
 4499SOL    HW224960   4.456   2.398   7.540  0.1145 -0.1751  0.1794
 4500SOL     OW24961   4.438   2.247   2.632  0.4433 -0.5337 -0.1064
 4500SOL    HW124962   4.454   2.168   2.683  2.4123  0.2481  0.4826
 4500SOL    HW224963   4.514   2.298   2.659 -1.2946  1.6447  0.6531
 4501SOL     OW24964   0.755   4.120   5.800 -0.0825 -0.0507 -0.1124
 4501SOL    HW124965   0.817   4.192   5.783 -1.2145  0.9515  0.0058
 4501SOL    HW224966   0.808   4.044   5.775 -0.7738  0.0248 -1.8233
 4502SOL     OW24967   0.340   0.303   4.835  0.2239 -0.6741  0.4842
 4502SOL    HW124968   0.335   0.358   4.757  1.3169 -3.2451 -1.3676
 4502SOL    HW224969   0.272   0.240   4.814 -2.0297  1.5916  0.9301
 4503SOL     OW24970   0.104   1.269   3.779 -0.2704  0.7878  0.1902
 4503SOL    HW124971   0.084   1.290   3.870  1.0077  0.8520  0.4543
 4503SOL    HW224972   0.019   1.268   3.734 -0.4190 -1.3661  0.5345
 4504SOL     OW24973   0.212   0.919   9.046  0.4820  0.2173  0.1683
 4504SOL    HW124974   0.243   0.991   8.991  0.2073 -0.5317 -0.9839
 4504SOL    HW224975   0.137   0.959   9.091  0.0494 -3.0569  2.3223
 4505SOL     OW24976   1.517   0.856   1.506  0.0218  0.8353  0.0752
 4505SOL    HW124977   1.585   0.893   1.450  0.4718 -0.7054 -0.4026
 4505SOL    HW224978   1.490   0.780   1.454 -1.1467  0.4550  1.2365
 4506SOL     OW24979   0.761   1.178  11.814 -0.0512  0.1017  0.1762
 4506SOL    HW124980   0.784   1.270  11.799  2.5496 -0.2161  2.2580
 4506SOL    HW224981   0.694   1.168  11.747 -2.8627  1.1977  2.7926
 4507SOL     OW24982   3.409   4.334  17.379 -0.0036 -0.1783 -0.6722
 4507SOL    HW124983   3.490   4.353  17.332  0.0033 -1.0724 -1.0217
 4507SOL    HW224984   3.360   4.415  17.364 -2.0608 -1.3688 -0.3340
 4508SOL     OW24985   1.751   0.538   6.486  0.0476 -0.0671  0.7218
 4508SOL    HW124986   1.722   0.449   6.463  1.4579 -0.4044  0.2377
 4508SOL    HW224987   1.682   0.593   6.449  1.9987 -0.7321 -3.9047
 4509SOL     OW24988   1.165   0.330   4.102 -0.1043 -0.1626  0.0566
 4509SOL    HW124989   1.092   0.321   4.163 -1.1349 -0.0228 -1.1354
 4509SOL    HW224990   1.235   0.366   4.156 -0.5094  1.9860 -0.8338
 4510SOL     OW24991   0.190   2.269  10.211  0.4887  0.3854 -0.4970
 4510SOL    HW124992   0.220   2.201  10.271  0.5556 -0.7463 -1.8154
 4510SOL    HW224993   0.104   2.237  10.183  0.8278 -0.1804 -0.8967
 4511SOL     OW24994   1.337   4.386   3.082  0.5705  0.1713 -0.1012
 4511SOL    HW124995   1.282   4.416   3.008 -1.5462  0.2804  1.5074
 4511SOL    HW224996   1.326   4.293   3.065  1.9794 -0.1695  0.9362
 4512SOL     OW24997   4.102   4.032  17.297 -1.0493  0.2498 -0.1084
 4512SOL    HW124998   4.120   4.113  17.346  0.3618 -0.0240 -0.1604
 4512SOL    HW224999   4.009   4.050  17.285 -1.5752 -2.0754  0.4481
 4513SOL     OW25000   0.339   4.508   4.309  0.1818 -0.0488 -0.2848
 4513SOL    HW125001   0.398   4.559   4.365  1.0594 -1.3059 -0.0618
 4513SOL    HW225002   0.325   4.429   4.361  3.6276  0.7498  1.8863
 4514SOL     OW25003   3.929   1.560   5.405  0.5416 -0.0137  0.0619
 4514SOL    HW125004   3.993   1.491   5.422 -1.2879 -1.6859  0.1555
 4514SOL    HW225005   3.974   1.607   5.335 -0.1555  1.9624  0.9442
 4515SOL     OW25006   2.227   0.651   4.905  0.3743  0.5004 -0.0674
 4515SOL    HW125007   2.157   0.717   4.900 -1.8190 -1.9044 -0.8914
 4515SOL    HW225008   2.302   0.706   4.930  0.2925  0.1104  1.0293
 4516SOL     OW25009   4.705   1.723   9.129  0.5359 -0.1387  0.1752
 4516SOL    HW125010   4.640   1.669   9.176  0.3505 -0.7641 -0.7985
 4516SOL    HW225011   4.661   1.794   9.083 -1.8284  0.8658  3.9586
 4517SOL     OW25012   0.482   0.929   9.171  0.2719 -0.0669 -0.0363
 4517SOL    HW125013   0.530   1.005   9.140  2.1446 -0.4357  1.9683
 4517SOL    HW225014   0.396   0.971   9.178 -0.7628 -2.7422  3.1672
 4518SOL     OW25015   3.958   3.220   7.343 -0.1935 -0.5301  0.0829
 4518SOL    HW125016   3.980   3.274   7.268  3.0348 -1.6421  0.2298
 4518SOL    HW225017   3.991   3.275   7.414 -1.3442  1.4400 -0.9226
 4519SOL     OW25018   2.072   1.954   4.454 -0.5394  0.3407 -0.0324
 4519SOL    HW125019   2.077   2.038   4.408  4.4404  1.0724  1.8127
 4519SOL    HW225020   2.159   1.917   4.436 -0.4407  1.3413 -1.6604
 4520SOL     OW25021   2.197   0.788  14.188 -0.0147  0.4385 -0.0558
 4520SOL    HW125022   2.117   0.832  14.219 -0.4847  0.0490 -0.7089
 4520SOL    HW225023   2.155   0.720  14.135  0.0372 -0.7142  1.3630
 4521SOL     OW25024   4.619   2.391   2.834  0.3997 -0.0723  0.1551
 4521SOL    HW125025   4.541   2.386   2.890 -0.0911  0.4602 -0.4899
 4521SOL    HW225026   4.681   2.344   2.890  1.3108 -0.6461 -1.3452
 4522SOL     OW25027   4.074   0.891   4.959 -0.2209 -0.7200  0.4256
 4522SOL    HW125028   4.047   0.973   4.917 -2.9929 -0.6526  2.3777
 4522SOL    HW225029   4.109   0.928   5.040  0.6529  2.6487 -1.4783
 4523SOL     OW25030   4.139   2.953   1.524 -0.0683 -0.4193 -0.2675
 4523SOL    HW125031   4.122   2.910   1.608 -2.1943 -1.4900 -1.2555
 4523SOL    HW225032   4.230   2.925   1.515  0.2667  0.3544  0.7273
 4524SOL     OW25033   3.020   0.612   0.956  0.3187 -0.2359  0.3321
 4524SOL    HW125034   3.025   0.707   0.955  2.4607 -0.3557 -0.5286
 4524SOL    HW225035   2.931   0.604   0.923 -0.1382  0.6648  1.3570
 4525SOL     OW25036   1.357   4.388  12.304 -0.2117  0.2316 -0.1040
 4525SOL    HW125037   1.363   4.309  12.251 -1.4620  0.5545 -0.7198
 4525SOL    HW225038   1.283   4.355  12.355 -1.1570  1.0197 -0.9656
 4526SOL     OW25039   2.162   3.337   5.954 -0.2911  0.5019  0.5233
 4526SOL    HW125040   2.075   3.307   5.981 -0.4826 -0.1979 -0.8490
 4526SOL    HW225041   2.176   3.312   5.862  2.7560  0.1202  1.0956
 4527SOL     OW25042   4.437   1.140   3.150 -0.2112 -0.0173  0.3327
 4527SOL    HW125043   4.409   1.193   3.225 -0.3841 -1.7738  1.5173
 4527SOL    HW225044   4.453   1.056   3.195  2.0215  0.1831 -0.0588
 4528SOL     OW25045   1.052   3.375   1.503  0.3189 -0.4982  0.6862
 4528SOL    HW125046   1.102   3.333   1.572 -0.4323 -2.0804  0.2684
 4528SOL    HW225047   1.104   3.351   1.426 -0.9328  0.1688 -0.3897
 4529SOL     OW25048   2.666   1.908   2.293  0.3711  0.4526 -0.6843
 4529SOL    HW125049   2.739   1.960   2.327  0.1962  0.0731  0.2916
 4529SOL    HW225050   2.635   1.882   2.380  1.9519 -1.2584 -0.6403
 4530SOL     OW25051   0.165   2.068   3.325 -0.0861  0.1567  0.3323
 4530SOL    HW125052   0.215   2.020   3.392 -0.6263 -0.1590  0.5035
 4530SOL    HW225053   0.090   2.014   3.305 -1.5431  2.3601 -0.1691
 4531SOL     OW25054   2.008   0.901  13.945 -0.6542  0.2104  0.1490
 4531SOL    HW125055   2.028   0.890  13.852 -1.9286  1.1008 -0.2388
 4531SOL    HW225056   1.981   0.993  13.946 -0.9559  0.1074  1.8332
 4532SOL     OW25057   4.236   0.196  10.013  0.1770 -0.4078 -0.2189
 4532SOL    HW125058   4.283   0.179  10.095 -0.3657 -1.9088 -0.2050
 4532SOL    HW225059   4.300   0.241   9.959 -1.3631 -1.9042 -3.3357
 4533SOL     OW25060   2.039   1.590   0.853 -0.0726 -0.4429  0.0717
 4533SOL    HW125061   2.087   1.664   0.816  0.0850  0.5362  2.2187
 4533SOL    HW225062   1.971   1.639   0.900 -1.5561 -0.5617 -1.9240
 4534SOL     OW25063   1.207   0.888   4.316  0.2124 -0.1197  0.2456
 4534SOL    HW125064   1.254   0.887   4.233 -0.3015  2.0133 -0.0893
 4534SOL    HW225065   1.224   0.982   4.331 -0.5862  0.0635  0.0102
 4535SOL     OW25066   3.659   0.852   5.266  0.1764 -0.2619 -0.3581
 4535SOL    HW125067   3.739   0.804   5.243 -0.5242 -1.0263 -1.1529
 4535SOL    HW225068   3.670   0.935   5.221  0.3460  0.2393  0.6115
 4536SOL     OW25069   1.157   2.379   2.433  0.1417  0.0051  0.0828
 4536SOL    HW125070   1.125   2.309   2.490  1.4139 -1.9206 -1.5680
 4536SOL    HW225071   1.076   2.392   2.384  1.7323  1.7176 -2.1173
 4537SOL     OW25072   0.774   3.191   6.656 -0.2559  0.1159  0.4642
 4537SOL    HW125073   0.744   3.110   6.696  1.8128 -0.8405  0.0514
 4537SOL    HW225074   0.824   3.238   6.723 -0.8856  0.5029  0.6665
 4538SOL     OW25075   3.232   2.692   2.554 -0.2287  0.0116 -0.3730
 4538SOL    HW125076   3.193   2.769   2.511 -2.1594  0.3950  2.0670
 4538SOL    HW225077   3.282   2.724   2.629 -2.4280 -1.3498  1.6687
 4539SOL     OW25078   2.425   4.555  16.243  0.0584  0.2212  0.3357
 4539SOL    HW125079   2.340   4.529  16.278  0.5358 -2.3494 -0.4464
 4539SOL    HW225080   2.409   4.549  16.149  2.8411 -0.9815 -0.0522
 4540SOL     OW25081   0.242   3.531   6.879 -0.4206  0.2108 -0.0633
 4540SOL    HW125082   0.334   3.559   6.888  0.1230 -2.0323  1.2355
 4540SOL    HW225083   0.217   3.589   6.807 -1.0623  0.9893  0.7901
 4541SOL     OW25084   2.459   1.888   5.974 -0.2780 -0.0202 -0.4494
 4541SOL    HW125085   2.437   1.935   5.894  0.9307 -0.1021 -0.8288
 4541SOL    HW225086   2.482   1.962   6.030 -0.5951  1.3582 -2.1553
 4542SOL     OW25087   2.133   4.394   3.708 -0.1795  0.1673 -0.1366
 4542SOL    HW125088   2.203   4.356   3.761 -0.1884  0.2220 -0.0866
 4542SOL    HW225089   2.175   4.419   3.626  1.4327 -0.7120  0.4304
 4543SOL     OW25090   3.930   2.166  10.796 -0.3461  0.0185  0.2090
 4543SOL    HW125091   3.912   2.256  10.768 -1.5175 -0.8486 -1.8451
 4543SOL    HW225092   3.940   2.180  10.890  0.8685  3.0124 -0.3563
 4544SOL     OW25093   4.194   4.102   1.303  0.1557  0.5704  0.4509
 4544SOL    HW125094   4.156   4.143   1.225  3.2921  1.2121 -0.7486
 4544SOL    HW225095   4.244   4.168   1.351 -0.7332  0.7544  1.1219
 4545SOL     OW25096   4.435   2.310   8.024  0.0111  0.0492  1.0607
 4545SOL    HW125097   4.417   2.388   8.077 -1.4438  0.5370 -0.1538
 4545SOL    HW225098   4.519   2.276   8.055  0.9178 -0.0919 -1.5677
 4546SOL     OW25099   3.321   2.056   3.543 -0.3598 -0.4091 -0.2139
 4546SOL    HW125100   3.408   2.095   3.536 -0.4296 -0.2720 -0.3060
 4546SOL    HW225101   3.280   2.077   3.459 -1.5817  0.7259  0.6811
 4547SOL     OW25102   2.617   1.041  16.112  0.0791 -0.1411 -0.3318
 4547SOL    HW125103   2.594   1.074  16.025  0.9751 -2.5325 -1.4810
 4547SOL    HW225104   2.692   1.098  16.129  1.4239 -1.3604 -2.1744
 4548SOL     OW25105   2.457   3.204  11.754 -0.6187  0.2411  0.4877
 4548SOL    HW125106   2.499   3.267  11.813  0.2872 -0.8355  1.0101
 4548SOL    HW225107   2.528   3.157  11.709  0.2558 -0.7756  2.9010
 4549SOL     OW25108   2.321   0.745  11.568 -0.4035 -0.1028  0.2078
 4549SOL    HW125109   2.289   0.754  11.478 -1.2576 -0.9166  0.4241
 4549SOL    HW225110   2.253   0.692  11.609 -0.4466  0.2683  0.6192
 4550SOL     OW25111   3.716   1.770  15.058 -0.5168  0.1985  0.2280
 4550SOL    HW125112   3.782   1.830  15.092 -0.8710  2.0628 -2.4355
 4550SOL    HW225113   3.789   1.728  15.013 -1.4144  0.3707 -1.3675
 4551SOL     OW25114   2.097   0.851   2.853  0.1710 -0.1481 -0.3923
 4551SOL    HW125115   2.102   0.922   2.788 -0.4041  0.9387  0.7371
 4551SOL    HW225116   2.133   0.883   2.935  0.7125  0.3600 -0.8224
 4552SOL     OW25117   2.601   1.544  17.057 -0.3257  0.0980 -0.3187
 4552SOL    HW125118   2.634   1.618  17.108 -4.1715  2.1629 -0.8752
 4552SOL    HW225119   2.561   1.587  16.982  0.0901  0.6312 -0.2364
 4553SOL     OW25120   1.368   1.740   5.448  0.6124  0.2293 -0.8453
 4553SOL    HW125121   1.386   1.682   5.375 -1.5852  0.1212 -1.3024
 4553SOL    HW225122   1.316   1.680   5.503  0.8500  0.6605 -0.1429
 4554SOL     OW25123   0.730   1.006   6.865  0.4557  0.1137 -0.0665
 4554SOL    HW125124   0.716   1.097   6.892  0.2078 -0.4608  1.7560
 4554SOL    HW225125   0.716   0.956   6.945 -1.6089  0.0640 -0.4627
 4555SOL     OW25126   4.499   0.581  12.847  0.3962 -0.0960  0.1660
 4555SOL    HW125127   4.548   0.661  12.830  2.7495 -1.0392  2.6173
 4555SOL    HW225128   4.548   0.552  12.924  0.2971  0.0463  0.2825
 4556SOL     OW25129   2.465   2.201   6.756 -0.5191  0.4451 -0.0545
 4556SOL    HW125130   2.536   2.224   6.816  0.7327  1.4223 -1.9215
 4556SOL    HW225131   2.475   2.106   6.758  2.7532  0.8033  1.0973
 4557SOL     OW25132   0.204   4.684   2.816  0.0471 -0.1232 -0.6081
 4557SOL    HW125133   0.118   4.674   2.776  1.1458 -0.9544 -2.7831
 4557SOL    HW225134   0.262   4.624   2.768 -1.1315 -1.3050 -0.5617
 4558SOL     OW25135   1.498   4.027  13.129 -0.2772 -0.2346  0.2773
 4558SOL    HW125136   1.540   3.966  13.068  1.8679  0.7778  0.7281
 4558SOL    HW225137   1.573   4.032  13.189 -2.4594 -0.4499  2.9908
 4559SOL     OW25138   2.309   1.217   3.111  0.0757 -0.4297 -0.1226
 4559SOL    HW125139   2.398   1.186   3.130  0.3513  0.1617 -0.4246
 4559SOL    HW225140   2.257   1.183   3.184  1.2713 -0.7224  0.5998
 4560SOL     OW25141   4.495   0.676   8.594  0.0744  1.0368 -0.4085
 4560SOL    HW125142   4.577   0.709   8.629  1.1666 -0.4016 -1.5961
 4560SOL    HW225143   4.434   0.749   8.604 -0.2192  0.6553  0.6102
 4561SOL     OW25144   0.927   2.061  17.448 -0.8701  0.2166  0.2680
 4561SOL    HW125145   0.973   2.020  17.521 -0.3390 -0.2136 -0.3004
 4561SOL    HW225146   0.997   2.120  17.420  0.1596 -1.4725 -0.7477
 4562SOL     OW25147   1.159   2.305   9.581  0.2653 -0.4492  0.0933
 4562SOL    HW125148   1.130   2.282   9.669  0.7952  0.3368  0.4758
 4562SOL    HW225149   1.111   2.388   9.571 -0.7634 -0.9605  0.7924
 4563SOL     OW25150   3.275   2.369  10.548 -0.4699  0.7803 -0.6577
 4563SOL    HW125151   3.316   2.424  10.481 -0.6634  2.7204  0.8084
 4563SOL    HW225152   3.187   2.397  10.522 -0.7776 -0.2813 -0.7647
 4564SOL     OW25153   0.642   2.284  14.462  0.3155 -0.6933  0.4613
 4564SOL    HW125154   0.734   2.272  14.488  0.5126 -0.1921 -0.0026
 4564SOL    HW225155   0.610   2.346  14.528  2.4489  0.6492  0.2476
 4565SOL     OW25156   3.591   0.050   3.125 -0.4529 -0.4729 -0.4014
 4565SOL    HW125157   3.577   0.131   3.075  0.7126 -0.5247 -0.8214
 4565SOL    HW225158   3.518   0.065   3.184  1.1803 -0.0383  1.5077
 4566SOL     OW25159   3.336   0.340  11.422 -0.1889  0.0991 -0.0450
 4566SOL    HW125160   3.318   0.267  11.482 -2.0863  0.7258  0.1405
 4566SOL    HW225161   3.266   0.403  11.440 -0.2908  0.2466 -0.9906
 4567SOL     OW25162   2.973   2.038   5.068  0.4068  0.0601 -0.1428
 4567SOL    HW125163   2.897   2.040   5.010 -1.5343 -0.4462  2.4370
 4567SOL    HW225164   3.030   2.102   5.025  0.8638  0.3060  0.8400
 4568SOL     OW25165   2.806   3.409   4.143  0.2555 -0.0036  0.1401
 4568SOL    HW125166   2.792   3.479   4.208  0.8864  1.2041 -1.0276
 4568SOL    HW225167   2.804   3.335   4.204 -0.2647  0.8398  1.1616
 4569SOL     OW25168   4.123   3.157   6.901  0.0644 -0.2145  0.0920
 4569SOL    HW125169   4.195   3.216   6.878 -0.8897  1.6227  1.8151
 4569SOL    HW225170   4.165   3.113   6.976 -0.3125  0.1396  0.5120
 4570SOL     OW25171   4.165   3.073   7.560 -0.4825  0.3956  0.1022
 4570SOL    HW125172   4.110   3.000   7.587 -0.5775  1.3513  2.4825
 4570SOL    HW225173   4.239   3.037   7.511 -0.4513  1.7060 -0.8412
 4571SOL     OW25174   0.413   3.998  12.610 -0.1227  0.3264 -1.2332
 4571SOL    HW125175   0.494   3.992  12.661  0.0948  2.6221 -1.3019
 4571SOL    HW225176   0.386   4.089  12.617 -0.5744 -0.0868  2.1229
 4572SOL     OW25177   2.394   3.432  17.046 -0.1569  0.0856  0.2418
 4572SOL    HW125178   2.320   3.492  17.043 -1.2745 -1.2971  0.0299
 4572SOL    HW225179   2.458   3.484  17.095  3.3122 -2.1488 -1.9359
 4573SOL     OW25180   3.369   0.690   3.710  0.6543 -0.1828 -0.0406
 4573SOL    HW125181   3.436   0.710   3.776  0.0082 -1.6471  1.0650
 4573SOL    HW225182   3.424   0.648   3.644  2.1688 -0.0304  1.1258
 4574SOL     OW25183   1.446   1.673   8.966  0.3354  0.2172 -0.2811
 4574SOL    HW125184   1.540   1.683   8.948  0.7317  0.3627  1.8748
 4574SOL    HW225185   1.401   1.751   8.934 -2.0339 -1.4454 -0.9403
 4575SOL     OW25186   0.922   4.511  10.355  0.3171 -0.6078  0.0375
 4575SOL    HW125187   0.872   4.535  10.433  1.1122 -0.1905  0.4158
 4575SOL    HW225188   0.974   4.440  10.393 -0.2565 -0.2587  1.4415
 4576SOL     OW25189   0.398   0.844   7.192 -0.3920  0.5291 -0.1638
 4576SOL    HW125190   0.383   0.807   7.280  1.1319  1.4555  0.4888
 4576SOL    HW225191   0.345   0.782   7.142 -0.0807  0.3935 -0.3183
 4577SOL     OW25192   3.362   3.310   6.729 -0.1832 -0.2260 -0.4322
 4577SOL    HW125193   3.441   3.290   6.678  0.8991  0.3439  1.0047
 4577SOL    HW225194   3.383   3.245   6.797  0.1470  0.6333  0.2970
 4578SOL     OW25195   2.685   3.708   3.629 -0.0951  0.5621  0.1693
 4578SOL    HW125196   2.737   3.649   3.574  1.9858  1.0168  1.6481
 4578SOL    HW225197   2.757   3.716   3.693  0.8196  2.5640 -1.1245
 4579SOL     OW25198   3.912   2.421   5.757 -0.7030  0.1212 -0.2302
 4579SOL    HW125199   3.936   2.498   5.808 -1.2009 -0.8387  1.4519
 4579SOL    HW225200   3.954   2.351   5.806  1.8678  1.6384 -0.2690
 4580SOL     OW25201   2.969   0.087  13.876  0.4592 -0.9506  0.2393
 4580SOL    HW125202   3.056   0.046  13.872  1.1393  0.9291 -3.9100
 4580SOL    HW225203   2.901   0.020  13.887 -2.1035  1.7022  0.5295
 4581SOL     OW25204   4.015   0.978   6.080  0.0415  0.3044 -0.3036
 4581SOL    HW125205   3.978   0.994   6.167  0.3295  0.1457 -0.1498
 4581SOL    HW225206   4.059   0.893   6.082 -1.6763 -0.6060 -1.7281
 4582SOL     OW25207   0.216   0.920  11.103  0.5339  0.3027  0.0092
 4582SOL    HW125208   0.153   0.979  11.061 -2.2049 -0.7591  2.6626
 4582SOL    HW225209   0.201   0.836  11.060 -1.6537  0.8609 -0.3400
 4583SOL     OW25210   1.933   0.643   4.686 -0.2685 -0.1856 -0.1168
 4583SOL    HW125211   1.912   0.693   4.765 -0.0087 -1.3152  0.6707
 4583SOL    HW225212   1.869   0.573   4.694 -1.2868  0.7856  0.2968
 4584SOL     OW25213   2.091   0.796   6.672 -0.2146 -0.3473 -0.0053
 4584SOL    HW125214   2.166   0.837   6.715 -1.3267  0.6199  1.0051
 4584SOL    HW225215   2.107   0.830   6.584  1.4664  0.3562  0.5638
 4585SOL     OW25216   3.002   1.842   4.475  0.1048  0.5513 -0.1881
 4585SOL    HW125217   2.939   1.799   4.533  1.7546 -1.0416  0.4293
 4585SOL    HW225218   3.034   1.917   4.526  2.2184 -0.1401 -0.5196
 4586SOL     OW25219   4.473   2.614  10.126 -0.7178  0.4927 -0.4443
 4586SOL    HW125220   4.560   2.580  10.147 -0.1509  0.9085 -2.1156
 4586SOL    HW225221   4.417   2.549  10.168  0.4512 -0.1256  0.1492
 4587SOL     OW25222   2.657   0.987   6.706 -0.3713 -0.1956  0.4214
 4587SOL    HW125223   2.630   1.026   6.623  3.0047  3.4132  1.0251
 4587SOL    HW225224   2.570   0.956   6.734 -0.2216  0.9929  2.1693
 4588SOL     OW25225   3.852   1.021   2.264 -0.0805 -0.3114  0.0679
 4588SOL    HW125226   3.845   0.988   2.174  0.1132  1.5841 -0.6356
 4588SOL    HW225227   3.939   1.060   2.270  0.9016 -2.4067 -0.3213
 4589SOL     OW25228   1.955   1.951   3.122 -0.0881  0.4713 -0.9170
 4589SOL    HW125229   1.912   1.877   3.164  0.9316 -0.1261 -0.9227
 4589SOL    HW225230   1.966   2.007   3.199 -1.7901 -2.7211  1.6427
 4590SOL     OW25231   2.135   0.995   8.163  0.3562  0.2637  0.0761
 4590SOL    HW125232   2.052   1.043   8.170  0.0419 -0.0415 -1.5161
 4590SOL    HW225233   2.198   1.061   8.192  0.3352 -0.6962  2.3183
 4591SOL     OW25234   2.655   0.915  11.659 -0.2399  0.2956 -0.6383
 4591SOL    HW125235   2.720   0.897  11.591 -0.3225 -0.0417 -0.6248
 4591SOL    HW225236   2.704   0.897  11.739  1.0448  1.2506 -1.2037
 4592SOL     OW25237   0.235   4.073   8.556  0.4822 -0.4700  0.0603
 4592SOL    HW125238   0.330   4.082   8.548  0.2325  2.4568  0.4589
 4592SOL    HW225239   0.237   3.994   8.610  1.8447  1.2519  2.5303
 4593SOL     OW25240   4.448   2.373   4.851 -0.2952  0.1843  0.1305
 4593SOL    HW125241   4.374   2.316   4.833 -0.4013  0.9677 -1.9331
 4593SOL    HW225242   4.489   2.370   4.764 -0.7373  2.8091 -0.1805
 4594SOL     OW25243   3.954   2.303   7.720  0.2058 -0.8294  0.2801
 4594SOL    HW125244   3.871   2.268   7.752 -1.5734  1.8361 -1.5284
 4594SOL    HW225245   4.015   2.231   7.740  0.3433 -0.3300  1.6959
 4595SOL     OW25246   1.854   2.211   9.386 -0.5112 -0.0280  0.2486
 4595SOL    HW125247   1.816   2.132   9.424 -0.4420  0.3416  1.0842
 4595SOL    HW225248   1.901   2.163   9.317  0.9925  0.2803  1.0493
 4596SOL     OW25249   2.741   1.739   3.153 -0.3053 -0.2206  0.5521
 4596SOL    HW125250   2.706   1.826   3.170 -0.3802  0.1357 -1.4342
 4596SOL    HW225251   2.798   1.738   3.230 -1.6977 -1.8759  1.5721
 4597SOL     OW25252   0.147   2.329   8.980  0.5403  0.1604 -0.2474
 4597SOL    HW125253   0.091   2.405   8.995 -0.6490 -0.4651 -1.3995
 4597SOL    HW225254   0.142   2.289   9.066  2.0170 -0.1035 -0.2978
 4598SOL     OW25255   3.255   3.175   7.093 -0.1200 -0.1009 -0.4593
 4598SOL    HW125256   3.307   3.191   7.172  0.2704  0.9495 -0.9241
 4598SOL    HW225257   3.321   3.150   7.028  0.9200 -0.1441  0.6248
 4599SOL     OW25258   4.255   1.686   8.745 -0.0380 -0.0762  0.3588
 4599SOL    HW125259   4.329   1.738   8.713 -0.4903  0.5124  0.2531
 4599SOL    HW225260   4.271   1.599   8.710 -1.4707 -0.7706  1.4297
 4600SOL     OW25261   2.500   3.366  10.826  1.0298 -0.2104  0.1684
 4600SOL    HW125262   2.546   3.413  10.896 -0.4239  0.7860  0.4594
 4600SOL    HW225263   2.406   3.371  10.846  1.3377  1.9047  1.1129
 4601SOL     OW25264   0.959   0.584   7.693 -0.5811 -0.2762  0.3580
 4601SOL    HW125265   0.967   0.680   7.692 -2.0788 -0.1733 -1.6302
 4601SOL    HW225266   0.868   0.567   7.719 -1.5371  2.0906 -1.4977
 4602SOL     OW25267   1.854   3.233  10.224 -0.2820  0.0209 -0.3237
 4602SOL    HW125268   1.818   3.300  10.282 -0.1183 -1.3614  1.3601
 4602SOL    HW225269   1.779   3.193  10.181  1.1819 -1.4489 -1.5088
 4603SOL     OW25270   3.337   2.336   8.876  0.0279 -0.2576  0.2176
 4603SOL    HW125271   3.314   2.245   8.854  1.4247 -0.7733  0.9280
 4603SOL    HW225272   3.330   2.347   8.971  0.7257 -0.8608  0.3353
 4604SOL     OW25273   3.401   2.451   1.912  0.6143  0.5459 -0.4215
 4604SOL    HW125274   3.473   2.393   1.887 -1.2043 -2.4828  1.4276
 4604SOL    HW225275   3.431   2.464   2.003 -2.1504 -1.3672  0.7521
 4605SOL     OW25276   0.050   1.536  12.990  0.0672  0.7115  0.4046
 4605SOL    HW125277   0.043   1.591  13.068 -0.6846  3.0338 -1.3065
 4605SOL    HW225278   4.677   1.529  12.977 -0.0619 -1.1817  2.4208
 4606SOL     OW25279   1.759   3.829   4.710  0.3601  0.0118 -0.6179
 4606SOL    HW125280   1.817   3.821   4.635 -0.4621 -1.4882 -1.0770
 4606SOL    HW225281   1.682   3.851   4.659  1.2648  0.5133 -1.7776
 4607SOL     OW25282   1.310   1.222  17.527 -0.1502  0.2269  0.4760
 4607SOL    HW125283   1.303   1.144  17.473  2.9088  1.1468 -1.2070
 4607SOL    HW225284   1.398   1.225  17.563  0.5360  1.8399 -1.3406
 4608SOL     OW25285   2.666   1.302   8.345  0.1455  0.3223 -0.6034
 4608SOL    HW125286   2.697   1.232   8.287 -1.6080  0.1188 -1.2969
 4608SOL    HW225287   2.741   1.335   8.395  0.4108 -0.7364 -0.3149
 4609SOL     OW25288   4.576   3.097   7.178  0.1477 -0.0808 -0.3453
 4609SOL    HW125289   4.653   3.084   7.124  0.9840 -1.6490  1.2073
 4609SOL    HW225290   4.605   3.084   7.269 -0.0313 -0.4158 -0.3338
 4610SOL     OW25291   3.389   1.571   2.990 -0.2771 -0.0740 -0.0208
 4610SOL    HW125292   3.477   1.533   2.987 -0.7789 -1.2632  0.1025
 4610SOL    HW225293   3.382   1.607   2.902 -0.6113 -2.5837 -1.0463
 4611SOL     OW25294   2.054   2.047   6.336  0.0752 -0.0667  0.6044
 4611SOL    HW125295   2.132   1.998   6.360 -0.9784 -1.1338  1.8774
 4611SOL    HW225296   1.982   1.983   6.340 -0.5316  0.6693  1.5300
 4612SOL     OW25297   3.724   4.096   4.245 -0.0545 -0.0213 -0.3006
 4612SOL    HW125298   3.803   4.047   4.268 -0.3588 -0.0303  0.7379
 4612SOL    HW225299   3.741   4.181   4.285  0.9809 -0.2282 -0.2924
 4613SOL     OW25300   2.010   3.688  15.746 -0.0786 -0.0089 -0.3603
 4613SOL    HW125301   1.930   3.646  15.715 -0.2401  0.0268  0.0018
 4613SOL    HW225302   2.037   3.634  15.821 -0.9432  0.3132  0.1897
 4614SOL     OW25303   1.882   1.592  14.761  0.0288 -0.4138  0.1826
 4614SOL    HW125304   1.825   1.558  14.831 -0.2095  0.4924  0.4287
 4614SOL    HW225305   1.831   1.667  14.732 -2.7833 -1.8944  1.2826
 4615SOL     OW25306   3.599   1.640   6.336  0.3842 -0.5686  0.3104
 4615SOL    HW125307   3.629   1.558   6.298  0.8834  0.6577 -1.9292
 4615SOL    HW225308   3.590   1.635   6.431 -0.9566  2.3384  0.3519
 4616SOL     OW25309   4.375   3.909   6.575 -0.3111 -0.3408  0.0725
 4616SOL    HW125310   4.336   3.825   6.550 -0.5615 -0.2858  0.2868
 4616SOL    HW225311   4.315   3.971   6.534 -1.2768 -1.4048 -0.1326
 4617SOL     OW25312   2.032   3.638  10.933 -1.1447 -0.5038  0.3827
 4617SOL    HW125313   2.002   3.550  10.955  0.0611 -1.6601 -2.7001
 4617SOL    HW225314   1.964   3.685  10.885  0.0900 -0.2460 -1.0924
 4618SOL     OW25315   1.536   3.009   2.621  0.0674  0.0849  0.3646
 4618SOL    HW125316   1.622   3.003   2.662 -0.3512 -1.6177  1.0134
 4618SOL    HW225317   1.514   3.102   2.624  3.6400  0.8225  2.8200
 4619SOL     OW25318   3.860   0.811   0.219  0.4592  0.4102  0.1547
 4619SOL    HW125319   3.788   0.863   0.181  0.2728 -0.3420 -0.5255
 4619SOL    HW225320   3.898   0.881   0.272 -0.6565  0.1024  1.3633
 4620SOL     OW25321   2.733   3.844   7.345  0.6392 -0.4180  0.0463
 4620SOL    HW125322   2.829   3.844   7.349  0.6448  3.0586 -0.2751
 4620SOL    HW225323   2.724   3.918   7.406  0.5017 -1.6194  1.4984
 4621SOL     OW25324   4.421   3.514   8.812  0.1941 -0.0148 -0.0010
 4621SOL    HW125325   4.328   3.500   8.795  0.0659 -1.9574  2.2937
 4621SOL    HW225326   4.414   3.561   8.895 -1.7386  2.1400 -1.3880
 4622SOL     OW25327   0.305   1.766  10.285 -0.3189  0.3726 -0.3170
 4622SOL    HW125328   0.349   1.736  10.365 -0.4581 -0.6976 -0.6357
 4622SOL    HW225329   0.229   1.707  10.290 -0.3912  0.3378 -1.8639
 4623SOL     OW25330   1.047   3.827   0.923  0.2012 -0.2097 -0.1936
 4623SOL    HW125331   1.011   3.751   0.968 -2.3929  2.5252  2.3228
 4623SOL    HW225332   1.014   3.899   0.976 -1.5404 -0.2015 -1.2877
 4624SOL     OW25333   3.555   0.875  16.008  0.0888 -0.1688 -0.3101
 4624SOL    HW125334   3.573   0.833  15.924 -2.1174  1.2170 -1.4712
 4624SOL    HW225335   3.533   0.806  16.072 -0.4346  0.0325 -0.2678
 4625SOL     OW25336   1.496   4.341  10.391  0.4069 -0.1199 -0.3539
 4625SOL    HW125337   1.515   4.248  10.391  0.3005 -0.1417 -0.9359
 4625SOL    HW225338   1.567   4.362  10.451 -2.2033 -0.4844  2.8549
 4626SOL     OW25339   4.421   0.538   6.030  0.0775  0.1177  0.3384
 4626SOL    HW125340   4.420   0.633   6.021 -0.7575  0.0052 -0.7053
 4626SOL    HW225341   4.464   0.532   6.116 -1.1574 -1.8536  0.8027
 4627SOL     OW25342   2.056   2.091   0.154  1.0198 -0.3884  0.1195
 4627SOL    HW125343   2.006   2.084   0.072  2.5868 -1.6772 -0.7338
 4627SOL    HW225344   2.027   2.177   0.184 -1.1011 -1.7944  2.0945
 4628SOL     OW25345   4.424   1.366  10.777  0.0965  0.1660 -0.1789
 4628SOL    HW125346   4.489   1.354  10.845  0.7715  1.5714 -0.5753
 4628SOL    HW225347   4.366   1.433  10.814 -0.2600 -0.5791  0.6162
 4629SOL     OW25348   0.284   3.292   5.884  0.4077  0.1688  0.0849
 4629SOL    HW125349   0.240   3.281   5.799 -0.1121  1.1590  0.2205
 4629SOL    HW225350   0.369   3.251   5.868  0.9092  0.6158  1.6286
 4630SOL     OW25351   3.514   1.981   4.660 -0.4435 -0.1340 -0.2152
 4630SOL    HW125352   3.430   1.987   4.705 -0.4693  0.8611 -0.3980
 4630SOL    HW225353   3.479   1.970   4.572  1.3203  0.4909 -0.9978
 4631SOL     OW25354   4.595   3.203   3.125 -0.1708 -0.2888  0.2611
 4631SOL    HW125355   4.543   3.243   3.195 -1.1287 -2.5863  0.8824
 4631SOL    HW225356   4.553   3.239   3.047 -1.8751 -2.6049  0.0999
 4632SOL     OW25357   2.394   2.569   7.295 -0.1695 -0.5887 -0.0976
 4632SOL    HW125358   2.433   2.651   7.265 -3.2058  1.8530  2.6871
 4632SOL    HW225359   2.340   2.607   7.365 -0.5268 -0.3331 -0.5123
 4633SOL     OW25360   1.550   3.943   7.546 -0.1314 -0.5630  0.0853
 4633SOL    HW125361   1.517   3.995   7.620 -1.2584  0.6953 -1.2895
 4633SOL    HW225362   1.642   3.933   7.573 -0.0976 -1.4260 -0.3635
 4634SOL     OW25363   1.673   0.203   3.664 -0.2260 -0.5905  0.0730
 4634SOL    HW125364   1.749   0.237   3.617 -1.2861  0.5941 -0.7815
 4634SOL    HW225365   1.695   0.111   3.646  1.2300 -0.4913  1.3270
 4635SOL     OW25366   2.111   1.731   7.647  0.6538  0.7790 -0.0207
 4635SOL    HW125367   2.180   1.772   7.595  0.4747  0.4259 -0.5422
 4635SOL    HW225368   2.044   1.799   7.642 -0.5061 -0.5995 -3.3248
 4636SOL     OW25369   2.388   3.574   4.852 -0.6099  0.5433  0.4593
 4636SOL    HW125370   2.476   3.539   4.868 -0.8954  1.5727  4.3740
 4636SOL    HW225371   2.334   3.550   4.928 -2.5755  0.1040 -1.0796
 4637SOL     OW25372   0.548   2.435  15.831 -0.2107 -0.4531  0.0843
 4637SOL    HW125373   0.470   2.462  15.783 -1.5460 -0.1648  2.4136
 4637SOL    HW225374   0.580   2.524  15.848  1.2278 -1.2794  1.6268
 4638SOL     OW25375   0.285   2.797   3.961 -0.1783 -0.4593  0.4175
 4638SOL    HW125376   0.205   2.849   3.965 -0.8030 -1.5982  2.7091
 4638SOL    HW225377   0.339   2.840   4.027 -0.1106 -1.9997  1.3785
 4639SOL     OW25378   2.030   0.755   8.274 -0.3168 -0.3422  0.6114
 4639SOL    HW125379   2.081   0.763   8.355 -0.5901  0.4847  0.7027
 4639SOL    HW225380   2.037   0.842   8.235 -0.2361 -1.3094 -1.5419
 4640SOL     OW25381   4.627   1.614   3.836 -0.0714  0.4500  0.4450
 4640SOL    HW125382   4.648   1.673   3.763 -0.9641  1.9675  1.4051
 4640SOL    HW225383   4.711   1.595   3.878  0.0711 -2.4073 -1.1323
 4641SOL     OW25384   2.934   4.136   1.784 -0.0765 -0.1341 -0.2590
 4641SOL    HW125385   2.907   4.168   1.869  0.4954 -1.1766  0.3165
 4641SOL    HW225386   2.863   4.179   1.737 -0.1057  2.0861  1.8734
 4642SOL     OW25387   2.204   1.040  13.691 -0.1868  0.3820  0.3878
 4642SOL    HW125388   2.271   1.043  13.622  0.7686  1.8539  1.3842
 4642SOL    HW225389   2.184   0.947  13.687  0.8077  0.1860  0.2315
 4643SOL     OW25390   4.063   2.820   7.663 -0.4043  0.0654  0.0371
 4643SOL    HW125391   4.108   2.814   7.746  1.7401  1.6581 -1.0203
 4643SOL    HW225392   3.974   2.788   7.677  0.6134 -1.8904  1.9308
 4644SOL     OW25393   0.552   2.169  16.080  0.1199  0.3046  0.4843
 4644SOL    HW125394   0.602   2.087  16.079  1.1853  0.9671 -0.5354
 4644SOL    HW225395   0.509   2.154  15.996 -0.3393  1.5406  0.5023
 4645SOL     OW25396   3.312   1.332   3.504  0.3649 -0.0423 -0.1463
 4645SOL    HW125397   3.295   1.360   3.414  2.3707  1.5531 -0.0227
 4645SOL    HW225398   3.374   1.402   3.526 -1.1950  1.3482 -0.1460
 4646SOL     OW25399   1.654   2.156   7.821  0.4058  0.3148  0.1984
 4646SOL    HW125400   1.619   2.136   7.908 -1.2886  1.8711 -0.1513
 4646SOL    HW225401   1.749   2.140   7.820  0.3154 -0.2873  1.2461
 4647SOL     OW25402   4.310   1.305  13.441  0.0209 -0.6437 -0.1574
 4647SOL    HW125403   4.219   1.319  13.469 -0.2795 -0.0075 -1.4531
 4647SOL    HW225404   4.295   1.232  13.381 -0.1431 -0.7862  0.0549
 4648SOL     OW25405   3.826   2.780   8.600  0.4246  0.4321 -0.1365
 4648SOL    HW125406   3.843   2.817   8.513  0.9229  0.3402 -0.0755
 4648SOL    HW225407   3.755   2.719   8.578  2.5057 -2.4585  1.1537
 4649SOL     OW25408   1.625   2.086   8.314  0.1740  0.1148  0.1223
 4649SOL    HW125409   1.646   2.161   8.371  0.3530  2.1855 -2.6544
 4649SOL    HW225410   1.590   2.019   8.372 -1.3815 -0.1272 -1.1019
 4650SOL     OW25411   3.545   0.846   1.312 -0.2439  0.5527  0.6977
 4650SOL    HW125412   3.493   0.901   1.253  0.6910  0.3343 -0.3316
 4650SOL    HW225413   3.628   0.891   1.298 -0.4362  0.8213  0.4120
 4651SOL     OW25414   3.381   1.562   1.779  0.1281  0.0885  0.5509
 4651SOL    HW125415   3.290   1.589   1.778  0.0957 -0.0818 -1.0954
 4651SOL    HW225416   3.380   1.467   1.788  1.1197  0.1755  1.6081
 4652SOL     OW25417   0.115   0.739  13.227  0.2148 -0.2419  1.2044
 4652SOL    HW125418   0.190   0.796  13.242 -0.7730  0.9797  1.5706
 4652SOL    HW225419   0.132   0.711  13.137 -0.8244 -2.3288  1.6557
 4653SOL     OW25420   2.991   0.655  14.758  0.2876 -0.2163  0.0657
 4653SOL    HW125421   2.929   0.646  14.686  1.5813 -1.2429 -0.9336
 4653SOL    HW225422   2.930   0.652  14.831  1.7580 -0.9729  1.2670
 4654SOL     OW25423   1.709   2.683   6.811  0.4783 -0.5626 -0.9893
 4654SOL    HW125424   1.655   2.604   6.803 -0.2853 -0.3354  2.0536
 4654SOL    HW225425   1.658   2.743   6.756  1.1107  0.1828 -0.7498
 4655SOL     OW25426   3.976   4.250  11.873  0.3123  0.5196  0.3286
 4655SOL    HW125427   3.881   4.236  11.878  0.4467 -0.5081 -0.1435
 4655SOL    HW225428   3.976   4.298  11.790 -0.9507  1.6202  0.9634
 4656SOL     OW25429   1.399   0.853  13.570  0.3291 -0.5480 -0.1304
 4656SOL    HW125430   1.348   0.828  13.492 -0.9519 -0.0477  0.5400
 4656SOL    HW225431   1.389   0.778  13.629 -1.3451 -0.4442 -0.2684
 4657SOL     OW25432   1.335   1.790   8.688 -0.3055 -1.0847 -0.0929
 4657SOL    HW125433   1.354   1.852   8.758  0.1314  0.8247 -1.8836
 4657SOL    HW225434   1.244   1.806   8.664  0.0110  0.0202 -0.5589
 4658SOL     OW25435   3.110   0.426   2.998  0.5064  0.0493  0.2496
 4658SOL    HW125436   3.166   0.371   2.943  1.8153  1.1364  0.5082
 4658SOL    HW225437   3.172   0.493   3.025  0.8534 -0.0698 -0.2414
 4659SOL     OW25438   3.421   1.154   2.357  0.1993 -0.0190  0.3413
 4659SOL    HW125439   3.440   1.088   2.424 -2.6073 -1.4535 -0.3054
 4659SOL    HW225440   3.501   1.207   2.362  0.3728 -0.3351  0.9620
 4660SOL     OW25441   3.262   4.217   4.274  0.4532  0.0144 -0.3248
 4660SOL    HW125442   3.286   4.265   4.353  0.0224  0.1016 -0.2441
 4660SOL    HW225443   3.348   4.188   4.244  0.1996 -0.9514 -0.1300
 4661SOL     OW25444   2.629   3.197  12.552  0.4861  0.6955 -0.1924
 4661SOL    HW125445   2.689   3.138  12.597  0.1274 -0.0165 -0.6475
 4661SOL    HW225446   2.616   3.160  12.465  2.1377 -1.7453  0.5988
 4662SOL     OW25447   0.382   2.359   8.640 -1.1082  0.3228 -0.1409
 4662SOL    HW125448   0.373   2.440   8.590  1.9317 -0.0091 -1.2022
 4662SOL    HW225449   0.380   2.389   8.730  1.0896  0.1345 -0.0244
 4663SOL     OW25450   0.101   3.448   4.611 -0.0592  0.3851 -0.2093
 4663SOL    HW125451   0.043   3.391   4.662  0.6180 -0.1778 -0.0778
 4663SOL    HW225452   0.160   3.378   4.585 -0.3734  0.2751 -0.6297
 4664SOL     OW25453   0.509   4.478   8.045  0.2642  0.3191  0.0562
 4664SOL    HW125454   0.501   4.509   7.955  0.6338 -2.7660 -1.0336
 4664SOL    HW225455   0.424   4.435   8.059  0.1330  0.7192  0.5078
 4665SOL     OW25456   3.366   1.085   0.292 -0.4474  0.1632 -0.4996
 4665SOL    HW125457   3.390   1.028   0.365 -0.5022  1.4035  0.4832
 4665SOL    HW225458   3.401   1.169   0.321  0.1615 -0.5427  0.8246
 4666SOL     OW25459   0.130   1.922   7.051 -0.1318 -0.0469  0.1965
 4666SOL    HW125460   0.045   1.959   7.026 -0.1444 -0.6551 -0.6449
 4666SOL    HW225461   0.111   1.902   7.142  1.3587  0.1073  0.5454
 4667SOL     OW25462   0.013   0.725   6.951  0.0452  0.3132 -0.0155
 4667SOL    HW125463   4.693   0.802   6.991 -0.4698 -0.2290  0.5044
 4667SOL    HW225464   4.661   0.700   6.896  0.1794  0.2433 -0.1619
 4668SOL     OW25465   2.310   1.845   4.360 -0.5126 -0.1133  0.2953
 4668SOL    HW125466   2.373   1.917   4.362  0.1855 -0.7438  0.7146
 4668SOL    HW225467   2.374   1.773   4.362 -2.0305 -1.5047 -1.0341
 4669SOL     OW25468   4.495   4.304   3.092  0.4275 -0.1467  0.0827
 4669SOL    HW125469   4.541   4.264   3.167 -0.3495  2.0773  1.7268
 4669SOL    HW225470   4.402   4.290   3.111  0.5135  0.4588  0.9528
 4670SOL     OW25471   4.019   2.763   3.594  0.0772 -0.3528 -0.2294
 4670SOL    HW125472   3.972   2.681   3.585  0.4948 -0.7985  1.5176
 4670SOL    HW225473   4.036   2.744   3.687  1.6253 -0.0702 -0.4448
 4671SOL     OW25474   2.433   1.003   4.588 -0.0618  0.7609 -0.3563
 4671SOL    HW125475   2.413   1.025   4.497 -1.1331  1.8475  0.1300
 4671SOL    HW225476   2.348   0.965   4.610 -0.3548  1.9606  0.6079
 4672SOL     OW25477   0.295   0.237   0.903  0.0087  0.1451  0.3669
 4672SOL    HW125478   0.357   0.285   0.958 -1.8588  1.7908  1.0775
 4672SOL    HW225479   0.340   0.153   0.894 -4.2226 -2.1690  0.7261
 4673SOL     OW25480   1.520   1.332   3.065 -0.1254  0.0885 -0.2800
 4673SOL    HW125481   1.466   1.265   3.024  2.2617 -0.8129 -1.9388
 4673SOL    HW225482   1.511   1.303   3.155  0.9440 -1.3867 -0.6510
 4674SOL     OW25483   2.518   4.514   5.850 -0.0651  0.1014 -0.2751
 4674SOL    HW125484   2.521   4.496   5.756  0.4617 -0.4379 -0.1581
 4674SOL    HW225485   2.599   4.562   5.866  0.0689  0.6708 -2.7077
 4675SOL     OW25486   3.544   2.473   7.357  0.2196  0.5947  0.0443
 4675SOL    HW125487   3.565   2.439   7.444 -0.7684  0.8402  0.3771
 4675SOL    HW225488   3.524   2.565   7.371 -2.4234  0.0550 -0.0870
 4676SOL     OW25489   4.642   2.887   6.891 -0.3830 -0.5344  0.1374
 4676SOL    HW125490   4.639   2.806   6.941  0.1606  0.2792  1.4935
 4676SOL    HW225491   4.664   2.954   6.956  0.1876 -0.0940 -0.5000
 4677SOL     OW25492   3.581   3.144   6.599  0.2376 -0.4402  0.1824
 4677SOL    HW125493   3.551   3.074   6.541  0.5954  0.1592 -0.7240
 4677SOL    HW225494   3.608   3.099   6.679  0.8054 -1.9588 -0.8601
 4678SOL     OW25495   4.664   2.773   8.064  0.0596  0.1886  0.0511
 4678SOL    HW125496   0.013   2.838   8.070  1.2059 -1.1224  0.6999
 4678SOL    HW225497   4.632   2.778   8.154  0.3897 -0.2351  0.1914
 4679SOL     OW25498   0.028   3.283   6.063 -0.1571 -0.8588  0.1465
 4679SOL    HW125499   0.024   3.187   6.054 -0.2111 -0.8716  0.3195
 4679SOL    HW225500   0.073   3.305   6.144 -1.4594  3.5923 -0.3448
 4680SOL     OW25501   4.197   2.431   5.019 -0.4629 -0.1146 -0.2756
 4680SOL    HW125502   4.174   2.373   4.946  0.3628 -1.0976  0.2573
 4680SOL    HW225503   4.292   2.430   5.023 -0.4236  3.4796  0.1912
 4681SOL     OW25504   0.224   3.566   9.278 -0.9490 -0.2026  0.2508
 4681SOL    HW125505   0.191   3.573   9.189  2.0975  1.4244 -0.7360
 4681SOL    HW225506   0.218   3.655   9.313  0.9620  0.9402 -2.3662
 4682SOL     OW25507   3.308   2.799  15.871  0.4425 -0.4104 -0.6887
 4682SOL    HW125508   3.378   2.754  15.918  2.0329  2.0816 -0.6712
 4682SOL    HW225509   3.310   2.764  15.782  1.1663  1.8708 -1.5727
 4683SOL     OW25510   1.553   0.281   7.567 -0.4944  0.0769 -0.0046
 4683SOL    HW125511   1.486   0.226   7.528 -0.9664 -0.4793  1.6207
 4683SOL    HW225512   1.505   0.306   7.646 -1.2268 -0.6377 -0.2264
 4684SOL     OW25513   4.101   1.181   2.279  0.5294  0.0399 -0.4722
 4684SOL    HW125514   4.180   1.227   2.307 -0.4444  1.0410  0.6468
 4684SOL    HW225515   4.040   1.254   2.288  1.1134  0.6924 -2.0146
 4685SOL     OW25516   2.106   3.285  12.398 -0.2368  0.3844 -0.2071
 4685SOL    HW125517   2.070   3.349  12.336 -1.5350 -0.7793 -0.6748
 4685SOL    HW225518   2.046   3.257  12.467  0.0713 -0.6775 -0.3629
 4686SOL     OW25519   3.502   2.457   2.927 -0.0446 -0.1198 -0.5881
 4686SOL    HW125520   3.560   2.462   2.851 -1.5461  0.2414 -1.7258
 4686SOL    HW225521   3.421   2.428   2.886  1.0610  0.4657 -3.1877
 4687SOL     OW25522   0.657   1.234  11.380 -0.1035 -0.4157 -0.3910
 4687SOL    HW125523   0.700   1.317  11.401 -0.1269 -0.6834  0.7108
 4687SOL    HW225524   0.570   1.264  11.355  0.8054 -0.0372 -3.0768
 4688SOL     OW25525   0.114   3.146   5.657  0.6489 -0.1350  0.3274
 4688SOL    HW125526   0.129   3.074   5.719  1.4022 -0.9387 -0.7801
 4688SOL    HW225527   0.163   3.107   5.585 -0.0712  0.8285 -0.6856
 4689SOL     OW25528   4.116   1.683   8.983  0.3337 -0.1968  0.6999
 4689SOL    HW125529   4.073   1.655   8.902  2.7818  0.2728 -0.7817
 4689SOL    HW225530   4.210   1.679   8.964  0.2942 -0.0097  0.4608
 4690SOL     OW25531   1.962   2.915   3.884  0.2443  0.4548  0.3808
 4690SOL    HW125532   2.049   2.920   3.924 -0.6351 -1.9577  2.5808
 4690SOL    HW225533   1.979   2.941   3.793 -0.1023 -0.3731  0.0787
 4691SOL     OW25534   1.804   0.897   6.591  0.3218 -0.2911 -0.3113
 4691SOL    HW125535   1.756   0.923   6.670  2.6052  2.1780  0.2465
 4691SOL    HW225536   1.886   0.856   6.619  0.8625  0.4733 -0.7978
 4692SOL     OW25537   4.618   2.523   2.027 -0.2411 -0.0341  0.2924
 4692SOL    HW125538   4.540   2.548   2.076  0.0476  1.3869  0.0398
 4692SOL    HW225539   4.598   2.433   2.000  1.9750 -0.6849  0.8241
 4693SOL     OW25540   2.804   1.941   7.893 -0.5369 -0.2122  0.3681
 4693SOL    HW125541   2.729   1.881   7.893  1.0130 -2.1153  0.4785
 4693SOL    HW225542   2.823   1.943   7.800  1.7801  0.5012  0.8614
 4694SOL     OW25543   3.615   0.817   2.995  0.2978 -0.0270 -0.1709
 4694SOL    HW125544   3.616   0.866   3.077 -4.0067 -1.3408  0.6749
 4694SOL    HW225545   3.640   0.730   3.026  2.4351  0.5035 -0.4033
 4695SOL     OW25546   2.825   1.163   2.211 -0.4117 -0.1796 -0.4555
 4695SOL    HW125547   2.788   1.113   2.284 -0.4015 -1.0545 -1.0508
 4695SOL    HW225548   2.906   1.116   2.190  0.4545  1.5771 -1.0164
 4696SOL     OW25549   3.344   4.553   4.674 -0.3138 -0.6034  0.7313
 4696SOL    HW125550   3.420   4.510   4.635  0.2146  0.9073  0.1051
 4696SOL    HW225551   3.312   4.480   4.727 -0.1139 -1.0707  0.2089
 4697SOL     OW25552   3.802   1.917   4.378 -0.1949  0.5501 -0.6536
 4697SOL    HW125553   3.861   1.991   4.364 -0.2137  0.6221 -0.3540
 4697SOL    HW225554   3.787   1.934   4.471 -0.0006 -1.4130 -0.2677
 4698SOL     OW25555   2.121   0.145  10.019  0.1572 -0.0669  0.2340
 4698SOL    HW125556   2.123   0.134  10.114  1.4331 -1.6660  0.0132
 4698SOL    HW225557   2.202   0.104   9.988  0.4938 -0.4067  1.5498
 4699SOL     OW25558   2.071   0.082   4.340  0.0358 -0.1873  0.0687
 4699SOL    HW125559   2.056   0.151   4.275 -0.5269 -3.0962 -2.9072
 4699SOL    HW225560   2.159   0.106   4.369 -0.9086  1.5727  1.4736
 4700SOL     OW25561   4.466   0.313   2.850 -0.2192  0.3311 -0.0659
 4700SOL    HW125562   4.396   0.375   2.871 -1.3232 -1.4938  1.6664
 4700SOL    HW225563   4.510   0.358   2.778  0.1868  0.2126  0.1084
 4701SOL     OW25564   0.816   3.951   8.750 -0.0373 -0.2237  0.7843
 4701SOL    HW125565   0.864   3.877   8.788  2.2063  0.7994 -0.0871
 4701SOL    HW225566   0.751   3.952   8.820  1.1597  0.8113  1.8855
 4702SOL     OW25567   3.000   3.811   7.373  0.0852 -0.0098 -0.4460
 4702SOL    HW125568   3.092   3.785   7.365  0.1618  0.0790  0.0848
 4702SOL    HW225569   2.975   3.752   7.445 -0.8685  1.1054  0.1431
 4703SOL     OW25570   0.774   3.565   8.548 -0.5185 -0.0640 -0.5665
 4703SOL    HW125571   0.861   3.529   8.534 -0.1598  0.9340 -0.8742
 4703SOL    HW225572   0.767   3.549   8.643  1.0592 -0.7744 -0.5703
 4704SOL     OW25573   1.090   2.197  10.481 -0.5132 -0.3492  0.1037
 4704SOL    HW125574   1.116   2.160  10.566  0.8862 -2.5956 -1.3178
 4704SOL    HW225575   1.025   2.134  10.452 -0.3282 -0.7428  0.5393
 4705SOL     OW25576   4.121   1.567   2.767 -0.1349  0.0450 -0.4765
 4705SOL    HW125577   4.147   1.626   2.696 -1.0002  1.4311  0.3687
 4705SOL    HW225578   4.047   1.614   2.806  1.5277  1.0424  1.4546
 4706SOL     OW25579   1.170   0.565   5.627 -0.2939 -0.2754  0.4932
 4706SOL    HW125580   1.246   0.603   5.672 -0.5422  2.7828 -1.6732
 4706SOL    HW225581   1.157   0.631   5.559 -2.2643 -1.1586  0.0129
 4707SOL     OW25582   0.955   2.148   5.431 -0.3338 -0.3587 -0.2211
 4707SOL    HW125583   0.886   2.212   5.410  1.5406  1.1730 -1.7063
 4707SOL    HW225584   1.029   2.195   5.392  0.4416 -1.2017  0.2447
 4708SOL     OW25585   0.425   2.855   8.588 -0.7344 -0.0919  0.4890
 4708SOL    HW125586   0.500   2.854   8.647  1.2803  0.2440 -2.1130
 4708SOL    HW225587   0.469   2.840   8.505 -1.9678 -0.2874 -0.1351
 4709SOL     OW25588   1.973   2.346   9.997  0.1927 -0.2062 -0.4638
 4709SOL    HW125589   1.962   2.307  10.084  0.4171  0.5311 -0.1054
 4709SOL    HW225590   2.050   2.398  10.021 -0.9752  0.3214  2.2208
 4710SOL     OW25591   0.823   2.140   0.629 -0.1948  0.1321 -0.2235
 4710SOL    HW125592   0.856   2.088   0.556  1.5838 -2.1068  2.1717
 4710SOL    HW225593   0.731   2.159   0.611 -0.5462 -3.4007 -2.1037
 4711SOL     OW25594   1.725   3.758  13.269 -0.4288 -0.0630  0.4363
 4711SOL    HW125595   1.694   3.782  13.182  0.2975 -3.0195 -0.6365
 4711SOL    HW225596   1.749   3.839  13.315 -1.6147  0.6406 -0.1735
 4712SOL     OW25597   3.672   3.271   5.812 -0.1996  0.0327  0.2097
 4712SOL    HW125598   3.735   3.285   5.883 -1.6651  2.7904  0.9623
 4712SOL    HW225599   3.699   3.181   5.791  0.2484  1.0521 -3.5646
 4713SOL     OW25600   3.071   0.346   4.860 -0.3984  0.1944  0.1333
 4713SOL    HW125601   3.166   0.362   4.854 -0.4132  0.8462  1.6875
 4713SOL    HW225602   3.042   0.367   4.772  0.9210  1.8239  0.0812
 4714SOL     OW25603   2.364   1.303  14.881 -0.1227  0.9692  0.2060
 4714SOL    HW125604   2.389   1.257  14.801  0.1886 -0.2025  0.9670
 4714SOL    HW225605   2.397   1.392  14.870 -1.6621  1.6771  1.2803
 4715SOL     OW25606   2.910   0.782   2.675 -0.2810  0.6825 -0.3821
 4715SOL    HW125607   2.862   0.858   2.708 -0.3771  0.9334 -1.1041
 4715SOL    HW225608   2.859   0.709   2.712  0.4487  0.3197 -0.0813
 4716SOL     OW25609   2.298   1.440  16.352  0.0011 -0.4134 -0.0263
 4716SOL    HW125610   2.328   1.531  16.353 -0.5749 -0.1872 -3.4850
 4716SOL    HW225611   2.268   1.424  16.442  0.1384  2.6319  0.5724
 4717SOL     OW25612   0.749   3.811   1.744  0.2717  0.4150  0.5760
 4717SOL    HW125613   0.838   3.845   1.745 -0.8187  3.2814 -0.8192
 4717SOL    HW225614   0.753   3.718   1.769 -0.0332 -0.6521 -3.3829
 4718SOL     OW25615   3.602   0.438  10.997  0.1001 -0.2758 -0.4684
 4718SOL    HW125616   3.547   0.496  11.050  0.3016 -0.3303 -0.2019
 4718SOL    HW225617   3.628   0.496  10.924 -2.0278  1.3360  0.0361
 4719SOL     OW25618   4.612   1.555   4.559  0.1152 -0.0949 -0.7462
 4719SOL    HW125619   4.560   1.540   4.638 -1.4166 -1.5906 -2.0551
 4719SOL    HW225620   4.626   1.463   4.533 -1.8496 -0.3050 -1.0224
 4720SOL     OW25621   2.119   3.818   5.562  0.1520  0.0198 -0.1700
 4720SOL    HW125622   2.150   3.852   5.646 -1.6609 -0.6301  0.7898
 4720SOL    HW225623   2.159   3.732   5.555 -0.6113 -0.4097  0.6732
 4721SOL     OW25624   4.449   3.308   8.233  0.1272  0.7296  0.5526
 4721SOL    HW125625   4.422   3.393   8.199  2.0772  1.5270  0.9837
 4721SOL    HW225626   4.454   3.333   8.326  1.6462 -1.0357  0.9455
 4722SOL     OW25627   0.096   3.648   7.198  0.1012 -0.1069  0.4276
 4722SOL    HW125628   0.113   3.554   7.187 -1.9384 -0.4689  0.3842
 4722SOL    HW225629   0.030   3.667   7.131 -0.4833  0.2415  1.0955
 4723SOL     OW25630   1.047   1.840   4.981  0.1701 -0.5109  0.2754
 4723SOL    HW125631   1.095   1.922   4.983 -0.7599  0.0510 -0.6587
 4723SOL    HW225632   1.005   1.849   4.895  1.5476 -1.1287 -0.4684
 4724SOL     OW25633   2.055   4.496   2.346 -0.3293 -0.4023  0.0515
 4724SOL    HW125634   2.146   4.475   2.367 -0.0545  0.7598  0.0214
 4724SOL    HW225635   2.036   4.544   2.426 -0.0122 -0.4486  0.1557
 4725SOL     OW25636   2.676   3.579  13.883  0.8693  0.0657 -0.2697
 4725SOL    HW125637   2.667   3.632  13.804  1.0250  0.7658  0.1835
 4725SOL    HW225638   2.720   3.500  13.850 -1.6167 -0.9575 -1.1625
 4726SOL     OW25639   1.189   3.513   7.411 -0.0107 -0.4449 -0.0988
 4726SOL    HW125640   1.117   3.458   7.379  0.4134 -0.5650 -0.8555
 4726SOL    HW225641   1.208   3.480   7.499  0.1038  2.2395  0.9002
 4727SOL     OW25642   2.375   4.604  16.919  0.1684 -0.0378  0.2678
 4727SOL    HW125643   2.464   4.602  16.885  1.4322  0.1662  3.5149
 4727SOL    HW225644   2.336   4.589  16.833 -1.5074  1.4184  0.7630
 4728SOL     OW25645   4.618   3.360  10.568 -0.3568 -0.3636 -0.7863
 4728SOL    HW125646   4.534   3.392  10.535 -1.8959 -3.2109  0.4448
 4728SOL    HW225647   4.594   3.353  10.660  1.0463  1.7603 -0.2544
 4729SOL     OW25648   2.673   3.014   6.612 -0.2183  0.1617 -0.5723
 4729SOL    HW125649   2.730   2.950   6.655 -1.0088 -0.3117 -0.2351
 4729SOL    HW225650   2.587   2.977   6.633  0.8942 -2.4449 -0.6154
 4730SOL     OW25651   4.027   2.959  10.234  0.0230  0.3298  0.1415
 4730SOL    HW125652   4.061   3.032  10.285 -2.3498 -0.2894  2.5650
 4730SOL    HW225653   4.036   2.885  10.294 -1.7686  1.3449  1.6226
 4731SOL     OW25654   0.589   1.391   8.735  0.2574  0.5998 -0.2766
 4731SOL    HW125655   0.645   1.320   8.767 -0.6230  0.7996  1.7316
 4731SOL    HW225656   0.629   1.404   8.650 -0.5565  0.0848 -0.7372
 4732SOL     OW25657   3.954   3.642   6.358 -0.0675 -0.0934  0.2197
 4732SOL    HW125658   4.049   3.635   6.365 -0.1984 -2.8989 -0.9449
 4732SOL    HW225659   3.916   3.564   6.398 -0.5009 -0.4972 -0.9589
 4733SOL     OW25660   2.083   0.134   6.056  0.0977 -0.4443 -0.2628
 4733SOL    HW125661   2.149   0.197   6.085 -1.6131  0.5111  1.5432
 4733SOL    HW225662   2.086   0.060   6.116  2.0105 -0.5875 -0.5361
 4734SOL     OW25663   1.188   0.826   2.382 -0.2318 -0.2849  0.1447
 4734SOL    HW125664   1.191   0.920   2.397 -0.3987 -0.2337 -0.1398
 4734SOL    HW225665   1.134   0.812   2.303  2.4836 -0.0145 -1.7607
 4735SOL     OW25666   3.960   3.562  11.355  0.5830  0.6460  0.0470
 4735SOL    HW125667   4.033   3.542  11.297  0.6223 -0.9322  0.6345
 4735SOL    HW225668   3.893   3.588  11.292 -0.3663  0.6198  1.0339
 4736SOL     OW25669   1.196   4.565  10.514  0.3750 -0.3866 -1.0549
 4736SOL    HW125670   1.167   4.479  10.544  2.3357 -1.6614 -2.7679
 4736SOL    HW225671   1.289   4.556  10.537  0.2545 -0.9888 -0.7914
 4737SOL     OW25672   3.159   3.354   3.988  0.2344  1.1154 -0.4371
 4737SOL    HW125673   3.116   3.269   3.998  0.2047  1.0628 -1.0070
 4737SOL    HW225674   3.190   3.343   3.898  0.9883  0.0688 -0.0548
 4738SOL     OW25675   1.725   2.598  15.435  0.2779  0.1519 -0.2648
 4738SOL    HW125676   1.720   2.621  15.342 -0.0634  0.1162 -0.2559
 4738SOL    HW225677   1.741   2.503  15.431  1.2475  0.3092 -0.0674
 4739SOL     OW25678   4.683   1.583  11.973 -0.1143 -0.3895 -0.7775
 4739SOL    HW125679   4.615   1.537  12.023  2.0393 -1.6514  1.0019
 4739SOL    HW225680   0.035   1.536  12.013 -0.2497  0.7790  0.8972
 4740SOL     OW25681   0.008   3.569   7.923 -0.0096  0.4365 -0.0242
 4740SOL    HW125682   4.640   3.536   7.911  0.3660  0.1274 -1.9803
 4740SOL    HW225683   4.718   3.645   7.980 -0.9600 -1.3772  2.2212
 4741SOL     OW25684   0.039   0.851   4.867  0.4718 -0.8827  0.1940
 4741SOL    HW125685   0.039   0.836   4.961  2.6443  0.2337  0.3755
 4741SOL    HW225686   4.672   0.888   4.859  0.3060 -1.2584  0.3016
 4742SOL     OW25687   0.657   2.909   6.733  0.2442  0.3481 -0.3092
 4742SOL    HW125688   0.697   2.873   6.812 -1.0984  2.3638  1.2768
 4742SOL    HW225689   0.592   2.967   6.772  1.6752  1.7297  0.0197
 4743SOL     OW25690   2.858   2.910   4.631  0.0930  0.8728  0.7467
 4743SOL    HW125691   2.848   2.826   4.586  1.6197  1.7238 -1.1762
 4743SOL    HW225692   2.767   2.930   4.654  0.6116  2.8092  1.1455
 4744SOL     OW25693   0.346   1.657  11.442  0.3497  0.8537  0.4696
 4744SOL    HW125694   0.262   1.672  11.399  0.9859 -1.7138 -1.6134
 4744SOL    HW225695   0.362   1.732  11.501  0.7437  3.1263 -2.5220
 4745SOL     OW25696   2.195   1.133   3.744  0.0851 -0.5732  0.3262
 4745SOL    HW125697   2.104   1.155   3.762 -0.0105 -0.6320 -0.0930
 4745SOL    HW225698   2.238   1.218   3.730 -3.1902  1.2004  1.0548
 4746SOL     OW25699   1.894   0.413   2.313  0.0295 -0.3652 -0.0164
 4746SOL    HW125700   1.943   0.493   2.295 -1.5509 -0.1344 -3.2303
 4746SOL    HW225701   1.813   0.406   2.262 -0.6213 -4.2222  1.5394
 4747SOL     OW25702   3.119   4.123   3.564 -0.0620  0.0586  0.5870
 4747SOL    HW125703   3.066   4.059   3.518  1.8552 -0.7497 -0.4888
 4747SOL    HW225704   3.141   4.068   3.639  1.0388  4.0329  3.1600
 4748SOL     OW25705   2.473   2.755   7.775  0.1290  0.0446 -0.1694
 4748SOL    HW125706   2.519   2.700   7.839  1.8214  2.0472  0.3096
 4748SOL    HW225707   2.514   2.839   7.795 -0.2855 -0.0432  1.1157
 4749SOL     OW25708   1.036   4.199   6.048 -0.2976 -0.9054  0.5850
 4749SOL    HW125709   0.981   4.257   6.100 -1.5195 -1.8156  0.3164
 4749SOL    HW225710   1.065   4.137   6.115 -0.2300 -0.8802  0.5791
 4750SOL     OW25711   4.294   2.459   1.182 -0.3119  0.0957 -0.4012
 4750SOL    HW125712   4.240   2.382   1.199 -0.6099  0.2232 -0.7800
 4750SOL    HW225713   4.254   2.491   1.101  2.0839 -0.9303 -2.0095
 4751SOL     OW25714   3.438   1.118  15.991  0.0362 -0.2596  0.2334
 4751SOL    HW125715   3.496   1.151  15.922 -2.1171 -1.6439 -2.2344
 4751SOL    HW225716   3.480   1.032  16.001 -1.0253 -0.9562 -1.2927
 4752SOL     OW25717   1.876   0.195   4.541  0.1804 -0.5407 -0.4994
 4752SOL    HW125718   1.855   0.117   4.592  0.5938 -1.8864 -2.3622
 4752SOL    HW225719   1.960   0.174   4.500  0.0912 -1.7119 -0.0632
 4753SOL     OW25720   2.689   0.071  14.853  0.0549  0.7268  0.5202
 4753SOL    HW125721   2.779   0.100  14.837  0.0663  0.4858  0.1516
 4753SOL    HW225722   2.692   4.705  14.812  0.7645  0.1074  1.8540
 4754SOL     OW25723   4.491   1.010   6.158 -0.5393 -0.1485 -0.2017
 4754SOL    HW125724   4.431   0.953   6.206 -0.0207  0.9474  1.7517
 4754SOL    HW225725   4.572   1.002   6.209 -2.1318 -1.2828  2.1153
 4755SOL     OW25726   2.371   3.687  16.579 -0.0925  0.0812  0.2211
 4755SOL    HW125727   2.456   3.700  16.537 -0.3086  2.7468  0.6080
 4755SOL    HW225728   2.362   3.766  16.632  0.2180 -1.0622  1.9755
 4756SOL     OW25729   2.975   0.478   1.241 -0.2479 -0.0298  0.5865
 4756SOL    HW125730   2.899   0.537   1.248  0.0463  0.4951 -0.8215
 4756SOL    HW225731   2.954   0.391   1.276  3.0442 -0.7684  0.6807
 4757SOL     OW25732   3.783   1.200   4.369 -0.1047  0.2292 -0.2460
 4757SOL    HW125733   3.696   1.222   4.336 -0.1483  2.8622  1.5993
 4757SOL    HW225734   3.838   1.221   4.293 -4.0768 -0.7541 -3.3685
 4758SOL     OW25735   4.707   0.525   5.260 -0.0282 -0.1241 -0.8115
 4758SOL    HW125736   0.011   0.555   5.348  0.0267  0.2463 -0.9538
 4758SOL    HW225737   4.663   0.441   5.275  0.6073  0.1125  2.3649
 4759SOL     OW25738   2.104   4.450   1.707  0.1263  0.1716  0.4680
 4759SOL    HW125739   2.068   4.366   1.679 -0.7602  0.8280 -0.3256
 4759SOL    HW225740   2.072   4.494   1.628  0.4634 -0.6411 -0.1213
 4760SOL     OW25741   1.544   2.911   7.613 -0.1225  0.1701  0.0086
 4760SOL    HW125742   1.478   2.843   7.597 -1.3926  1.7957 -1.5523
 4760SOL    HW225743   1.484   2.984   7.602 -2.4903 -2.1135 -2.2302
 4761SOL     OW25744   3.961   2.094   5.093  0.0457 -0.1159 -0.3597
 4761SOL    HW125745   3.980   2.052   5.177  1.4103  0.7735 -0.2252
 4761SOL    HW225746   3.886   2.047   5.058 -1.3778  2.4515 -0.7834
 4762SOL     OW25747   4.259   3.684   3.670 -0.3385 -0.3414  0.3125
 4762SOL    HW125748   4.196   3.614   3.689 -2.0118  1.3409  0.8606
 4762SOL    HW225749   4.334   3.643   3.714  0.4820 -0.4334 -1.1715
 4763SOL     OW25750   3.161   0.536  11.515  0.4868  0.1203 -0.1840
 4763SOL    HW125751   3.193   0.621  11.487 -2.6038  0.8655 -1.4829
 4763SOL    HW225752   3.178   0.543  11.609 -1.0826 -0.3054  0.1396
 4764SOL     OW25753   0.385   3.089  11.946 -0.8861 -0.1839  0.1865
 4764SOL    HW125754   0.436   3.030  12.002  0.0200  1.3400  0.9781
 4764SOL    HW225755   0.433   3.172  11.951  0.0435 -0.6585 -0.8609
 4765SOL     OW25756   3.900   3.275   2.501 -0.1195 -0.5470 -0.1164
 4765SOL    HW125757   3.962   3.315   2.440 -1.6939  0.5657 -0.9938
 4765SOL    HW225758   3.961   3.247   2.568 -0.6342  0.3961  0.7463
 4766SOL     OW25759   1.380   3.468   5.420 -0.1462  0.4965 -0.0705
 4766SOL    HW125760   1.446   3.460   5.489  1.1681 -1.7599 -1.5902
 4766SOL    HW225761   1.308   3.504   5.472  0.0739 -0.8787  1.1548
 4767SOL     OW25762   1.213   2.793  17.284 -0.3004 -0.0780  0.0361
 4767SOL    HW125763   1.302   2.757  17.289 -0.3699 -0.3695 -0.7632
 4767SOL    HW225764   1.203   2.828  17.373  2.2860  1.4789 -0.2734
 4768SOL     OW25765   4.246   1.235  11.512 -0.4216  0.1193  0.2080
 4768SOL    HW125766   4.206   1.322  11.518  0.9830  1.0093 -3.4478
 4768SOL    HW225767   4.309   1.245  11.440  0.0815  1.9969  0.9111
 4769SOL     OW25768   0.344   2.300  17.332 -0.1625 -0.2610 -0.2642
 4769SOL    HW125769   0.351   2.279  17.425 -1.9222  1.2012  0.1972
 4769SOL    HW225770   0.312   2.390  17.335 -0.5961 -0.5336  3.4081
 4770SOL     OW25771   0.444   4.061   3.058  0.0587  0.4852 -0.3702
 4770SOL    HW125772   0.442   4.001   2.984  1.7408  0.8765 -0.7238
 4770SOL    HW225773   0.376   4.023   3.114  0.3843 -1.2094 -1.1338
 4771SOL     OW25774   2.962   0.008   6.465  0.2321  0.4480 -0.4845
 4771SOL    HW125775   2.901   4.684   6.523  2.1851 -2.4761 -0.6759
 4771SOL    HW225776   3.045   0.011   6.514  0.8323 -0.4431 -1.4370
 4772SOL     OW25777   2.492   0.634   7.485 -0.2569 -0.1443  0.2213
 4772SOL    HW125778   2.436   0.591   7.420  0.1980  0.7899 -0.7974
 4772SOL    HW225779   2.566   0.574   7.489 -1.1100 -1.2226 -0.1924
 4773SOL     OW25780   1.470   2.504   6.435 -0.3466  0.0330  0.4989
 4773SOL    HW125781   1.505   2.424   6.474  0.3656 -0.1186 -0.4432
 4773SOL    HW225782   1.385   2.469   6.410  0.7446 -1.1326 -1.5866
 4774SOL     OW25783   1.273   3.616   5.809  0.4619  0.2453 -0.2503
 4774SOL    HW125784   1.337   3.686   5.817  0.6049  0.1705 -0.7651
 4774SOL    HW225785   1.329   3.546   5.844 -0.1172  0.0112  0.2152
 4775SOL     OW25786   3.099   1.911  17.049 -0.1349 -0.1144 -0.2925
 4775SOL    HW125787   3.085   1.912  17.144 -2.3848  0.8752 -0.6340
 4775SOL    HW225788   3.194   1.916  17.049 -0.0443 -1.7365 -0.3660
 4776SOL     OW25789   0.969   2.146   5.728  0.4861 -0.3217 -0.3130
 4776SOL    HW125790   1.059   2.176   5.738 -0.0934  1.0481  0.6337
 4776SOL    HW225791   0.958   2.156   5.633 -1.2273  1.3669  0.0697
 4777SOL     OW25792   3.809   1.386   7.465 -0.2639  0.2298 -0.0143
 4777SOL    HW125793   3.828   1.446   7.537  1.2046 -0.1569 -0.0999
 4777SOL    HW225794   3.714   1.386   7.482 -0.3225  2.9186 -0.2516
 4778SOL     OW25795   2.824   3.854  14.783 -0.1614 -0.3149 -0.6149
 4778SOL    HW125796   2.755   3.792  14.761 -1.0452  0.9307 -1.3678
 4778SOL    HW225797   2.898   3.799  14.807 -0.1528 -0.7061 -1.5527
 4779SOL     OW25798   0.927   2.676   0.355 -0.8755 -0.4161 -0.1035
 4779SOL    HW125799   0.915   2.652   0.447  2.4116  1.2035  0.7419
 4779SOL    HW225800   1.023   2.676   0.354 -0.8796  0.4955 -0.5124
 4780SOL     OW25801   4.618   3.584   9.823  0.2607  0.4889 -0.0595
 4780SOL    HW125802   4.603   3.500   9.866 -0.5986  0.6391 -0.0793
 4780SOL    HW225803   4.624   3.638   9.901  0.2236  2.3007 -1.3002
 4781SOL     OW25804   2.486   3.680  11.104 -0.4368  0.2379  0.8320
 4781SOL    HW125805   2.434   3.607  11.136  0.0561 -0.3520  0.2828
 4781SOL    HW225806   2.463   3.753  11.162 -1.2815  0.5633  0.0830
 4782SOL     OW25807   2.537   4.455  14.356 -0.1129 -0.0909 -0.0628
 4782SOL    HW125808   2.597   4.528  14.340  0.4108 -0.6410 -0.6699
 4782SOL    HW225809   2.565   4.416  14.438  2.5911  1.6021 -0.1856
 4783SOL     OW25810   2.244   2.369   6.013 -0.1996  0.2675  0.1303
 4783SOL    HW125811   2.256   2.385   6.106  0.5887 -1.4154  0.3209
 4783SOL    HW225812   2.240   2.273   6.011 -2.5093  0.3654  0.4096
 4784SOL     OW25813   1.000   2.480   5.107  0.1137  0.3640 -1.0366
 4784SOL    HW125814   1.037   2.567   5.116  0.0443  0.4170 -1.2502
 4784SOL    HW225815   0.918   2.495   5.154  1.9902  1.0813  1.9551
 4785SOL     OW25816   1.941   2.463   4.179 -0.1039  0.3299  0.5373
 4785SOL    HW125817   1.938   2.545   4.228 -0.6367  0.7285 -0.1489
 4785SOL    HW225818   1.862   2.416   4.206  0.9011 -1.9776 -0.5042
 4786SOL     OW25819   4.283   0.565  16.504  0.3972 -0.1868 -0.5098
 4786SOL    HW125820   4.345   0.496  16.528 -0.9701 -1.1213  0.3242
 4786SOL    HW225821   4.228   0.559  16.582 -2.5134  0.2652 -2.5038
 4787SOL     OW25822   1.504   1.460   4.348 -0.2593  0.5536  0.0822
 4787SOL    HW125823   1.564   1.421   4.284 -0.6950  1.1274 -0.6653
 4787SOL    HW225824   1.571   1.509   4.396 -1.1165 -0.7155  2.5926
 4788SOL     OW25825   2.031   1.063   0.436  0.2829 -0.0816 -0.0146
 4788SOL    HW125826   2.026   1.158   0.426  1.5741  0.0036  0.1621
 4788SOL    HW225827   2.111   1.053   0.487 -0.6790 -0.8775  1.3527
 4789SOL     OW25828   4.651   3.908   7.805  0.0583 -0.1894 -0.0711
 4789SOL    HW125829   4.596   3.832   7.785  0.9696 -0.0455 -3.0200
 4789SOL    HW225830   4.705   3.916   7.726  0.7873 -0.1623  0.4314
 4790SOL     OW25831   3.105   1.355   4.996  0.3773  0.5898  0.2287
 4790SOL    HW125832   3.055   1.274   5.008  0.3729  0.3166 -1.5938
 4790SOL    HW225833   3.155   1.376   5.075  0.4511 -0.1993  0.3892
 4791SOL     OW25834   0.042   4.239   9.417 -0.6037  0.0799  0.3469
 4791SOL    HW125835   0.118   4.290   9.388 -0.2117  1.0072  3.0405
 4791SOL    HW225836   0.043   4.256   9.511 -0.6714 -2.8635  0.8768
 4792SOL     OW25837   1.788   2.307  15.664 -0.5782 -0.1411  0.2910
 4792SOL    HW125838   1.840   2.256  15.726  0.4887  0.4051 -0.1498
 4792SOL    HW225839   1.698   2.276  15.677 -0.6226  0.3684  1.2227
 4793SOL     OW25840   1.675   3.891   7.177 -0.7170  0.3135  0.1508
 4793SOL    HW125841   1.612   3.824   7.201 -0.9538  0.3627 -0.3270
 4793SOL    HW225842   1.729   3.884   7.256  2.7729 -1.6776 -2.4217
 4794SOL     OW25843   3.988   4.475   2.366  0.6888  0.1233 -0.2870
 4794SOL    HW125844   3.941   4.486   2.284 -1.6717 -4.1967  0.4732
 4794SOL    HW225845   4.069   4.434   2.335  2.9659  1.9872  3.3282
 4795SOL     OW25846   2.162   0.661  14.957 -0.2849 -0.0745 -0.2190
 4795SOL    HW125847   2.160   0.652  14.861  1.6534  1.6215 -0.3983
 4795SOL    HW225848   2.135   0.572  14.980 -1.0468  0.5296  1.2116
 4796SOL     OW25849   1.369   0.967  10.818 -0.0984  0.1477 -0.6032
 4796SOL    HW125850   1.356   0.933  10.907 -0.8534  0.3528 -0.6392
 4796SOL    HW225851   1.439   0.910  10.786  1.7900  3.0834 -1.6819
 4797SOL     OW25852   2.323   2.837  11.904 -0.0355  0.1769  0.1205
 4797SOL    HW125853   2.267   2.836  11.826 -0.5243  2.7404  0.4393
 4797SOL    HW225854   2.300   2.920  11.946 -1.8146 -0.1546 -0.1840
 4798SOL     OW25855   3.250   4.142   6.032 -0.2252 -0.0343  0.5796
 4798SOL    HW125856   3.345   4.153   6.040 -0.4950  3.2897 -0.9476
 4798SOL    HW225857   3.239   4.107   5.944  0.1462 -0.3617  0.6631
 4799SOL     OW25858   3.132   4.495   8.536  0.3524  0.1470  0.0653
 4799SOL    HW125859   3.071   4.558   8.574 -0.3843 -0.2644 -0.4407
 4799SOL    HW225860   3.215   4.540   8.552 -0.3822  2.5175 -2.9532
 4800SOL     OW25861   2.276   3.063   4.681  0.5188 -0.0898 -0.3255
 4800SOL    HW125862   2.346   3.125   4.661 -0.8240  1.3096 -0.6248
 4800SOL    HW225863   2.320   2.988   4.722  0.3209 -0.8700 -1.5474
 4801SOL     OW25864   3.353   4.435   7.781  0.1080 -0.0080  0.3622
 4801SOL    HW125865   3.272   4.431   7.831  0.8961  1.0242  1.7275
 4801SOL    HW225866   3.412   4.470   7.847 -0.2294 -1.4364  1.4142
 4802SOL     OW25867   2.099   3.167  14.461 -0.2533 -0.5802 -0.1030
 4802SOL    HW125868   2.012   3.204  14.446 -0.6374 -0.7480  1.6684
 4802SOL    HW225869   2.068   3.078  14.476 -1.0703 -0.2057  0.4476
 4803SOL     OW25870   3.218   0.757  10.994  0.4142 -0.0089 -0.0785
 4803SOL    HW125871   3.167   0.678  11.012 -0.6359  1.0731  1.7351
 4803SOL    HW225872   3.156   0.810  10.944 -1.1785 -1.0092  0.8102
 4804SOL     OW25873   4.097   3.556   8.032  0.1451 -0.1937  0.2760
 4804SOL    HW125874   4.012   3.517   8.053 -0.9672  1.0247 -1.9998
 4804SOL    HW225875   4.088   3.640   8.078 -2.9496 -0.2506 -0.1778
 4805SOL     OW25876   1.408   3.673  14.209 -0.2371  0.1576 -0.2373
 4805SOL    HW125877   1.374   3.645  14.124  1.0259 -0.5731 -0.5072
 4805SOL    HW225878   1.399   3.590  14.256  1.2771 -0.2097 -0.6022
 4806SOL     OW25879   1.318   2.672  10.129 -0.1329  0.0264  0.0169
 4806SOL    HW125880   1.377   2.597  10.121  1.6450  1.7226 -2.5824
 4806SOL    HW225881   1.325   2.683  10.224 -0.0822  1.2362 -0.1241
 4807SOL     OW25882   2.641   0.477   2.081  0.5693  0.7901 -0.0030
 4807SOL    HW125883   2.691   0.416   2.135 -0.9773 -0.1619  0.3719
 4807SOL    HW225884   2.647   0.430   1.999  3.3595 -0.4281  0.9234
 4808SOL     OW25885   1.004   2.284   1.372 -0.1878 -0.2560 -0.4681
 4808SOL    HW125886   1.018   2.209   1.430  2.2428 -0.3922 -1.2042
 4808SOL    HW225887   1.092   2.322   1.366  0.2611 -1.0398  1.3313
 4809SOL     OW25888   3.645   2.472   6.860 -0.3911  0.8690 -0.0883
 4809SOL    HW125889   3.626   2.537   6.793  0.0402 -0.7943 -1.8253
 4809SOL    HW225890   3.595   2.408   6.809  1.8122 -0.5744 -0.4563
 4810SOL     OW25891   0.175   4.213  13.518  0.9410 -0.1713  0.2330
 4810SOL    HW125892   0.158   4.291  13.571  0.3871  0.4893 -0.9320
 4810SOL    HW225893   0.186   4.248  13.430  0.1084 -1.4010 -0.3622
 4811SOL     OW25894   1.213   2.313  15.828  0.1369  0.3334 -0.5742
 4811SOL    HW125895   1.247   2.376  15.892 -0.8095  0.8366 -0.5654
 4811SOL    HW225896   1.168   2.249  15.884  0.6042 -0.5999 -1.2682
 4812SOL     OW25897   1.532   0.541  11.735 -0.7032 -0.2596 -0.0168
 4812SOL    HW125898   1.532   0.630  11.773  2.3826 -0.0913 -0.3823
 4812SOL    HW225899   1.532   0.489  11.815 -0.1880 -0.9512 -0.4667
 4813SOL     OW25900   1.292   0.956   7.272  0.7257  0.0496  0.2664
 4813SOL    HW125901   1.278   1.046   7.243  2.2093  0.1440 -0.1943
 4813SOL    HW225902   1.305   0.920   7.184 -2.0324 -0.7634  0.2061
 4814SOL     OW25903   2.819   1.659   4.637 -0.1194  0.4068  0.1565
 4814SOL    HW125904   2.818   1.586   4.575  1.7235  2.4130 -2.2331
 4814SOL    HW225905   2.867   1.618   4.709 -2.3099 -1.0379  0.7769
 4815SOL     OW25906   2.754   3.468   9.129  0.1012 -1.5683 -0.2997
 4815SOL    HW125907   2.838   3.448   9.171  0.8453  0.8694 -0.6109
 4815SOL    HW225908   2.695   3.434   9.197 -0.1476  0.1033  0.3065
 4816SOL     OW25909   2.493   3.406   5.531  0.2447  0.0339  0.0211
 4816SOL    HW125910   2.484   3.346   5.457 -0.2131  0.2691 -0.1172
 4816SOL    HW225911   2.505   3.343   5.602 -0.1368 -0.4069 -0.3046
 4817SOL     OW25912   0.307   4.299  16.333 -0.6246  0.2472  0.5168
 4817SOL    HW125913   0.286   4.391  16.351 -0.9514 -0.2422  2.6289
 4817SOL    HW225914   0.226   4.265  16.294  0.3512 -2.9247  1.2768
 4818SOL     OW25915   2.047   3.343  10.071  0.2454  0.1921 -0.5909
 4818SOL    HW125916   2.042   3.265  10.016 -0.3367 -1.5410  1.9062
 4818SOL    HW225917   1.996   3.317  10.148 -0.5085 -1.9863 -1.8291
 4819SOL     OW25918   2.341   2.806   8.272  0.0478 -0.4477 -0.7015
 4819SOL    HW125919   2.395   2.881   8.295 -3.2195  1.6970 -0.0713
 4819SOL    HW225920   2.274   2.838   8.212 -1.9383  0.4865  1.9898
 4820SOL     OW25921   1.556   0.907   2.275 -0.1511  0.2770  0.4307
 4820SOL    HW125922   1.508   0.831   2.309  0.6016 -0.7097 -0.6940
 4820SOL    HW225923   1.642   0.866   2.267  0.3095  1.6076 -1.3737
 4821SOL     OW25924   1.869   2.098   9.673  0.3742  0.1929 -0.0458
 4821SOL    HW125925   1.794   2.051   9.638  0.0814  2.1174 -2.0084
 4821SOL    HW225926   1.931   2.027   9.662  1.2157  0.6894  1.4926
 4822SOL     OW25927   4.386   0.014  13.418 -0.2767  0.0558 -0.1163
 4822SOL    HW125928   4.412   4.643  13.424 -3.1520 -0.7369  0.1111
 4822SOL    HW225929   4.366   0.009  13.324 -0.3668  1.9570 -0.1967
 4823SOL     OW25930   2.477   2.963   6.357  0.3910  0.4889  0.2630
 4823SOL    HW125931   2.425   2.988   6.281  1.8617 -0.0894 -0.9214
 4823SOL    HW225932   2.551   2.907   6.336 -0.4122 -0.6351  0.4120
 4824SOL     OW25933   3.442   2.888   6.683 -0.3675  0.0619 -0.5350
 4824SOL    HW125934   3.447   2.905   6.589  1.2491 -1.3772 -0.7098
 4824SOL    HW225935   3.529   2.855   6.704 -0.8449 -1.4705 -0.9488
 4825SOL     OW25936   2.696   0.200   5.980 -0.3739 -0.6445  0.3473
 4825SOL    HW125937   2.626   0.265   5.977 -0.3893 -0.8335 -3.0199
 4825SOL    HW225938   2.714   0.186   6.073  1.1600  1.4950  0.3862
 4826SOL     OW25939   1.326   4.418  10.204  0.7234 -0.0522 -0.1305
 4826SOL    HW125940   1.376   4.402  10.284  0.2401 -0.5694  0.0690
 4826SOL    HW225941   1.393   4.396  10.139 -0.5600 -1.7906 -0.8890
 4827SOL     OW25942   1.677   0.397   8.353  0.4205 -0.5096  0.4197
 4827SOL    HW125943   1.614   0.442   8.295 -0.8653  0.8926  2.9206
 4827SOL    HW225944   1.762   0.419   8.315 -0.6556  3.2937  0.1769
 4828SOL     OW25945   2.777   3.006   1.862 -0.5010  0.1473  0.4467
 4828SOL    HW125946   2.729   2.932   1.899  1.0617 -0.3749  1.4364
 4828SOL    HW225947   2.712   3.076   1.869 -0.8767 -0.0558 -1.0428
 4829SOL     OW25948   2.128   3.863  12.328 -0.2750 -0.1775  0.4252
 4829SOL    HW125949   2.101   3.780  12.288  0.8670  0.5340 -1.7990
 4829SOL    HW225950   2.115   3.914  12.249 -0.2412  0.0056  0.5382
 4830SOL     OW25951   1.567   1.230  14.739  0.0747  0.0713 -0.3322
 4830SOL    HW125952   1.633   1.163  14.756  1.5332  1.3008 -1.1391
 4830SOL    HW225953   1.552   1.208  14.647 -1.6230  1.3905 -0.3673
 4831SOL     OW25954   0.576   1.214   8.407  0.6154 -0.3079  0.0241
 4831SOL    HW125955   0.593   1.131   8.450 -1.6458 -1.3073 -1.0275
 4831SOL    HW225956   0.636   1.211   8.332 -0.0531  0.8933 -0.5614
 4832SOL     OW25957   0.644   3.987   2.764  0.1295  0.0559  0.3510
 4832SOL    HW125958   0.676   3.957   2.679 -1.6194 -0.6304 -0.0659
 4832SOL    HW225959   0.651   3.917   2.829  1.4666  0.3888  0.5587
 4833SOL     OW25960   1.423   4.366  13.046  0.1104  0.6185 -0.5348
 4833SOL    HW125961   1.459   4.349  12.960  1.2836 -0.7159  0.2265
 4833SOL    HW225962   1.480   4.313  13.102 -1.1820  0.5584  0.7366
 4834SOL     OW25963   3.347   3.714   6.628  0.4364 -0.5028  0.3822
 4834SOL    HW125964   3.299   3.661   6.691  1.0853 -1.9480 -0.3384
 4834SOL    HW225965   3.304   3.799   6.642  2.5031  0.2846  1.8235
 4835SOL     OW25966   1.042   1.147   1.649 -0.2241 -0.1333 -0.1955
 4835SOL    HW125967   1.060   1.087   1.721  0.8984 -2.5952 -2.5367
 4835SOL    HW225968   1.074   1.094   1.576 -2.4979 -0.1215 -1.1880
 4836SOL     OW25969   3.041   2.459   4.080  0.7895  0.0888  0.2448
 4836SOL    HW125970   3.108   2.415   4.028  1.0832 -0.2492  0.9044
 4836SOL    HW225971   3.001   2.388   4.130 -2.7815  1.4802 -0.6571
 4837SOL     OW25972   3.069   4.425   5.297  0.2438 -0.2904 -0.0463
 4837SOL    HW125973   3.053   4.373   5.376  0.7622 -1.4056 -0.6711
 4837SOL    HW225974   3.023   4.370   5.233 -0.3712 -1.4896  1.4424
 4838SOL     OW25975   1.669   2.174  17.676  0.3091  0.0360  0.2581
 4838SOL    HW125976   1.734   2.244  17.664 -2.5165  2.4087 -1.1653
 4838SOL    HW225977   1.679   2.130  17.591 -2.6822 -1.1171  0.5204
 4839SOL     OW25978   3.718   3.007   6.828  0.2332 -0.3913 -0.4542
 4839SOL    HW125979   3.649   2.989   6.891  0.6797  0.2044  0.2196
 4839SOL    HW225980   3.778   3.069   6.871 -1.2046  1.1483 -0.6760
 4840SOL     OW25981   1.242   1.639   7.597 -0.2373 -0.7049  0.5943
 4840SOL    HW125982   1.256   1.568   7.534  0.8308 -0.2576  0.3247
 4840SOL    HW225983   1.315   1.617   7.655  1.2888  1.8662 -0.3392
 4841SOL     OW25984   2.883   0.656  11.821 -0.1435 -0.1663  0.6040
 4841SOL    HW125985   2.816   0.627  11.760 -0.6542 -0.1774  1.1631
 4841SOL    HW225986   2.845   0.661  11.910 -0.0527 -2.7302  0.7864
 4842SOL     OW25987   3.204   2.184   5.293  0.3103 -0.1048 -0.0490
 4842SOL    HW125988   3.294   2.205   5.317  0.3281  0.2590 -0.4316
 4842SOL    HW225989   3.177   2.267   5.254  0.7640 -0.5965 -1.4524
 4843SOL     OW25990   0.141   3.442  16.797  0.1297  0.1166 -0.0705
 4843SOL    HW125991   0.141   3.363  16.851  0.3252  0.9174  1.0861
 4843SOL    HW225992   0.088   3.409  16.724 -0.6922  1.3139 -0.0206
 4844SOL     OW25993   4.314   2.984   4.876  0.0316  0.0753 -0.2280
 4844SOL    HW125994   4.296   3.027   4.793  0.8827  1.1886  0.1644
 4844SOL    HW225995   4.407   3.006   4.889 -0.1043 -0.6793  2.1245
 4845SOL     OW25996   4.045   2.472   2.327  0.3249  0.3356 -0.1460
 4845SOL    HW125997   3.987   2.548   2.328 -0.4971 -0.2936 -0.6281
 4845SOL    HW225998   4.099   2.487   2.404 -0.8499  3.8184  0.0018
 4846SOL     OW25999   0.936   2.048   3.604  0.2089 -0.2911 -0.7422
 4846SOL    HW126000   0.948   2.143   3.599 -1.8762  0.0668  1.0040
 4846SOL    HW226001   0.873   2.034   3.533 -0.4850  0.4830 -0.2819
 4847SOL     OW26002   4.500   1.661   5.488 -0.1750  0.2989  0.3163
 4847SOL    HW126003   4.454   1.625   5.564 -0.8283  0.6726  0.0910
 4847SOL    HW226004   4.441   1.730   5.458  1.7217  2.0167  0.5210
 4848SOL     OW26005   4.096   3.117   9.853 -0.2409 -0.2293  0.4467
 4848SOL    HW126006   4.054   3.196   9.887 -1.0027  0.3512 -1.8642
 4848SOL    HW226007   4.180   3.153   9.822 -0.1717 -0.3358  0.5086
 4849SOL     OW26008   2.586   1.900   2.051 -0.0542  0.0007 -0.2769
 4849SOL    HW126009   2.629   1.817   2.032  0.7519  0.1710  0.7932
 4849SOL    HW226010   2.617   1.906   2.141 -1.3014 -0.8766  0.2081
 4850SOL     OW26011   3.065   1.658   3.546  0.0890 -0.3100  0.6857
 4850SOL    HW126012   3.091   1.582   3.598  3.8821  1.7518  1.8540
 4850SOL    HW226013   3.144   1.690   3.503  0.0592 -0.8268  0.2458
 4851SOL     OW26014   4.327   3.465  10.415  0.6274 -0.5224  0.0246
 4851SOL    HW126015   4.274   3.455  10.337  2.1368  1.7629 -1.2867
 4851SOL    HW226016   4.408   3.478  10.365 -0.5256  2.4313 -1.0594
 4852SOL     OW26017   0.665   0.467   2.276  0.4512  0.5646  0.2567
 4852SOL    HW126018   0.625   0.415   2.345  2.6165 -0.7070  0.5547
 4852SOL    HW226019   0.722   0.513   2.337  1.8339 -0.6613 -0.1117
 4853SOL     OW26020   1.250   0.121   7.789 -0.4332 -0.8632  0.0364
 4853SOL    HW126021   1.249   0.116   7.885  1.5389 -1.7035  0.0300
 4853SOL    HW226022   1.302   0.201   7.782 -2.3108  0.3235 -0.2283
 4854SOL     OW26023   0.262   0.136   9.934 -0.3162  0.0250  0.1936
 4854SOL    HW126024   0.183   0.180   9.903 -0.1632  1.4691  1.8572
 4854SOL    HW226025   0.234   0.044   9.929  2.9025 -0.9878  1.2502
 4855SOL     OW26026   0.328   4.369   5.885  0.2103 -0.0495  0.2015
 4855SOL    HW126027   0.332   4.464   5.884  1.1952 -0.0849  0.2797
 4855SOL    HW226028   0.252   4.345   5.833  0.8304 -1.3334 -0.1345
 4856SOL     OW26029   2.758   3.576   4.696 -0.3733  0.0474  0.5244
 4856SOL    HW126030   2.729   3.654   4.648  0.9358 -0.0634 -0.4372
 4856SOL    HW226031   2.690   3.579   4.763  1.6611  1.7748  2.4745
 4857SOL     OW26032   3.960   3.577   2.680  0.0646 -0.4235 -0.1313
 4857SOL    HW126033   4.012   3.497   2.668 -0.6992 -0.7211 -1.3533
 4857SOL    HW226034   3.999   3.641   2.620 -0.5226  0.3415  0.3106
 4858SOL     OW26035   3.695   3.058  12.369  0.0251  0.6297  0.3739
 4858SOL    HW126036   3.681   3.067  12.463  1.3940 -2.9485  0.9384
 4858SOL    HW226037   3.619   3.011  12.334  0.6064  1.7015 -2.3666
 4859SOL     OW26038   0.365   4.510   8.338  0.0851 -0.2475  0.0954
 4859SOL    HW126039   0.330   4.450   8.404  1.0099  0.4564  1.2267
 4859SOL    HW226040   0.316   4.499   8.256 -2.5264  1.3244  1.4683
 4860SOL     OW26041   3.219   4.096   7.762  0.2901  0.2971 -0.2271
 4860SOL    HW126042   3.212   4.059   7.674  0.8223  0.8883 -0.5168
 4860SOL    HW226043   3.273   4.031   7.807  3.1556  0.9647 -2.6806
 4861SOL     OW26044   2.062   2.641   3.752  0.4497  0.2179  0.6651
 4861SOL    HW126045   2.029   2.730   3.749  1.8271  0.7300  0.7050
 4861SOL    HW226046   1.980   2.597   3.728  2.2206 -1.3270 -2.5746
 4862SOL     OW26047   2.012   3.054  16.482  0.1708 -0.4955 -0.1733
 4862SOL    HW126048   2.000   2.988  16.550 -0.3188 -2.3426 -2.0457
 4862SOL    HW226049   2.064   3.011  16.414 -1.9856 -0.9298 -1.5419
 4863SOL     OW26050   0.327   2.570  15.716 -0.3918  0.4077 -0.3299
 4863SOL    HW126051   0.278   2.590  15.795 -1.3645 -1.1069 -0.5373
 4863SOL    HW226052   0.373   2.649  15.688 -1.0291  0.5200 -1.0605
 4864SOL     OW26053   3.796   0.553   6.655  0.1164  0.4207  0.2025
 4864SOL    HW126054   3.798   0.593   6.568 -1.8522 -2.5057 -1.1697
 4864SOL    HW226055   3.866   0.602   6.699  0.8150 -0.3275 -0.0834
 4865SOL     OW26056   4.101   3.438   5.836  0.0089  0.6642  0.1665
 4865SOL    HW126057   4.091   3.508   5.772  0.4023  1.2507  0.7328
 4865SOL    HW226058   4.191   3.408   5.822 -0.5099 -1.1040  0.6391
 4866SOL     OW26059   3.667   3.757   8.579  0.3006 -0.2487 -0.3639
 4866SOL    HW126060   3.756   3.761   8.615 -0.9111  0.8778  2.4683
 4866SOL    HW226061   3.674   3.835   8.524 -1.0091 -0.1613 -0.3942
 4867SOL     OW26062   4.016   1.563   3.789  0.2011  0.4997 -0.2743
 4867SOL    HW126063   4.057   1.648   3.771  1.4081  0.1316  0.7640
 4867SOL    HW226064   3.923   1.577   3.768  0.1256  0.0272 -0.2547
 4868SOL     OW26065   1.061   0.660   3.009  0.0600  0.0305 -0.1670
 4868SOL    HW126066   1.001   0.716   3.058  2.0390  1.2264  0.9008
 4868SOL    HW226067   1.006   0.598   2.962  0.8905 -0.4756 -0.4632
 4869SOL     OW26068   2.451   2.402   5.323  0.4701 -0.2983  0.0946
 4869SOL    HW126069   2.538   2.397   5.282  0.1870 -2.7133 -0.1802
 4869SOL    HW226070   2.483   2.377   5.410  4.1602  0.3362 -1.0816
 4870SOL     OW26071   3.700   1.041   4.992 -0.2974 -1.0753  0.4916
 4870SOL    HW126072   3.662   1.084   4.915  1.1422  1.8178  1.4152
 4870SOL    HW226073   3.669   0.952   4.973 -3.4607  1.2618 -5.2984
 4871SOL     OW26074   1.674   0.655  13.007 -0.3263 -0.3568  0.3337
 4871SOL    HW126075   1.598   0.679  12.955  0.2595  3.1818  1.1559
 4871SOL    HW226076   1.634   0.641  13.093  0.7500  0.0889  0.9034
 4872SOL     OW26077   4.033   4.321   5.995 -0.5187 -0.2812  0.6502
 4872SOL    HW126078   4.033   4.225   5.998  3.8834 -0.2727  1.9469
 4872SOL    HW226079   4.070   4.331   5.907 -1.9625 -0.1733  0.0632
 4873SOL     OW26080   4.509   4.677   1.738  0.1728 -0.9967 -0.2552
 4873SOL    HW126081   4.464   0.040   1.729  1.3028 -0.3869 -0.2402
 4873SOL    HW226082   4.598   4.700   1.767 -0.6050  1.0638  0.5076
 4874SOL     OW26083   2.625   1.040  17.635  0.4122  0.0353  0.2245
 4874SOL    HW126084   2.705   1.092  17.639  0.0092  0.5959  0.9626
 4874SOL    HW226085   2.653   0.950  17.615  0.3899  0.2213 -0.6268
 4875SOL     OW26086   1.477   2.134   0.990  0.1702 -0.3253  0.3815
 4875SOL    HW126087   1.395   2.145   1.038 -1.7216 -1.7945 -2.5002
 4875SOL    HW226088   1.520   2.211   1.028  0.0290 -0.6110  1.1178
 4876SOL     OW26089   4.389   4.683   3.662 -0.1371 -0.3207  0.0859
 4876SOL    HW126090   4.416   4.617   3.598  1.1166 -0.5582  0.8604
 4876SOL    HW226091   4.460   4.683   3.726 -1.6684  0.7616  1.8247
 4877SOL     OW26092   3.991   1.206   5.919  0.3623  0.3673  0.3293
 4877SOL    HW126093   4.023   1.174   6.004 -1.3221 -0.7220  0.5383
 4877SOL    HW226094   4.013   1.299   5.925 -1.6629  0.8964 -0.7337
 4878SOL     OW26095   0.236   0.179   5.695 -0.6984 -0.3661 -0.2874
 4878SOL    HW126096   0.150   0.141   5.675 -0.9985  0.7903 -1.1776
 4878SOL    HW226097   0.237   0.180   5.790  2.3058 -0.8822 -0.3264
 4879SOL     OW26098   1.938   4.205   5.486 -0.3386 -0.2316  0.3001
 4879SOL    HW126099   1.887   4.145   5.541 -1.7930  0.8840  0.1442
 4879SOL    HW226100   1.872   4.263   5.448 -0.8375 -0.7598  0.3599
 4880SOL     OW26101   2.785   0.125   4.901  0.1780  0.2645 -0.4856
 4880SOL    HW126102   2.697   0.118   4.936  0.4618  0.4950  0.2859
 4880SOL    HW226103   2.824   0.202   4.943  0.7780  0.9219 -2.2817
 4881SOL     OW26104   0.257   1.145   8.896  0.7343  0.5815  0.3124
 4881SOL    HW126105   0.261   1.240   8.894 -1.1690  0.6499  0.0232
 4881SOL    HW226106   0.332   1.125   8.840  2.1307  0.0867  2.3408
 4882SOL     OW26107   3.225   2.480   7.470 -0.2561  0.2240  0.2316
 4882SOL    HW126108   3.294   2.490   7.405 -0.5812 -1.2478 -0.3389
 4882SOL    HW226109   3.169   2.413   7.430  0.0856  0.4325 -0.5904
 4883SOL     OW26110   1.378   2.702   7.567 -0.2994 -0.4174 -0.0871
 4883SOL    HW126111   1.298   2.668   7.606 -0.5119  1.3098  0.9832
 4883SOL    HW226112   1.362   2.710   7.473 -1.7824  0.9652  0.2824
 4884SOL     OW26113   2.766   4.677   3.007 -0.0513 -0.3538 -0.9255
 4884SOL    HW126114   2.689   4.642   2.962 -0.8320 -1.0022  0.9359
 4884SOL    HW226115   2.735   4.706   3.092  1.1100 -1.0101 -0.2659
 4885SOL     OW26116   2.326   3.502   3.002 -0.5541 -0.3205  0.4133
 4885SOL    HW126117   2.376   3.421   3.004 -0.6992 -0.4233 -0.0122
 4885SOL    HW226118   2.388   3.562   2.959 -1.2302  0.0820 -0.0068
 4886SOL     OW26119   1.891   1.049   2.262 -0.2933 -0.2767 -0.0144
 4886SOL    HW126120   1.862   1.130   2.304 -0.5272  0.0482 -0.8016
 4886SOL    HW226121   1.881   1.086   2.174 -2.8590  2.5887  1.4650
 4887SOL     OW26122   1.811   1.447   6.346 -0.2743 -0.3628 -0.1992
 4887SOL    HW126123   1.739   1.507   6.325  1.2312  1.3789 -0.4122
 4887SOL    HW226124   1.813   1.452   6.442 -1.4311  1.2141 -0.2383
 4888SOL     OW26125   3.941   1.612  14.953  0.6360  0.9299  0.1510
 4888SOL    HW126126   4.033   1.625  14.974  0.5429 -0.2540  1.2418
 4888SOL    HW226127   3.945   1.583  14.862 -0.1787  0.1018  0.3852
 4889SOL     OW26128   1.498   0.760   6.759 -0.2128 -0.1008  0.2454
 4889SOL    HW126129   1.512   0.756   6.664 -0.0942  0.6453  0.2369
 4889SOL    HW226130   1.562   0.695   6.787 -0.6180 -0.2171  0.9159
 4890SOL     OW26131   0.218   0.360   6.470  0.2628  0.3195 -0.1695
 4890SOL    HW126132   0.233   0.383   6.378  0.4211 -0.4609 -0.3329
 4890SOL    HW226133   0.143   0.417   6.487  0.5861  1.0591 -1.1719
 4891SOL     OW26134   3.931   2.177   6.381 -0.3281 -0.5788  0.1531
 4891SOL    HW126135   3.998   2.243   6.368  0.8555 -1.6170  1.0670
 4891SOL    HW226136   3.860   2.221   6.428 -0.7938 -1.9459  0.7429
 4892SOL     OW26137   2.697   0.300   2.933  0.4002 -0.0673  0.4968
 4892SOL    HW126138   2.645   0.370   2.973  1.4304  0.2669  1.2543
 4892SOL    HW226139   2.764   0.282   2.999  1.2863  2.3257  0.2416
 4893SOL     OW26140   3.968   1.370   2.610  0.2097 -0.2521 -0.0279
 4893SOL    HW126141   3.920   1.440   2.655  0.9302 -0.5341  1.1785
 4893SOL    HW226142   4.057   1.404   2.607  0.5086 -1.3266 -2.9457
 4894SOL     OW26143   2.887   3.591  11.128 -0.1488 -0.2750  0.6653
 4894SOL    HW126144   2.904   3.660  11.192 -0.5292 -0.8579  1.3835
 4894SOL    HW226145   2.962   3.590  11.068 -2.1935  1.5075 -1.9675
 4895SOL     OW26146   3.376   1.649  10.019  0.2803 -0.3765 -0.4835
 4895SOL    HW126147   3.470   1.653  10.037  0.0943 -0.6363  0.5447
 4895SOL    HW226148   3.333   1.667  10.103  2.4934  2.3743  0.0527
 4896SOL     OW26149   0.328   3.789   9.661 -0.4811  0.1506  0.6385
 4896SOL    HW126150   0.302   3.813   9.750 -1.3921 -2.2063  0.9941
 4896SOL    HW226151   0.256   3.728   9.648  0.5282 -0.5657 -1.5135
 4897SOL     OW26152   4.039   3.500   2.998  0.1210  0.2390  0.1911
 4897SOL    HW126153   4.107   3.451   2.951 -1.5201 -0.3143 -1.6497
 4897SOL    HW226154   3.966   3.438   2.998  0.2004  0.1573  2.5943
 4898SOL     OW26155   3.884   3.033   5.023  0.0391 -0.5728  0.0329
 4898SOL    HW126156   3.944   2.960   5.039 -0.6203 -1.3411 -0.9662
 4898SOL    HW226157   3.796   3.003   5.046 -0.1508 -0.1001 -0.0760
 4899SOL     OW26158   4.434   3.241   7.591  0.1522 -0.4151  0.0880
 4899SOL    HW126159   4.413   3.258   7.499  0.9137 -0.2980 -0.0675
 4899SOL    HW226160   4.511   3.297   7.585  0.1605 -0.3362  1.0497
 4900SOL     OW26161   0.596   3.498   9.014  0.1557  0.5218  0.2227
 4900SOL    HW126162   0.630   3.570   9.067  1.7907 -0.8433  1.0056
 4900SOL    HW226163   0.543   3.557   8.959  2.4235  1.6926 -0.6765
 4901SOL     OW26164   1.091   4.249   7.782  0.3702  0.1303  0.0282
 4901SOL    HW126165   1.056   4.183   7.842 -0.3506  0.6077  0.1327
 4901SOL    HW226166   1.029   4.229   7.712 -1.0481  1.3605  0.9257
 4902SOL     OW26167   3.862   0.340  11.142  0.0411 -0.0592  0.2174
 4902SOL    HW126168   3.790   0.299  11.191 -0.2813 -0.7746 -0.8719
 4902SOL    HW226169   3.819   0.415  11.100  0.4164  1.0229  1.7363
 4903SOL     OW26170   2.263   4.524  16.684  0.0874  0.2637 -0.0392
 4903SOL    HW126171   2.207   4.448  16.703 -1.6446  2.0507  2.0979
 4903SOL    HW226172   2.216   4.574  16.617  1.8637 -0.1324 -1.5387
 4904SOL     OW26173   2.935   2.163   6.676  0.1208  0.2551  0.1574
 4904SOL    HW126174   2.943   2.068   6.665  2.6351  0.4905 -0.0947
 4904SOL    HW226175   3.000   2.190   6.740  0.7987  0.6358 -0.6785
 4905SOL     OW26176   0.264   3.641   6.607 -0.0440  0.1708  0.3411
 4905SOL    HW126177   0.310   3.724   6.622  1.6686 -0.4695 -1.3038
 4905SOL    HW226178   0.245   3.659   6.515  0.1756  1.1746  0.4936
 4906SOL     OW26179   2.960   1.463  13.725  0.0625  0.3656 -0.4783
 4906SOL    HW126180   2.872   1.479  13.690 -0.0052 -1.1186 -0.9684
 4906SOL    HW226181   2.945   1.437  13.816 -0.1460  0.2440 -0.5482
 4907SOL     OW26182   3.278   4.459   3.997 -0.7060  0.4135 -0.2563
 4907SOL    HW126183   3.214   4.448   3.926 -0.2465  3.0034 -1.0729
 4907SOL    HW226184   3.298   4.551   3.980  2.0262 -0.2213 -0.6050
 4908SOL     OW26185   3.513   3.321   9.012 -0.0772 -0.0830 -0.4428
 4908SOL    HW126186   3.488   3.256   9.079  1.9034 -0.5846 -0.1757
 4908SOL    HW226187   3.577   3.375   9.057 -1.8864  0.9209  0.9293
 4909SOL     OW26188   0.278   2.207   0.208 -0.0920  0.5665 -0.0553
 4909SOL    HW126189   0.337   2.282   0.205 -0.8746  1.1220 -1.4040
 4909SOL    HW226190   0.195   2.245   0.238 -2.6776 -1.8592 -4.0900
 4910SOL     OW26191   1.778   3.430  12.402 -1.0575 -0.0988 -0.5710
 4910SOL    HW126192   1.818   3.418  12.488  0.4551 -0.8442 -1.3885
 4910SOL    HW226193   1.738   3.346  12.379  0.3193 -0.3126 -2.1825
 4911SOL     OW26194   4.630   1.110  11.603  0.2346  0.0975 -0.2265
 4911SOL    HW126195   4.679   1.136  11.525 -1.0869  2.4406 -0.2727
 4911SOL    HW226196   4.569   1.045  11.569 -1.4497  1.8798 -0.5935
 4912SOL     OW26197   2.668   0.394  13.543 -0.3498 -0.0018  0.2499
 4912SOL    HW126198   2.689   0.310  13.503 -0.2538 -0.2801  0.8871
 4912SOL    HW226199   2.635   0.454  13.475 -0.8405 -2.2253 -1.4775
 4913SOL     OW26200   3.346   2.497   1.051  0.2206 -0.2053 -0.1502
 4913SOL    HW126201   3.383   2.415   1.021  0.2367 -0.3658  0.3052
 4913SOL    HW226202   3.294   2.530   0.978  1.8238 -0.0242 -1.1929
 4914SOL     OW26203   4.573   1.771   4.211  0.3720 -0.2590  0.3954
 4914SOL    HW126204   4.610   1.688   4.182 -0.8566  0.3502 -2.9735
 4914SOL    HW226205   4.518   1.745   4.285  0.6715 -0.2258  0.6311
 4915SOL     OW26206   1.182   1.114   2.362  0.0938  0.1045 -0.8179
 4915SOL    HW126207   1.264   1.157   2.338  1.1702 -1.5808 -0.1043
 4915SOL    HW226208   1.122   1.178   2.325 -0.8738 -0.5474 -0.3708
 4916SOL     OW26209   2.361   3.819   5.367  0.0301  0.8249 -0.7451
 4916SOL    HW126210   2.317   3.786   5.445 -1.8182  1.2156 -1.6389
 4916SOL    HW226211   2.450   3.833   5.400 -1.5415  0.8464  3.4275
 4917SOL     OW26212   0.127   0.781   7.326  0.1561 -0.5080  0.2309
 4917SOL    HW126213   0.069   0.731   7.269 -0.1264 -1.4831  1.3571
 4917SOL    HW226214   0.118   0.731   7.407 -0.4358 -1.4174 -0.3979
 4918SOL     OW26215   4.121   2.074   5.530 -0.2059  0.3478 -0.5101
 4918SOL    HW126216   4.128   2.154   5.477 -0.2942 -0.1570 -1.2793
 4918SOL    HW226217   4.097   2.015   5.459 -0.7830  0.1357 -0.1391
 4919SOL     OW26218   0.609   3.044   9.151 -0.3653  0.1124 -0.7928
 4919SOL    HW126219   0.600   3.076   9.241  2.1139  0.2583 -0.6116
 4919SOL    HW226220   0.556   3.107   9.101 -2.4214 -1.7230 -0.9645
 4920SOL     OW26221   3.234   3.812   5.497 -0.0168  1.1019 -0.5355
 4920SOL    HW126222   3.141   3.794   5.512  0.2519 -0.8287 -1.1735
 4920SOL    HW226223   3.271   3.734   5.537  4.1256  2.4678 -1.6665
 4921SOL     OW26224   1.313   2.314  11.341 -0.2185 -0.1379  0.0262
 4921SOL    HW126225   1.270   2.250  11.285  0.5393 -0.6401  0.0230
 4921SOL    HW226226   1.230   2.351  11.371  0.2016  1.3242 -0.5770
 4922SOL     OW26227   4.469   2.260   2.137 -0.1969 -0.3190  0.3739
 4922SOL    HW126228   4.520   2.196   2.187  2.3513  1.6448  0.2775
 4922SOL    HW226229   4.418   2.207   2.076 -2.8293  3.2616 -0.5019
 4923SOL     OW26230   1.109   0.498  10.850  0.7564 -0.1918  0.5873
 4923SOL    HW126231   1.022   0.459  10.860  0.5637  0.1240  0.1179
 4923SOL    HW226232   1.095   0.582  10.895 -0.9645  0.4055 -1.0997
 4924SOL     OW26233   1.738   0.604  14.176 -0.3049  0.0989 -0.0919
 4924SOL    HW126234   1.828   0.571  14.177 -0.1910  0.4650  1.5046
 4924SOL    HW226235   1.738   0.672  14.108  1.2113 -0.8258 -1.0055
 4925SOL     OW26236   4.617   1.972   4.822 -0.0565 -0.1520 -0.1790
 4925SOL    HW126237   4.664   2.033   4.879 -1.1162  1.0902 -0.6273
 4925SOL    HW226238   4.596   2.033   4.751  0.7590 -0.8496 -1.0286
 4926SOL     OW26239   2.048   0.999   1.262  0.2680  0.0589  0.5544
 4926SOL    HW126240   2.073   1.072   1.319  3.5605 -0.9194  0.3265
 4926SOL    HW226241   2.111   0.931   1.285  2.2293  1.6772 -0.0805
 4927SOL     OW26242   2.010   3.447  16.407  0.2795 -0.3894 -0.7572
 4927SOL    HW126243   1.940   3.499  16.446  0.4611 -0.8982  0.2362
 4927SOL    HW226244   2.041   3.513  16.345  1.5143 -0.3409 -0.0823
 4928SOL     OW26245   3.775   4.226   2.479  0.0149  0.1576  0.0824
 4928SOL    HW126246   3.720   4.292   2.438 -2.3327 -1.7254  0.1881
 4928SOL    HW226247   3.797   4.273   2.559 -2.5989 -0.3885  1.1191
 4929SOL     OW26248   1.497   3.420   7.260 -0.5199  0.0195 -0.1540
 4929SOL    HW126249   1.470   3.418   7.169  2.0953  0.3754 -0.9296
 4929SOL    HW226250   1.586   3.384   7.258 -0.4792 -0.0225  2.4933
 4930SOL     OW26251   4.407   2.699  13.537 -0.1383  0.0357 -0.0629
 4930SOL    HW126252   4.425   2.688  13.443 -1.8986  3.4132 -0.8021
 4930SOL    HW226253   4.487   2.736  13.575 -0.2071 -1.2522  1.3321
 4931SOL     OW26254   2.554   4.014   8.336 -0.1521 -0.6636 -0.5993
 4931SOL    HW126255   2.482   3.956   8.309 -1.3144  1.1148 -1.3189
 4931SOL    HW226256   2.510   4.096   8.357  0.4191 -1.1156  2.3530
 4932SOL     OW26257   0.962   1.437   7.851 -0.6009  0.0820  0.6496
 4932SOL    HW126258   0.915   1.499   7.906 -0.5377 -0.8608  1.7833
 4932SOL    HW226259   0.912   1.445   7.770  0.1513  2.2886  0.4060
 4933SOL     OW26260   0.147   0.114   9.524 -0.4747 -0.5380  0.4128
 4933SOL    HW126261   0.203   0.150   9.592  0.8682  0.4043 -1.1900
 4933SOL    HW226262   0.079   0.180   9.512  1.1176  1.4909  2.9186
 4934SOL     OW26263   4.111   2.171   2.042 -0.0607 -0.4138 -0.4882
 4934SOL    HW126264   4.145   2.098   2.093 -1.1523 -0.0063  0.8328
 4934SOL    HW226265   4.022   2.137   2.032 -0.6511  0.7926  0.6523
 4935SOL     OW26266   1.694   0.873   5.218  0.0872  0.3180  0.1351
 4935SOL    HW126267   1.690   0.929   5.295 -1.8204  0.4463 -0.0363
 4935SOL    HW226268   1.629   0.808   5.246  0.0439 -0.0747 -0.8547
 4936SOL     OW26269   0.059   0.338   2.621  0.3578 -0.4020 -0.2177
 4936SOL    HW126270   0.098   0.351   2.707 -0.1845 -0.9914  0.1139
 4936SOL    HW226271   4.712   0.405   2.618 -1.8872 -2.5970  1.9138
 4937SOL     OW26272   2.182   1.475   8.086  0.0322  0.2657 -0.2264
 4937SOL    HW126273   2.246   1.545   8.079  0.1951  0.2604  1.2649
 4937SOL    HW226274   2.166   1.464   7.992  0.5532  1.3238 -0.4291
 4938SOL     OW26275   0.857   0.996   2.370  0.1413 -0.2961  0.0404
 4938SOL    HW126276   0.847   1.091   2.363  1.4427 -0.1535  0.1392
 4938SOL    HW226277   0.833   0.985   2.462 -2.4968  3.6151 -0.1678
 4939SOL     OW26278   1.721   3.417  16.807  0.4023  0.2998  0.0589
 4939SOL    HW126279   1.802   3.450  16.767 -0.1959  1.0302 -0.5587
 4939SOL    HW226280   1.754   3.362  16.877 -0.3175  0.9268  0.8896
 4940SOL     OW26281   1.815   4.331   2.582 -0.0300  0.6693  0.1397
 4940SOL    HW126282   1.870   4.348   2.505  1.5049  0.5416  1.2089
 4940SOL    HW226283   1.736   4.373   2.546  1.6655  1.3931 -2.7576
 4941SOL     OW26284   3.115   3.435  14.294 -0.0656 -0.0123 -0.2462
 4941SOL    HW126285   3.177   3.507  14.289  1.3973 -1.0707  2.2566
 4941SOL    HW226286   3.147   3.375  14.226  1.4075  1.7252 -1.0662
 4942SOL     OW26287   0.885   4.313   3.589  0.1924 -0.5153  0.5761
 4942SOL    HW126288   0.940   4.378   3.632  0.8558 -0.6126 -0.1113
 4942SOL    HW226289   0.946   4.249   3.552 -0.1530 -1.4089  1.5431
 4943SOL     OW26290   0.888   0.356   6.558 -0.0628  0.3562 -0.1789
 4943SOL    HW126291   0.878   0.429   6.620 -3.2189 -1.5886  1.6350
 4943SOL    HW226292   0.875   0.391   6.470 -0.9335  2.0218  0.6207
 4944SOL     OW26293   2.199   3.788  12.877 -0.4406 -0.9046 -0.7613
 4944SOL    HW126294   2.186   3.851  12.806 -2.2513 -1.7090 -1.1460
 4944SOL    HW226295   2.213   3.840  12.956 -0.6446 -0.2264 -1.1686
 4945SOL     OW26296   1.037   3.504  11.969  0.1338 -0.8958  0.4410
 4945SOL    HW126297   1.111   3.554  11.933 -0.5033  0.1025  0.5193
 4945SOL    HW226298   0.989   3.481  11.889 -0.7702  2.8520 -0.0855
 4946SOL     OW26299   2.979   1.021   7.451  0.7475  0.1238 -0.3860
 4946SOL    HW126300   2.916   0.955   7.425 -1.8584  1.8877  1.5464
 4946SOL    HW226301   2.951   1.055   7.535  0.1432 -0.3840 -0.3838
 4947SOL     OW26302   0.250   2.193  14.526  0.3613 -1.5161 -0.1195
 4947SOL    HW126303   0.194   2.251  14.474  2.2445  1.0224  0.6779
 4947SOL    HW226304   0.300   2.259  14.575 -3.5611  0.7020  0.8550
 4948SOL     OW26305   2.796   2.482   2.136  0.0988  0.1556  0.0613
 4948SOL    HW126306   2.728   2.544   2.113  0.2077 -0.2252 -1.2770
 4948SOL    HW226307   2.869   2.503   2.077  0.0299 -0.5861 -0.2887
 4949SOL     OW26308   4.618   0.917   2.025  0.6976  0.2362 -0.3661
 4949SOL    HW126309   4.572   0.834   2.038 -1.2407  1.4815  0.8003
 4949SOL    HW226310   4.705   0.900   2.061  0.9213  1.9544 -0.1217
 4950SOL     OW26311   3.439   1.532   2.486  0.2143  0.4942 -0.1442
 4950SOL    HW126312   3.519   1.526   2.433 -0.4818  4.2665 -1.6708
 4950SOL    HW226313   3.364   1.505   2.433  0.2353 -0.5948  0.3899
 4951SOL     OW26314   0.793   0.127   2.734  0.0170  0.1980  0.1536
 4951SOL    HW126315   0.853   0.060   2.765 -0.2081  0.4441  1.1264
 4951SOL    HW226316   0.795   0.195   2.801 -0.5871 -1.1812  1.5694
 4952SOL     OW26317   4.080   2.165  14.312  0.5714 -0.0993 -0.6704
 4952SOL    HW126318   4.141   2.118  14.255  0.8207  0.2853 -0.7234
 4952SOL    HW226319   4.003   2.149  14.258  0.7615  0.3554 -1.0823
 4953SOL     OW26320   0.317   0.060  16.482  0.1554  0.0445 -0.1875
 4953SOL    HW126321   0.403   0.097  16.459 -0.5552  1.4977 -0.5394
 4953SOL    HW226322   0.269   0.143  16.477  0.5935  0.4152  1.9205
 4954SOL     OW26323   2.664   4.678   8.266 -0.2812 -0.4187 -0.7575
 4954SOL    HW126324   2.653   0.019   8.193 -2.1426 -0.7136 -0.7383
 4954SOL    HW226325   2.617   4.710   8.343 -0.2873 -0.2121 -0.8459
 4955SOL     OW26326   0.244   2.565   6.496 -0.3487  0.3888  0.2688
 4955SOL    HW126327   0.188   2.626   6.544  0.6029  0.0979  1.7351
 4955SOL    HW226328   0.319   2.564   6.555  0.3757  1.1324 -0.6310
 4956SOL     OW26329   2.196   3.456   6.206  0.2077  0.1876 -0.6740
 4956SOL    HW126330   2.116   3.431   6.252  0.2907  0.4907 -0.3691
 4956SOL    HW226331   2.178   3.411   6.123  1.2902  1.2972 -1.5047
 4957SOL     OW26332   1.008   1.351   2.331 -0.1663  0.2027  0.7576
 4957SOL    HW126333   0.996   1.342   2.425 -0.6318  1.7514  0.8518
 4957SOL    HW226334   0.921   1.326   2.300  0.8166 -0.5330 -1.4459
 4958SOL     OW26335   1.890   1.085  13.296  0.5850  0.0211 -0.6521
 4958SOL    HW126336   1.893   1.115  13.387  2.2488 -0.4487 -0.5466
 4958SOL    HW226337   1.795   1.089  13.291  0.3853 -2.3794  1.3532
 4959SOL     OW26338   0.973   1.107   3.752  0.1492 -0.0133 -0.1182
 4959SOL    HW126339   0.887   1.067   3.764  0.3050 -0.4820 -0.5523
 4959SOL    HW226340   1.013   1.077   3.833 -0.1687  2.0096  0.7873
 4960SOL     OW26341   0.872   3.833  10.701 -0.1707  0.2548  0.1583
 4960SOL    HW126342   0.921   3.905  10.662  0.7335 -0.7287 -0.5127
 4960SOL    HW226343   0.820   3.879  10.767 -0.6984  0.9243 -0.7281
 4961SOL     OW26344   0.485   3.800   1.657 -0.1927 -0.2825  0.3044
 4961SOL    HW126345   0.445   3.879   1.694  0.3235  0.7749 -1.3961
 4961SOL    HW226346   0.576   3.810   1.686 -0.1168 -0.8759  0.2605
 4962SOL     OW26347   4.102   4.316   5.723  0.1575  0.1346  0.1592
 4962SOL    HW126348   4.175   4.260   5.696  1.2985  1.1859  1.0322
 4962SOL    HW226349   4.055   4.328   5.641 -3.2231 -1.5413  1.8744
 4963SOL     OW26350   0.709   2.290   4.442 -0.6735  0.0863  0.4107
 4963SOL    HW126351   0.648   2.336   4.499  0.0374  0.5060  0.8376
 4963SOL    HW226352   0.651   2.225   4.405 -0.1968 -0.1706  0.1098
 4964SOL     OW26353   3.687   0.829   2.408 -0.3112  0.3742  0.4048
 4964SOL    HW126354   3.746   0.887   2.361 -2.0886  1.2609 -0.7304
 4964SOL    HW226355   3.704   0.743   2.370 -1.0782  0.6146 -0.4851
 4965SOL     OW26356   1.974   4.636  14.463 -0.0564  0.0280  0.1254
 4965SOL    HW126357   1.997   4.546  14.485  1.9367  0.0450 -1.8978
 4965SOL    HW226358   1.888   4.641  14.505 -0.5637 -1.2103 -0.7951
 4966SOL     OW26359   4.163   3.494   8.794 -0.0329  0.2838 -0.4234
 4966SOL    HW126360   4.169   3.428   8.726 -0.5031  0.4191 -0.5972
 4966SOL    HW226361   4.068   3.503   8.807  0.0120  0.3861 -0.1685
 4967SOL     OW26362   3.162   0.123   4.093 -0.4047 -0.0074 -0.1988
 4967SOL    HW126363   3.096   0.069   4.136  0.1956 -1.2005 -0.7621
 4967SOL    HW226364   3.177   0.074   4.012 -0.8035 -2.3258  1.1442
 4968SOL     OW26365   3.392   4.712   2.735 -0.0040  0.0371  0.3727
 4968SOL    HW126366   3.372   4.657   2.811 -1.8649 -1.0098 -0.8823
 4968SOL    HW226367   3.319   4.698   2.674  0.4361 -1.1178  0.1092
 4969SOL     OW26368   3.982   1.889   1.197  0.0868  0.0141  0.0103
 4969SOL    HW126369   3.971   1.807   1.148  2.6172 -1.3198  1.6209
 4969SOL    HW226370   3.914   1.869   1.261  1.5045 -2.1529  0.8368
 4970SOL     OW26371   2.439   1.495   4.135 -0.2058  0.1563 -0.0195
 4970SOL    HW126372   2.482   1.410   4.142  0.7625  0.4174 -2.8838
 4970SOL    HW226373   2.393   1.491   4.051 -0.4946  2.2097  0.0475
 4971SOL     OW26374   2.120   1.702  17.468  0.8115  0.5184  0.1948
 4971SOL    HW126375   2.069   1.679  17.545  0.8111 -1.6309 -0.4625
 4971SOL    HW226376   2.184   1.631  17.470 -0.4133 -0.6049 -0.9714
 4972SOL     OW26377   0.055   2.901   4.616  0.0706  0.0542  0.1972
 4972SOL    HW126378   0.046   2.807   4.601  0.6022  0.3450 -1.9809
 4972SOL    HW226379   4.703   2.907   4.678 -0.1300 -2.3699  0.1633
 4973SOL     OW26380   0.641   4.276   3.716  0.0599 -0.0357  0.4534
 4973SOL    HW126381   0.719   4.284   3.661  1.2297 -0.6072  2.0387
 4973SOL    HW226382   0.677   4.287   3.804 -0.9792  3.2665  0.4778
 4974SOL     OW26383   2.963   3.676  10.764  0.2727 -0.4357 -0.5596
 4974SOL    HW126384   2.906   3.683  10.687  0.0213  2.3840 -0.1261
 4974SOL    HW226385   2.920   3.728  10.832  1.0822 -0.7500  0.1898
 4975SOL     OW26386   4.665   0.795  15.469  0.0808 -0.1343  0.2397
 4975SOL    HW126387   0.037   0.810  15.484  0.6310 -0.0903 -3.2978
 4975SOL    HW226388   4.637   0.791  15.560 -1.0158  0.1392 -0.0828
 4976SOL     OW26389   3.247   0.530   0.778 -0.3039 -0.0524  0.5367
 4976SOL    HW126390   3.300   0.584   0.836  0.7385 -1.4734  0.9023
 4976SOL    HW226391   3.217   0.597   0.716  0.6991  1.1035  1.3097
 4977SOL     OW26392   2.211   0.666   2.499 -0.2895 -0.2704 -0.0998
 4977SOL    HW126393   2.267   0.592   2.474 -0.8468 -0.6606 -0.1845
 4977SOL    HW226394   2.247   0.710   2.576  0.7976 -0.0154 -0.7446
 4978SOL     OW26395   2.644   1.256   0.783 -0.2831  1.3196 -0.0677
 4978SOL    HW126396   2.618   1.345   0.760  0.1110  1.9183  1.7446
 4978SOL    HW226397   2.717   1.236   0.724 -0.7148  0.5526 -0.3459
 4979SOL     OW26398   1.067   4.145   9.500 -0.1552 -0.7815  0.4299
 4979SOL    HW126399   1.063   4.166   9.593 -0.0669 -2.6334  0.8475
 4979SOL    HW226400   1.145   4.199   9.487 -1.2451  1.9653  5.2976
 4980SOL     OW26401   1.484   0.372  10.228 -0.0568 -0.5035  0.1723
 4980SOL    HW126402   1.495   0.386  10.134  0.2960  3.2626  0.7981
 4980SOL    HW226403   1.412   0.434  10.240 -0.2317  0.1312 -4.0240
 4981SOL     OW26404   2.213   1.507  12.821 -0.0631 -0.5125 -0.1372
 4981SOL    HW126405   2.303   1.477  12.811  0.1857 -0.8939  3.1069
 4981SOL    HW226406   2.224   1.602  12.829  1.2032 -0.8093  1.8554
 4982SOL     OW26407   1.566   1.592  11.629  0.9240 -0.2982 -0.6867
 4982SOL    HW126408   1.641   1.646  11.656  0.2133 -0.5927  1.8396
 4982SOL    HW226409   1.602   1.585  11.540  2.2456  0.9529 -0.2622
 4983SOL     OW26410   0.395   0.168   4.172 -0.0372  0.1855 -0.3154
 4983SOL    HW126411   0.384   0.209   4.086 -0.4175  1.1694  0.1967
 4983SOL    HW226412   0.328   0.100   4.173  0.4638 -0.2800  1.5767
 4984SOL     OW26413   0.657   0.466   8.917 -0.1377  0.1744  0.1630
 4984SOL    HW126414   0.627   0.376   8.929 -0.7288  0.2548 -0.6831
 4984SOL    HW226415   0.574   0.513   8.903 -0.5932 -0.6571  0.0835
 4985SOL     OW26416   3.318   3.014   9.810  0.0131 -0.3656 -0.0053
 4985SOL    HW126417   3.322   3.103   9.845 -0.0534  0.6193 -2.4920
 4985SOL    HW226418   3.278   2.977   9.888  1.2700  1.1581  1.3484
 4986SOL     OW26419   3.206   4.711   6.593 -0.4746  0.3741  0.4606
 4986SOL    HW126420   3.298   4.698   6.616 -0.7090  0.9588  1.7188
 4986SOL    HW226421   3.160   4.653   6.653  0.7927 -0.9835  0.1166
 4987SOL     OW26422   3.829   0.044   3.264  0.2354  0.0742  0.3285
 4987SOL    HW126423   3.755   0.048   3.205 -0.9930  0.4171  1.8792
 4987SOL    HW226424   3.860   4.674   3.261 -0.1191  0.0416 -1.6907
 4988SOL     OW26425   0.742   1.313   9.891 -0.4433 -0.4650 -0.4982
 4988SOL    HW126426   0.815   1.335   9.949 -0.8181  0.5979 -0.4481
 4988SOL    HW226427   0.708   1.235   9.934 -0.7165 -0.0043  0.1089
 4989SOL     OW26428   2.131   2.492   1.204 -0.9920  0.6362  0.0944
 4989SOL    HW126429   2.092   2.407   1.226  0.8870  0.2587  1.9676
 4989SOL    HW226430   2.180   2.468   1.125 -1.7506  1.0418 -0.5011
 4990SOL     OW26431   3.635   0.255   9.265  0.5507 -0.2757  0.6307
 4990SOL    HW126432   3.667   0.171   9.232 -1.1849 -0.3893 -0.7449
 4990SOL    HW226433   3.716   0.297   9.294  1.0948 -0.3349 -0.8513
 4991SOL     OW26434   0.612   1.821   2.423  0.5468 -0.1925  0.2875
 4991SOL    HW126435   0.624   1.844   2.516 -1.7793 -0.2435  0.5868
 4991SOL    HW226436   0.683   1.758   2.412  1.1575  0.7754 -1.2169
 4992SOL     OW26437   4.328   3.240   8.738 -0.3722 -0.4844  0.4276
 4992SOL    HW126438   4.353   3.270   8.825  0.3778  0.0297  0.0354
 4992SOL    HW226439   4.375   3.157   8.733  0.7066  0.1720 -0.3367
 4993SOL     OW26440   4.114   1.790   2.601  0.2407  0.0441 -0.5757
 4993SOL    HW126441   4.124   1.885   2.609 -0.9503  0.0528  0.8598
 4993SOL    HW226442   4.175   1.772   2.530  0.5723 -0.0104 -0.2802
 4994SOL     OW26443   3.382   4.281   4.520 -0.5271 -0.1492  0.8296
 4994SOL    HW126444   3.454   4.328   4.560  0.9847 -0.7360 -1.1946
 4994SOL    HW226445   3.403   4.195   4.558 -0.0516 -0.7174 -0.7252
 4995SOL     OW26446   3.715   1.835   7.181  0.1524 -0.1932  0.1810
 4995SOL    HW126447   3.691   1.916   7.137  3.2045  1.2683  1.1782
 4995SOL    HW226448   3.707   1.857   7.274  1.0904 -1.1029  0.4860
 4996SOL     OW26449   3.868   4.482   3.276  0.2519  0.1962 -1.0176
 4996SOL    HW126450   3.899   4.394   3.251  0.6213 -0.3055  1.2300
 4996SOL    HW226451   3.795   4.472   3.337 -0.1959 -2.4634 -1.9789
 4997SOL     OW26452   1.433   0.451   8.734 -0.2382 -0.1990 -0.0782
 4997SOL    HW126453   1.498   0.381   8.734 -1.0081 -0.9228 -0.9008
 4997SOL    HW226454   1.451   0.508   8.809  2.4999 -0.5777 -0.4769
 4998SOL     OW26455   1.238   0.613   7.790  0.1353  0.2247 -0.0820
 4998SOL    HW126456   1.152   0.582   7.760  0.2523  1.9487 -2.1800
 4998SOL    HW226457   1.284   0.647   7.713 -1.1229 -0.0104 -0.9358
 4999SOL     OW26458   3.907   4.693   3.743  0.6326  0.0640  0.0495
 4999SOL    HW126459   3.934   0.064   3.734  1.7165 -0.3782 -1.4135
 4999SOL    HW226460   3.840   4.694   3.675  0.1618  0.7404  0.5279
 5000SOL     OW26461   3.344   3.158   2.987  0.8531  0.1036  0.1944
 5000SOL    HW126462   3.331   3.197   2.900 -0.4528 -0.5352  0.0923
 5000SOL    HW226463   3.392   3.076   2.975 -0.2422 -0.7248  1.4275
 5001SOL     OW26464   2.596   3.294  14.938  0.4731 -0.0506  0.0564
 5001SOL    HW126465   2.568   3.207  14.968  0.8860  0.2374  1.2569
 5001SOL    HW226466   2.621   3.280  14.847  0.1036  0.1103 -0.0715
 5002SOL     OW26467   2.463   0.147   5.699  0.0881  0.0353 -0.6014
 5002SOL    HW126468   2.412   0.226   5.718  1.5681  0.9961 -0.5998
 5002SOL    HW226469   2.405   0.084   5.741  2.0971 -2.1250 -1.0534
 5003SOL     OW26470   4.265   2.014   9.842  0.2944  0.6094 -0.1039
 5003SOL    HW126471   4.257   1.947   9.909 -0.4279  0.3762 -0.4256
 5003SOL    HW226472   4.202   2.077   9.877  0.6449  0.9602 -0.1015
 5004SOL     OW26473   4.197   3.280   0.507 -0.1581  0.4886  0.1552
 5004SOL    HW126474   4.147   3.328   0.442  0.6474  1.7375  0.4675
 5004SOL    HW226475   4.195   3.351   0.572 -1.4683  0.3184  0.3017
 5005SOL     OW26476   4.452   1.920   6.259  0.4453  0.0027  0.6105
 5005SOL    HW126477   4.398   1.988   6.299 -1.2761 -0.4589 -0.9372
 5005SOL    HW226478   4.386   1.863   6.221  0.1913  1.0895 -0.5849
 5006SOL     OW26479   1.065   1.778   7.836 -0.3228 -0.1075 -0.4636
 5006SOL    HW126480   1.122   1.705   7.814 -1.9953 -1.3865 -0.5245
 5006SOL    HW226481   1.057   1.820   7.750 -1.3363  1.0851  0.1993
 5007SOL     OW26482   2.043   0.847   4.910  0.4591  0.2947 -0.0159
 5007SOL    HW126483   1.951   0.866   4.923  0.2334  0.1614 -1.5094
 5007SOL    HW226484   2.079   0.872   4.996 -0.1770  0.5816  0.1620
 5008SOL     OW26485   3.415   2.770   5.327 -0.2962  0.1068  0.1146
 5008SOL    HW126486   3.428   2.865   5.323 -1.2834  0.2494  0.3638
 5008SOL    HW226487   3.432   2.745   5.236  0.5174  0.2096  0.2370
 5009SOL     OW26488   2.639   3.986   7.922 -0.4012 -0.0176  0.3368
 5009SOL    HW126489   2.675   4.031   7.998  1.7779  0.0884 -0.7624
 5009SOL    HW226490   2.557   3.960   7.965  1.3605  0.4235  3.9395
 5010SOL     OW26491   2.404   2.644   6.231 -0.0513 -0.4858  0.4323
 5010SOL    HW126492   2.410   2.681   6.143  0.4863 -0.5165  0.4572
 5010SOL    HW226493   2.486   2.674   6.270 -0.3915  1.4205 -0.3116
 5011SOL     OW26494   4.577   0.442  15.808  0.6078  0.3291 -0.0580
 5011SOL    HW126495   4.585   0.469  15.716 -4.2954  0.6130 -0.4032
 5011SOL    HW226496   4.489   0.473  15.826  0.9041  1.0113  0.2106
 5012SOL     OW26497   1.847   2.127  10.457  0.0407 -0.3266 -0.4206
 5012SOL    HW126498   1.810   2.059  10.514  2.3246  0.6518  2.2438
 5012SOL    HW226499   1.908   2.164  10.521  0.4869 -1.5560 -0.1393
 5013SOL     OW26500   2.421   0.325   7.670 -0.6931 -0.4634  0.2438
 5013SOL    HW126501   2.383   0.410   7.690  0.0243 -0.1185  0.1262
 5013SOL    HW226502   2.455   0.298   7.756 -0.7788 -2.1015 -0.2277
 5014SOL     OW26503   0.302   2.399  13.724 -0.5215 -0.3277  0.4845
 5014SOL    HW126504   0.329   2.369  13.638 -0.1560 -1.0829  0.8670
 5014SOL    HW226505   0.373   2.462  13.737 -2.6600  2.2097  0.0153
 5015SOL     OW26506   3.988   1.299   0.838 -0.3080  0.2044 -0.0533
 5015SOL    HW126507   3.985   1.393   0.820 -0.6864 -0.1595 -1.8615
 5015SOL    HW226508   3.953   1.295   0.927 -0.7094 -0.9424 -0.2627
 5016SOL     OW26509   2.417   0.887  15.078  0.4159  0.3687 -0.4176
 5016SOL    HW126510   2.359   0.956  15.109  1.7984  1.0771  0.5990
 5016SOL    HW226511   2.484   0.936  15.030 -0.9543 -1.0043 -3.7013
 5017SOL     OW26512   3.902   3.522   8.729 -0.2673 -0.2696  0.1935
 5017SOL    HW126513   3.815   3.528   8.768 -0.1041 -2.9496  0.9932
 5017SOL    HW226514   3.913   3.613   8.703 -0.0954  0.3207  2.4298
 5018SOL     OW26515   0.866   1.467   5.992 -0.3338 -0.1597 -0.1180
 5018SOL    HW126516   0.955   1.434   6.004  0.2803  1.2164 -0.8632
 5018SOL    HW226517   0.829   1.453   6.079  0.5033 -0.9170  0.1179
 5019SOL     OW26518   0.834   2.954  14.340 -0.0977 -0.0840 -0.6171
 5019SOL    HW126519   0.798   3.039  14.313 -1.8240 -1.2640 -2.0225
 5019SOL    HW226520   0.899   2.939  14.272  1.0060  0.2818  0.3635
 5020SOL     OW26521   2.901   3.989   9.116  0.3069 -0.5613 -0.1536
 5020SOL    HW126522   2.811   3.967   9.093 -0.2412  0.5065  0.9845
 5020SOL    HW226523   2.953   3.911   9.094  0.8521 -0.3799  0.5255
 5021SOL     OW26524   1.266   3.986   2.529  0.0623  0.4194  0.2512
 5021SOL    HW126525   1.319   3.959   2.604  0.0629  1.1232  0.5046
 5021SOL    HW226526   1.175   3.988   2.559 -0.4756  3.4282 -1.5366
 5022SOL     OW26527   2.054   0.943   7.316 -0.1055 -0.0973  0.0502
 5022SOL    HW126528   1.986   0.937   7.383  0.1634  0.3077  0.3562
 5022SOL    HW226529   2.123   0.894   7.360  0.7671  1.4042  0.3313
 5023SOL     OW26530   4.702   0.521   6.553 -0.1989 -0.3561 -0.2192
 5023SOL    HW126531   4.612   0.493   6.537  0.1740 -2.0873  0.7558
 5023SOL    HW226532   4.693   0.583   6.626  0.4246 -0.1170 -0.3482
 5024SOL     OW26533   4.086   1.234   7.151  0.2269  0.0073  0.1335
 5024SOL    HW126534   4.083   1.316   7.199 -0.1170 -0.6188  1.1726
 5024SOL    HW226535   4.082   1.171   7.223  0.3315  0.6201  0.6701
 5025SOL     OW26536   0.979   0.819   8.068  0.4328 -0.0645  0.3318
 5025SOL    HW126537   0.955   0.823   7.976 -1.3799 -2.0640  0.7154
 5025SOL    HW226538   0.985   0.914   8.079  0.7465 -0.1671  1.0630
 5026SOL     OW26539   1.657   4.315  17.037 -0.7618  0.0852 -0.1715
 5026SOL    HW126540   1.722   4.381  17.014  0.4120 -0.8499  0.5228
 5026SOL    HW226541   1.697   4.250  17.094  0.6517  0.9474 -0.1980
 5027SOL     OW26542   3.726   2.269  16.363  0.0144  0.2903  0.0730
 5027SOL    HW126543   3.636   2.236  16.360 -0.6915  2.3248 -0.9755
 5027SOL    HW226544   3.715   2.348  16.310 -0.3635 -0.6877 -1.3192
 5028SOL     OW26545   4.387   3.699   4.829 -0.2476 -0.0062  0.3974
 5028SOL    HW126546   4.395   3.700   4.924  0.2095  1.9604  0.3373
 5028SOL    HW226547   4.475   3.724   4.802  0.3140 -0.6725  1.6235
 5029SOL     OW26548   3.052   3.324   6.998 -0.0692  0.7836 -0.1199
 5029SOL    HW126549   3.133   3.290   7.036 -2.3435 -1.4756  2.7271
 5029SOL    HW226550   3.008   3.371   7.069  0.9211 -0.1680  1.1251
 5030SOL     OW26551   2.924   3.922   6.095 -0.0183  0.1974  0.3600
 5030SOL    HW126552   2.952   4.006   6.132 -0.2858  0.3270  0.2636
 5030SOL    HW226553   2.971   3.919   6.012 -1.8942 -1.7265 -0.6204
 5031SOL     OW26554   2.015   0.261  10.469  0.2085 -0.0674  0.4510
 5031SOL    HW126555   2.050   0.300  10.550  0.4939 -1.8889  1.1964
 5031SOL    HW226556   1.961   0.338  10.450  0.7450  0.1307 -0.2628
 5032SOL     OW26557   1.711   4.518  11.304 -0.3131 -0.0337  0.1971
 5032SOL    HW126558   1.639   4.523  11.241  0.3955  1.3553 -0.4958
 5032SOL    HW226559   1.790   4.535  11.252  0.7310  1.6610  2.3103
 5033SOL     OW26560   4.334   0.988   5.433 -0.6784 -0.5716 -0.2557
 5033SOL    HW126561   4.394   1.009   5.504 -1.0923  0.4695 -0.2181
 5033SOL    HW226562   4.371   0.903   5.409 -1.1256 -0.3148 -1.8514
 5034SOL     OW26563   4.079   3.771   2.899 -0.0772  0.1565 -0.1844
 5034SOL    HW126564   4.027   3.778   2.819  0.6244  0.2417 -0.6311
 5034SOL    HW226565   4.066   3.678   2.920 -0.0596  0.4134  0.9620
 5035SOL     OW26566   1.191   0.881   0.432 -0.0248 -0.2715 -0.6858
 5035SOL    HW126567   1.221   0.943   0.498  0.8031 -0.6567 -0.7032
 5035SOL    HW226568   1.250   0.908   0.361  2.3461 -1.5176  0.8097
 5036SOL     OW26569   4.426   3.428   1.878  0.0173  0.5604 -0.0034
 5036SOL    HW126570   4.420   3.364   1.949 -1.2816 -0.3862 -0.9684
 5036SOL    HW226571   4.472   3.377   1.811 -0.1773  1.2830 -0.6926
 5037SOL     OW26572   2.653   2.525   1.261 -0.0802  0.0635  0.3316
 5037SOL    HW126573   2.605   2.526   1.344 -0.5533  1.1391  0.0429
 5037SOL    HW226574   2.668   2.618   1.242 -0.9935  0.4511  1.4554
 5038SOL     OW26575   3.472   4.187   7.589 -0.5355 -0.2284 -0.0972
 5038SOL    HW126576   3.495   4.269   7.633  0.7416  0.2401 -1.6187
 5038SOL    HW226577   3.492   4.208   7.498 -1.9426  1.8878  0.0801
 5039SOL     OW26578   0.181   1.365   9.132  0.1206 -0.1192 -0.4602
 5039SOL    HW126579   0.197   1.307   9.207  0.8302 -0.1918 -0.6685
 5039SOL    HW226580   0.255   1.359   9.072  0.0967  0.7351 -0.5799
 5040SOL     OW26581   0.990   3.146  14.792  0.2975  0.1296 -0.0407
 5040SOL    HW126582   1.064   3.169  14.736  1.4855 -0.0002  1.4771
 5040SOL    HW226583   1.004   3.051  14.791  0.6790  0.1879  0.0377
 5041SOL     OW26584   2.488   2.097   6.156  0.2075  1.0083  0.1502
 5041SOL    HW126585   2.542   2.055   6.223 -0.9174 -0.2216  0.2876
 5041SOL    HW226586   2.513   2.189   6.153  2.0551  0.3552 -5.2124
 5042SOL     OW26587   1.292   1.123   1.492 -0.0477 -0.0447 -0.1796
 5042SOL    HW126588   1.329   1.184   1.429  1.0897 -1.2192 -0.6668
 5042SOL    HW226589   1.366   1.062   1.505  0.5824  0.3176 -2.0909
 5043SOL     OW26590   1.689   2.066  17.398  0.2172  0.4868 -0.1398
 5043SOL    HW126591   1.763   2.124  17.376  1.1628 -0.9055 -0.5940
 5043SOL    HW226592   1.618   2.127  17.377 -0.8795 -0.7964 -0.1552
 5044SOL     OW26593   4.191   1.306  10.055 -0.5361  0.1815 -0.3941
 5044SOL    HW126594   4.154   1.311  10.143 -0.4870  2.3334 -0.5071
 5044SOL    HW226595   4.279   1.272  10.070 -1.8792 -3.2355 -0.3400
 5045SOL     OW26596   2.696   1.293  16.994  0.1691 -0.0322  0.1713
 5045SOL    HW126597   2.767   1.295  17.058 -0.1744  0.3128  0.5413
 5045SOL    HW226598   2.658   1.379  17.010 -1.4423 -0.7638  0.3541
 5046SOL     OW26599   4.500   2.131  13.268 -0.3635  0.3448  0.4455
 5046SOL    HW126600   4.573   2.092  13.318 -0.4469 -0.4170 -0.0234
 5046SOL    HW226601   4.550   2.207  13.238  0.2322 -0.6031 -0.9481
 5047SOL     OW26602   1.643   4.297   3.488 -0.0325 -0.1450  0.7044
 5047SOL    HW126603   1.696   4.331   3.416 -1.5126  1.7749  0.5327
 5047SOL    HW226604   1.587   4.374   3.499 -1.7117 -1.3181  0.3621
 5048SOL     OW26605   0.305   1.381  17.196 -0.0017  0.2650 -0.1050
 5048SOL    HW126606   0.389   1.415  17.227  0.3908 -1.0314  0.2693
 5048SOL    HW226607   0.282   1.335  17.277 -1.9562 -0.4302 -1.0467
 5049SOL     OW26608   0.461   0.497  14.467  0.7259 -0.3221 -0.7986
 5049SOL    HW126609   0.474   0.514  14.374  3.3133 -0.4734 -0.4609
 5049SOL    HW226610   0.409   0.416  14.466  0.9323 -0.4792  0.7167
 5050SOL     OW26611   1.613   1.222   5.754  0.0925  0.1109 -0.0158
 5050SOL    HW126612   1.596   1.315   5.770  2.4412  0.3177  1.1868
 5050SOL    HW226613   1.590   1.215   5.661 -1.0464  3.3760 -0.0011
 5051SOL     OW26614   4.236   0.873   7.227 -0.5697  0.0376 -0.9174
 5051SOL    HW126615   4.222   0.959   7.266 -0.0310 -1.6224  3.0061
 5051SOL    HW226616   4.272   0.895   7.142 -1.3400 -0.1830 -1.2971
 5052SOL     OW26617   3.222   3.093   5.205  0.2966  0.2813  0.1599
 5052SOL    HW126618   3.155   3.153   5.238  0.6634  1.4523 -1.2407
 5052SOL    HW226619   3.204   3.102   5.111  3.9204 -0.0327 -0.5604
 5053SOL     OW26620   3.911   0.283   4.457  0.0584 -0.4962  0.1379
 5053SOL    HW126621   3.947   0.355   4.509 -0.7959  0.5673 -0.7269
 5053SOL    HW226622   3.983   0.234   4.419  0.8138  0.9302 -0.2768
 5054SOL     OW26623   4.364   4.474   1.884  0.5677 -0.5575 -0.5270
 5054SOL    HW126624   4.395   4.533   1.815  2.4786  0.6633  1.3672
 5054SOL    HW226625   4.393   4.528   1.958 -0.6229 -2.2209  1.1494
 5055SOL     OW26626   2.612   2.120  17.063 -1.0165  0.4671  0.1632
 5055SOL    HW126627   2.644   2.210  17.076 -1.9338  0.8413 -0.1753
 5055SOL    HW226628   2.534   2.128  17.119 -1.7730  1.5960 -1.0634
 5056SOL     OW26629   1.437   2.721   7.948 -0.4315 -0.6936  0.0237
 5056SOL    HW126630   1.408   2.800   7.993  0.1171  0.3859 -1.5120
 5056SOL    HW226631   1.421   2.654   8.014 -1.4523 -0.2237  0.2507
 5057SOL     OW26632   2.219   0.010   3.053 -0.1636 -0.7507  0.0867
 5057SOL    HW126633   2.205   4.659   2.991  0.2592  0.1115 -1.0066
 5057SOL    HW226634   2.293   4.714   3.110 -1.6779  1.0599  2.6139
 5058SOL     OW26635   2.019   0.199   2.586 -0.3830 -0.7818 -0.6850
 5058SOL    HW126636   2.110   0.171   2.579 -0.4830 -0.7330 -2.2248
 5058SOL    HW226637   2.019   0.294   2.597 -1.5664 -0.8962  0.2465
 5059SOL     OW26638   0.391   2.292   5.163  0.2917  0.0258 -0.0129
 5059SOL    HW126639   0.369   2.347   5.088 -1.2874 -0.8927 -0.2268
 5059SOL    HW226640   0.426   2.355   5.226  0.3776  0.3111 -0.3483
 5060SOL     OW26641   2.197   0.633   3.089 -0.4220  0.2160  0.1769
 5060SOL    HW126642   2.276   0.608   3.137  1.4658 -1.6687 -3.9660
 5060SOL    HW226643   2.207   0.728   3.090  0.0665  0.1630  1.6895
 5061SOL     OW26644   3.265   0.778  11.463 -0.2454  0.5808 -0.2280
 5061SOL    HW126645   3.234   0.869  11.463 -2.2349 -0.1053  1.5873
 5061SOL    HW226646   3.309   0.772  11.377 -1.0440 -1.0615 -0.5200
 5062SOL     OW26647   0.746   1.793   2.690  0.0861 -0.3232 -0.1315
 5062SOL    HW126648   0.823   1.839   2.722  0.3234  0.1878 -1.4357
 5062SOL    HW226649   0.778   1.707   2.716 -0.1087 -0.7769 -1.3740
 5063SOL     OW26650   1.771   0.422   4.658 -0.6457 -0.1516  0.3981
 5063SOL    HW126651   1.809   0.345   4.615 -0.9111 -0.4862  0.7633
 5063SOL    HW226652   1.682   0.386   4.663 -0.4408 -0.6312  0.6805
 5064SOL     OW26653   3.653   1.654   6.587 -0.0668  0.4499  0.0768
 5064SOL    HW126654   3.617   1.588   6.647 -0.5182  1.0514  0.4731
 5064SOL    HW226655   3.715   1.689   6.651  1.3263  0.5431 -1.3294
 5065SOL     OW26656   2.354   0.204  10.454 -0.3018  0.3791  0.1724
 5065SOL    HW126657   2.290   0.249  10.510  1.6128  0.7116  2.0760
 5065SOL    HW226658   2.364   0.124  10.505  1.5005  1.4001  1.4297
 5066SOL     OW26659   2.487   0.621  17.078 -0.0506 -0.0683 -0.3880
 5066SOL    HW126660   2.517   0.598  17.166 -1.3114  1.2702  0.3943
 5066SOL    HW226661   2.392   0.619  17.091 -0.3726 -0.5606 -2.6751
 5067SOL     OW26662   2.138   4.118   5.908 -0.0374 -0.2398  0.1829
 5067SOL    HW126663   2.129   4.106   6.003 -2.1035  1.1005  0.1699
 5067SOL    HW226664   2.106   4.208   5.896 -1.8291 -1.1023 -1.4382
 5068SOL     OW26665   1.498   0.448  15.583  0.6266  0.8576  0.6874
 5068SOL    HW126666   1.577   0.499  15.598  1.6253 -0.5116  0.1144
 5068SOL    HW226667   1.478   0.410  15.669  0.5238  0.1706  0.3644
 5069SOL     OW26668   1.817   3.612   6.368  0.7132 -0.2343  0.1318
 5069SOL    HW126669   1.899   3.656   6.389  0.3699  1.2204 -1.5998
 5069SOL    HW226670   1.756   3.667   6.318 -0.3354 -0.6883  0.9181
 5070SOL     OW26671   0.617   4.624   7.276 -0.1884 -0.9333 -0.0246
 5070SOL    HW126672   0.701   4.656   7.242 -2.0588  2.0166 -1.8850
 5070SOL    HW226673   0.590   4.553   7.218  0.4206 -0.5959 -0.7219
 5071SOL     OW26674   2.177   1.894   7.291  0.3414 -0.3232 -0.0056
 5071SOL    HW126675   2.170   1.818   7.232 -0.0062 -2.5661  2.9222
 5071SOL    HW226676   2.164   1.971   7.236  1.6893  0.4304  0.7528
 5072SOL     OW26677   1.334   0.513   0.165  0.0518 -0.4241 -0.6875
 5072SOL    HW126678   1.426   0.522   0.190 -0.5548 -0.4530  1.5499
 5072SOL    HW226679   1.300   0.455   0.234 -0.4909  0.4217 -0.2489
 5073SOL     OW26680   0.803   4.633   1.999 -0.2387 -0.1615  0.1581
 5073SOL    HW126681   0.844   4.614   1.914  0.1884  1.1517  0.0657
 5073SOL    HW226682   0.715   4.612   1.967  0.2248 -0.4780 -0.9241
 5074SOL     OW26683   3.752   1.754   6.814 -0.0772 -0.3357  0.3300
 5074SOL    HW126684   3.825   1.787   6.866  0.0271 -1.3928  0.8567
 5074SOL    HW226685   3.695   1.709   6.876  0.0181 -0.9233 -0.0093
 5075SOL     OW26686   1.048   1.076   8.019  0.6405 -0.4011  0.3293
 5075SOL    HW126687   1.128   1.112   8.056  0.3845  1.0340 -0.5390
 5075SOL    HW226688   1.067   1.097   7.928  1.6477  0.0243  0.6404
 5076SOL     OW26689   0.316   4.517   9.658  0.7907 -0.4890  0.7944
 5076SOL    HW126690   0.227   4.480   9.664  0.7761 -0.4895  0.5659
 5076SOL    HW226691   0.343   4.500   9.748 -0.3405  0.9049  1.4081
 5077SOL     OW26692   1.994   2.613  14.879  0.5390 -0.2572 -0.0098
 5077SOL    HW126693   1.976   2.674  14.951 -2.6295  0.4871 -1.4404
 5077SOL    HW226694   2.016   2.537  14.933 -1.8776  1.4807  3.4846
 5078SOL     OW26695   2.802   2.031  16.179 -0.3436  0.3362  0.4898
 5078SOL    HW126696   2.872   1.965  16.169  0.5194  1.4312 -0.7697
 5078SOL    HW226697   2.800   2.074  16.094  0.7656 -0.9059 -0.1768
 5079SOL     OW26698   0.571   4.118   7.161 -0.0036  1.2949  0.1496
 5079SOL    HW126699   0.635   4.100   7.093 -3.3156  0.0834 -2.6759
 5079SOL    HW226700   0.509   4.045   7.153  0.8469  0.6310 -0.3046
 5080SOL     OW26701   0.862   2.171   7.516 -0.0988  0.0829 -0.1896
 5080SOL    HW126702   0.817   2.195   7.597  0.3658 -0.3974  0.2078
 5080SOL    HW226703   0.810   2.095   7.489  0.9473 -0.8469  0.4486
 5081SOL     OW26704   0.237   4.237   4.378  0.2788  0.4120  0.0013
 5081SOL    HW126705   0.264   4.212   4.466  0.7369  1.3235  0.1171
 5081SOL    HW226706   0.199   4.151   4.359  0.8153  0.3757 -0.9167
 5082SOL     OW26707   0.885   3.933   7.717  0.2638  0.3070  0.0943
 5082SOL    HW126708   0.918   3.925   7.627 -1.0953 -1.7154 -0.2178
 5082SOL    HW226709   0.790   3.925   7.707  0.4928  0.3056 -2.1741
 5083SOL     OW26710   0.486   4.363  12.714 -0.5012  0.2896  0.4990
 5083SOL    HW126711   0.440   4.285  12.744  0.1548 -0.5540 -0.6960
 5083SOL    HW226712   0.574   4.341  12.743 -0.4500  0.4756  0.4882
 5084SOL     OW26713   1.335   3.424   4.065  0.0200  0.0026  0.0044
 5084SOL    HW126714   1.277   3.348   4.064  1.5619 -1.1949  0.5638
 5084SOL    HW226715   1.288   3.498   4.026  0.1748 -0.7718 -1.6556
 5085SOL     OW26716   0.020   3.682   4.481  0.0730  0.5001 -0.0655
 5085SOL    HW126717   4.709   3.663   4.392  0.0730 -0.4305  0.1269
 5085SOL    HW226718   0.062   3.598   4.501 -0.0879  0.3210 -0.4534
 5086SOL     OW26719   0.733   1.538   3.592 -0.6896  0.1661 -0.5211
 5086SOL    HW126720   0.780   1.460   3.620  0.1825  0.4600 -1.1509
 5086SOL    HW226721   0.701   1.505   3.508  0.3226  0.1859 -0.9145
 5087SOL     OW26722   0.693   0.864   3.744 -0.3401  0.0765 -0.2023
 5087SOL    HW126723   0.757   0.810   3.697  0.9839  1.4951 -0.0247
 5087SOL    HW226724   0.692   0.946   3.696  0.7686  1.9722  3.0130
 5088SOL     OW26725   2.575   4.547   4.295 -0.1292  0.3422 -0.2526
 5088SOL    HW126726   2.633   4.475   4.321  2.8835  1.2758 -4.3561
 5088SOL    HW226727   2.616   4.579   4.214  2.9259 -0.2023  1.0803
 5089SOL     OW26728   3.109   4.374   9.132  0.3179 -0.2792  0.2813
 5089SOL    HW126729   3.167   4.438   9.173 -1.4552  0.5021  1.5816
 5089SOL    HW226730   3.080   4.315   9.201 -0.3172 -1.1607 -0.7524
 5090SOL     OW26731   1.417   0.962   2.556  0.3106  0.2358  0.4777
 5090SOL    HW126732   1.374   0.965   2.470  0.5608  0.8062  0.3768
 5090SOL    HW226733   1.379   1.027   2.615 -0.8808  1.8144 -2.0418
 5091SOL     OW26734   4.139   4.027   5.680  0.1980 -0.2131 -0.2045
 5091SOL    HW126735   4.178   3.997   5.598  2.5257 -0.3725  0.9685
 5091SOL    HW226736   4.051   3.989   5.683  0.4160 -0.7230 -0.4261
 5092SOL     OW26737   3.425   4.127   3.879  0.2091 -0.4890  0.4025
 5092SOL    HW126738   3.474   4.056   3.920  3.2963  0.0224 -2.4429
 5092SOL    HW226739   3.447   4.197   3.941  0.3819 -1.5487  1.5298
 5093SOL     OW26740   4.462   1.541  11.175 -0.0990  0.1954  0.5071
 5093SOL    HW126741   4.370   1.568  11.172 -0.3224 -0.6285 -0.3266
 5093SOL    HW226742   4.456   1.458  11.223 -0.9473 -0.0747 -0.0606
 5094SOL     OW26743   1.694   3.055   6.414 -0.4036 -0.2422  0.6899
 5094SOL    HW126744   1.723   3.020   6.499  0.3114 -1.4248 -0.0301
 5094SOL    HW226745   1.731   3.143   6.407 -0.2202 -0.3591  0.1593
 5095SOL     OW26746   0.330   3.139   3.915  0.4889  0.5600  0.2222
 5095SOL    HW126747   0.359   3.229   3.929  1.2297  0.2137  0.9411
 5095SOL    HW226748   0.358   3.130   3.824  0.3086  0.2682  0.1971
 5096SOL     OW26749   2.870   2.157  15.922 -0.5714  0.3058  0.7891
 5096SOL    HW126750   2.959   2.177  15.894 -0.9557  3.0820  1.5197
 5096SOL    HW226751   2.825   2.135  15.840  0.6373 -2.8304  0.9873
 5097SOL     OW26752   4.447   3.168   0.414 -0.4546 -0.4426  0.0447
 5097SOL    HW126753   4.456   3.229   0.341  0.5196  0.6933  1.1324
 5097SOL    HW226754   4.354   3.177   0.431 -0.1378  1.8825  0.5134
 5098SOL     OW26755   0.963   1.085   0.491  0.7066  0.4998  0.5371
 5098SOL    HW126756   1.000   1.037   0.417  0.5440  0.9699  0.1538
 5098SOL    HW226757   0.942   1.169   0.451 -1.0636  0.2373  0.9144
 5099SOL     OW26758   0.333   1.322   8.287 -0.3849  0.5031 -0.1972
 5099SOL    HW126759   0.299   1.385   8.351  1.4780 -0.5493  1.8120
 5099SOL    HW226760   0.394   1.281   8.347 -2.4338  0.4129  1.8465
 5100SOL     OW26761   2.722   2.725   1.972 -0.4809 -0.2004  0.1108
 5100SOL    HW126762   2.756   2.659   1.913 -1.6444 -2.0034  1.4726
 5100SOL    HW226763   2.629   2.707   1.967 -0.6522  0.7120  0.0283
 5101SOL     OW26764   3.835   3.578  11.605 -0.9333  1.1408  0.2035
 5101SOL    HW126765   3.881   3.574  11.522 -0.3653  0.3975  0.5595
 5101SOL    HW226766   3.859   3.666  11.635  1.0872 -0.0885  2.1759
 5102SOL     OW26767   1.291   4.029   5.350 -0.1371  0.1414 -0.1761
 5102SOL    HW126768   1.378   4.070   5.346 -0.3100  0.6441  1.0835
 5102SOL    HW226769   1.295   3.952   5.294  1.4065  1.0814 -1.3647
 5103SOL     OW26770   0.630   0.110   9.188  0.2464 -0.0177 -0.3313
 5103SOL    HW126771   0.725   0.123   9.195  0.1696 -0.0417  0.6918
 5103SOL    HW226772   0.613   0.147   9.101  0.9437 -0.2244 -0.5559
 5104SOL     OW26773   3.166   1.619  17.379 -0.1073 -0.1282 -0.1508
 5104SOL    HW126774   3.147   1.705  17.341 -1.8563 -1.7078 -2.8143
 5104SOL    HW226775   3.234   1.653  17.438 -0.1882 -0.9151  0.3858
 5105SOL     OW26776   1.503   4.517   3.550  0.6944  0.2804 -0.2013
 5105SOL    HW126777   1.547   4.583   3.604  0.9305  1.1908 -1.5188
 5105SOL    HW226778   1.436   4.577   3.519  2.7343  1.8831 -1.4748
 5106SOL     OW26779   4.379   0.127  11.199 -0.1212 -0.1098  0.2764
 5106SOL    HW126780   4.327   0.182  11.140 -0.5079 -2.4656 -1.5418
 5106SOL    HW226781   4.424   0.195  11.250 -3.7377  2.2593  0.3181
 5107SOL     OW26782   1.620   2.393   0.608  0.0043 -0.0345 -0.0681
 5107SOL    HW126783   1.543   2.339   0.592 -1.1691  1.3383  0.9835
 5107SOL    HW226784   1.661   2.324   0.660 -2.9307  0.1661  2.5016
 5108SOL     OW26785   4.285   1.569  10.865  0.3528  0.1670  0.3768
 5108SOL    HW126786   4.234   1.643  10.833 -2.3529 -1.7486  0.2310
 5108SOL    HW226787   4.262   1.569  10.958 -1.2141 -1.1753  0.0025
 5109SOL     OW26788   1.836   0.641   4.939 -0.1443  0.0253 -0.3874
 5109SOL    HW126789   1.890   0.620   5.015 -2.1534 -1.9547  0.4892
 5109SOL    HW226790   1.801   0.728   4.959  1.3641  1.1804 -2.7099
 5110SOL     OW26791   2.016   2.075   9.211 -0.1951 -0.0613  0.3973
 5110SOL    HW126792   2.041   2.000   9.156  1.3533  1.1809 -0.6045
 5110SOL    HW226793   2.047   2.142   9.149 -0.9130 -0.0742  0.0275
 5111SOL     OW26794   3.952   2.747   0.966 -0.0787  0.6219  0.0076
 5111SOL    HW126795   3.917   2.801   1.036  2.8169  1.5706  0.7243
 5111SOL    HW226796   4.025   2.803   0.939 -0.8324  0.5251 -2.2244
 5112SOL     OW26797   4.699   3.799  15.134 -0.0791  0.2380  0.0558
 5112SOL    HW126798   4.629   3.861  15.115 -1.3164 -1.3092 -0.4296
 5112SOL    HW226799   0.057   3.852  15.137  0.2233 -0.2402  0.5899
 5113SOL     OW26800   2.724   0.971   2.723  0.0503 -0.3507 -0.0534
 5113SOL    HW126801   2.633   0.989   2.749 -0.3913  0.4478 -2.1380
 5113SOL    HW226802   2.770   1.041   2.769 -0.1551  0.0724 -0.4954
 5114SOL     OW26803   1.847   3.899  11.819  0.6076 -0.0201 -0.1897
 5114SOL    HW126804   1.817   3.855  11.898  0.1447  2.3160  0.9300
 5114SOL    HW226805   1.932   3.930  11.849  0.0892 -0.4533  1.6836
 5115SOL     OW26806   3.956   3.590   9.439  0.0410  0.1431 -0.2128
 5115SOL    HW126807   4.036   3.555   9.399  1.0193  0.7101  1.2245
 5115SOL    HW226808   3.923   3.507   9.473 -0.6479  1.2426  1.7696
 5116SOL     OW26809   1.688   3.945   6.558  0.3564  0.5699 -0.1582
 5116SOL    HW126810   1.754   4.005   6.525  0.9787 -0.5481 -0.9570
 5116SOL    HW226811   1.604   3.982   6.532  0.0441 -1.1751 -1.6453
 5117SOL     OW26812   2.121   1.576   3.504 -0.4604  0.4532 -0.1763
 5117SOL    HW126813   2.065   1.561   3.427  0.5802  1.8269 -1.1856
 5117SOL    HW226814   2.148   1.666   3.489  1.1862 -0.2464 -1.4274
 5118SOL     OW26815   0.351   3.697   2.704  0.1169  0.1955 -0.6387
 5118SOL    HW126816   0.338   3.744   2.786  0.7946  0.5940 -0.7645
 5118SOL    HW226817   0.270   3.647   2.687  0.4557  0.2589 -2.4867
 5119SOL     OW26818   3.398   3.110   1.488  0.2061  0.5107 -0.2596
 5119SOL    HW126819   3.376   3.112   1.395 -0.5139  0.4165 -0.0916
 5119SOL    HW226820   3.480   3.062   1.493  1.3417  2.5547  0.7321
 5120SOL     OW26821   1.223   2.729   5.002 -0.1252 -0.4236 -0.0636
 5120SOL    HW126822   1.156   2.743   5.068  0.2630 -1.3061  0.5111
 5120SOL    HW226823   1.277   2.807   4.992 -0.2011 -0.1463  1.8630
 5121SOL     OW26824   2.436   1.072   5.480 -0.4730  0.0238 -0.2215
 5121SOL    HW126825   2.412   1.012   5.409  2.4891 -1.2692 -0.1046
 5121SOL    HW226826   2.396   1.041   5.561 -1.5706  2.3007  0.1233
 5122SOL     OW26827   0.532   3.825  15.902 -0.4060 -0.5185 -0.0173
 5122SOL    HW126828   0.497   3.789  15.820  1.2024 -0.7264 -0.5983
 5122SOL    HW226829   0.483   3.780  15.971 -1.4598  1.0227  0.2520
 5123SOL     OW26830   4.670   1.307   3.356  0.2692  0.1100  0.0666
 5123SOL    HW126831   4.678   1.212   3.352 -0.0067  0.0720  0.4851
 5123SOL    HW226832   4.629   1.326   3.440  1.0830 -0.0839  0.5034
 5124SOL     OW26833   0.382   0.999   5.934 -0.4127  0.2914  0.4840
 5124SOL    HW126834   0.422   0.954   6.008 -0.7490  0.5923  0.8442
 5124SOL    HW226835   0.345   0.928   5.881 -2.5245  0.3040  1.9646
 5125SOL     OW26836   4.442   4.278   9.585 -0.2959 -0.4059  0.2208
 5125SOL    HW126837   4.418   4.315   9.670 -1.5532  1.0330 -0.7618
 5125SOL    HW226838   4.476   4.358   9.545  1.3882 -0.8119  0.8476
 5126SOL     OW26839   4.696   0.741  11.355  0.3001  0.4841  0.3117
 5126SOL    HW126840   0.039   0.811  11.367  1.5162 -0.8837  1.7821
 5126SOL    HW226841   4.626   0.802  11.334  3.3841  4.0445  0.3892
 5127SOL     OW26842   0.669   3.782  10.532 -0.1109 -0.1174 -0.0466
 5127SOL    HW126843   0.667   3.877  10.518  0.0024  0.0398  1.0089
 5127SOL    HW226844   0.755   3.778  10.574  1.2106 -1.0275 -2.8523
 5128SOL     OW26845   0.345   1.061   7.795  0.1555  0.2602 -0.5427
 5128SOL    HW126846   0.319   0.983   7.845  1.8454 -0.8776 -1.4395
 5128SOL    HW226847   0.285   1.130   7.823 -0.5008 -0.4159 -0.2790
 5129SOL     OW26848   0.339   2.418  12.787  0.0738 -0.4725 -0.2892
 5129SOL    HW126849   0.301   2.342  12.832  0.9715 -2.3751 -2.7442
 5129SOL    HW226850   0.275   2.427  12.717 -2.6199 -1.0247  2.0870
 5130SOL     OW26851   4.511   2.885   8.271 -0.2137  0.2439  0.5525
 5130SOL    HW126852   4.514   2.835   8.353 -1.8675 -0.3155  0.2743
 5130SOL    HW226853   4.533   2.972   8.303 -0.9442  0.5016  0.3488
 5131SOL     OW26854   0.392   2.543   9.789 -0.0852  0.9502 -0.5942
 5131SOL    HW126855   0.469   2.561   9.734 -0.8863  2.5593 -1.2109
 5131SOL    HW226856   0.335   2.620   9.794 -0.4788  0.4798  1.9460
 5132SOL     OW26857   3.242   2.909  16.779  0.1612  0.3267 -0.6908
 5132SOL    HW126858   3.291   2.829  16.760 -0.6182 -0.3370  0.0910
 5132SOL    HW226859   3.187   2.910  16.701 -1.7740 -1.8637  0.6546
 5133SOL     OW26860   1.282   3.745   4.346 -0.7496 -0.4372  0.3527
 5133SOL    HW126861   1.268   3.830   4.304  0.9641 -1.1212 -1.5906
 5133SOL    HW226862   1.376   3.728   4.345 -0.8509 -0.9148 -0.4416
 5134SOL     OW26863   4.198   3.316   2.866  0.0408 -0.2365  0.1040
 5134SOL    HW126864   4.218   3.313   2.773 -0.0752  2.7164  0.0058
 5134SOL    HW226865   4.192   3.223   2.890  1.4875  0.3809  2.8315
 5135SOL     OW26866   2.882   1.141  13.890 -0.0674  0.1985  0.1721
 5135SOL    HW126867   2.918   1.080  13.825  0.8241  1.5423 -0.5882
 5135SOL    HW226868   2.788   1.126  13.878 -0.6261  2.5952  1.6593
 5136SOL     OW26869   2.569   0.854  13.655  0.1944 -0.2883  0.6524
 5136SOL    HW126870   2.638   0.790  13.672  1.3646  1.8367  3.8316
 5136SOL    HW226871   2.491   0.804  13.678 -0.3717 -0.8919 -2.5885
 5137SOL     OW26872   0.071   3.376  11.356 -0.0162 -0.3526 -0.2643
 5137SOL    HW126873   0.114   3.458  11.332  0.1541  0.4012  2.5636
 5137SOL    HW226874   4.700   3.401  11.371  0.2315  1.5343 -1.9352
 5138SOL     OW26875   2.907   3.912  10.435  0.2760  0.0626  0.0999
 5138SOL    HW126876   2.884   3.906  10.527  3.6137  0.6695  0.9562
 5138SOL    HW226877   2.988   3.962  10.442 -0.2516  0.6147  2.1556
 5139SOL     OW26878   2.444   2.497  17.575 -0.2298 -0.1827  0.0750
 5139SOL    HW126879   2.478   2.414  17.539  1.6389  0.3694  0.5989
 5139SOL    HW226880   2.491   2.506  17.658  1.3705 -0.1596 -0.8329
 5140SOL     OW26881   4.294   4.277  15.379  0.1361 -0.1741  0.8698
 5140SOL    HW126882   4.319   4.309  15.466 -1.2841 -0.9572  1.5650
 5140SOL    HW226883   4.338   4.339  15.320 -1.2932  1.8620  1.9202
 5141SOL     OW26884   2.763   3.313  11.887  0.4837  0.5374  0.5685
 5141SOL    HW126885   2.696   3.368  11.847 -1.1739 -1.8661  0.0628
 5141SOL    HW226886   2.839   3.369  11.900 -0.2533  1.7253 -0.2360
 5142SOL     OW26887   2.005   4.603  14.885 -0.0002 -0.0957  0.1482
 5142SOL    HW126888   2.031   4.614  14.976  1.7524  0.7354 -0.4509
 5142SOL    HW226889   2.091   4.598  14.842 -0.5661  0.2473 -1.0449
 5143SOL     OW26890   3.282   2.941  15.076 -0.2524  0.3599  0.0614
 5143SOL    HW126891   3.254   2.985  14.996 -0.2704 -1.5087 -0.9567
 5143SOL    HW226892   3.203   2.896  15.105 -0.1654  1.4702  2.0099
 5144SOL     OW26893   4.679   0.291   9.533 -0.3852  0.1754 -0.4398
 5144SOL    HW126894   4.702   0.367   9.479 -2.0351 -0.1468 -1.5886
 5144SOL    HW226895   4.640   0.345   9.602  1.1706  1.1649 -0.3329
 5145SOL     OW26896   3.741   1.379   5.008  0.4762 -0.0021  0.3142
 5145SOL    HW126897   3.663   1.334   4.975  1.1627 -0.0961 -1.1855
 5145SOL    HW226898   3.767   1.422   4.927  0.9440  0.3465  0.6536
 5146SOL     OW26899   0.193   2.552  16.658 -0.0528  0.1060  0.5704
 5146SOL    HW126900   0.266   2.613  16.673 -0.4915  0.4323  1.4084
 5146SOL    HW226901   0.150   2.614  16.600  0.0652 -0.3928 -0.0463
 5147SOL     OW26902   2.455   2.393  15.161  0.4581 -0.0190  0.6119
 5147SOL    HW126903   2.402   2.398  15.241  2.8598 -1.0954  2.3017
 5147SOL    HW226904   2.480   2.302  15.177  0.8465  0.3058  1.8773
 5148SOL     OW26905   2.453   3.196   7.368 -0.1894  0.3129  0.3598
 5148SOL    HW126906   2.428   3.288   7.361  0.9571  0.5645 -0.5213
 5148SOL    HW226907   2.548   3.197   7.355 -0.1945  0.2718  0.3217
 5149SOL     OW26908   3.030   3.224   8.870  0.0500 -0.6220 -0.3075
 5149SOL    HW126909   3.033   3.129   8.877 -1.7515 -0.5473  1.3932
 5149SOL    HW226910   3.123   3.244   8.866  0.1281 -0.5860  1.7823
 5150SOL     OW26911   0.087   4.648  11.242  0.0694 -0.1214  0.1355
 5150SOL    HW126912   0.039   4.592  11.303 -2.6314 -0.1534 -2.0324
 5150SOL    HW226913   0.093   4.590  11.167  0.7943  0.5660 -0.3398
 5151SOL     OW26914   2.876   2.811   9.806 -0.4173  0.4822  0.3289
 5151SOL    HW126915   2.801   2.808   9.865  0.5251  1.8462  1.5852
 5151SOL    HW226916   2.937   2.871   9.848  1.9626 -0.6327 -1.4962
 5152SOL     OW26917   2.488   0.309   6.418 -0.2862 -0.0162  0.3916
 5152SOL    HW126918   2.583   0.311   6.427 -0.1635  2.3438 -1.2410
 5152SOL    HW226919   2.465   0.398   6.446  2.1399  0.4808  0.8233
 5153SOL     OW26920   0.461   1.018   2.745  0.2012  0.4810 -0.7582
 5153SOL    HW126921   0.508   1.083   2.694  0.3065  1.3300  0.4076
 5153SOL    HW226922   0.422   0.954   2.685 -1.5162  0.2083  0.6390
 5154SOL     OW26923   3.153   0.084  15.792  0.3327  0.2211 -0.3653
 5154SOL    HW126924   3.232   0.082  15.845  1.2112 -0.1999 -1.6891
 5154SOL    HW226925   3.136   4.711  15.788  2.5310 -0.1625 -0.6757
 5155SOL     OW26926   2.104   0.709   1.178  0.3554  0.4078  0.0465
 5155SOL    HW126927   2.074   0.797   1.153  1.0009  0.1103 -1.8235
 5155SOL    HW226928   2.028   0.671   1.221  2.3085 -4.3574 -0.7531
 5156SOL     OW26929   1.379   3.231   2.859 -0.3758 -0.1259 -0.5225
 5156SOL    HW126930   1.413   3.256   2.773 -1.7034  0.4224 -0.8803
 5156SOL    HW226931   1.306   3.180   2.825 -0.6313  1.1872 -1.9498
 5157SOL     OW26932   0.609   1.372   6.119 -0.1328 -0.6644  0.1873
 5157SOL    HW126933   0.531   1.322   6.093 -2.0446  1.5638  1.5781
 5157SOL    HW226934   0.582   1.379   6.211 -1.6101  0.8625 -0.3508
 5158SOL     OW26935   3.807   0.992   6.338 -0.2012  0.7167  0.3177
 5158SOL    HW126936   3.857   1.048   6.397  2.2016 -1.7618  0.6187
 5158SOL    HW226937   3.730   1.048   6.344 -0.4552  0.3097  0.8594
 5159SOL     OW26938   1.650   1.187   7.102  0.5133 -0.4613  0.1304
 5159SOL    HW126939   1.596   1.264   7.120  0.1473 -0.7294  0.1811
 5159SOL    HW226940   1.647   1.139   7.185  0.7777  0.9663  0.9627
 5160SOL     OW26941   3.264   4.265  14.999 -0.3908  0.4003 -1.1267
 5160SOL    HW126942   3.249   4.177  14.965 -0.0771 -1.1520  2.7283
 5160SOL    HW226943   3.197   4.309  14.946  0.4658  2.4577 -0.4819
 5161SOL     OW26944   1.412   2.789   9.122  0.1990 -0.2187  0.3103
 5161SOL    HW126945   1.442   2.868   9.166 -1.7475  0.4506  0.4298
 5161SOL    HW226946   1.462   2.720   9.167 -0.6461  0.0551  1.6780
 5162SOL     OW26947   4.116   1.839  13.112 -0.3986  0.0229 -0.1194
 5162SOL    HW126948   4.029   1.858  13.147 -1.5808 -2.0707 -1.8720
 5162SOL    HW226949   4.106   1.748  13.084  1.9138 -0.2392 -0.1044
 5163SOL     OW26950   4.330   3.296   0.150 -0.5689  0.1468 -0.5068
 5163SOL    HW126951   4.316   3.300   0.056 -2.7260  1.6619 -0.1400
 5163SOL    HW226952   4.318   3.388   0.176 -0.8188 -1.2327  4.1919
 5164SOL     OW26953   3.703   3.933   3.609  0.1635 -0.2943  0.1388
 5164SOL    HW126954   3.783   3.883   3.625 -0.3932 -1.1705  0.2033
 5164SOL    HW226955   3.696   3.975   3.695  0.7995  1.2485 -0.5794
 5165SOL     OW26956   3.361   0.112  15.949 -0.2139  0.6230  0.8103
 5165SOL    HW126957   3.422   0.045  15.981 -0.6482 -0.3500 -0.3691
 5165SOL    HW226958   3.426   0.162  15.899 -1.4730  2.3798  0.9568
 5166SOL     OW26959   2.937   2.581   3.127 -0.0259 -0.0451  0.1700
 5166SOL    HW126960   2.851   2.539   3.136 -0.5660  0.7047 -1.3987
 5166SOL    HW226961   2.921   2.628   3.045  0.4585 -0.3224 -0.0787
 5167SOL     OW26962   3.193   3.822  13.062  0.0984 -0.1358  0.7644
 5167SOL    HW126963   3.234   3.876  12.994 -2.3268  1.5155  0.6032
 5167SOL    HW226964   3.100   3.845  13.067  0.2730  0.8646 -0.5093
 5168SOL     OW26965   2.733   0.961  11.935  0.2219 -0.5624  0.5008
 5168SOL    HW126966   2.642   0.992  11.935  0.1479 -0.7926  2.5874
 5168SOL    HW226967   2.752   0.942  12.027  1.5751  3.1594  1.0163
 5169SOL     OW26968   0.404   2.875   9.300  0.0548  0.5157  0.0963
 5169SOL    HW126969   0.456   2.824   9.238 -1.0902 -1.5405  0.7937
 5169SOL    HW226970   0.368   2.797   9.343  0.8298 -0.0476 -0.2936
 5170SOL     OW26971   0.630   4.428   9.172 -0.3683  0.0362  0.0443
 5170SOL    HW126972   0.656   4.342   9.137 -1.2761 -1.4529  3.0860
 5170SOL    HW226973   0.563   4.458   9.110 -1.8127 -0.5314  1.3254
 5171SOL     OW26974   4.574   0.960   1.088  0.1106 -0.4429 -0.0473
 5171SOL    HW126975   4.662   0.934   1.059  0.1962  0.1591 -0.3250
 5171SOL    HW226976   4.589   1.043   1.133 -0.4637 -0.8406  0.8715
 5172SOL     OW26977   4.001   1.502   6.609 -0.3518 -0.3418 -0.1779
 5172SOL    HW126978   3.944   1.437   6.651  0.0140 -0.3306  0.3467
 5172SOL    HW226979   4.048   1.525   6.689  0.8001 -2.6789 -0.1534
 5173SOL     OW26980   4.290   0.802  11.287 -0.5127  0.1758  0.7189
 5173SOL    HW126981   4.370   0.836  11.246  0.2058 -0.7019  1.3931
 5173SOL    HW226982   4.330   0.726  11.328  0.5942 -0.6323 -1.8587
 5174SOL     OW26983   3.997   2.428   5.491  0.5638 -0.6573  0.1827
 5174SOL    HW126984   3.972   2.345   5.449  0.3482 -2.3249  3.6406
 5174SOL    HW226985   3.953   2.414   5.574  1.2764  0.7647  0.8066
 5175SOL     OW26986   4.170   3.903   1.984 -0.1016  0.1685 -0.6236
 5175SOL    HW126987   4.169   3.863   1.897 -2.5813  2.1451 -1.5134
 5175SOL    HW226988   4.141   3.835   2.045  0.0250 -0.2225 -1.0028
 5176SOL     OW26989   1.374   3.384   4.382 -0.1703 -0.2312  0.1584
 5176SOL    HW126990   1.312   3.312   4.392 -0.6171  0.1937  0.4146
 5176SOL    HW226991   1.377   3.376   4.287  1.3455  2.7786 -0.0173
 5177SOL     OW26992   3.533   1.392  16.437 -0.5461 -0.0899  0.3282
 5177SOL    HW126993   3.493   1.378  16.352 -2.0370  0.7048  0.9129
 5177SOL    HW226994   3.579   1.308  16.438  0.8167  0.6400 -1.5113
 5178SOL     OW26995   4.269   3.192   4.672  0.2174 -0.0185 -0.4167
 5178SOL    HW126996   4.340   3.236   4.625  2.2381  0.0226  2.7098
 5178SOL    HW226997   4.240   3.251   4.742 -0.8452  0.2720 -1.0952
 5179SOL     OW26998   3.879   0.809   3.537 -0.2352  0.2767  0.1792
 5179SOL    HW126999   3.961   0.858   3.529 -0.8616  1.6478  2.3926
 5179SOL    HW227000   3.887   0.746   3.465  1.1005  0.4553  0.1604
 5180SOL     OW27001   1.154   0.463   2.595  0.0969  0.4329  0.5399
 5180SOL    HW127002   1.132   0.370   2.591 -0.6739  0.6408 -0.1577
 5180SOL    HW227003   1.247   0.447   2.577 -0.0898  1.1315 -1.0150
 5181SOL     OW27004   4.023   3.441   2.004  0.7630  0.1295  0.4180
 5181SOL    HW127005   4.053   3.531   2.018  0.7255  0.0017  1.3224
 5181SOL    HW227006   3.947   3.463   1.951  0.1634 -0.0958  1.1894
 5182SOL     OW27007   1.248   1.995   8.312  0.5156  0.1523 -0.3294
 5182SOL    HW127008   1.329   1.946   8.326  1.5188  1.8623 -0.1284
 5182SOL    HW227009   1.280   2.077   8.350 -1.7678  1.5835 -1.4895
 5183SOL     OW27010   3.353   2.990  13.181  0.7702  0.1422  0.1007
 5183SOL    HW127011   3.336   2.912  13.233 -0.5314  0.2584 -0.1389
 5183SOL    HW227012   3.322   2.949  13.101 -2.0761  0.6042  0.9411
 5184SOL     OW27013   2.799   1.358   4.203 -0.0125  0.3435 -0.2004
 5184SOL    HW127014   2.831   1.268   4.206  0.0369  0.4205  1.2911
 5184SOL    HW227015   2.861   1.398   4.143  0.6334 -2.5680 -1.4808
 5185SOL     OW27016   1.003   0.404   2.852 -0.3804 -0.2401  0.1428
 5185SOL    HW127017   0.912   0.421   2.827  0.7465  2.6796 -1.9286
 5185SOL    HW227018   1.045   0.406   2.766  2.6562 -2.0837  1.5889
 5186SOL     OW27019   2.625   3.883   5.476  0.4340  0.2277  0.3308
 5186SOL    HW127020   2.664   3.928   5.551 -1.7752  0.1250  1.5521
 5186SOL    HW227021   2.646   3.951   5.412 -1.3751  0.1740 -0.3109
 5187SOL     OW27022   1.471   3.564   2.105 -0.3513  0.0838  0.3166
 5187SOL    HW127023   1.424   3.546   2.024  1.7404 -1.2260 -0.6033
 5187SOL    HW227024   1.531   3.638   2.092 -0.3506  0.0155 -0.0742
 5188SOL     OW27025   0.162   1.248   6.771  0.0721 -0.6468 -0.5141
 5188SOL    HW127026   0.114   1.202   6.839  0.9124 -0.9753 -0.1350
 5188SOL    HW227027   0.151   1.339   6.797  2.3349 -0.4799 -0.1032
 5189SOL     OW27028   1.064   1.412   9.175  0.0623  0.1229 -0.3003
 5189SOL    HW127029   1.091   1.453   9.093 -0.1289 -1.0961 -0.9777
 5189SOL    HW227030   1.110   1.330   9.154  0.9395  0.2056  1.3238
 5190SOL     OW27031   3.335   2.477   2.698 -0.1590  0.7267 -0.0534
 5190SOL    HW127032   3.294   2.547   2.648 -1.3361  0.4631  0.5474
 5190SOL    HW227033   3.357   2.417   2.627  0.1078 -0.6300  1.1639
 5191SOL     OW27034   1.942   1.952   5.850 -0.3897  0.5459  0.0684
 5191SOL    HW127035   1.855   1.919   5.872  0.4716 -2.0492 -0.3900
 5191SOL    HW227036   1.917   2.043   5.867 -2.2723 -0.1516  0.9876
 5192SOL     OW27037   1.341   1.314   4.676  0.2848 -0.3452  0.3361
 5192SOL    HW127038   1.286   1.386   4.644  1.8417  0.9803  0.6550
 5192SOL    HW227039   1.354   1.334   4.768  0.4388 -1.1007  0.4726
 5193SOL     OW27040   3.370   3.591  11.588 -0.1659 -0.0853  0.3714
 5193SOL    HW127041   3.399   3.553  11.505  0.2325  2.0957 -0.4823
 5193SOL    HW227042   3.287   3.543  11.593  0.3298 -1.0176 -0.2807
 5194SOL     OW27043   0.933   1.825  16.533 -0.4994 -0.0965  0.6025
 5194SOL    HW127044   0.947   1.784  16.619 -1.0071 -1.5350  0.0032
 5194SOL    HW227045   0.858   1.883  16.547 -2.3122 -2.7890  2.1569
 5195SOL     OW27046   4.136   2.691   7.917  0.0625 -0.4324 -0.3099
 5195SOL    HW127047   4.206   2.695   7.983 -0.8996 -0.8998  0.7555
 5195SOL    HW227048   4.159   2.614   7.865 -2.6761 -2.8638  2.0642
 5196SOL     OW27049   2.059   3.396   0.988 -0.0519  0.1078 -0.4630
 5196SOL    HW127050   2.043   3.435   0.902 -1.3931  0.9563  0.1741
 5196SOL    HW227051   2.011   3.316   0.970 -0.2211  0.3619 -1.1243
 5197SOL     OW27052   2.376   3.935   6.050 -1.0194  0.3022  0.7376
 5197SOL    HW127053   2.463   3.972   6.066 -1.9285  2.5528  0.5006
 5197SOL    HW227054   2.323   4.003   6.092 -0.7363  0.2465  1.1803
 5198SOL     OW27055   4.076   3.750  16.723 -0.2546 -0.4331  0.1882
 5198SOL    HW127056   4.049   3.834  16.687  1.5331  0.4863  1.0076
 5198SOL    HW227057   4.161   3.730  16.683 -0.3464 -2.3555  0.9207
 5199SOL     OW27058   2.312   3.860   7.222 -0.2599  0.1031 -0.0556
 5199SOL    HW127059   2.384   3.831   7.165 -0.7006  0.2074 -0.6630
 5199SOL    HW227060   2.360   3.904   7.292  2.4951  0.1994 -1.9780
 5200SOL     OW27061   2.659   2.833  11.432 -0.4570  0.0694 -0.1314
 5200SOL    HW127062   2.718   2.896  11.391  1.1524 -1.9774 -0.9782
 5200SOL    HW227063   2.618   2.789  11.357 -1.2403  2.3082 -1.0202
 5201SOL     OW27064   3.839   4.279   3.770 -0.5052 -0.0546  0.1351
 5201SOL    HW127065   3.851   4.346   3.838  0.6227  2.0630 -2.1460
 5201SOL    HW227066   3.846   4.334   3.692 -0.5915 -1.1939 -0.6724
 5202SOL     OW27067   3.155   0.745   0.665 -0.1694  0.8588  0.6443
 5202SOL    HW127068   3.076   0.717   0.619  0.6023 -0.8480  0.3567
 5202SOL    HW227069   3.114   0.784   0.742 -0.9924 -1.7535  1.5293
 5203SOL     OW27070   4.359   4.503  13.762  0.2330 -0.3000 -0.7769
 5203SOL    HW127071   4.333   4.594  13.779  0.5937 -0.6580  1.6891
 5203SOL    HW227072   4.452   4.522  13.749  0.7280 -1.4562  1.1154
 5204SOL     OW27073   1.951   0.198   9.101  0.2024  0.1894 -0.1407
 5204SOL    HW127074   1.958   0.121   9.157 -1.4407 -1.3372 -2.0104
 5204SOL    HW227075   2.019   0.250   9.145 -0.4876  0.0226  1.0968
 5205SOL     OW27076   3.320   2.850   0.453  0.5016 -0.1311 -0.4018
 5205SOL    HW127077   3.392   2.886   0.505 -0.2408 -0.2879  0.7399
 5205SOL    HW227078   3.246   2.878   0.507  1.5796  2.2828 -0.1921
 5206SOL     OW27079   3.075   1.038   3.799 -0.1837 -0.4182  0.6046
 5206SOL    HW127080   3.171   1.031   3.797 -0.2077 -0.9268  1.4873
 5206SOL    HW227081   3.068   1.059   3.706 -2.6331 -0.9245  0.6772
 5207SOL     OW27082   2.022   1.183  13.563 -0.3436 -0.0896 -0.5154
 5207SOL    HW127083   2.104   1.149  13.599  0.6284  0.9397 -1.7470
 5207SOL    HW227084   1.958   1.121  13.598  2.4168 -1.8200  1.4994
 5208SOL     OW27085   3.332   3.874   7.939  0.7302  0.1080 -0.2845
 5208SOL    HW127086   3.361   3.799   7.887 -1.5016 -0.5821 -0.4926
 5208SOL    HW227087   3.289   3.828   8.012  2.2402 -0.5899  0.1744
 5209SOL     OW27088   3.702   3.906   9.327 -0.0497  0.2355 -0.8241
 5209SOL    HW127089   3.759   3.874   9.258 -0.2697  0.9522 -1.3435
 5209SOL    HW227090   3.760   3.897   9.403  0.2235 -1.8338 -1.2800
 5210SOL     OW27091   2.662   1.145  10.453  0.2384 -0.0283 -0.3744
 5210SOL    HW127092   2.658   1.050  10.439 -1.8073 -0.0455  0.3092
 5210SOL    HW227093   2.627   1.161  10.541  2.3370  2.2554  0.0295
 5211SOL     OW27094   0.927   2.698   4.390 -0.1528 -0.5482  0.5380
 5211SOL    HW127095   0.921   2.607   4.417 -0.3090 -1.2312 -1.7627
 5211SOL    HW227096   1.017   2.697   4.356 -0.6984 -0.4649 -0.9086
 5212SOL     OW27097   2.996   4.457   4.888  0.3151 -0.1816 -0.0334
 5212SOL    HW127098   2.930   4.467   4.819  0.3513  0.2496 -0.0075
 5212SOL    HW227099   2.953   4.498   4.964  2.1295  2.0947 -0.2428
 5213SOL     OW27100   3.334   2.704   8.520  0.1651  0.0144  0.8640
 5213SOL    HW127101   3.298   2.659   8.596  0.6051 -2.1975 -0.2305
 5213SOL    HW227102   3.254   2.703   8.466  0.8543 -0.5998 -0.1492
 5214SOL     OW27103   1.565   1.536   1.091 -0.5396 -0.0767 -1.0436
 5214SOL    HW127104   1.581   1.441   1.095 -2.0888 -0.2762  0.9080
 5214SOL    HW227105   1.484   1.534   1.144 -1.0771 -1.2486 -1.9161
 5215SOL     OW27106   2.534   0.154  12.589 -0.6630 -0.5578  0.1392
 5215SOL    HW127107   2.489   0.237  12.607  1.1917  0.0461  1.9301
 5215SOL    HW227108   2.461   0.105  12.551 -2.2518  0.2281  2.1554
 5216SOL     OW27109   1.707   1.541   5.313  0.1347 -0.4262  0.2613
 5216SOL    HW127110   1.633   1.565   5.258  0.2578 -0.8059 -0.0741
 5216SOL    HW227111   1.718   1.620   5.366 -1.9320  0.2164 -0.2910
 5217SOL     OW27112   3.923   3.185   4.694  0.4568 -0.0347  0.2979
 5217SOL    HW127113   3.907   3.207   4.786  2.5224 -1.4148  0.9973
 5217SOL    HW227114   3.862   3.242   4.647  0.5779  1.8414  2.4002
 5218SOL     OW27115   1.113   2.757   5.794  0.1289 -0.0499 -0.1831
 5218SOL    HW127116   1.157   2.759   5.879 -2.5351 -1.3308  1.2254
 5218SOL    HW227117   1.075   2.844   5.789 -4.6802 -2.0762  1.4240
 5219SOL     OW27118   3.931   3.776   8.659  0.0546  0.8037  0.4410
 5219SOL    HW127119   3.911   3.867   8.638 -0.1729  1.2054  2.3624
 5219SOL    HW227120   4.016   3.797   8.697 -0.4412  2.1093  0.8409
 5220SOL     OW27121   2.672   0.965   9.897 -0.6294 -0.0376 -0.1707
 5220SOL    HW127122   2.734   1.037   9.912 -0.1316 -0.8601  1.6355
 5220SOL    HW227123   2.700   0.924   9.816  0.4982 -1.2568  0.8457
 5221SOL     OW27124   0.324   1.699   9.244  0.5539  0.2430 -0.5688
 5221SOL    HW127125   0.292   1.681   9.332 -0.2069 -2.4819 -1.3891
 5221SOL    HW227126   0.328   1.794   9.240 -0.6379  0.3569  0.9058
 5222SOL     OW27127   0.036   4.582   7.626  0.3192  0.0339  0.5943
 5222SOL    HW127128   4.676   4.543   7.593 -0.2753  0.5906  1.4284
 5222SOL    HW227129   0.036   4.669   7.588  0.9285  0.0403  0.6007
 5223SOL     OW27130   1.936   3.102   3.363 -0.0062  0.7995  0.6778
 5223SOL    HW127131   1.918   3.192   3.389  1.8745  0.6627  2.4206
 5223SOL    HW227132   2.015   3.110   3.309  0.4049 -1.6049  0.9411
 5224SOL     OW27133   4.527   3.286  15.618  0.0827  0.0755  0.3076
 5224SOL    HW127134   4.477   3.233  15.679 -1.5036  0.6683 -0.4607
 5224SOL    HW227135   4.611   3.241  15.623 -0.2272 -0.7593 -1.9899
 5225SOL     OW27136   3.016   4.112   7.436 -0.1800 -0.0460  0.3912
 5225SOL    HW127137   3.058   4.197   7.446  0.4824 -0.3714  0.3397
 5225SOL    HW227138   3.088   4.067   7.482  0.7613 -0.5293 -1.5764
 5226SOL     OW27139   2.901   0.387   4.464  0.4632 -0.1734 -0.2896
 5226SOL    HW127140   2.995   0.403   4.457  0.2988 -0.3130 -2.6128
 5226SOL    HW227141   2.901   0.316   4.529 -1.4777  0.4039  0.3246
 5227SOL     OW27142   3.658   4.321  13.482 -0.3898  0.4890  0.2635
 5227SOL    HW127143   3.669   4.415  13.493 -1.7834  1.0006 -2.6434
 5227SOL    HW227144   3.569   4.299  13.510  1.1043 -2.7538  2.4163
 5228SOL     OW27145   0.471   2.674  14.113  0.2640  0.1761  0.3826
 5228SOL    HW127146   0.513   2.707  14.192  2.0193  0.6051 -0.7369
 5228SOL    HW227147   0.464   2.582  14.138 -1.8407 -0.1773 -1.5553
 5229SOL     OW27148   2.636   3.982   3.541  0.0813  0.3710 -0.4231
 5229SOL    HW127149   2.555   3.946   3.505  0.6869 -2.0713  0.7047
 5229SOL    HW227150   2.674   3.896   3.558  1.3417  1.1963  0.8959
 5230SOL     OW27151   2.460   3.365  17.415 -0.0193 -0.0697  0.0916
 5230SOL    HW127152   2.482   3.421  17.340 -1.1797  1.8922  1.2295
 5230SOL    HW227153   2.450   3.441  17.472 -1.7840 -0.6863  0.5725
 5231SOL     OW27154   1.631   4.124   4.452  0.1566 -0.0779  0.3238
 5231SOL    HW127155   1.708   4.136   4.507 -0.0995 -0.2243  0.7105
 5231SOL    HW227156   1.577   4.197   4.484 -0.1532 -0.6957  1.2008
 5232SOL     OW27157   1.842   2.141   8.124  0.2540 -0.2673  0.1719
 5232SOL    HW127158   1.770   2.135   8.186  0.8082 -1.9545  0.6442
 5232SOL    HW227159   1.914   2.103   8.174 -0.2887  0.7601  1.6984
 5233SOL     OW27160   2.492   2.714   8.054 -0.3921  0.2094  0.1436
 5233SOL    HW127161   2.447   2.737   8.136  3.3722 -0.8107  2.5000
 5233SOL    HW227162   2.572   2.765   8.049  1.0925 -1.8677  2.4696
 5234SOL     OW27163   1.669   0.380   4.978 -0.0828 -0.4781 -0.0908
 5234SOL    HW127164   1.717   0.463   4.983 -0.6415 -0.0696 -1.4870
 5234SOL    HW227165   1.744   0.322   4.965 -0.2674 -0.5498 -0.8438
 5235SOL     OW27166   1.603   2.524  12.131  0.0192  0.1602  0.7253
 5235SOL    HW127167   1.576   2.550  12.042 -1.3101 -1.5209  0.6304
 5235SOL    HW227168   1.587   2.430  12.121 -0.1505  0.2136  0.4855
 5236SOL     OW27169   2.973   3.177  10.191  0.2706  0.1944 -0.4601
 5236SOL    HW127170   2.920   3.139  10.121  0.6777 -0.0161 -0.6552
 5236SOL    HW227171   3.059   3.154  10.155  1.0718  0.1035  1.5198
 5237SOL     OW27172   0.900   2.441   5.937 -0.3750  0.0704  0.6485
 5237SOL    HW127173   0.990   2.409   5.948 -0.5915 -1.2948 -1.5965
 5237SOL    HW227174   0.849   2.407   6.011  0.7358 -1.5000  0.6954
 5238SOL     OW27175   0.029   4.502   1.494  0.4140 -0.7462  0.1242
 5238SOL    HW127176   4.666   4.462   1.474  0.0750  0.1047 -0.1371
 5238SOL    HW227177   0.082   4.437   1.448  1.7420 -1.6804  2.9609
 5239SOL     OW27178   0.862   1.933  14.111  0.3170 -0.0849 -0.1508
 5239SOL    HW127179   0.869   1.971  14.199  1.0705 -0.2278 -0.1436
 5239SOL    HW227180   0.891   2.005  14.056 -0.5435 -1.4172 -2.3173
 5240SOL     OW27181   4.210   3.569   1.758  0.0081 -0.1189 -0.5456
 5240SOL    HW127182   4.298   3.546   1.789 -0.5406 -2.2047 -0.5774
 5240SOL    HW227183   4.185   3.477   1.753 -1.1623  0.1653 -0.0449
 5241SOL     OW27184   0.716   3.802   2.958  0.5326  0.4725  0.6317
 5241SOL    HW127185   0.765   3.720   2.947 -2.3055 -1.0900 -0.4694
 5241SOL    HW227186   0.729   3.810   3.052 -0.5579 -3.8375  1.1477
 5242SOL     OW27187   1.221   1.443   2.170 -0.1103 -0.4223  0.5356
 5242SOL    HW127188   1.207   1.365   2.117  1.9392 -1.4172  1.4873
 5242SOL    HW227189   1.150   1.429   2.233  0.8723  1.0147  1.9661
 5243SOL     OW27190   3.754   2.529   5.337 -0.1360 -0.4498  0.3613
 5243SOL    HW127191   3.787   2.472   5.267 -2.8344  0.2955 -1.5315
 5243SOL    HW227192   3.830   2.587   5.342 -1.0364  0.6901  0.7882
 5244SOL     OW27193   0.802   0.615   2.449  0.7756 -0.3309 -0.4882
 5244SOL    HW127194   0.714   0.621   2.485  0.7182  0.9673 -0.8258
 5244SOL    HW227195   0.863   0.655   2.512  0.1859  0.4933 -0.4424
 5245SOL     OW27196   1.623   2.174   4.888 -0.3256  0.1129  0.4809
 5245SOL    HW127197   1.687   2.104   4.873  1.9981  2.7888 -2.0605
 5245SOL    HW227198   1.640   2.227   4.810 -1.2547  0.4602  0.5103
 5246SOL     OW27199   2.510   1.284  12.912 -0.4666  0.4018 -0.1913
 5246SOL    HW127200   2.549   1.370  12.926  0.1742  0.4438 -2.4010
 5246SOL    HW227201   2.567   1.234  12.971 -1.7183 -1.5717 -0.6425
 5247SOL     OW27202   2.133   0.256  15.537 -0.0084 -0.5277  0.3617
 5247SOL    HW127203   2.186   0.333  15.521 -0.0042 -1.3242 -3.5064
 5247SOL    HW227204   2.046   0.296  15.543 -0.0830 -0.7206  0.5738
 5248SOL     OW27205   4.000   4.283  16.924  0.1943 -0.5981 -0.5267
 5248SOL    HW127206   4.009   4.314  17.014  1.5285  1.8764 -1.5107
 5248SOL    HW227207   4.033   4.194  16.925  0.1029 -0.6256 -0.0298
 5249SOL     OW27208   4.254   1.815   9.376  0.2175 -0.2974  0.0222
 5249SOL    HW127209   4.228   1.841   9.464  2.1648 -0.6256  0.6862
 5249SOL    HW227210   4.179   1.828   9.318  0.2237  0.2090  0.1349
 5250SOL     OW27211   2.197   2.952   5.467 -0.0446  0.5165 -0.4383
 5250SOL    HW127212   2.148   2.944   5.549  0.9404 -0.8186  0.0051
 5250SOL    HW227213   2.288   2.969   5.487  0.8026 -0.7244 -3.1720
 5251SOL     OW27214   3.175   1.096   5.749  0.0272 -0.1200 -0.1418
 5251SOL    HW127215   3.136   1.175   5.712 -0.9721 -0.4298  0.2325
 5251SOL    HW227216   3.224   1.132   5.823  0.9578  1.2385 -1.4169
 5252SOL     OW27217   2.594   0.128   9.308  0.5522  0.1871 -0.2047
 5252SOL    HW127218   2.523   0.126   9.371 -0.2180 -0.3590 -1.0967
 5252SOL    HW227219   2.595   0.038   9.274  0.5467  0.3246 -0.5687
 5253SOL     OW27220   1.232   1.957  13.781  0.4490  0.5314  0.4566
 5253SOL    HW127221   1.305   1.959  13.719  0.7463 -0.0616  0.7822
 5253SOL    HW227222   1.274   2.002  13.854 -0.7720  0.7680  1.0024
 5254SOL     OW27223   2.928   2.499   6.789  0.1133 -0.1562  0.3156
 5254SOL    HW127224   2.917   2.589   6.758 -2.2280 -0.4783  0.2131
 5254SOL    HW227225   2.842   2.460   6.776 -0.0106 -0.1560  1.1277
 5255SOL     OW27226   0.227   4.445  11.108  0.6771 -0.2600  0.1870
 5255SOL    HW127227   0.199   4.412  11.194 -0.8998 -2.8932 -1.3348
 5255SOL    HW227228   0.308   4.492  11.129 -1.3032  1.2778  4.3170
 5256SOL     OW27229   0.978   2.313   7.901  0.6677  0.3467  0.3166
 5256SOL    HW127230   1.055   2.285   7.852 -0.1190  0.3130 -0.8974
 5256SOL    HW227231   0.911   2.248   7.879  0.7241  0.8356 -1.2843
 5257SOL     OW27232   0.322   1.683  14.554  0.5775 -0.2782  0.5261
 5257SOL    HW127233   0.399   1.702  14.607 -0.9423  1.1047  2.2517
 5257SOL    HW227234   0.292   1.606  14.603 -0.5886 -0.3492 -0.3090
 5258SOL     OW27235   4.465   3.346   7.062  0.6644 -0.2432  0.0914
 5258SOL    HW127236   4.505   3.263   7.088  1.1514 -0.1771 -0.4541
 5258SOL    HW227237   4.541   3.403   7.073  0.3202  0.1271  0.5422
 5259SOL     OW27238   0.982   2.796   1.844  0.3229  0.0999 -0.1736
 5259SOL    HW127239   0.964   2.861   1.776 -2.0468  1.7607  2.0478
 5259SOL    HW227240   1.004   2.846   1.922 -1.8132  1.1624 -0.2649
 5260SOL     OW27241   1.205   2.211   9.090  0.0540  0.1500  0.1157
 5260SOL    HW127242   1.168   2.130   9.055  1.6264  0.1008 -1.4105
 5260SOL    HW227243   1.282   2.169   9.128  0.9294  0.1040 -1.6946
 5261SOL     OW27244   2.826   0.096  12.959 -0.2369  0.2712 -0.2555
 5261SOL    HW127245   2.860   0.103  13.048  0.6568 -1.2655 -0.4849
 5261SOL    HW227246   2.802   0.189  12.950  1.8380  0.7214 -1.0138
 5262SOL     OW27247   2.076   2.415   4.781  0.0812 -0.6537  0.0723
 5262SOL    HW127248   2.152   2.391   4.729  1.8733 -0.6187  2.7120
 5262SOL    HW227249   2.043   2.477   4.715  1.7011  0.3243  0.1815
 5263SOL     OW27250   0.468   2.679   6.937  0.2295 -0.3946 -0.0171
 5263SOL    HW127251   0.437   2.646   7.021 -0.0195  0.6079  0.2760
 5263SOL    HW227252   0.406   2.637   6.877 -0.9853 -0.9302  1.6384
 5264SOL     OW27253   3.676   0.748   1.813  0.5263  0.1146  0.3238
 5264SOL    HW127254   3.702   0.713   1.728  0.4972 -0.2661  0.4741
 5264SOL    HW227255   3.592   0.706   1.829  0.3481  0.9940  1.7722
 5265SOL     OW27256   4.278   0.362  10.961  0.1821  0.8078  0.2437
 5265SOL    HW127257   4.329   0.430  11.004 -0.7051  2.9263 -2.0990
 5265SOL    HW227258   4.340   0.324  10.898 -0.1244  1.3132 -0.3568
 5266SOL     OW27259   3.532   0.203  15.774 -0.1829  0.0506  0.6020
 5266SOL    HW127260   3.610   0.162  15.736  1.2784  2.6606  0.8263
 5266SOL    HW227261   3.475   0.213  15.698 -1.9563  0.1234  1.9332
 5267SOL     OW27262   1.919   4.628  16.730  0.6440 -0.2351  0.1966
 5267SOL    HW127263   1.851   4.585  16.678  3.1954  0.9397 -4.0797
 5267SOL    HW227264   1.963   4.682  16.665  0.8013 -0.7266 -0.1113
 5268SOL     OW27265   2.555   2.302   2.770  0.9360  0.5099 -0.4931
 5268SOL    HW127266   2.505   2.258   2.839  0.2925 -2.5328 -2.8808
 5268SOL    HW227267   2.639   2.296   2.814  0.5949  0.3677  0.1435
 5269SOL     OW27268   0.844   1.257  17.609  0.3376 -0.4775 -0.0385
 5269SOL    HW127269   0.767   1.211  17.641 -1.0293  2.6859  1.2143
 5269SOL    HW227270   0.855   1.329  17.671  3.8579 -0.5287 -0.5702
 5270SOL     OW27271   2.388   0.956   8.045  0.0490  0.1057  0.4971
 5270SOL    HW127272   2.299   0.933   8.074  0.0781 -0.5015  0.0974
 5270SOL    HW227273   2.431   0.881   8.086  2.5406  1.5327  0.4642
 5271SOL     OW27274   2.407   3.862   3.445 -0.1999  0.4072 -0.1077
 5271SOL    HW127275   2.334   3.804   3.419  0.5037 -1.2426  1.6497
 5271SOL    HW227276   2.362   3.947   3.444  2.1500  1.6684  2.2053
 5272SOL     OW27277   3.282   0.660   5.706 -0.8494  0.1801 -0.6689
 5272SOL    HW127278   3.339   0.727   5.743 -0.6307  0.4802 -1.5427
 5272SOL    HW227279   3.282   0.599   5.780 -0.2867  0.9868 -0.0053
 5273SOL     OW27280   1.270   0.514   5.107 -0.7839  0.1785 -0.5381
 5273SOL    HW127281   1.198   0.546   5.161  0.1294  2.0374 -0.4465
 5273SOL    HW227282   1.343   0.538   5.164  1.2206 -1.5428 -2.3612
 5274SOL     OW27283   4.293   2.610   4.749  0.8986  0.4615  0.0574
 5274SOL    HW127284   4.281   2.543   4.816 -0.7924  1.4944  0.7913
 5274SOL    HW227285   4.387   2.628   4.756  1.2381 -1.0147 -0.7983
 5275SOL     OW27286   2.885   1.475   2.815 -0.2881  0.3313  0.2534
 5275SOL    HW127287   2.931   1.557   2.834 -1.0864 -0.0667  3.9490
 5275SOL    HW227288   2.949   1.428   2.762 -1.5368 -1.9092  0.7387
 5276SOL     OW27289   1.361   4.037   6.325 -0.4052 -0.3848 -0.1963
 5276SOL    HW127290   1.343   4.090   6.403 -2.8836 -0.5545 -0.6438
 5276SOL    HW227291   1.432   4.085   6.281 -1.4104  1.0645 -0.2283
 5277SOL     OW27292   2.080   2.867   8.769  0.6137 -0.0245  0.0360
 5277SOL    HW127293   1.985   2.873   8.762  0.7830  1.7364 -0.8739
 5277SOL    HW227294   2.095   2.796   8.831  0.4459  0.1062  0.2227
 5278SOL     OW27295   0.088   0.351   2.984 -0.3322  0.2157 -0.3994
 5278SOL    HW127296   0.044   0.312   3.059 -1.3612  2.1234 -0.0133
 5278SOL    HW227297   0.117   0.274   2.935 -1.7464  0.4797 -1.6393
 5279SOL     OW27298   3.016   4.326   6.977 -0.2600 -0.0267  0.0798
 5279SOL    HW127299   2.920   4.332   6.979 -0.2350  0.0226  1.0685
 5279SOL    HW227300   3.017   4.240   7.019  3.2123 -0.1978 -0.3555
 5280SOL     OW27301   3.336   4.712   8.102  0.3090 -0.0256  0.2137
 5280SOL    HW127302   3.280   4.659   8.159 -2.4298  0.9262 -1.5916
 5280SOL    HW227303   3.391   4.640   8.070 -0.5493 -2.0134  3.1293
 5281SOL     OW27304   4.051   0.468   4.623  0.2161  0.7121 -0.0390
 5281SOL    HW127305   4.144   0.487   4.629  0.2285 -0.0521  2.1964
 5281SOL    HW227306   4.029   0.554   4.587  1.7344  0.5499 -1.3643
 5282SOL     OW27307   0.068   2.494   3.765  0.0827 -0.4002 -1.0089
 5282SOL    HW127308   0.089   2.448   3.846 -1.3105  1.8006  0.5904
 5282SOL    HW227309   4.705   2.526   3.800  0.8958 -0.8778  1.3518
 5283SOL     OW27310   0.629   3.581  13.875 -0.4922 -0.5675  0.4278
 5283SOL    HW127311   0.551   3.632  13.855  0.1316  1.2882  2.6234
 5283SOL    HW227312   0.602   3.560  13.964 -1.3028  0.5854  0.4546
 5284SOL     OW27313   0.028   2.209   2.542  0.0043 -0.0336  0.3394
 5284SOL    HW127314   0.102   2.253   2.583 -0.7340  2.2114 -0.7383
 5284SOL    HW227315   4.709   2.155   2.611  2.4490 -2.3187 -0.0400
 5285SOL     OW27316   2.900   4.437   3.066  0.0119  0.0800 -0.0736
 5285SOL    HW127317   2.932   4.413   2.979 -1.3879 -0.5545 -0.4143
 5285SOL    HW227318   2.839   4.507   3.040  0.0224  0.0677 -0.1322
 5286SOL     OW27319   3.527   1.428   7.514  0.0116  0.1326  0.3268
 5286SOL    HW127320   3.523   1.465   7.602 -0.3734 -0.6544  0.6423
 5286SOL    HW227321   3.477   1.347   7.521 -0.6946  0.6059  0.6698
 5287SOL     OW27322   3.726   2.688  11.630 -0.6150 -0.0960 -0.3489
 5287SOL    HW127323   3.699   2.613  11.577 -0.4333 -1.0219  0.8694
 5287SOL    HW227324   3.763   2.751  11.568 -0.9603  1.3820  0.9541
 5288SOL     OW27325   0.962   1.646   0.218 -0.3102 -0.1280 -0.3490
 5288SOL    HW127326   0.913   1.695   0.284  0.1446  1.0903 -0.9365
 5288SOL    HW227327   1.048   1.661   0.257 -0.0778 -3.8149  0.6374
 5289SOL     OW27328   3.249   3.871   4.756 -0.1093 -0.3204 -0.2968
 5289SOL    HW127329   3.247   3.777   4.739  0.0884 -0.4277  0.2686
 5289SOL    HW227330   3.209   3.878   4.842  0.9959  3.0998 -0.0343
 5290SOL     OW27331   0.518   1.018   6.428  0.1635 -0.1259 -0.3885
 5290SOL    HW127332   0.479   0.981   6.349  2.3349  0.7658 -1.8679
 5290SOL    HW227333   0.446   1.051   6.482  0.6013 -0.6509  0.5171
 5291SOL     OW27334   1.735   2.075  14.590 -0.0129  0.3788 -0.1622
 5291SOL    HW127335   1.738   2.171  14.588  0.8256  0.3481 -0.6135
 5291SOL    HW227336   1.827   2.048  14.588 -0.5167 -1.2683 -1.0503
 5292SOL     OW27337   4.300   2.562   3.701 -0.0789  0.4243  0.0425
 5292SOL    HW127338   4.311   2.494   3.634 -1.5813 -0.0633  0.2965
 5292SOL    HW227339   4.264   2.508   3.771  0.6268  0.7828  0.6777
 5293SOL     OW27340   0.741   1.230   2.360 -0.0338  0.0950  0.0788
 5293SOL    HW127341   0.679   1.213   2.288  0.8478  1.3496 -0.9949
 5293SOL    HW227342   0.682   1.218   2.435 -0.6494  0.4019 -0.3512
 5294SOL     OW27343   3.438   3.258   7.629 -0.7160 -0.9322  0.6951
 5294SOL    HW127344   3.503   3.188   7.637  0.1200 -0.3855 -1.2173
 5294SOL    HW227345   3.360   3.212   7.598 -0.7652  0.4624 -1.2265
 5295SOL     OW27346   4.388   2.557   9.822 -0.1571 -0.4248 -0.0382
 5295SOL    HW127347   4.419   2.643   9.850 -0.7521 -0.5057  0.8522
 5295SOL    HW227348   4.308   2.533   9.869 -0.2046  0.3370  0.2618
 5296SOL     OW27349   3.723   4.271  14.336 -0.1856  0.4243 -0.2013
 5296SOL    HW127350   3.702   4.364  14.325 -0.6857  0.3369  0.0450
 5296SOL    HW227351   3.792   4.271  14.403  0.4058 -3.1187 -0.8157
 5297SOL     OW27352   2.440   3.486  14.836  0.3900  0.0814  0.7132
 5297SOL    HW127353   2.354   3.478  14.878 -0.0913  2.0707  0.0971
 5297SOL    HW227354   2.496   3.429  14.889  2.0475  0.9565 -0.1095
 5298SOL     OW27355   2.850   4.158   4.704 -0.1557  0.6039 -0.3663
 5298SOL    HW127356   2.787   4.201   4.646  0.1478 -1.4523 -2.2233
 5298SOL    HW227357   2.931   4.203   4.678  0.2941  0.3977  0.6973
 5299SOL     OW27358   3.501   4.172   0.569 -0.3508 -0.2509  0.5664
 5299SOL    HW127359   3.492   4.249   0.625 -0.8146  0.6422 -0.7260
 5299SOL    HW227360   3.438   4.121   0.621 -3.4979  3.2415  0.2119
 5300SOL     OW27361   0.881   2.425   9.892  0.9490  0.0330  0.2664
 5300SOL    HW127362   0.958   2.373   9.871  1.8730  0.8903  1.4952
 5300SOL    HW227363   0.823   2.412   9.817  0.6651  1.1736  0.2897
 5301SOL     OW27364   2.789   1.580   1.742  0.2497 -0.3769  0.0324
 5301SOL    HW127365   2.845   1.643   1.697  1.7423 -0.9737  1.0461
 5301SOL    HW227366   2.778   1.511   1.676 -0.3409 -0.8253  0.5989
 5302SOL     OW27367   0.796   2.070   4.657  0.3767  0.0671  0.6037
 5302SOL    HW127368   0.860   2.138   4.679  2.2757 -1.0895 -1.2703
 5302SOL    HW227369   0.711   2.112   4.647  0.3737  0.2146  1.2936
 5303SOL     OW27370   1.070   4.124   7.306  0.0431  0.5983  0.1003
 5303SOL    HW127371   1.096   4.215   7.320  1.5913  0.1015  0.4500
 5303SOL    HW227372   1.046   4.094   7.394  1.6224  0.6985  0.5663
 5304SOL     OW27373   4.262   3.111  15.660 -0.1996  0.7000  0.2615
 5304SOL    HW127374   4.269   3.158  15.744  2.2317  2.0736 -0.7066
 5304SOL    HW227375   4.173   3.075  15.656  0.2185 -0.1444 -1.2409
 5305SOL     OW27376   3.730   2.634   3.017 -0.4717  0.2837 -0.2185
 5305SOL    HW127377   3.737   2.698   2.946  0.8997  1.7222  1.2114
 5305SOL    HW227378   3.655   2.587   2.980  0.6575 -0.7881 -1.0988
 5306SOL     OW27379   1.136   4.323   4.975  0.2780  0.1930  0.1335
 5306SOL    HW127380   1.113   4.255   5.039  0.3831 -0.4567 -0.5145
 5306SOL    HW227381   1.152   4.392   5.039  0.2652  0.8842 -0.6193
 5307SOL     OW27382   3.540   3.289   4.904  0.1891 -0.0645 -0.1385
 5307SOL    HW127383   3.510   3.337   4.981  2.2098 -1.2447  1.3461
 5307SOL    HW227384   3.502   3.203   4.920  1.4370 -0.1058  2.4113
 5308SOL     OW27385   1.362   1.991   5.314 -0.5503  0.3319  0.2812
 5308SOL    HW127386   1.356   1.917   5.373 -1.0383 -0.8208 -1.2303
 5308SOL    HW227387   1.274   1.990   5.277 -0.4562 -0.7847  0.0990
 5309SOL     OW27388   1.937   4.322  10.694  0.4713 -0.7270 -0.2576
 5309SOL    HW127389   1.932   4.387  10.764 -1.6089 -0.3781 -0.7126
 5309SOL    HW227390   1.915   4.247  10.748 -0.1391  0.3227  0.9626
 5310SOL     OW27391   4.459   4.360   9.236  0.1408  0.2986 -0.2197
 5310SOL    HW127392   4.364   4.376   9.237 -0.3082 -2.2023 -2.1875
 5310SOL    HW227393   4.486   4.399   9.319  0.4540 -0.0068 -0.1797
 5311SOL     OW27394   2.048   0.917  15.253 -0.1397 -0.3253  0.0599
 5311SOL    HW127395   2.083   1.005  15.266 -2.2839  0.6359 -0.6525
 5311SOL    HW227396   2.122   0.856  15.255 -0.2338 -0.3351  3.3866
 5312SOL     OW27397   2.395   0.722   3.663 -0.3064  0.2198  0.3825
 5312SOL    HW127398   2.400   0.790   3.730  0.8946  1.9347 -1.4300
 5312SOL    HW227399   2.476   0.744   3.617 -0.2145 -0.7923  0.0724
 5313SOL     OW27400   2.028   3.950   3.973 -0.0892  0.1126  0.2291
 5313SOL    HW127401   2.086   3.946   4.049 -0.6224  1.9212  0.7194
 5313SOL    HW227402   2.005   4.042   3.965  3.1075  0.8803 -0.4793
 5314SOL     OW27403   0.528   1.970   5.967 -0.2778 -0.4642  0.2386
 5314SOL    HW127404   0.612   2.006   5.941 -1.2469  2.0863  0.6024
 5314SOL    HW227405   0.511   1.913   5.892  1.3417 -0.6410  0.0151
 5315SOL     OW27406   2.927   2.741   2.462  0.5231 -0.1670  0.1980
 5315SOL    HW127407   2.884   2.734   2.377  1.8603  1.1816 -0.5701
 5315SOL    HW227408   3.006   2.786   2.433 -0.5043  1.2314 -0.4152
 5316SOL     OW27409   2.781   0.666   4.283  0.2071 -0.1442  0.6234
 5316SOL    HW127410   2.698   0.711   4.266  0.0549 -1.3403 -1.8239
 5316SOL    HW227411   2.737   0.584   4.305 -0.7978  0.5499  1.1604
 5317SOL     OW27412   1.645   4.019   3.594  0.6973  0.3559  0.2588
 5317SOL    HW127413   1.652   4.107   3.558  0.4838  0.2967  0.0745
 5317SOL    HW227414   1.738   4.001   3.577  0.8033 -0.5745  1.8337
 5318SOL     OW27415   3.136   0.139   6.120 -0.3816 -0.0719 -0.3379
 5318SOL    HW127416   3.079   0.103   6.051 -1.4863 -1.8633  1.5082
 5318SOL    HW227417   3.070   0.188   6.169 -0.4614  0.1493 -0.6718
 5319SOL     OW27418   2.992   0.348   5.256 -0.0467  0.2453 -0.7177
 5319SOL    HW127419   3.042   0.280   5.301  2.1354  2.7845  0.7522
 5319SOL    HW227420   2.981   0.405   5.332 -0.0186 -0.5020 -0.1496
 5320SOL     OW27421   3.665   4.138   2.244 -0.0257  0.4514  1.0097
 5320SOL    HW127422   3.751   4.139   2.286 -0.2103 -1.3529  1.4396
 5320SOL    HW227423   3.613   4.203   2.292 -1.7675 -0.3061  0.1337
 5321SOL     OW27424   2.474   0.085   8.527  0.0441 -0.1404 -0.1275
 5321SOL    HW127425   2.455   0.167   8.482 -0.6461  0.1518  0.7076
 5321SOL    HW227426   2.386   0.057   8.553  0.4210 -0.5006  0.7624
 5322SOL     OW27427   2.426   1.131  10.104  0.7897 -0.1441  0.0894
 5322SOL    HW127428   2.521   1.123  10.114  0.6479  0.2111  1.7687
 5322SOL    HW227429   2.403   1.055  10.050 -1.1895  0.5544 -0.0353
 5323SOL     OW27430   4.016   3.151   2.725 -0.5236  0.3122  0.7369
 5323SOL    HW127431   4.034   3.063   2.759  0.4497 -0.4817 -1.8554
 5323SOL    HW227432   4.098   3.177   2.682 -0.8081 -1.0616 -0.6013
 5324SOL     OW27433   1.889   4.410  10.170 -0.0710 -0.2606 -0.1384
 5324SOL    HW127434   1.847   4.432  10.086 -0.7738 -1.0500 -0.0022
 5324SOL    HW227435   1.962   4.471  10.164  0.1976 -0.6743 -1.0713
 5325SOL     OW27436   4.375   3.188   1.616 -0.3911 -0.0295  0.5829
 5325SOL    HW127437   4.307   3.245   1.651  0.2384  0.6636  0.6785
 5325SOL    HW227438   4.402   3.239   1.540 -1.5256  0.0913  0.2666
 5326SOL     OW27439   0.744   1.544   8.215  0.2407 -0.0029 -0.0780
 5326SOL    HW127440   0.661   1.591   8.206  0.2009 -0.2768 -1.1571
 5326SOL    HW227441   0.806   1.588   8.157 -0.1121  2.3755  1.3123
 5327SOL     OW27442   0.642   2.462   7.556 -0.1873  0.2456 -0.2918
 5327SOL    HW127443   0.639   2.520   7.480  0.7933 -0.4460 -0.8666
 5327SOL    HW227444   0.578   2.394   7.535  3.0057 -3.1066  0.8962
 5328SOL     OW27445   1.131   0.492   1.441  0.1634 -0.0653  0.7621
 5328SOL    HW127446   1.136   0.568   1.384 -0.0556  0.1016  0.9658
 5328SOL    HW227447   1.043   0.463   1.420 -0.1753  1.8478 -0.4551
 5329SOL     OW27448   4.682   3.201   0.577  0.0777 -0.1932  0.2711
 5329SOL    HW127449   4.620   3.180   0.647 -1.0643  1.4979 -0.2334
 5329SOL    HW227450   4.635   3.182   0.497  0.5592 -0.7168  0.1142
 5330SOL     OW27451   3.829   2.149   5.446 -0.0320  0.6679 -0.1679
 5330SOL    HW127452   3.820   2.154   5.541 -0.5626  2.4691 -0.3071
 5330SOL    HW227453   3.786   2.065   5.429  0.3013  0.3923  0.3487
 5331SOL     OW27454   3.041   3.735   9.097 -0.5752  0.0870  0.2793
 5331SOL    HW127455   3.013   3.696   9.180  1.1719 -0.8037  0.4330
 5331SOL    HW227456   3.133   3.708   9.098 -0.0645  1.8301 -0.5387
 5332SOL     OW27457   3.908   3.999   2.450  0.0109  0.7359  0.5995
 5332SOL    HW127458   3.873   4.086   2.469  0.2371  0.7044  1.1939
 5332SOL    HW227459   3.838   3.941   2.480  1.5540 -1.4605  0.0285
 5333SOL     OW27460   3.042   0.146  16.077 -0.0360  0.0307 -0.0387
 5333SOL    HW127461   3.118   0.106  16.036 -0.0907 -0.3508  0.2313
 5333SOL    HW227462   3.050   0.242  16.075  0.0667  0.0436  1.0902
 5334SOL     OW27463   3.649   3.242   2.742  0.3799 -0.2567 -0.3148
 5334SOL    HW127464   3.724   3.260   2.687 -0.4524 -3.0189 -2.3438
 5334SOL    HW227465   3.623   3.156   2.707 -1.7322 -0.1640  1.0277
 5335SOL     OW27466   0.185   3.965   4.746 -0.0380 -0.3742  0.3250
 5335SOL    HW127467   0.276   3.980   4.720  0.2168  0.0216  1.4513
 5335SOL    HW227468   0.178   3.991   4.838 -0.3050 -2.5849  0.9330
 5336SOL     OW27469   3.742   0.684   1.555 -0.1512 -0.1776 -0.0684
 5336SOL    HW127470   3.833   0.655   1.558 -0.7979 -2.2440 -0.4987
 5336SOL    HW227471   3.696   0.635   1.487  2.0216 -0.5877 -1.2431
 5337SOL     OW27472   0.858   0.788   5.775 -0.5254 -0.0113 -0.1358
 5337SOL    HW127473   0.823   0.762   5.860  2.9849 -2.0717  0.6519
 5337SOL    HW227474   0.805   0.868   5.771  2.1350  1.7875  0.5510
 5338SOL     OW27475   4.200   0.323   6.520  0.1380 -0.1835  0.1992
 5338SOL    HW127476   4.133   0.367   6.467  1.2127  1.9937  0.6586
 5338SOL    HW227477   4.160   0.236   6.527  1.6312 -0.7129  2.0749
 5339SOL     OW27478   1.629   0.899  13.427 -0.4809  0.0787 -0.1831
 5339SOL    HW127479   1.546   0.880  13.470  0.0153  0.2988  0.8649
 5339SOL    HW227480   1.600   0.977  13.379 -1.1820 -1.5485 -2.3948
 5340SOL     OW27481   1.089   2.165   3.138  0.3513  0.5942  0.3953
 5340SOL    HW127482   1.029   2.188   3.209 -0.2110  0.6095 -0.0874
 5340SOL    HW227483   1.078   2.238   3.078 -0.1919  1.1907  1.2203
 5341SOL     OW27484   0.361   3.845  11.135  0.3409 -0.1066  0.1612
 5341SOL    HW127485   0.406   3.795  11.067  0.5563  0.2209  0.0626
 5341SOL    HW227486   0.338   3.925  11.087 -1.0172  0.4757  1.7918
 5342SOL     OW27487   0.802   2.849   5.518 -0.6686  0.5411 -0.1034
 5342SOL    HW127488   0.775   2.882   5.603  0.9011 -1.1825  1.0490
 5342SOL    HW227489   0.838   2.767   5.551  0.5398  0.5957 -1.2911
 5343SOL     OW27490   0.836   2.669   0.887 -0.2011  0.3316  0.0819
 5343SOL    HW127491   0.827   2.750   0.838 -0.4490  1.3811  1.8581
 5343SOL    HW227492   0.743   2.651   0.899 -0.2485 -0.7568 -1.8117
 5344SOL     OW27493   3.691   1.603   3.307 -0.6142 -0.0752 -0.1456
 5344SOL    HW127494   3.675   1.683   3.256  0.9782  0.5919  0.3778
 5344SOL    HW227495   3.710   1.536   3.241 -1.1297 -0.6101  0.2531
 5345SOL     OW27496   3.305   4.159   0.224  0.5041  0.1254  0.0554
 5345SOL    HW127497   3.246   4.085   0.215 -0.3618  1.2189 -2.9103
 5345SOL    HW227498   3.324   4.194   0.137  1.1698 -0.5017 -0.0504
 5346SOL     OW27499   1.016   3.976   2.678 -0.0899 -0.2365 -0.1540
 5346SOL    HW127500   0.989   3.886   2.695  2.1330 -0.9977 -0.6620
 5346SOL    HW227501   0.932   4.022   2.680 -0.1788 -0.4809  1.8823
 5347SOL     OW27502   0.025   3.093  15.301  0.7004  0.0785  0.2282
 5347SOL    HW127503   0.108   3.125  15.266 -0.6682  1.7678 -1.4975
 5347SOL    HW227504   0.055   3.112  15.389  0.1490 -1.6242  0.7834
 5348SOL     OW27505   3.378   2.021   8.850 -0.2443  0.5006 -0.4344
 5348SOL    HW127506   3.447   1.991   8.790  0.5848  1.1767  0.1712
 5348SOL    HW227507   3.297   2.013   8.800 -1.0262  0.7826  0.7880
 5349SOL     OW27508   3.913   2.601   1.585  0.1725 -0.9230 -0.4967
 5349SOL    HW127509   3.915   2.690   1.549  1.3123 -0.6451  0.2659
 5349SOL    HW227510   4.003   2.576   1.567 -0.0280 -2.1954  0.2508
 5350SOL     OW27511   3.407   4.325   8.137  0.8330 -0.0505 -0.4594
 5350SOL    HW127512   3.446   4.389   8.077  0.9110  0.3977  0.0715
 5350SOL    HW227513   3.428   4.247   8.086  0.1589 -1.3459  1.2571
 5351SOL     OW27514   0.856   0.633  14.325 -0.0073 -0.4856 -0.0687
 5351SOL    HW127515   0.795   0.616  14.254 -0.1989  0.7929 -0.2106
 5351SOL    HW227516   0.827   0.577  14.397 -0.8713  0.1893  0.1117
 5352SOL     OW27517   3.916   3.577   7.631 -0.4385  0.1864 -0.3254
 5352SOL    HW127518   3.964   3.516   7.687 -3.5626 -1.2532  0.8334
 5352SOL    HW227519   3.984   3.602   7.569 -0.0335 -4.6392 -1.8420
 5353SOL     OW27520   2.105   3.291  11.474 -0.0421 -0.2728 -0.4502
 5353SOL    HW127521   2.196   3.279  11.446  0.1404 -2.4584  1.1100
 5353SOL    HW227522   2.109   3.383  11.500  2.2219 -0.2920 -0.6751
 5354SOL     OW27523   1.841   2.577   3.304 -0.8605 -0.0008 -0.5317
 5354SOL    HW127524   1.764   2.633   3.314  0.3131  1.6371 -0.7438
 5354SOL    HW227525   1.805   2.492   3.329  0.3408 -0.7107 -1.2138
 5355SOL     OW27526   0.589   3.000   3.823  0.1383  0.0550 -0.3020
 5355SOL    HW127527   0.612   2.934   3.758 -3.1448 -0.8599 -0.5460
 5355SOL    HW227528   0.594   3.085   3.780  1.3885 -1.4769 -3.1998
 5356SOL     OW27529   4.578   4.271   5.703 -0.4203  0.0157  0.3807
 5356SOL    HW127530   4.566   4.183   5.669 -1.9148 -0.3348  1.7758
 5356SOL    HW227531   4.649   4.251   5.764 -1.4370  0.5109  1.7380
 5357SOL     OW27532   1.353   0.146   3.319  0.2743 -0.2902 -0.4047
 5357SOL    HW127533   1.318   0.076   3.373 -2.6860  1.7803  0.3908
 5357SOL    HW227534   1.299   0.125   3.243 -2.0150  0.8911  0.9126
 5358SOL     OW27535   2.430   1.370   7.848 -0.3081  0.1538  0.3400
 5358SOL    HW127536   2.434   1.420   7.766  0.6783 -1.5237 -0.6390
 5358SOL    HW227537   2.467   1.442   7.898 -0.8261  1.7327 -1.5281
 5359SOL     OW27538   1.115   0.856  11.357  0.4030 -0.1421 -0.1822
 5359SOL    HW127539   1.045   0.918  11.379 -0.6205 -0.8692 -1.3725
 5359SOL    HW227540   1.114   0.875  11.263  1.7803 -1.3494 -0.4360
 5360SOL     OW27541   3.614   1.642   8.564  0.1613  0.2418  0.4478
 5360SOL    HW127542   3.637   1.550   8.560  0.0338  0.3337 -2.8614
 5360SOL    HW227543   3.581   1.647   8.474  2.7782 -1.1554 -0.5894
 5361SOL     OW27544   3.930   3.960   5.269 -0.1248 -0.2133 -0.5810
 5361SOL    HW127545   3.860   3.915   5.316  0.3561  0.0754  0.4169
 5361SOL    HW227546   3.891   4.047   5.275  1.0809  0.3806 -1.2553
 5362SOL     OW27547   1.293   0.233   8.054  0.1032 -0.8091  0.0184
 5362SOL    HW127548   1.261   0.323   8.056 -0.0679 -0.8676 -0.0746
 5362SOL    HW227549   1.246   0.207   8.133 -0.1346 -2.0204 -0.5315
 5363SOL     OW27550   1.994   3.722  16.722 -0.0832  0.4884 -0.0445
 5363SOL    HW127551   2.009   3.648  16.780 -0.8815  0.1796 -0.2302
 5363SOL    HW227552   1.908   3.704  16.683 -0.4850  1.2954  0.4682
 5364SOL     OW27553   0.791   0.994   1.221 -0.2450 -0.0338  0.1062
 5364SOL    HW127554   0.770   0.923   1.282  2.0995 -0.3591  0.5350
 5364SOL    HW227555   0.823   1.064   1.278  0.2267  1.6707 -2.2610
 5365SOL     OW27556   1.938   2.234   5.963  0.0608  0.0660  0.0368
 5365SOL    HW127557   1.933   2.217   6.058  0.0465 -0.8204 -0.1226
 5365SOL    HW227558   2.031   2.233   5.940  0.4569  0.1529  1.6040
 5366SOL     OW27559   3.009   3.097   2.004 -0.0362  0.2809  0.4012
 5366SOL    HW127560   2.991   3.076   2.096 -1.8420  0.5902  0.1180
 5366SOL    HW227561   2.957   3.027   1.964  1.8708 -1.3939  0.8462
 5367SOL     OW27562   2.575   0.438   4.953 -0.4143 -0.0557  0.0386
 5367SOL    HW127563   2.670   0.429   4.958 -0.4817 -0.3604  0.8408
 5367SOL    HW227564   2.558   0.503   5.021 -0.3768  1.5132 -1.4541
 5368SOL     OW27565   3.365   0.705   0.224 -0.0415  0.4983 -0.3550
 5368SOL    HW127566   3.406   0.741   0.303 -2.0213  2.3323 -0.1636
 5368SOL    HW227567   3.271   0.722   0.233  0.2174  2.4083 -1.2127
 5369SOL     OW27568   1.864   0.775  12.534 -0.8999 -0.0600 -0.3963
 5369SOL    HW127569   1.949   0.775  12.579  0.0571  1.8601 -2.1567
 5369SOL    HW227570   1.825   0.858  12.563 -1.2988  0.2238 -1.7180
 5370SOL     OW27571   3.850   0.334   8.735  0.1321 -0.5067 -0.2717
 5370SOL    HW127572   3.820   0.317   8.825  3.3443  1.0404  1.0739
 5370SOL    HW227573   3.932   0.382   8.746  0.9273 -1.4167 -2.4231
 5371SOL     OW27574   2.579   0.470   3.447  0.0116 -0.1273  0.1945
 5371SOL    HW127575   2.649   0.475   3.512  0.5776 -1.2391 -0.3444
 5371SOL    HW227576   2.517   0.424   3.503 -1.9849 -0.7137 -2.5138
 5372SOL     OW27577   2.150   3.956   4.881 -0.1066  0.5788  0.5064
 5372SOL    HW127578   2.090   3.905   4.936  0.8819 -2.5719 -1.2956
 5372SOL    HW227579   2.172   3.895   4.810  0.6467  0.8867  0.4818
 5373SOL     OW27580   1.360   2.780   1.886 -0.4627  0.1226  0.0564
 5373SOL    HW127581   1.448   2.811   1.868 -0.4500 -0.2784 -0.5686
 5373SOL    HW227582   1.318   2.784   1.800 -1.4445 -1.8165  0.4255
 5374SOL     OW27583   0.753   2.994   4.031  0.2049 -0.0478 -0.4594
 5374SOL    HW127584   0.696   3.007   3.955 -0.2045 -2.8665 -0.6021
 5374SOL    HW227585   0.762   2.900   4.045  3.7455  0.6339  1.9021
 5375SOL     OW27586   3.440   3.065   5.587  0.0031 -0.3219 -0.4235
 5375SOL    HW127587   3.418   3.083   5.679 -0.0565  1.3276 -0.7687
 5375SOL    HW227588   3.532   3.038   5.591  0.4149  1.0396 -0.7766
 5376SOL     OW27589   3.005   2.311   8.840 -0.1871 -0.0890  0.7235
 5376SOL    HW127590   3.060   2.276   8.910  0.7084  0.6749  0.3862
 5376SOL    HW227591   2.998   2.403   8.866 -0.8835  0.5249 -1.6324
 5377SOL     OW27592   0.464   0.316   1.441 -0.1954  0.1487  0.3380
 5377SOL    HW127593   0.557   0.297   1.456 -0.4396 -2.6019 -1.8703
 5377SOL    HW227594   0.448   0.375   1.515  0.2363 -0.6321  1.0568
 5378SOL     OW27595   4.339   2.664   7.056 -0.0648 -0.0048 -0.7472
 5378SOL    HW127596   4.283   2.597   7.095  0.2940 -0.0574 -0.3202
 5378SOL    HW227597   4.276   2.706   6.997 -2.2784 -0.5303  1.2496
 5379SOL     OW27598   4.254   0.231   5.619  0.3063  0.0204  0.4821
 5379SOL    HW127599   4.280   0.304   5.674 -0.7159  0.1648  0.7764
 5379SOL    HW227600   4.199   0.278   5.556 -0.0748 -2.0785 -0.7732
 5380SOL     OW27601   3.440   0.818   6.706 -0.1130  0.1060  0.5034
 5380SOL    HW127602   3.431   0.797   6.798 -4.2935  1.1483  0.3141
 5380SOL    HW227603   3.429   0.733   6.662 -0.2353 -0.1053  0.9384
 5381SOL     OW27604   1.729   4.587   0.132 -0.4778 -0.1599 -0.5048
 5381SOL    HW127605   1.708   4.619   0.044 -2.8477 -1.8876 -0.5757
 5381SOL    HW227606   1.688   4.643   0.197 -2.7697  0.9605 -2.8867
 5382SOL     OW27607   1.189   1.929   5.792  0.4399  0.5188  0.5543
 5382SOL    HW127608   1.222   1.841   5.814  1.0442  0.6422  0.1271
 5382SOL    HW227609   1.134   1.905   5.717 -0.1859 -1.3369  1.5984
 5383SOL     OW27610   2.794   3.156   5.980 -0.2905 -0.5945  0.4498
 5383SOL    HW127611   2.703   3.128   5.986  0.6666 -4.2966 -2.9734
 5383SOL    HW227612   2.780   3.241   6.024  0.2541 -0.6199  0.6715
 5384SOL     OW27613   3.815   1.949   3.496  0.1971 -0.0158 -0.1539
 5384SOL    HW127614   3.860   1.866   3.477  0.4661  0.4433 -1.4875
 5384SOL    HW227615   3.888   2.010   3.497  1.2406 -1.2589 -0.1584
 5385SOL     OW27616   2.967   4.324   8.418  0.7893  0.5814  0.4518
 5385SOL    HW127617   3.046   4.368   8.449  0.6321  0.7628  0.5905
 5385SOL    HW227618   2.995   4.233   8.420 -2.2238 -0.3823 -1.2949
 5386SOL     OW27619   0.399   0.183   3.272 -0.4410  0.0628  0.3353
 5386SOL    HW127620   0.335   0.119   3.239 -0.0137  0.6534 -1.5901
 5386SOL    HW227621   0.480   0.132   3.272 -0.4876 -0.0124  0.4020
 5387SOL     OW27622   0.035   2.666   6.672 -0.3565  0.2877  0.1957
 5387SOL    HW127623   0.023   2.699   6.583 -0.1863 -3.5181 -1.2149
 5387SOL    HW227624   4.665   2.657   6.701  0.1446  2.6006  2.4902
 5388SOL     OW27625   2.999   0.487  12.445 -0.5606 -0.8270  0.6511
 5388SOL    HW127626   2.956   0.572  12.435 -0.5573 -1.0468 -1.1404
 5388SOL    HW227627   3.023   0.498  12.537 -0.3216  0.9152  0.3687
 5389SOL     OW27628   1.869   0.925   5.793  0.6773 -0.2016  0.0174
 5389SOL    HW127629   1.954   0.884   5.778  0.2870 -0.5949 -1.1612
 5389SOL    HW227630   1.891   1.011   5.757  3.5264 -0.1369  1.9693
 5390SOL     OW27631   1.517   1.941   7.163  0.5566 -0.1696  0.0129
 5390SOL    HW127632   1.423   1.952   7.179  0.5953 -2.2704  1.7271
 5390SOL    HW227633   1.534   2.015   7.105  1.9112 -1.6942 -1.5152
 5391SOL     OW27634   1.241   2.361   6.323 -0.1858  0.3353  0.2168
 5391SOL    HW127635   1.281   2.309   6.254  1.5065  0.3043  1.2308
 5391SOL    HW227636   1.154   2.375   6.285  0.3656  1.1524 -0.7491
 5392SOL     OW27637   2.871   2.468   1.816 -0.1483 -0.2139  0.3232
 5392SOL    HW127638   2.887   2.537   1.752  1.6534 -0.9024  0.0200
 5392SOL    HW227639   2.953   2.418   1.811  0.7977  1.5706 -1.8973
 5393SOL     OW27640   1.681   4.663   1.577 -0.6431 -0.2774  0.0647
 5393SOL    HW127641   1.645   4.609   1.507 -2.0703  0.9045 -0.1108
 5393SOL    HW227642   1.759   4.703   1.539 -1.2568  1.7408  0.9121
 5394SOL     OW27643   0.287   0.696  16.251 -0.1431 -0.1250 -0.3731
 5394SOL    HW127644   0.319   0.781  16.222  1.2315 -1.6495 -3.3313
 5394SOL    HW227645   0.322   0.652  16.174 -0.1673  0.3703 -0.6663
 5395SOL     OW27646   1.888   2.267  17.420 -0.2603  0.4347  0.2022
 5395SOL    HW127647   1.887   2.349  17.371 -0.6423  0.8372  0.8934
 5395SOL    HW227648   1.894   2.297  17.510 -0.6474 -4.7620  1.9277
 5396SOL     OW27649   0.559   2.153  14.772  0.0303 -0.0678  0.6130
 5396SOL    HW127650   0.538   2.147  14.865 -3.0648 -2.1867 -0.2248
 5396SOL    HW227651   0.495   2.218  14.742 -0.9517 -1.1639  0.3345
 5397SOL     OW27652   2.412   0.590   5.456  0.1758 -0.3230  0.8269
 5397SOL    HW127653   2.332   0.640   5.438  0.7888  0.1901 -0.4576
 5397SOL    HW227654   2.390   0.507   5.412 -0.3781  1.2955 -1.9831
 5398SOL     OW27655   1.136   1.499   4.584  0.1355  0.1446  0.0449
 5398SOL    HW127656   1.101   1.531   4.667  1.3864  2.6907 -0.4331
 5398SOL    HW227657   1.170   1.578   4.544 -1.2345 -0.3629 -2.0932
 5399SOL     OW27658   0.441   3.916   7.957 -0.3285  0.0321 -0.0570
 5399SOL    HW127659   0.352   3.939   7.928 -0.9674 -0.1806  1.7492
 5399SOL    HW227660   0.474   4.006   7.963 -0.1983  0.0170 -0.5902
 5400SOL     OW27661   4.689   0.990   3.926  0.7829  0.2238  0.2025
 5400SOL    HW127662   0.021   0.910   3.929  0.1191 -0.2490 -1.0105
 5400SOL    HW227663   0.028   1.059   3.896 -0.2534  0.9264 -0.2657
 5401SOL     OW27664   1.193   0.672  16.458  0.0356  0.1810 -0.2903
 5401SOL    HW127665   1.153   0.653  16.543 -0.3733  0.5211 -0.4017
 5401SOL    HW227666   1.253   0.742  16.485 -0.1317  0.7374 -1.3784
 5402SOL     OW27667   2.869   3.542   6.572 -0.2778  0.0114  0.1006
 5402SOL    HW127668   2.776   3.563   6.573 -0.4644 -0.7583 -0.6748
 5402SOL    HW227669   2.873   3.460   6.621 -0.9533  1.0009  1.8146
 5403SOL     OW27670   0.183   3.185   8.663  0.2158 -0.8263  0.0260
 5403SOL    HW127671   0.192   3.109   8.720 -0.3751 -1.7784 -1.1506
 5403SOL    HW227672   0.089   3.204   8.665  0.1212 -1.1373 -1.8343
 5404SOL     OW27673   4.198   4.448   3.170  0.0852  0.1126 -0.3521
 5404SOL    HW127674   4.247   4.415   3.246  0.6144 -0.7508 -1.0684
 5404SOL    HW227675   4.120   4.393   3.167  0.6474 -0.7161  0.0777
 5405SOL     OW27676   3.239   3.341   1.576 -0.3332 -0.1898 -0.9260
 5405SOL    HW127677   3.270   3.339   1.666 -1.9127 -0.4779 -0.3788
 5405SOL    HW227678   3.318   3.331   1.524 -0.3937  1.3909 -1.3246
 5406SOL     OW27679   3.831   4.363   4.322 -0.2941  0.1396 -0.1248
 5406SOL    HW127680   3.918   4.376   4.286  0.3162 -5.2699 -0.6845
 5406SOL    HW227681   3.828   4.442   4.375 -0.7787  0.7445 -1.0495
 5407SOL     OW27682   4.288   1.950   5.749  0.3940 -0.0713 -0.3467
 5407SOL    HW127683   4.236   1.948   5.829 -0.0499  0.0434 -0.6267
 5407SOL    HW227684   4.236   2.012   5.697 -1.2915 -0.1187  1.3101
 5408SOL     OW27685   1.702   4.255   0.584 -0.2039  0.4128  0.2160
 5408SOL    HW127686   1.736   4.249   0.495 -0.5688 -2.2340  0.2264
 5408SOL    HW227687   1.611   4.227   0.573 -0.2924 -0.2573  2.4656
 5409SOL     OW27688   3.141   3.117  17.408  0.1525  0.2062  0.6675
 5409SOL    HW127689   3.178   3.132  17.321 -1.0965 -0.6609  0.0002
 5409SOL    HW227690   3.068   3.179  17.407  0.0956  0.1255 -0.0950
 5410SOL     OW27691   1.479   2.213   9.351 -0.2041 -0.0569 -0.1403
 5410SOL    HW127692   1.455   2.257   9.432  0.2736 -0.5845  0.2807
 5410SOL    HW227693   1.530   2.283   9.311 -1.5498 -0.7353 -3.0979
 5411SOL     OW27694   1.479   4.005   4.122  0.0503  0.6287 -0.0782
 5411SOL    HW127695   1.506   3.916   4.144 -0.4807  0.5705  0.3357
 5411SOL    HW227696   1.501   4.006   4.029  0.2662 -0.4126 -0.0419
 5412SOL     OW27697   0.542   3.955  12.269  0.3610  0.6273 -0.2617
 5412SOL    HW127698   0.514   3.874  12.227  1.0128 -0.0903  0.6830
 5412SOL    HW227699   0.558   3.925  12.358  0.0825  1.6220  0.1342
 5413SOL     OW27700   0.817   0.567   3.504  0.5068  0.1686  0.6342
 5413SOL    HW127701   0.843   0.494   3.447  0.0297 -0.9436  1.8531
 5413SOL    HW227702   0.833   0.526   3.588  1.4872 -2.0078 -0.6101
 5414SOL     OW27703   3.127   1.213   5.360 -0.3246  0.1140  0.9596
 5414SOL    HW127704   3.186   1.137   5.363 -0.8844 -0.3470  0.3280
 5414SOL    HW227705   3.142   1.260   5.442 -2.9658  0.2978  1.3539
 5415SOL     OW27706   3.790   0.046   6.614  0.0257 -0.0322 -0.3157
 5415SOL    HW127707   3.831   0.127   6.643 -0.7607 -0.1353  1.1072
 5415SOL    HW227708   3.829   4.691   6.658  0.4355 -0.4546 -1.4053
 5416SOL     OW27709   3.117   0.472  15.663  0.4962 -0.3212 -0.1783
 5416SOL    HW127710   3.062   0.437  15.733  1.4287  2.4172  1.9396
 5416SOL    HW227711   3.203   0.443  15.694 -0.1596 -2.8751 -0.7852
 5417SOL     OW27712   1.148   3.650   3.570 -0.0508 -0.3303 -0.1638
 5417SOL    HW127713   1.153   3.722   3.507  2.0766 -0.1874  0.1705
 5417SOL    HW227714   1.191   3.586   3.514  1.8926  0.6492  0.1798
 5418SOL     OW27715   1.977   0.857   7.878  0.6129 -0.1096  0.4240
 5418SOL    HW127716   1.882   0.854   7.892  0.4469 -1.1485 -0.8774
 5418SOL    HW227717   1.988   0.807   7.797 -0.6057 -0.2323  0.3243
 5419SOL     OW27718   1.108   2.563   6.922 -0.3201  0.4355 -0.2345
 5419SOL    HW127719   1.046   2.535   6.854  1.3474 -0.8837 -1.2240
 5419SOL    HW227720   1.048   2.573   6.995  0.0667  0.3707  0.0922
 5420SOL     OW27721   1.035   1.924  17.657 -0.2118 -0.1650 -0.6630
 5420SOL    HW127722   1.108   1.981  17.682  0.3852 -2.9565  3.8873
 5420SOL    HW227723   1.080   1.840  17.648 -1.8694 -1.3650  2.3418
 5421SOL     OW27724   3.640   3.308   4.632  0.4299  0.2208  0.3106
 5421SOL    HW127725   3.620   3.395   4.597  2.8733  0.1505 -1.1683
 5421SOL    HW227726   3.599   3.310   4.719 -0.7314  2.0410 -0.2735
 5422SOL     OW27727   2.223   0.943   3.098  0.3419  0.2724  0.0824
 5422SOL    HW127728   2.156   0.962   3.165  1.7251  0.8798  1.2856
 5422SOL    HW227729   2.221   1.029   3.056 -0.7262  1.2868  2.2024
 5423SOL     OW27730   1.630   1.985  11.687 -0.0430  0.4818 -0.4088
 5423SOL    HW127731   1.663   1.897  11.708  0.0501  0.6846  0.3082
 5423SOL    HW227732   1.675   2.037  11.753 -0.6326  0.8982 -0.3310
 5424SOL     OW27733   2.678   0.817   7.670  0.1912  0.0570  0.4253
 5424SOL    HW127734   2.660   0.908   7.646 -1.4086 -0.9801 -2.4084
 5424SOL    HW227735   2.600   0.772   7.638 -1.1092  2.0034  0.8959
 5425SOL     OW27736   0.884   3.579  14.311  0.4983 -0.0671  0.4193
 5425SOL    HW127737   0.790   3.570  14.297  0.9933 -2.0988 -1.5569
 5425SOL    HW227738   0.914   3.623  14.232  0.4435 -1.5941 -0.4351
 5426SOL     OW27739   3.376   2.600   0.179 -0.0907  0.1453  0.5228
 5426SOL    HW127740   3.467   2.627   0.190  0.0771 -0.5003  0.7209
 5426SOL    HW227741   3.385   2.505   0.189 -2.4975 -0.2704 -1.2407
 5427SOL     OW27742   3.523   2.445   5.448  0.2107  0.4600  0.4942
 5427SOL    HW127743   3.596   2.490   5.406  0.7735 -0.7421  0.1743
 5427SOL    HW227744   3.523   2.468   5.541 -1.8497 -1.6881  1.0338
 5428SOL     OW27745   3.407   0.717   7.411  0.3563 -0.8739 -0.9373
 5428SOL    HW127746   3.465   0.642   7.404 -0.9834 -2.1100  1.1026
 5428SOL    HW227747   3.375   0.723   7.321  0.4159 -1.2267 -0.9817
 5429SOL     OW27748   2.455   1.048   1.476  0.1911 -0.5076 -0.1154
 5429SOL    HW127749   2.450   1.111   1.405 -0.3813  0.5241  0.8457
 5429SOL    HW227750   2.526   1.088   1.526 -0.2059 -0.1590  0.1651
 5430SOL     OW27751   4.173   2.764   6.320  0.6047 -0.6234  0.4461
 5430SOL    HW127752   4.190   2.844   6.370  2.2450 -1.4904  1.2395
 5430SOL    HW227753   4.128   2.710   6.384  1.5283 -0.8166  0.9207
 5431SOL     OW27754   2.609   0.216   4.457  0.3865  0.1580  0.2515
 5431SOL    HW127755   2.562   0.180   4.532  1.7202 -1.1708  0.4310
 5431SOL    HW227756   2.655   0.145   4.412  0.6207  0.7258 -0.4199
 5432SOL     OW27757   1.540   3.664  15.297 -0.0897  0.3643  0.0812
 5432SOL    HW127758   1.538   3.609  15.376 -0.9569  2.5568  1.5840
 5432SOL    HW227759   1.450   3.651  15.269 -0.1669 -1.1253  1.0045
 5433SOL     OW27760   0.243   0.728   4.623  0.4617 -0.2544 -0.0037
 5433SOL    HW127761   0.174   0.783   4.585  1.1756  0.4272 -0.3092
 5433SOL    HW227762   0.321   0.766   4.583  0.1777  1.1526  0.7704
 5434SOL     OW27763   4.164   3.268  15.433  0.4281  0.1222 -0.1198
 5434SOL    HW127764   4.220   3.205  15.478 -0.4360 -0.3999  0.2282
 5434SOL    HW227765   4.126   3.211  15.367  4.7587 -1.1914 -1.4526
 5435SOL     OW27766   1.117   2.851   7.452  0.1419 -0.4399 -0.4295
 5435SOL    HW127767   1.131   2.945   7.447  0.4923 -0.4476  0.4278
 5435SOL    HW227768   1.160   2.819   7.531  1.1438 -1.0183 -1.2080
 5436SOL     OW27769   0.630   1.389   3.002 -0.2343 -0.2123  0.3255
 5436SOL    HW127770   0.562   1.457   3.005 -2.0326 -1.9885 -0.5195
 5436SOL    HW227771   0.711   1.440   3.007  0.3584 -1.2457  1.1754
 5437SOL     OW27772   1.085   1.541  17.579 -0.2560  0.0044 -0.2066
 5437SOL    HW127773   1.023   1.588  17.523 -0.3830 -0.0019 -0.0695
 5437SOL    HW227774   1.025   1.494  17.637 -0.6285 -0.0365 -0.6224
 5438SOL     OW27775   1.364   4.594   7.255 -0.2058 -0.4387  0.0827
 5438SOL    HW127776   1.374   4.612   7.349  1.9728  0.3359 -0.3170
 5438SOL    HW227777   1.268   4.592   7.254 -0.1982 -0.1566 -0.6166
 5439SOL     OW27778   0.349   0.269  14.391  1.4138 -0.3249 -0.1338
 5439SOL    HW127779   0.343   0.179  14.423  0.8743 -0.5674 -0.9304
 5439SOL    HW227780   0.299   0.260  14.310 -1.5305 -3.4570  2.0341
 5440SOL     OW27781   1.351   1.768   1.624  0.2983  0.5368 -0.1268
 5440SOL    HW127782   1.333   1.721   1.542 -0.4524  1.5957 -0.5824
 5440SOL    HW227783   1.371   1.702   1.690  1.9416  0.2178 -0.9448
 5441SOL     OW27784   3.107   2.666  15.695 -0.0197  0.1139  0.5423
 5441SOL    HW127785   3.083   2.757  15.714  0.2931  0.6931 -1.7494
 5441SOL    HW227786   3.086   2.619  15.775 -0.4061  0.6264  0.7377
 5442SOL     OW27787   1.022   1.316   5.104 -0.1573  0.7017  0.3475
 5442SOL    HW127788   1.099   1.371   5.118 -1.0482  2.0015  0.1433
 5442SOL    HW227789   0.963   1.381   5.065  0.9830  1.6618  0.2128
 5443SOL     OW27790   3.590   1.668  16.155  0.0583 -0.0331  0.3749
 5443SOL    HW127791   3.626   1.661  16.066 -1.1570 -1.9759  0.0267
 5443SOL    HW227792   3.497   1.651  16.144  0.1667  0.3641 -1.2615
 5444SOL     OW27793   0.286   1.406   2.244 -0.2156  0.4582 -0.3949
 5444SOL    HW127794   0.285   1.324   2.294 -0.1009  1.1521  0.7232
 5444SOL    HW227795   0.231   1.390   2.167 -1.2276 -1.3343  0.6896
 5445SOL     OW27796   3.438   3.988   3.511 -0.0538  0.4453 -0.4899
 5445SOL    HW127797   3.426   3.948   3.425 -0.2129 -2.8596  1.0728
 5445SOL    HW227798   3.529   3.977   3.537 -0.0627 -0.3996 -0.7967
 5446SOL     OW27799   2.670   2.918   1.496  0.3335 -0.1744 -0.3357
 5446SOL    HW127800   2.756   2.938   1.533 -1.8328  1.4346  3.8718
 5446SOL    HW227801   2.651   2.832   1.532  1.3534 -1.5342 -3.1236
 5447SOL     OW27802   4.175   2.074  10.178 -0.1852  0.3623 -0.2930
 5447SOL    HW127803   4.095   2.070  10.125 -0.7206 -0.6054  0.5868
 5447SOL    HW227804   4.175   2.167  10.200 -0.2048 -0.1139  1.6998
 5448SOL     OW27805   1.815   3.235  16.423 -0.3379  0.2566  0.0544
 5448SOL    HW127806   1.868   3.156  16.428  1.3314  1.3298 -0.4493
 5448SOL    HW227807   1.882   3.304  16.421  0.1842 -0.1979  2.0174
 5449SOL     OW27808   3.122   0.582   7.114 -0.0609 -0.1289  0.4461
 5449SOL    HW127809   3.049   0.615   7.167 -0.6327 -1.5182  0.5302
 5449SOL    HW227810   3.119   0.630   7.031 -2.6401 -1.4673 -0.2294
 5450SOL     OW27811   0.031   0.902   2.424 -0.4026 -0.5311  0.2734
 5450SOL    HW127812   0.027   0.858   2.509 -2.7194  0.8002  0.8360
 5450SOL    HW227813   4.659   0.918   2.406 -0.2804 -1.4880 -1.1825
 5451SOL     OW27814   0.218   4.385  10.824 -0.5529  0.2234  0.3282
 5451SOL    HW127815   0.232   4.395  10.918  0.2150  0.8174  0.1574
 5451SOL    HW227816   0.269   4.310  10.796 -1.3089 -0.0497 -0.3110
 5452SOL     OW27817   0.986   3.616  12.200  0.2151 -0.1641  0.0253
 5452SOL    HW127818   0.998   3.705  12.167  2.9706  0.0771  1.6902
 5452SOL    HW227819   0.995   3.563  12.121  3.7762 -0.3234  0.5370
 5453SOL     OW27820   4.269   3.477   4.783 -0.3858  0.1418  0.0538
 5453SOL    HW127821   4.338   3.542   4.791  0.0140 -0.0608 -1.8140
 5453SOL    HW227822   4.285   3.434   4.867 -3.5491  2.3907  1.8248
 5454SOL     OW27823   3.807   3.879   6.448  0.1675 -0.1129 -0.4012
 5454SOL    HW127824   3.721   3.842   6.426  0.7168 -0.2614 -2.3300
 5454SOL    HW227825   3.869   3.821   6.404  1.6148  0.6376  0.6777
 5455SOL     OW27826   0.072   4.528   7.905 -0.1246  0.3848  0.2646
 5455SOL    HW127827   0.042   4.551   7.817  0.1826 -1.1718 -0.2504
 5455SOL    HW227828   0.022   4.590   7.959  0.7757  1.6465 -0.3810
 5456SOL     OW27829   3.031   0.511   3.642 -0.2374  0.3004  0.5509
 5456SOL    HW127830   3.007   0.602   3.626  0.4743  0.6600  1.5438
 5456SOL    HW227831   2.978   0.493   3.720 -0.9904 -0.3350 -0.1073
 5457SOL     OW27832   3.053   2.763   4.782 -0.1708 -0.1332  0.4363
 5457SOL    HW127833   2.992   2.704   4.827  0.3916  0.0900  1.5092
 5457SOL    HW227834   2.990   2.817   4.735 -1.1648  0.1472  2.0588
 5458SOL     OW27835   1.261   1.588   4.231  0.1733  0.3864 -0.1395
 5458SOL    HW127836   1.338   1.542   4.264 -0.0886  1.2504  1.6590
 5458SOL    HW227837   1.230   1.629   4.312 -0.9636  0.2644 -0.5128
 5459SOL     OW27838   1.115   2.556   8.004 -0.4194 -0.5494 -0.1720
 5459SOL    HW127839   1.060   2.483   7.977 -0.7901  0.4013 -2.0400
 5459SOL    HW227840   1.194   2.511   8.032 -0.4651 -0.5693 -0.0745
 5460SOL     OW27841   0.103   3.294   6.419  0.1581 -0.5202 -0.6148
 5460SOL    HW127842   0.041   3.359   6.385 -0.2400 -0.2640  0.6016
 5460SOL    HW227843   0.165   3.295   6.346  0.7343  0.8089 -0.0990
 5461SOL     OW27844   0.294   1.082   6.573 -0.8262  0.1377  0.7373
 5461SOL    HW127845   0.246   1.153   6.616  1.8626 -0.5643  4.8502
 5461SOL    HW227846   0.255   1.010   6.622 -1.3137 -1.3784 -1.8687
 5462SOL     OW27847   0.359   4.265   9.956 -0.3299  0.2217  0.2790
 5462SOL    HW127848   0.269   4.233   9.947  0.9736 -3.1818 -0.7275
 5462SOL    HW227849   0.387   4.223   9.875  2.1239 -3.3414  2.9716
 5463SOL     OW27850   2.873   4.410   6.427  0.3977 -0.1041  0.6548
 5463SOL    HW127851   2.788   4.365   6.422  0.1423  0.4997 -0.4815
 5463SOL    HW227852   2.906   4.374   6.509 -0.5845  0.2951  1.2196
 5464SOL     OW27853   3.275   2.356  15.183  0.0130  0.3108 -0.4446
 5464SOL    HW127854   3.301   2.265  15.198 -0.8155  0.1975  0.3282
 5464SOL    HW227855   3.187   2.357  15.223 -1.2533  0.8695 -3.2475
 5465SOL     OW27856   2.788   2.585   0.321 -0.0900 -0.2737 -0.3661
 5465SOL    HW127857   2.821   2.673   0.336 -2.2714  0.3784  0.5831
 5465SOL    HW227858   2.713   2.593   0.380 -0.2032  0.8464 -0.6624
 5466SOL     OW27859   1.597   2.104   6.967 -0.2494  0.2806  0.3941
 5466SOL    HW127860   1.662   2.169   6.991  0.9391 -1.3982  1.6578
 5466SOL    HW227861   1.634   2.063   6.888  2.2257  0.2377  1.5956
 5467SOL     OW27862   4.070   0.181   3.065  0.4794  0.5083 -0.6080
 5467SOL    HW127863   3.986   0.200   3.024  0.9855  1.7013 -1.0985
 5467SOL    HW227864   4.096   0.091   3.046 -1.2129  0.0133 -0.5868
 5468SOL     OW27865   0.662   0.411   7.649 -1.1003  0.4234 -0.3132
 5468SOL    HW127866   0.589   0.351   7.634 -2.7267  2.1756  0.6392
 5468SOL    HW227867   0.663   0.460   7.567 -0.7309  1.5375  0.3630
 5469SOL     OW27868   0.906   4.034   0.044 -0.5427 -0.6497 -0.2995
 5469SOL    HW127869   0.998   4.047   0.022 -0.7999  3.6758  1.2641
 5469SOL    HW227870   0.892   3.940   0.027  0.3933 -0.7481 -0.5327
 5470SOL     OW27871   3.630   4.492  13.111  0.8118 -0.1581 -0.1515
 5470SOL    HW127872   3.589   4.572  13.079  0.1655  0.0448  1.1678
 5470SOL    HW227873   3.569   4.473  13.182  0.4538  1.2223 -0.0890
 5471SOL     OW27874   3.721   4.539   4.097 -0.5496 -0.3049  0.5287
 5471SOL    HW127875   3.767   4.536   4.013  0.0773  1.1660  0.8167
 5471SOL    HW227876   3.759   4.456   4.126  0.4845  0.3706  1.0695
 5472SOL     OW27877   1.562   0.211   3.925  0.1392  0.0628 -0.1718
 5472SOL    HW127878   1.596   0.226   3.837 -0.5009 -0.9997 -0.5973
 5472SOL    HW227879   1.628   0.155   3.967  1.1405  1.4209  0.0862
 5473SOL     OW27880   3.918   1.089   4.812 -0.7642  0.2781  0.6601
 5473SOL    HW127881   3.941   1.182   4.814  1.3156 -0.1403 -2.9903
 5473SOL    HW227882   3.865   1.083   4.891  1.0152  0.1199  1.8279
 5474SOL     OW27883   0.493   4.196   3.514 -0.3298  0.3403 -0.0406
 5474SOL    HW127884   0.469   4.276   3.468 -1.0529 -1.4882 -2.8252
 5474SOL    HW227885   0.556   4.233   3.576  1.7705 -2.2927 -0.6230
 5475SOL     OW27886   0.733   3.653  12.833 -0.2586  0.0223 -0.8164
 5475SOL    HW127887   0.704   3.570  12.868 -1.3192  0.1845 -1.3266
 5475SOL    HW227888   0.817   3.638  12.787 -0.1881 -1.7717 -0.0987
 5476SOL     OW27889   3.829   3.923  13.627 -0.5821  0.0447  0.0657
 5476SOL    HW127890   3.789   3.860  13.688  0.8984 -1.1096 -0.1819
 5476SOL    HW227891   3.822   3.880  13.542 -0.7285  1.5979 -0.7159
 5477SOL     OW27892   4.054   2.976   7.285 -0.1436 -0.3636 -0.6043
 5477SOL    HW127893   4.135   3.009   7.247  1.3181 -0.1542  2.6484
 5477SOL    HW227894   4.015   3.059   7.315 -0.6088 -1.2377  1.2521
 5478SOL     OW27895   2.808   1.552   8.152 -0.0153 -0.8558  0.5715
 5478SOL    HW127896   2.862   1.542   8.073  2.7256 -1.1145  2.5017
 5478SOL    HW227897   2.867   1.530   8.224  0.8223 -1.3746 -0.2536
 5479SOL     OW27898   4.457   3.892  14.494 -0.2967 -0.3056 -0.2058
 5479SOL    HW127899   4.483   3.959  14.430  1.3334  0.6547  1.4841
 5479SOL    HW227900   4.431   3.954  14.562 -2.6709 -0.8527 -0.5790
 5480SOL     OW27901   4.101   3.220   5.262  0.1830 -0.1938  0.0831
 5480SOL    HW127902   4.069   3.249   5.348 -4.4734 -0.8863 -1.3845
 5480SOL    HW227903   4.194   3.203   5.277 -0.4615 -2.4260  1.4815
 5481SOL     OW27904   2.015   2.068   7.801  0.0303  0.0932  0.0211
 5481SOL    HW127905   2.024   2.063   7.896 -0.0017  0.8735  0.0615
 5481SOL    HW227906   2.072   2.137   7.768 -2.6547  3.7045  2.9148
 5482SOL     OW27907   1.653   0.837   0.802  0.5888 -0.1908  0.2744
 5482SOL    HW127908   1.622   0.890   0.729  0.8524 -1.8422 -1.0466
 5482SOL    HW227909   1.648   0.749   0.764  1.1436  0.6471 -1.6924
 5483SOL     OW27910   1.284   3.604  11.834  0.4874  0.4495 -0.2767
 5483SOL    HW127911   1.345   3.634  11.902 -0.4379  1.1216  0.2541
 5483SOL    HW227912   1.329   3.642  11.759 -3.7214  2.1985 -1.8935
 5484SOL     OW27913   0.602   2.147   9.861  0.2852  0.0980  0.4452
 5484SOL    HW127914   0.697   2.135   9.868  0.3321  0.9201  1.1276
 5484SOL    HW227915   0.614   2.234   9.824 -0.1908 -0.7623 -1.7366
 5485SOL     OW27916   1.848   4.386   3.319  0.2762 -0.2534 -0.0724
 5485SOL    HW127917   1.847   4.386   3.223  0.8541 -2.3584 -0.0728
 5485SOL    HW227918   1.930   4.430   3.337  0.1243  0.7588 -1.8542
 5486SOL     OW27919   3.874   1.035   2.999  0.5120 -0.4692 -0.1024
 5486SOL    HW127920   3.821   0.999   3.070  0.5303  0.7623  0.5190
 5486SOL    HW227921   3.955   0.985   3.013  0.6961  0.0438  0.6412
 5487SOL     OW27922   0.381   3.422  11.378  0.2681  0.4236  0.3719
 5487SOL    HW127923   0.323   3.449  11.449 -1.5807 -1.1306 -0.5552
 5487SOL    HW227924   0.451   3.487  11.385  1.1936 -0.3463 -1.7109
 5488SOL     OW27925   4.256   1.469   4.483  0.3371 -0.0798  0.4625
 5488SOL    HW127926   4.303   1.389   4.509  0.3677  0.6797  2.7464
 5488SOL    HW227927   4.177   1.441   4.437  1.0825 -2.2885  0.5216
 5489SOL     OW27928   2.918   1.216  11.846 -0.6734  0.2448 -0.5710
 5489SOL    HW127929   2.864   1.137  11.839 -1.5744  0.7766  0.3331
 5489SOL    HW227930   2.997   1.179  11.885 -0.8253 -0.3240 -0.8094
 5490SOL     OW27931   0.847   2.336   6.529  0.1289  0.3074 -0.2383
 5490SOL    HW127932   0.783   2.397   6.491 -0.2129 -0.8631 -1.5385
 5490SOL    HW227933   0.849   2.256   6.476 -1.4260  0.4511 -0.5103
 5491SOL     OW27934   1.984   4.058   0.989  0.2991  0.6734  0.1090
 5491SOL    HW127935   2.066   4.060   1.038 -0.7958 -2.6687  2.1216
 5491SOL    HW227936   1.978   3.966   0.964  2.1255  0.8341 -0.8602
 5492SOL     OW27937   2.321   4.025   6.765 -0.2662 -0.4397 -0.4583
 5492SOL    HW127938   2.296   4.117   6.757 -1.6075 -0.7215  0.6892
 5492SOL    HW227939   2.276   4.004   6.846  0.0703 -1.7629 -0.6113
 5493SOL     OW27940   1.685   3.538   5.845  0.2237 -0.1362  0.6922
 5493SOL    HW127941   1.679   3.512   5.937 -2.0920 -0.5023  0.4442
 5493SOL    HW227942   1.779   3.539   5.825 -0.6398  3.4726 -3.1718
 5494SOL     OW27943   0.343   0.262   2.179  0.0209 -0.1362 -0.0687
 5494SOL    HW127944   0.429   0.274   2.140  0.7090 -1.5785  1.0115
 5494SOL    HW227945   0.353   0.177   2.222  1.9212  1.8992  3.3768
 5495SOL     OW27946   1.708   0.826   3.068  0.0192  0.2044  0.0922
 5495SOL    HW127947   1.730   0.870   2.986 -0.2058  1.2190  0.5707
 5495SOL    HW227948   1.792   0.781   3.080 -1.1132 -1.7833  0.3890
 5496SOL     OW27949   2.663   0.674   5.499  0.3812  0.4107 -0.7281
 5496SOL    HW127950   2.661   0.683   5.594 -0.9777  1.2996 -0.8407
 5496SOL    HW227951   2.569   0.663   5.486 -0.2359 -0.9509  4.8054
 5497SOL     OW27952   3.586   2.514   9.048  0.0068 -0.3690 -0.1773
 5497SOL    HW127953   3.502   2.493   9.088  0.8538 -2.4552  0.4839
 5497SOL    HW227954   3.603   2.608   9.056 -1.9863 -0.3081  3.2100
 5498SOL     OW27955   0.376   1.671   2.493 -0.4317  0.5498  0.1042
 5498SOL    HW127956   0.402   1.594   2.443 -0.6407 -0.9155  2.2286
 5498SOL    HW227957   0.440   1.733   2.460 -0.5011  0.7237  0.2938
 5499SOL     OW27958   2.649   0.356   7.472 -0.8038 -0.5333 -0.4471
 5499SOL    HW127959   2.576   0.360   7.534 -1.0859  2.5474 -0.9526
 5499SOL    HW227960   2.724   0.349   7.532  1.5323  1.4622 -3.1547
 5500SOL     OW27961   3.003   3.965   3.351  0.4236 -0.3103 -0.1956
 5500SOL    HW127962   2.915   3.929   3.355  0.0161  0.5607 -1.3241
 5500SOL    HW227963   3.006   3.975   3.256 -0.4248 -1.3721 -0.3386
 5501SOL     OW27964   4.494   2.639   5.403 -0.4034 -0.4592 -0.4291
 5501SOL    HW127965   4.588   2.645   5.386  0.4842  0.6163  4.6787
 5501SOL    HW227966   4.471   2.717   5.353 -2.9143 -1.4239 -0.7873
 5502SOL     OW27967   2.708   1.866   4.427 -0.6704  0.3258  0.1772
 5502SOL    HW127968   2.663   1.782   4.433  1.0649 -0.5966  0.3418
 5502SOL    HW227969   2.722   1.878   4.333  0.2067  1.8327  0.5024
 5503SOL     OW27970   4.115   1.061   3.165 -0.5575 -0.0654  0.3055
 5503SOL    HW127971   4.145   1.065   3.255  3.9096  0.8483 -1.2005
 5503SOL    HW227972   4.152   1.146   3.139 -0.4839 -0.3974 -0.7118
 5504SOL     OW27973   1.249   4.661   8.190 -0.4237  0.3739  0.0783
 5504SOL    HW127974   1.168   4.633   8.149 -0.7972  2.5901 -0.6640
 5504SOL    HW227975   1.273   4.591   8.251 -0.0191  2.7146  2.6621
 5505SOL     OW27976   2.225   0.701   3.449  0.0655 -0.6738  0.5743
 5505SOL    HW127977   2.188   0.787   3.469 -1.7018 -1.8959  2.6600
 5505SOL    HW227978   2.271   0.685   3.531  0.4437 -1.8165  0.1474
 5506SOL     OW27979   2.720   3.693   6.014 -0.0480  0.0565  0.1205
 5506SOL    HW127980   2.790   3.730   6.069  1.4608  1.1457 -2.5367
 5506SOL    HW227981   2.684   3.617   6.060 -0.1956 -0.6279 -1.1394
 5507SOL     OW27982   2.303   3.582   7.010 -0.1554 -0.7935  0.2132
 5507SOL    HW127983   2.310   3.496   6.967 -2.0801 -0.6771 -0.3337
 5507SOL    HW227984   2.389   3.623   6.997  0.0271 -2.1056 -2.8168
 5508SOL     OW27985   4.095   0.694   2.442 -0.3580  0.4706  0.0141
 5508SOL    HW127986   4.140   0.767   2.399 -1.1554  2.0414  1.8589
 5508SOL    HW227987   4.116   0.717   2.532 -0.7756 -1.1048  0.5100
 5509SOL     OW27988   1.407   4.489   9.803  0.0423  0.3249  0.2870
 5509SOL    HW127989   1.344   4.421   9.780  1.1511 -1.1643  1.6769
 5509SOL    HW227990   1.429   4.467   9.894 -1.0515 -0.3608  0.3826
 5510SOL     OW27991   2.384   1.445   3.286  0.5115 -0.2393 -0.6924
 5510SOL    HW127992   2.425   1.397   3.214 -0.5081 -1.1297 -0.6845
 5510SOL    HW227993   2.312   1.382   3.295  0.3815  0.1527  1.1035
 5511SOL     OW27994   1.797   4.314   7.721 -0.1343  0.2406  0.1674
 5511SOL    HW127995   1.766   4.320   7.811 -2.8872 -1.6921 -0.6507
 5511SOL    HW227996   1.893   4.309   7.727 -0.0060  1.8429 -0.4068
 5512SOL     OW27997   2.239   0.428  15.261  0.3959 -0.1809 -0.5251
 5512SOL    HW127998   2.211   0.393  15.176  0.6189 -1.5011 -0.0391
 5512SOL    HW227999   2.293   0.494  15.218  1.2475 -0.3251  0.3402
 5513SOL     OW28000   0.167   2.046   2.317 -0.2905 -0.0954  0.3385
 5513SOL    HW128001   0.143   2.015   2.404 -3.6805  0.4627 -0.3900
 5513SOL    HW228002   0.256   2.012   2.305 -0.1055  0.2995  0.6003
 5514SOL     OW28003   2.432   3.903   9.889 -0.2452 -0.1997 -0.1511
 5514SOL    HW128004   2.524   3.892   9.916 -0.0401  0.8550 -0.4032
 5514SOL    HW228005   2.381   3.946   9.958 -1.8678 -2.0198 -0.2401
 5515SOL     OW28006   2.167   3.035  16.759 -0.3591  0.6268 -0.7833
 5515SOL    HW128007   2.085   3.035  16.807 -1.5926  0.2213 -2.9134
 5515SOL    HW228008   2.194   3.118  16.798  0.1236 -0.1048  0.4611
 5516SOL     OW28009   2.581   2.406   3.435  0.0203 -0.0063  0.0128
 5516SOL    HW128010   2.624   2.491   3.436 -0.0644  0.0370 -0.3552
 5516SOL    HW228011   2.510   2.431   3.377  0.2047 -1.6521 -0.9111
 5517SOL     OW28012   0.098   2.705   3.527 -0.3718 -0.0393 -0.6397
 5517SOL    HW128013   0.142   2.628   3.491 -0.0341 -0.3536  0.4457
 5517SOL    HW228014   0.067   2.675   3.612 -0.0304  0.5873 -0.2982
 5518SOL     OW28015   4.089   1.564   2.380  0.2952 -0.2433 -0.1615
 5518SOL    HW128016   4.037   1.484   2.378 -0.1672  0.0668 -0.9953
 5518SOL    HW228017   4.080   1.597   2.290  1.3885 -0.3920 -0.3267
 5519SOL     OW28018   0.541   4.388   7.164  0.2760 -0.3841 -0.7060
 5519SOL    HW128019   0.552   4.293   7.163 -0.7674 -0.5252  1.1168
 5519SOL    HW228020   0.496   4.412   7.082  1.3847  1.1923 -0.8617
 5520SOL     OW28021   0.767   1.355   5.530 -0.2019  0.3543 -0.0610
 5520SOL    HW128022   0.697   1.376   5.592 -0.1966 -1.5278  0.5845
 5520SOL    HW228023   0.728   1.376   5.445 -2.0584  2.1812  1.2283
 5521SOL     OW28024   1.336   3.201  15.056 -0.4248 -0.0774 -0.0564
 5521SOL    HW128025   1.276   3.196  14.982 -0.8763 -0.4386  0.3262
 5521SOL    HW228026   1.387   3.277  15.029 -2.1099  0.5792 -1.3988
 5522SOL     OW28027   1.624   2.829   3.618 -0.3802  0.2375 -0.3174
 5522SOL    HW128028   1.709   2.868   3.637 -0.6329  1.4813 -1.7557
 5522SOL    HW228029   1.578   2.905   3.654 -1.4297 -1.0392  1.0367
 5523SOL     OW28030   3.228   4.219   8.290  0.4766 -0.4150 -0.0602
 5523SOL    HW128031   3.310   4.250   8.250 -0.6910 -1.0906 -2.9828
 5523SOL    HW228032   3.165   4.276   8.245 -2.0278 -4.3671 -1.4783
 5524SOL     OW28033   3.690   2.391   2.405 -0.3620  0.1082 -0.1591
 5524SOL    HW128034   3.783   2.375   2.392 -0.2132 -0.2487  1.3234
 5524SOL    HW228035   3.675   2.478   2.368 -2.0612 -0.4974 -0.9027
 5525SOL     OW28036   3.911   2.115   0.768  0.1406  0.3930  0.1332
 5525SOL    HW128037   3.997   2.157   0.771 -0.1515  1.0320 -0.6806
 5525SOL    HW228038   3.872   2.151   0.689 -0.9625  0.4757  0.7073
 5526SOL     OW28039   4.560   2.445   5.087 -0.0752  0.6438 -0.1406
 5526SOL    HW128040   4.553   2.460   4.993 -0.1078  1.1866 -0.0534
 5526SOL    HW228041   4.532   2.533   5.112  1.8025  1.0470  0.5709
 5527SOL     OW28042   1.808   2.701   8.755  0.0648 -0.0921  0.6045
 5527SOL    HW128043   1.806   2.776   8.695  1.8248  0.7558  1.5942
 5527SOL    HW228044   1.764   2.752   8.823 -0.7410 -0.1597  0.1397
 5528SOL     OW28045   3.966   4.677  11.221  0.3146 -0.1058 -0.2815
 5528SOL    HW128046   3.891   4.662  11.164  0.3326  1.6746 -0.7893
 5528SOL    HW228047   3.932   0.022  11.281 -2.8065 -1.3767 -0.6875
 5529SOL     OW28048   3.527   0.542  11.557 -0.3225 -0.1902  0.0657
 5529SOL    HW128049   3.487   0.537  11.644 -0.8571  1.1061 -0.1057
 5529SOL    HW228050   3.483   0.473  11.506 -0.4944 -1.0233  1.3368
 5530SOL     OW28051   0.283   4.204   7.595 -0.6845 -0.3925  0.1173
 5530SOL    HW128052   0.358   4.212   7.655  0.3611  1.6164 -1.4812
 5530SOL    HW228053   0.305   4.120   7.555  0.2188 -0.6156  1.0688
 5531SOL     OW28054   0.866   1.367   3.751 -0.0704 -0.2087  0.3653
 5531SOL    HW128055   0.882   1.274   3.734 -0.2034 -0.8351  3.6405
 5531SOL    HW228056   0.871   1.359   3.847 -0.3856 -1.9078  0.2375
 5532SOL     OW28057   4.120   1.636  17.439  0.0834  0.0100  0.3277
 5532SOL    HW128058   4.197   1.632  17.496  1.1318  3.6129 -0.7964
 5532SOL    HW228059   4.110   1.545  17.412 -0.2657 -0.4123  1.8888
 5533SOL     OW28060   1.372   4.138   3.861 -0.1569  0.7900 -0.6779
 5533SOL    HW128061   1.398   4.196   3.933 -2.0358  1.1228 -0.2580
 5533SOL    HW228062   1.454   4.090   3.849 -0.1594  0.5084  0.3803
 5534SOL     OW28063   0.827   3.434   1.302 -0.0696 -0.8894 -0.0621
 5534SOL    HW128064   0.838   3.526   1.278 -0.5071 -0.5336  1.0679
 5534SOL    HW228065   0.811   3.461   1.393  0.4640  1.3047 -0.6237
 5535SOL     OW28066   2.018   0.117   3.893 -0.2153  0.2431  0.3764
 5535SOL    HW128067   2.020   0.155   3.805 -0.2016 -0.5637  0.0262
 5535SOL    HW228068   2.088   0.052   3.885 -1.4218 -0.7967 -1.6408
 5536SOL     OW28069   2.558   0.396   6.761  0.8938 -0.2059  0.4494
 5536SOL    HW128070   2.523   0.483   6.742  2.3944  0.0619 -1.1628
 5536SOL    HW228071   2.649   0.413   6.786  0.2672  0.0035  2.5681
 5537SOL     OW28072   0.744   3.199   4.518  0.6187 -0.3042  0.3176
 5537SOL    HW128073   0.749   3.288   4.552 -1.1061 -0.4578  0.9833
 5537SOL    HW228074   0.736   3.188   4.424  0.3922  0.3391  0.2629
 5538SOL     OW28075   2.525   1.652  13.637  0.1208 -0.3139 -0.0542
 5538SOL    HW128076   2.501   1.720  13.699 -0.7672 -1.0397  0.3908
 5538SOL    HW228077   2.437   1.636  13.604  0.1230  0.3383 -0.3815
 5539SOL     OW28078   2.602   1.747   7.817 -0.3261 -0.0968 -0.6484
 5539SOL    HW128079   2.646   1.703   7.745  1.6125 -1.1186  1.1485
 5539SOL    HW228080   2.571   1.685   7.883  0.0492 -1.4675 -1.7711
 5540SOL     OW28081   0.773   2.467   1.750 -0.1345 -0.5097 -0.7391
 5540SOL    HW128082   0.844   2.486   1.811 -0.7938  0.1512 -0.1808
 5540SOL    HW228083   0.701   2.449   1.810  1.3805 -0.9089  0.9738
 5541SOL     OW28084   0.701   1.085  10.017 -0.5223 -0.3495  0.2326
 5541SOL    HW128085   0.750   1.062   9.939 -1.5036 -3.8066  0.6403
 5541SOL    HW228086   0.636   1.014  10.020 -1.1178  0.0623 -3.1173
 5542SOL     OW28087   0.541   2.454   2.726  0.2752 -0.4240 -0.0188
 5542SOL    HW128088   0.504   2.406   2.800 -0.0379 -2.1440 -1.2947
 5542SOL    HW228089   0.591   2.383   2.687 -0.6276 -0.9481 -0.2285
 5543SOL     OW28090   0.006   0.931   8.037 -0.3160 -0.1331 -0.0569
 5543SOL    HW128091   4.673   0.883   8.101  0.6358 -4.0865 -2.2259
 5543SOL    HW228092   4.677   0.908   7.959 -0.4089 -0.0928 -0.0096
 5544SOL     OW28093   1.407   1.880   6.826  0.0523 -0.1931  0.1003
 5544SOL    HW128094   1.349   1.934   6.879  1.8228  0.4160  1.3976
 5544SOL    HW228095   1.458   1.859   6.903  0.2357  1.2267  0.3688
 5545SOL     OW28096   3.649   2.372   4.092 -0.2163 -0.0641  0.3167
 5545SOL    HW128097   3.710   2.388   4.021 -0.8413 -0.9468 -0.4201
 5545SOL    HW228098   3.570   2.414   4.058  0.2574 -1.6612 -2.7489
 5546SOL     OW28099   3.428   4.383   2.840 -0.6051  0.0146  0.0654
 5546SOL    HW128100   3.356   4.332   2.877  0.4505 -0.2017  1.8181
 5546SOL    HW228101   3.494   4.331   2.885  0.5149  0.6304 -0.8547
 5547SOL     OW28102   0.244   0.169   6.205  0.0502  0.7131 -0.8263
 5547SOL    HW128103   0.322   0.143   6.254  0.1331  3.0562  0.2810
 5547SOL    HW228104   0.195   0.087   6.209  3.5280 -1.3766 -0.3439
 5548SOL     OW28105   3.940   2.231  16.176 -0.7456 -0.1858 -0.1534
 5548SOL    HW128106   3.867   2.262  16.230  0.3190 -0.3062  1.3453
 5548SOL    HW228107   3.929   2.136  16.174 -0.6915 -0.1981  0.1873
 5549SOL     OW28108   0.189   1.710   6.261  0.4514  0.4429 -0.2057
 5549SOL    HW128109   0.129   1.672   6.198 -2.3625  2.9041  1.0087
 5549SOL    HW228110   0.129   1.758   6.318 -0.5932 -1.2475  0.1199
 5550SOL     OW28111   1.009   3.875   7.497  0.0654  0.1943  0.2399
 5550SOL    HW128112   1.084   3.894   7.553 -0.4694  0.4695  0.8675
 5550SOL    HW228113   1.047   3.833   7.420 -0.6685  0.0495 -0.0491
 5551SOL     OW28114   0.027   1.327   7.260 -0.0248  0.4113 -1.1392
 5551SOL    HW128115   0.121   1.321   7.273 -0.7579 -3.5577  1.9747
 5551SOL    HW228116   0.015   1.418   7.233  1.5646  0.7782 -0.5954
 5552SOL     OW28117   2.473   2.958  15.584  0.2663 -0.1590 -0.3501
 5552SOL    HW128118   2.492   3.050  15.565  2.1089 -0.0292  2.1004
 5552SOL    HW228119   2.469   2.963  15.680  1.2824  0.2070 -0.3245
 5553SOL     OW28120   1.946   2.593   4.643 -0.8556  1.0666  0.2813
 5553SOL    HW128121   1.975   2.679   4.673 -1.5474  2.0695 -1.9754
 5553SOL    HW228122   1.977   2.586   4.553  3.0082 -0.2010  1.7190
 5554SOL     OW28123   4.092   4.004  16.619 -0.4607 -0.5820  0.5744
 5554SOL    HW128124   4.076   4.098  16.625 -2.0517 -0.7645 -0.6387
 5554SOL    HW228125   4.188   4.001  16.623 -0.4583  1.5799  1.6739
 5555SOL     OW28126   1.189   2.194  12.215  0.4434  0.3017 -0.8367
 5555SOL    HW128127   1.115   2.151  12.258  1.3049 -0.2871  0.0433
 5555SOL    HW228128   1.149   2.199  12.128  1.7110 -0.3095 -1.4502
 5556SOL     OW28129   3.675   0.451   6.977 -0.1331  0.6976  0.0852
 5556SOL    HW128130   3.765   0.444   7.009 -0.5003  0.1220  0.9790
 5556SOL    HW228131   3.634   0.374   7.017  0.3309  1.0258  1.1984
 5557SOL     OW28132   0.057   3.825   1.248  0.0184 -0.4245 -0.0988
 5557SOL    HW128133   4.686   3.851   1.242 -0.6968 -2.8809  0.2749
 5557SOL    HW228134   0.082   3.813   1.156 -0.2937  0.3006 -0.2756
 5558SOL     OW28135   2.747   4.673   4.097  0.7056  0.0122  0.0175
 5558SOL    HW128136   2.767   0.037   4.059 -2.9591  1.2092  0.8232
 5558SOL    HW228137   2.824   4.624   4.066  0.1008 -2.1642  1.9382
 5559SOL     OW28138   3.817   4.584  10.198  0.3456 -0.0185  0.0570
 5559SOL    HW128139   3.845   4.506  10.149 -1.4246 -0.0986 -0.8259
 5559SOL    HW228140   3.875   4.637  10.143  2.0865 -0.9123  1.0307
 5560SOL     OW28141   2.529   3.901  16.228 -0.1134  0.5683  0.0046
 5560SOL    HW128142   2.578   3.860  16.300 -0.2454 -0.4131 -0.4702
 5560SOL    HW228143   2.445   3.859  16.246 -0.5317  0.1309 -2.9766
 5561SOL     OW28144   2.388   0.371  16.331  0.2493  0.7559 -0.0742
 5561SOL    HW128145   2.342   0.407  16.256  0.7210 -0.7213 -1.0693
 5561SOL    HW228146   2.424   0.290  16.295 -1.0706 -0.5371  1.5188
 5562SOL     OW28147   0.091   2.109  15.752 -0.9674  0.6008  0.4154
 5562SOL    HW128148   0.115   2.090  15.843 -0.2776 -1.0138 -0.1081
 5562SOL    HW228149   0.106   2.203  15.754  0.3425  0.4085 -0.5724
 5563SOL     OW28150   1.473   1.501   2.279  0.3760  0.4281  0.3638
 5563SOL    HW128151   1.414   1.577   2.282  1.8600  1.5333  1.7190
 5563SOL    HW228152   1.412   1.437   2.242 -1.3175  1.1389  1.9127
 5564SOL     OW28153   0.099   3.036   7.047  0.1102 -0.2708 -0.4843
 5564SOL    HW128154   0.135   3.094   6.980  0.0783 -1.4957 -1.5543
 5564SOL    HW228155   0.158   2.961   7.054  0.8479  0.1798 -1.9388
 5565SOL     OW28156   1.707   2.335   4.436  0.5081 -0.0560 -0.8223
 5565SOL    HW128157   1.680   2.276   4.365 -3.6738  0.4967  0.2719
 5565SOL    HW228158   1.676   2.421   4.408 -0.3847 -0.2724 -0.5144
 5566SOL     OW28159   4.030   0.456   6.278 -0.0230  0.5507  0.4704
 5566SOL    HW128160   3.974   0.515   6.227 -0.8120 -0.6680 -0.0920
 5566SOL    HW228161   3.977   0.377   6.287  0.3925 -0.1842 -3.7423
 5567SOL     OW28162   4.619   1.798   5.104 -0.5336  0.6216  0.2750
 5567SOL    HW128163   4.540   1.801   5.050 -0.2052  0.5786 -0.2055
 5567SOL    HW228164   4.608   1.853   5.181 -3.9588 -0.0945  0.3061
 5568SOL     OW28165   1.981   1.620   1.567  0.1341 -0.1705 -0.4454
 5568SOL    HW128166   2.071   1.602   1.539  0.0543  0.3413 -1.0285
 5568SOL    HW228167   1.996   1.691   1.629  0.0455 -2.1193  1.8521
 5569SOL     OW28168   0.118   1.074   0.769 -0.2176 -0.2277  0.0949
 5569SOL    HW128169   0.039   1.023   0.752 -1.0559  0.4299  2.0161
 5569SOL    HW228170   0.114   1.100   0.861 -1.3463 -0.7517  0.1965
 5570SOL     OW28171   1.050   2.097  16.623 -0.1792  0.3124 -0.7478
 5570SOL    HW128172   1.086   2.015  16.589 -0.7377 -0.9080  1.5908
 5570SOL    HW228173   1.113   2.118  16.692 -3.0938 -0.9763  2.3049
 5571SOL     OW28174   3.215   3.305  17.647  0.3109 -0.1231 -0.2050
 5571SOL    HW128175   3.189   3.228  17.596  0.7529  0.6040 -1.5344
 5571SOL    HW228176   3.229   3.274   0.050 -0.6934 -0.2191 -0.0893
 5572SOL     OW28177   0.566   0.228   5.165  0.2548 -0.4146  0.4002
 5572SOL    HW128178   0.532   0.313   5.137  2.1283 -0.4835 -2.0970
 5572SOL    HW228179   0.572   0.202   5.073  1.5511 -0.3559  0.4666
 5573SOL     OW28180   3.046   4.465   9.949  0.4974  0.0486 -0.8578
 5573SOL    HW128181   3.126   4.489   9.902  0.7122  0.6413 -0.1904
 5573SOL    HW228182   3.086   4.409  10.016 -0.9779  1.8301  1.5362
 5574SOL     OW28183   2.421   1.495   0.126 -0.1233  0.1644  0.0140
 5574SOL    HW128184   2.475   1.474   0.050  0.3497 -1.0633  0.6842
 5574SOL    HW228185   2.464   1.572   0.163 -1.4080  0.2738  1.3195
 5575SOL     OW28186   4.252   0.660   1.681  0.3262 -0.0339 -0.1348
 5575SOL    HW128187   4.175   0.604   1.685  0.1231  0.2977  0.6342
 5575SOL    HW228188   4.259   0.678   1.587 -1.2107 -1.3914 -0.5005
 5576SOL     OW28189   2.797   4.402   7.616 -0.3768  0.3286  0.9296
 5576SOL    HW128190   2.728   4.387   7.552  0.3412  0.4533  0.1284
 5576SOL    HW228191   2.756   4.353   7.687 -0.6652 -0.0092  0.5283
 5577SOL     OW28192   0.440   3.702  10.635 -0.2181 -0.7297  0.3024
 5577SOL    HW128193   0.527   3.734  10.610 -0.5582 -0.3174 -0.3710
 5577SOL    HW228194   0.443   3.719  10.729 -0.1980 -0.4715  0.2573
 5578SOL     OW28195   0.557   1.444  16.103 -0.6567 -0.6255  0.5430
 5578SOL    HW128196   0.639   1.480  16.137 -1.0376 -0.6673  1.5107
 5578SOL    HW228197   0.498   1.473  16.173  1.4683 -0.2312  2.1904
 5579SOL     OW28198   2.374   2.596   3.261  0.1185 -0.5800  0.1481
 5579SOL    HW128199   2.362   2.665   3.326 -0.4906 -0.9812  0.4622
 5579SOL    HW228200   2.297   2.541   3.275 -0.3215 -0.3310 -1.2211
 5580SOL     OW28201   1.510   3.010   6.894  0.7848  0.1910 -0.1238
 5580SOL    HW128202   1.560   3.080   6.853 -1.6354  3.2157  2.1834
 5580SOL    HW228203   1.473   2.971   6.815 -0.9902  2.7299 -0.5418
 5581SOL     OW28204   0.571   3.181   1.840  0.6049 -0.2234  0.1162
 5581SOL    HW128205   0.638   3.158   1.905  0.6205 -0.6546 -0.0517
 5581SOL    HW228206   0.560   3.100   1.791 -1.1387  0.1008 -0.0411
 5582SOL     OW28207   1.660   0.932   5.590  0.0252  0.2833 -0.7334
 5582SOL    HW128208   1.689   0.993   5.522  0.8464 -0.5759 -1.1642
 5582SOL    HW228209   1.724   0.944   5.660  0.9352 -0.5831 -1.4181
 5583SOL     OW28210   4.018   0.682   0.034  0.0322 -0.6512  0.4503
 5583SOL    HW128211   3.962   0.716   0.104  0.9461  0.1177  0.8162
 5583SOL    HW228212   4.105   0.721   0.047  0.1978 -1.9869  3.1794
 5584SOL     OW28213   0.515   1.512   2.302  0.3905  0.5136  0.0202
 5584SOL    HW128214   0.425   1.480   2.291  1.9148 -3.4826 -0.6484
 5584SOL    HW228215   0.565   1.457   2.242  1.9156  0.4363  1.3666
 5585SOL     OW28216   0.226   2.416   9.956 -0.1921  0.3749 -0.3049
 5585SOL    HW128217   0.251   2.457  10.038 -0.2101  0.3898 -0.3068
 5585SOL    HW228218   0.297   2.451   9.903 -0.2407 -2.0385 -2.0055
 5586SOL     OW28219   4.474   0.062   5.524  0.3397  0.2185  0.1065
 5586SOL    HW128220   4.420   0.134   5.557  0.9296  0.8330 -0.2833
 5586SOL    HW228221   4.474   0.076   5.429 -1.5564 -0.9600 -0.0693
 5587SOL     OW28222   1.952   3.908  12.531  0.4266  0.5971  0.7571
 5587SOL    HW128223   2.027   3.919  12.589  1.8151 -3.4596 -0.3025
 5587SOL    HW228224   2.010   3.884  12.459 -1.1619 -1.3298  0.1148
 5588SOL     OW28225   1.850   1.574   8.730 -0.5690  0.0653  0.1284
 5588SOL    HW128226   1.851   1.478   8.729  1.2284  0.0630  1.6899
 5588SOL    HW228227   1.871   1.594   8.639  0.2200  0.5222  0.4066
 5589SOL     OW28228   1.200   3.079   1.912 -0.2097  0.1415  0.8748
 5589SOL    HW128229   1.165   2.990   1.903 -0.4226  0.1580  1.5356
 5589SOL    HW228230   1.266   3.072   1.981  0.8033 -0.5059 -0.1625
 5590SOL     OW28231   0.580   1.565   6.854 -0.3031  0.3882 -0.3866
 5590SOL    HW128232   0.523   1.501   6.813 -0.7550  1.2294 -1.0768
 5590SOL    HW228233   0.642   1.514   6.906 -0.3245 -0.6859 -1.4438
 5591SOL     OW28234   1.242   3.978  14.985 -0.4459 -0.1716  0.2260
 5591SOL    HW128235   1.222   4.043  14.918  0.1382  0.5715  0.7639
 5591SOL    HW228236   1.207   3.896  14.952 -0.7716  0.2269 -0.4074
 5592SOL     OW28237   1.357   1.524  14.220 -0.1531 -0.0935  0.2748
 5592SOL    HW128238   1.452   1.533  14.232 -0.2344  1.7580 -0.4127
 5592SOL    HW228239   1.354   1.462  14.147  0.9655  0.2682 -0.0844
 5593SOL     OW28240   1.861   1.865   5.152  0.5698 -0.2192  0.2999
 5593SOL    HW128241   1.952   1.842   5.172  0.6336 -0.8830 -0.7166
 5593SOL    HW228242   1.830   1.791   5.100  1.0093 -0.9475  1.0692
 5594SOL     OW28243   3.574   2.531  14.932  0.0307 -0.7054  0.0894
 5594SOL    HW128244   3.649   2.554  14.986  0.3067 -2.3678  0.4122
 5594SOL    HW228245   3.515   2.599  14.964  1.3269  1.0990 -1.3393
 5595SOL     OW28246   3.885   3.328   9.856  0.0366  0.1856 -0.1205
 5595SOL    HW128247   3.811   3.375   9.893  0.2110  1.0574 -0.8853
 5595SOL    HW228248   3.853   3.237   9.854 -0.0140  0.1754  2.0272
 5596SOL     OW28249   1.187   2.593   4.313 -0.4526 -0.0738  0.1578
 5596SOL    HW128250   1.251   2.529   4.282  1.1017  1.3093  0.5690
 5596SOL    HW228251   1.182   2.572   4.406  2.5987  1.4991  0.6431
 5597SOL     OW28252   0.867   2.112  16.309  0.6102  0.6513 -0.2162
 5597SOL    HW128253   0.960   2.108  16.286  1.0183  0.3114  1.4755
 5597SOL    HW228254   0.859   2.205  16.332 -0.0331  0.4298  0.4504
 5598SOL     OW28255   1.338   2.229   8.407 -0.1590  0.0598  0.0167
 5598SOL    HW128256   1.402   2.298   8.392 -0.4777  0.1252 -1.0782
 5598SOL    HW228257   1.334   2.224   8.502 -0.0513 -0.3820 -0.0013
 5599SOL     OW28258   4.164   4.167   7.375 -0.1141  0.2088 -0.2319
 5599SOL    HW128259   4.111   4.090   7.354 -0.2474  0.9162 -2.5087
 5599SOL    HW228260   4.219   4.131   7.444  0.7549 -0.1535 -1.1110
 5600SOL     OW28261   0.753   0.223   3.005 -0.5020 -0.2089 -0.0737
 5600SOL    HW128262   0.837   0.266   3.025 -0.8166  0.0297  0.7355
 5600SOL    HW228263   0.695   0.287   3.045 -1.4766 -0.2790 -1.4025
 5601SOL     OW28264   0.614   3.906   8.916  0.1330  0.3781  0.0468
 5601SOL    HW128265   0.626   3.836   8.980  0.3652 -0.1070 -0.5302
 5601SOL    HW228266   0.561   3.863   8.850  0.9171  0.7847 -0.8492
 5602SOL     OW28267   0.048   3.730   5.743 -0.1178  0.3956  0.1397
 5602SOL    HW128268   0.059   3.653   5.798  3.1768  0.0545 -1.0522
 5602SOL    HW228269   4.674   3.737   5.753 -0.2892 -0.5522 -0.8767
 5603SOL     OW28270   4.607   4.476   9.456 -0.4752 -0.2646 -0.0858
 5603SOL    HW128271   4.603   4.561   9.411 -2.3615 -0.8412 -1.0094
 5603SOL    HW228272   4.679   4.434   9.408  0.1059  1.3961 -0.6887
 5604SOL     OW28273   1.094   2.964  12.623 -0.3038 -0.1383  0.1910
 5604SOL    HW128274   1.084   2.964  12.718  3.6399  0.7630  0.5973
 5604SOL    HW228275   1.003   2.964  12.594 -0.5049 -0.4331  0.8289
 5605SOL     OW28276   2.249   2.030   1.538 -0.1517  0.1603  0.4131
 5605SOL    HW128277   2.221   1.986   1.458 -2.0644 -0.4104  1.4051
 5605SOL    HW228278   2.164   2.045   1.578 -0.5741  1.3619 -0.9182
 5606SOL     OW28279   3.119   3.874   8.874  0.2020 -0.6890 -0.1620
 5606SOL    HW128280   3.193   3.924   8.910 -1.3243  0.3261  1.5347
 5606SOL    HW228281   3.095   3.805   8.935 -2.5070 -0.7934 -1.3910
 5607SOL     OW28282   3.741   0.060   4.220  0.6210  0.5191 -0.2550
 5607SOL    HW128283   3.666   0.042   4.278 -0.7959  1.4293 -1.8090
 5607SOL    HW228284   3.729   4.698   4.174  0.5448 -0.5822  1.7448
 5608SOL     OW28285   3.578   2.702   0.456 -0.2522 -0.1657  0.2656
 5608SOL    HW128286   3.488   2.725   0.433 -0.4149 -0.9732  0.0807
 5608SOL    HW228287   3.597   2.775   0.515  2.4695  1.1790 -2.2239
 5609SOL     OW28288   4.598   2.560   8.689  0.4026  0.2871  0.0648
 5609SOL    HW128289   4.634   2.644   8.664  0.6035  1.0026  2.7225
 5609SOL    HW228290   4.503   2.570   8.681  0.2051 -0.5234  1.3418
 5610SOL     OW28291   0.132   2.478  12.313 -0.0749  0.4139 -0.1366
 5610SOL    HW128292   0.090   2.399  12.281  1.1906  0.5749 -2.1772
 5610SOL    HW228293   0.053   2.532  12.316 -0.1906  0.1912  0.8067
 5611SOL     OW28294   1.655   0.401   0.060  0.1036 -0.1831  0.0762
 5611SOL    HW128295   1.717   0.471   0.038 -0.6790  0.8797  1.2749
 5611SOL    HW228296   1.685   0.374   0.147 -0.0994 -1.2721 -0.1806
 5612SOL     OW28297   1.743   0.445   7.696  0.4003 -0.4239  0.2672
 5612SOL    HW128298   1.681   0.402   7.638  1.2855 -2.7681  1.0567
 5612SOL    HW228299   1.745   0.383   7.769  2.5160 -0.2010  0.4044
 5613SOL     OW28300   2.879   1.722   1.203 -0.4758  0.5468  0.1902
 5613SOL    HW128301   2.958   1.718   1.149 -1.1245  1.6339 -0.8372
 5613SOL    HW228302   2.903   1.796   1.259 -1.6763 -0.2410  1.7453
 5614SOL     OW28303   1.586   3.761   5.723  0.5225  0.2231 -0.4612
 5614SOL    HW128304   1.600   3.822   5.795  0.5472  0.3245 -0.5505
 5614SOL    HW228305   1.621   3.680   5.759 -0.1244  0.2467  0.2123
 5615SOL     OW28306   1.840   0.127   6.757  0.2910 -0.2831 -0.0182
 5615SOL    HW128307   1.812   0.078   6.835  1.0171 -0.1725  0.3104
 5615SOL    HW228308   1.769   0.190   6.748  4.1815  3.9823 -0.9470
 5616SOL     OW28309   2.255   0.401   8.253 -0.3843  0.2748 -0.1475
 5616SOL    HW128310   2.318   0.413   8.182  1.4678  2.3783  1.8591
 5616SOL    HW228311   2.179   0.446   8.216  0.9310  2.2014 -0.5022
 5617SOL     OW28312   4.387   2.667   2.902  0.2888  0.0770  0.1156
 5617SOL    HW128313   4.424   2.747   2.940  1.4173  0.3586 -1.5480
 5617SOL    HW228314   4.379   2.623   2.986 -2.0198  1.3639  0.5842
 5618SOL     OW28315   2.738   4.566  15.939  0.2120 -0.3140  0.5595
 5618SOL    HW128316   2.752   4.609  15.855 -2.3757  0.1015  0.3360
 5618SOL    HW228317   2.647   4.592  15.956  0.1533 -0.7116  0.8415
 5619SOL     OW28318   1.582   1.365   3.343  0.4355 -0.0445  0.2377
 5619SOL    HW128319   1.531   1.314   3.406 -0.0694  0.4424  0.2247
 5619SOL    HW228320   1.560   1.456   3.362  2.8203 -0.0746  3.1331
 5620SOL     OW28321   0.458   0.442   9.581  0.2534  0.0313 -0.1031
 5620SOL    HW128322   0.548   0.471   9.567  0.0248  0.9153  0.2805
 5620SOL    HW228323   0.407   0.490   9.516  2.7123  1.4303 -0.9774
 5621SOL     OW28324   2.361   0.402   2.881  0.0634  0.1948 -0.1795
 5621SOL    HW128325   2.383   0.350   2.803  0.9944  1.0106 -0.4551
 5621SOL    HW228326   2.445   0.435   2.911  0.0080  0.5619 -0.4326
 5622SOL     OW28327   2.867   1.960  15.397  0.6097  0.1700 -0.0596
 5622SOL    HW128328   2.777   1.963  15.431  0.4946  2.0918 -0.5281
 5622SOL    HW228329   2.903   1.872  15.409  1.0633  0.4641  0.7776
 5623SOL     OW28330   3.452   0.958   0.054  0.1035 -0.4795  0.1610
 5623SOL    HW128331   3.412   1.000   0.130  1.3829  1.2300 -0.1175
 5623SOL    HW228332   3.546   0.971   0.064 -0.3556  0.8070  2.7012
 5624SOL     OW28333   4.092   4.610  13.222 -0.4729 -0.5130 -0.5830
 5624SOL    HW128334   4.165   4.671  13.222 -0.7118 -0.2263 -0.6956
 5624SOL    HW228335   4.042   4.636  13.145 -0.7852 -1.2073 -0.6187
 5625SOL     OW28336   2.461   3.828  13.756  0.3545  0.2497 -0.2323
 5625SOL    HW128337   2.440   3.804  13.846  0.3477  1.3797  0.0546
 5625SOL    HW228338   2.377   3.860  13.724 -0.0385 -1.9966 -1.5009
 5626SOL     OW28339   1.573   2.941  11.507 -0.3610 -0.1161  0.4655
 5626SOL    HW128340   1.530   3.019  11.543 -1.1255 -1.5442  2.6919
 5626SOL    HW228341   1.638   2.989  11.456  0.5661 -1.3121  0.5356
 5627SOL     OW28342   2.232   1.445   6.111  0.4903  0.2249  0.0746
 5627SOL    HW128343   2.259   1.398   6.032 -2.6175  2.1330 -2.1618
 5627SOL    HW228344   2.245   1.536   6.084  0.4223 -0.6347 -2.9155
 5628SOL     OW28345   0.860   0.609   8.808 -0.2308 -0.2847  0.4838
 5628SOL    HW128346   0.850   0.517   8.834  1.6026 -0.4454  0.6291
 5628SOL    HW228347   0.776   0.636   8.770 -0.7056 -0.8554  1.1354
 5629SOL     OW28348   2.504   4.427   7.265 -0.3270 -0.0295 -0.1669
 5629SOL    HW128349   2.479   4.336   7.283  1.5893 -0.5000  0.1219
 5629SOL    HW228350   2.415   4.458   7.249 -0.3055  1.0960  1.8089
 5630SOL     OW28351   1.137   0.781   1.624  0.0428 -0.3474 -0.2099
 5630SOL    HW128352   1.154   0.771   1.530 -0.6090  1.2181 -0.4979
 5630SOL    HW228353   1.209   0.723   1.651  1.3226  1.0665 -0.5724
 5631SOL     OW28354   2.282   1.932   6.404 -0.4588 -0.1788 -0.8141
 5631SOL    HW128355   2.247   1.917   6.492 -0.0130  0.1511 -0.5817
 5631SOL    HW228356   2.310   1.843   6.382 -1.6156 -0.7318 -0.0574
 5632SOL     OW28357   4.385   0.093   5.248  0.5860  0.1032  0.1528
 5632SOL    HW128358   4.369   0.132   5.162  0.2231  0.2351  0.2828
 5632SOL    HW228359   4.342   0.009   5.231  0.6935 -0.0379  0.5816
 5633SOL     OW28360   2.230   0.879   1.514  0.0393 -0.0338  0.2412
 5633SOL    HW128361   2.250   0.791   1.481  2.2053  0.5518 -0.0010
 5633SOL    HW228362   2.316   0.921   1.513 -1.0678  2.2012 -0.1507
 5634SOL     OW28363   2.915   0.318   8.468  0.0467  0.6369  0.3794
 5634SOL    HW128364   2.973   0.242   8.473  1.3520  1.5825 -0.2868
 5634SOL    HW228365   2.972   0.391   8.443  1.9806 -0.6658  0.9682
 5635SOL     OW28366   0.188   2.297   6.426 -0.8482  0.3827  0.0453
 5635SOL    HW128367   0.113   2.302   6.366 -1.1466  1.4185  0.5047
 5635SOL    HW228368   0.194   2.388   6.454  2.0627  0.4601 -0.8215
 5636SOL     OW28369   3.496   3.855  16.936  0.5634  0.0459  0.5281
 5636SOL    HW128370   3.418   3.908  16.951  0.0219 -1.1113  1.8738
 5636SOL    HW228371   3.451   3.771  16.946  0.5567 -0.0107  0.0355
 5637SOL     OW28372   4.416   3.399  13.517 -0.1874 -0.2056 -0.0999
 5637SOL    HW128373   4.459   3.364  13.439  0.7572  1.3012 -0.2513
 5637SOL    HW228374   4.339   3.342  13.507  0.1501 -0.1820 -2.7176
 5638SOL     OW28375   1.464   2.323   5.839  0.0305 -0.5265 -0.3835
 5638SOL    HW128376   1.450   2.250   5.899  1.4691 -0.1797  0.3679
 5638SOL    HW228377   1.424   2.399   5.881 -1.8729 -0.1122 -2.9603
 5639SOL     OW28378   3.822   0.621  11.110  0.1735  0.1223 -0.3499
 5639SOL    HW128379   3.815   0.639  11.016 -0.5119  1.6927  0.0218
 5639SOL    HW228380   3.879   0.693  11.136  1.1088 -0.4329 -0.8220
 5640SOL     OW28381   1.203   0.067  12.336  0.6953 -0.8634  0.0960
 5640SOL    HW128382   1.124   0.069  12.390  0.2824  1.9290 -0.6320
 5640SOL    HW228383   1.191   0.149  12.289 -1.4753  0.1127  2.3398
 5641SOL     OW28384   2.409   3.161   8.505  0.1110  0.1234 -0.3391
 5641SOL    HW128385   2.499   3.131   8.516  0.5960  1.6567 -0.0847
 5641SOL    HW228386   2.360   3.092   8.550 -0.4290  0.8332  0.1581
 5642SOL     OW28387   1.660   4.656   2.026 -0.2422  0.3286  0.1935
 5642SOL    HW128388   1.719   4.713   2.075 -0.0565  0.9739 -0.7730
 5642SOL    HW228389   1.642   4.594   2.096  0.1904  1.6336  1.4692
 5643SOL     OW28390   1.211   2.428  10.036 -0.5893 -0.2012 -0.4469
 5643SOL    HW128391   1.209   2.520  10.061  2.3277 -0.6777  1.6010
 5643SOL    HW228392   1.304   2.404  10.040 -0.1719  0.9850 -3.5617
 5644SOL     OW28393   3.303   0.621   8.664  0.0482 -0.2362  0.4912
 5644SOL    HW128394   3.350   0.630   8.581  0.2407 -2.4039  0.3640
 5644SOL    HW228395   3.369   0.653   8.726 -0.1781  1.2482 -0.0405
 5645SOL     OW28396   0.190   2.498  12.589  0.0556 -0.1427  0.6001
 5645SOL    HW128397   0.111   2.551  12.592 -0.1230 -0.3083 -0.9350
 5645SOL    HW228398   0.196   2.484  12.494 -2.2689  0.5125  0.3717
 5646SOL     OW28399   3.262   0.015  13.063 -0.1494 -0.2378  0.0123
 5646SOL    HW128400   3.356   0.035  13.068  0.4074 -2.5846 -1.5891
 5646SOL    HW228401   3.257   4.671  13.133  0.4399  0.8798  1.1072
 5647SOL     OW28402   1.880   2.140   0.451  0.0733 -0.2628  0.2990
 5647SOL    HW128403   1.902   2.066   0.395  0.4276  0.7961 -0.9778
 5647SOL    HW228404   1.805   2.105   0.497 -0.1443 -0.8933 -0.5425
 5648SOL     OW28405   2.882   0.523   5.406 -0.4376  0.1895  0.5004
 5648SOL    HW128406   2.926   0.540   5.489 -1.1217 -0.1038  0.9262
 5648SOL    HW228407   2.812   0.589   5.407 -1.6238 -1.0622  1.3221
 5649SOL     OW28408   0.754   3.044   7.217  0.1755  0.4606  0.3410
 5649SOL    HW128409   0.688   3.092   7.167 -0.4128  0.9512  1.5917
 5649SOL    HW228410   0.840   3.061   7.179 -1.5723  0.6606 -3.5645
 5650SOL     OW28411   4.435   4.535   6.382  0.4077 -0.2547 -0.2864
 5650SOL    HW128412   4.420   4.463   6.443 -0.5081  1.0052  0.9757
 5650SOL    HW228413   4.484   4.600   6.433 -3.2439  1.8903  0.4938
 5651SOL     OW28414   3.281   1.955   4.781 -0.0188  0.2264  0.1885
 5651SOL    HW128415   3.195   1.912   4.773 -1.0332  2.3031 -0.1289
 5651SOL    HW228416   3.267   2.009   4.859 -1.2378 -1.8889  1.4555
 5652SOL     OW28417   0.357   3.449  13.533 -0.2043  0.1164 -0.2700
 5652SOL    HW128418   0.335   3.378  13.474 -2.0911 -0.7123  1.4062
 5652SOL    HW228419   0.272   3.460  13.576 -0.2904 -0.3816 -0.3147
 5653SOL     OW28420   1.331   0.888   7.706  0.0864  0.3961  0.0792
 5653SOL    HW128421   1.261   0.949   7.731 -0.0282  0.7652 -1.1534
 5653SOL    HW228422   1.363   0.855   7.790  0.4082  0.2783 -0.0951
 5654SOL     OW28423   0.048   1.719   5.675  0.1848  0.1466 -0.0065
 5654SOL    HW128424   4.681   1.722   5.636 -0.4627 -0.5939  1.3776
 5654SOL    HW228425   0.039   1.772   5.753  0.8672 -0.2567  0.3416
 5655SOL     OW28426   2.419   1.212   6.366  0.2037  0.2780 -0.2265
 5655SOL    HW128427   2.366   1.278   6.410 -0.5804 -0.2852 -0.3223
 5655SOL    HW228428   2.477   1.264   6.309  2.2872 -1.8594 -0.0665
 5656SOL     OW28429   1.597   3.364  16.566  0.7427  0.3143 -0.2063
 5656SOL    HW128430   1.673   3.327  16.521  0.8478 -0.6126  0.7330
 5656SOL    HW228431   1.633   3.408  16.643  0.7693 -1.3527  0.7223
 5657SOL     OW28432   0.260   1.079   3.647 -0.2075 -0.2778  0.1377
 5657SOL    HW128433   0.247   1.168   3.679 -0.8918 -0.1985 -0.3527
 5657SOL    HW228434   0.246   1.043   3.735  2.7386  1.6946  1.3998
 5658SOL     OW28435   2.686   4.214   8.722  0.4988 -0.0664 -0.0753
 5658SOL    HW128436   2.724   4.295   8.759 -1.2791  0.3370  0.8719
 5658SOL    HW228437   2.752   4.154   8.757  0.5293 -0.2522 -0.4541
 5659SOL     OW28438   1.129   2.034  14.151 -0.1524  0.5939  0.2276
 5659SOL    HW128439   1.144   1.951  14.195  2.5708 -0.0094 -1.8812
 5659SOL    HW228440   1.219   2.055  14.123 -0.5517  1.6153 -0.2927
 5660SOL     OW28441   2.896   1.412   6.607 -0.2702  0.3083  0.6283
 5660SOL    HW128442   2.873   1.367   6.688  0.9205 -0.6919  0.4066
 5660SOL    HW228443   2.857   1.352   6.544  0.2476 -0.0427  0.6430
 5661SOL     OW28444   0.496   0.117   4.937 -0.5297  0.0691 -0.7084
 5661SOL    HW128445   0.442   0.186   4.899 -0.1682  0.5802 -0.2815
 5661SOL    HW228446   0.557   0.097   4.866 -0.4196  0.2166 -0.6564
 5662SOL     OW28447   2.497   1.842   7.058 -0.7552  0.1872 -0.4775
 5662SOL    HW128448   2.483   1.937   7.059 -0.6865  0.1818  0.5506
 5662SOL    HW228449   2.470   1.819   7.147  0.3103 -0.6630 -0.3763
 5663SOL     OW28450   0.586   2.577   0.565 -0.2133  0.2567 -0.1052
 5663SOL    HW128451   0.650   2.603   0.631 -1.7868  1.2114  1.0212
 5663SOL    HW228452   0.535   2.657   0.551  1.5192  1.3584 -0.0935
 5664SOL     OW28453   0.785   0.142   4.545  0.6897 -0.1066 -0.3411
 5664SOL    HW128454   0.722   0.074   4.569  1.2843 -0.5603 -0.0834
 5664SOL    HW228455   0.738   0.223   4.563  0.1777  0.2445 -3.1728
 5665SOL     OW28456   1.056   2.255   8.173  0.0763  1.0256  0.5760
 5665SOL    HW128457   1.002   2.294   8.104  0.1773  2.9266  1.5622
 5665SOL    HW228458   1.137   2.225   8.132 -1.6199  0.2477 -2.1497
 5666SOL     OW28459   2.407   3.036  14.003  0.0708  0.0080  0.4202
 5666SOL    HW128460   2.478   3.043  14.066 -0.2133  2.8177  0.4097
 5666SOL    HW228461   2.431   2.951  13.965  0.5512  1.2032 -1.9768
 5667SOL     OW28462   0.772   4.562   1.515 -0.4197 -0.0113 -0.3168
 5667SOL    HW128463   0.686   4.594   1.486 -0.6347 -1.2892 -1.1122
 5667SOL    HW228464   0.785   4.474   1.479  0.0494  0.0855 -0.3797
 5668SOL     OW28465   1.093   0.199   2.558  0.1277 -0.1639 -0.3310
 5668SOL    HW128466   1.014   0.175   2.510 -0.9886 -1.0228  1.9106
 5668SOL    HW228467   1.123   0.122   2.608  0.1045  0.2316  0.2874
 5669SOL     OW28468   2.414   1.842   7.618 -0.6046  0.3215  0.0329
 5669SOL    HW128469   2.372   1.927   7.632 -0.5641  0.4133 -0.3879
 5669SOL    HW228470   2.497   1.858   7.663 -0.8687  1.1785  0.2157
 5670SOL     OW28471   2.195   3.877   4.189  0.4297 -0.3168  0.2423
 5670SOL    HW128472   2.144   3.798   4.209  4.7321 -3.2554 -0.5876
 5670SOL    HW228473   2.156   3.936   4.254  1.3748 -0.2930  0.7761
 5671SOL     OW28474   3.119   0.141   8.296  0.1463 -0.8747  0.1168
 5671SOL    HW128475   3.069   0.151   8.215 -0.5664  0.1052  0.6882
 5671SOL    HW228476   3.104   0.047   8.309 -0.5087 -0.6153  1.1664
 5672SOL     OW28477   1.100   3.941   9.002 -0.2618  0.0930  0.0969
 5672SOL    HW128478   1.115   4.032   8.974 -4.1693  0.1756 -1.7050
 5672SOL    HW228479   1.039   3.959   9.073 -0.2952  1.0076 -0.1615
 5673SOL     OW28480   3.252   0.812   2.990 -0.3520  0.0032 -0.0048
 5673SOL    HW128481   3.282   0.878   2.927 -1.7546  2.8692  2.3284
 5673SOL    HW228482   3.226   0.868   3.063  0.1249 -0.5402  0.5734
 5674SOL     OW28483   3.771   2.864   8.175  0.3341  0.3959 -0.4664
 5674SOL    HW128484   3.701   2.920   8.142  0.1640 -0.3233 -1.3410
 5674SOL    HW228485   3.803   2.819   8.096  2.1331  0.5628  0.1719
 5675SOL     OW28486   0.775   0.456   7.909  0.3323 -0.1173  0.5661
 5675SOL    HW128487   0.832   0.380   7.901  0.7754  0.2062  0.6188
 5675SOL    HW228488   0.744   0.456   7.818 -0.2933 -0.4745  0.7789
 5676SOL     OW28489   1.125   1.963   5.236 -0.0431  0.0554  0.0477
 5676SOL    HW128490   1.079   1.897   5.184  0.0408  0.6913 -0.8290
 5676SOL    HW228491   1.071   2.041   5.221  0.1307  0.1240 -0.2178
 5677SOL     OW28492   2.894   2.994   0.858 -0.0467 -0.0459 -0.3983
 5677SOL    HW128493   2.844   3.054   0.914  1.5320  0.3692  0.5584
 5677SOL    HW228494   2.890   3.035   0.771 -0.1463 -0.0647 -0.4025
 5678SOL     OW28495   4.388   4.369  11.148 -0.1057 -0.1645 -0.4177
 5678SOL    HW128496   4.393   4.465  11.148 -0.0915 -0.1676  0.2346
 5678SOL    HW228497   4.294   4.362  11.162  0.3863  0.5045  3.2359
 5679SOL     OW28498   1.125   3.472   7.691  0.0522 -0.1032 -0.5480
 5679SOL    HW128499   1.037   3.470   7.653 -0.0165  1.6896 -0.4649
 5679SOL    HW228500   1.108   3.506   7.779  0.2048 -2.1724  0.2964
 5680SOL     OW28501   4.316   2.049   8.526 -0.3919  0.1508  0.2033
 5680SOL    HW128502   4.279   2.029   8.612 -1.7850 -1.3323 -0.7474
 5680SOL    HW228503   4.267   2.129   8.508  3.4661  2.7111  0.9189
 5681SOL     OW28504   1.240   0.514   6.790  0.5434 -0.0189  0.0721
 5681SOL    HW128505   1.201   0.462   6.860 -0.4259 -0.1759 -0.5799
 5681SOL    HW228506   1.243   0.453   6.717  1.3256  1.1439 -0.8554
 5682SOL     OW28507   1.720   3.574   3.797 -0.5703 -0.3273 -0.4095
 5682SOL    HW128508   1.785   3.643   3.812 -2.0213  1.1304 -0.9120
 5682SOL    HW228509   1.751   3.534   3.715  1.7330 -0.1762  0.3986
 5683SOL     OW28510   4.596   1.711   8.446  0.2003 -0.0332  0.4902
 5683SOL    HW128511   4.630   1.672   8.526 -0.8071  0.4948  1.1755
 5683SOL    HW228512   4.679   1.726   8.400 -1.1710 -1.5072 -2.4852
 5684SOL     OW28513   0.696   0.417   9.250 -0.3880  0.2105 -0.1369
 5684SOL    HW128514   0.622   0.469   9.281 -0.1736 -0.0027  0.7537
 5684SOL    HW228515   0.683   0.333   9.294 -1.9500 -0.3615 -1.7051
 5685SOL     OW28516   0.523   0.128   9.986 -0.1102 -0.1996  0.9775
 5685SOL    HW128517   0.427   0.129   9.978 -0.0765 -1.5103  0.4704
 5685SOL    HW228518   0.546   0.036   9.992 -1.3499 -0.4060  2.5505
 5686SOL     OW28519   0.893   2.390   6.793  0.1324  0.5048  0.3775
 5686SOL    HW128520   0.875   2.306   6.836  4.4042 -0.5781  0.0779
 5686SOL    HW228521   0.876   2.362   6.703  0.9978  3.2822 -0.6204
 5687SOL     OW28522   3.808   1.891  14.319  0.0125  0.2173  0.3796
 5687SOL    HW128523   3.899   1.865  14.332  0.3579  1.1103 -0.2619
 5687SOL    HW228524   3.786   1.847  14.401 -0.7599 -1.2444 -0.6131
 5688SOL     OW28525   4.154   1.547   0.462  0.4765  0.5669  0.0030
 5688SOL    HW128526   4.106   1.617   0.507 -2.1715 -1.3644  0.2368
 5688SOL    HW228527   4.116   1.569   0.377  2.9233  0.2143 -1.1569
 5689SOL     OW28528   3.939   2.416  13.500  0.6221 -0.2111  0.3389
 5689SOL    HW128529   3.983   2.415  13.585  1.2022 -1.5000  0.0328
 5689SOL    HW228530   4.005   2.465  13.452 -1.7799  0.0439 -2.6620
 5690SOL     OW28531   1.341   0.146   2.364 -0.1823 -0.2259  0.4115
 5690SOL    HW128532   1.329   0.179   2.453  0.6771  0.4990  0.2512
 5690SOL    HW228533   1.377   0.225   2.326  1.0982 -1.0985 -0.1907
 5691SOL     OW28534   4.010   0.732   4.455  0.4969 -0.0278 -0.0557
 5691SOL    HW128535   4.086   0.783   4.484  1.0199 -0.1647 -1.1876
 5691SOL    HW228536   3.977   0.764   4.371  1.9561 -4.3674 -2.2613
 5692SOL     OW28537   2.112   4.538  10.140 -0.6820  0.2352 -0.2320
 5692SOL    HW128538   2.116   4.591  10.061  0.0530  0.6693  0.0918
 5692SOL    HW228539   2.154   4.582  10.214  0.2931 -1.0032 -0.0521
 5693SOL     OW28540   1.178   1.519   6.835  0.0302 -0.0570  0.7800
 5693SOL    HW128541   1.202   1.602   6.876 -0.6050  0.9940 -0.9617
 5693SOL    HW228542   1.259   1.469   6.836 -0.8753 -1.4761  2.3016
 5694SOL     OW28543   4.475   2.707   9.333 -0.4182 -0.1410  0.0837
 5694SOL    HW128544   4.443   2.777   9.390  2.6071 -1.3911  3.3062
 5694SOL    HW228545   4.539   2.669   9.393 -0.3658 -1.4134 -0.7697
 5695SOL     OW28546   4.646   4.721   4.204  0.3490 -0.0606  0.1172
 5695SOL    HW128547   4.681   0.089   4.204  0.4931 -0.1103 -2.7794
 5695SOL    HW228548   4.581   0.013   4.135 -1.1172  0.5911  1.6414
 5696SOL     OW28549   3.619   1.429   2.058  0.4838 -0.7377  0.6187
 5696SOL    HW128550   3.672   1.430   1.978 -0.1248 -2.9620  0.2088
 5696SOL    HW228551   3.615   1.337   2.082  3.2121 -0.0292  3.8104
 5697SOL     OW28552   0.054   3.622   2.123 -0.3644  0.1769 -0.2535
 5697SOL    HW128553   0.096   3.538   2.139  0.9602  0.7945 -0.4628
 5697SOL    HW228554   0.094   3.676   2.191 -1.6186  0.5780  0.1641
 5698SOL     OW28555   1.764   1.876  15.611 -0.2854  0.2049  0.3812
 5698SOL    HW128556   1.739   1.784  15.610  1.6705 -0.3306  1.2561
 5698SOL    HW228557   1.833   1.875  15.677  0.3337 -0.8728 -0.2907
 5699SOL     OW28558   1.516   1.854  16.843 -0.4720  0.3028 -0.5140
 5699SOL    HW128559   1.466   1.773  16.833 -1.6622  0.9329  0.2992
 5699SOL    HW228560   1.475   1.917  16.784  0.9798  2.2839  0.6005
 5700SOL     OW28561   3.034   4.599   4.226  0.0150  0.7107  0.3912
 5700SOL    HW128562   3.008   4.543   4.153  1.7231 -1.1557  1.1740
 5700SOL    HW228563   3.043   4.540   4.302  0.8753 -0.3043 -0.4948
 5701SOL     OW28564   2.268   4.214   9.539 -0.3097 -0.5534  0.4312
 5701SOL    HW128565   2.247   4.207   9.445 -1.3643 -0.8512  0.6801
 5701SOL    HW228566   2.311   4.130   9.555 -1.2334 -1.4326 -1.6315
 5702SOL     OW28567   1.389   0.452  14.647 -0.1907  0.2402  0.0806
 5702SOL    HW128568   1.392   0.390  14.720 -1.5341 -0.9519 -0.8937
 5702SOL    HW228569   1.309   0.498  14.672 -1.8654 -2.0670 -1.0782
 5703SOL     OW28570   3.117   2.310  15.830  0.4869  0.2412  0.2083
 5703SOL    HW128571   3.080   2.396  15.852 -0.6460 -0.2201  0.0992
 5703SOL    HW228572   3.207   2.329  15.857  0.2845  1.5378 -0.0198
 5704SOL     OW28573   3.292   2.536   9.339  0.1313 -0.4905 -0.5021
 5704SOL    HW128574   3.305   2.618   9.388  1.3591 -0.4365 -0.9051
 5704SOL    HW228575   3.227   2.490   9.391 -0.8214 -0.4632 -1.6612
 5705SOL     OW28576   0.694   2.527   4.999 -0.0936  0.3216 -0.2603
 5705SOL    HW128577   0.737   2.609   4.974 -0.0368  0.1670 -0.6716
 5705SOL    HW228578   0.723   2.518   5.090  1.0984 -0.5657 -0.7164
 5706SOL     OW28579   4.353   0.992   6.717 -0.6312  0.0836  0.3685
 5706SOL    HW128580   4.360   1.044   6.637 -0.1115 -0.8625 -0.1969
 5706SOL    HW228581   4.314   1.055   6.778 -2.0115  0.9409 -1.4114
 5707SOL     OW28582   1.551   3.386   8.483 -0.3759  0.6117 -0.3839
 5707SOL    HW128583   1.551   3.441   8.405  1.1788  1.0992 -0.0493
 5707SOL    HW228584   1.632   3.423   8.520 -0.8271  1.0402  0.1657
 5708SOL     OW28585   1.736   2.871   1.719 -0.0262  0.6531  0.9431
 5708SOL    HW128586   1.761   2.947   1.667  0.2473  0.7890  1.2711
 5708SOL    HW228587   1.659   2.910   1.761 -1.5181 -1.6042  0.3115
 5709SOL     OW28588   4.442   2.068  12.001 -0.3221 -0.1985 -0.1583
 5709SOL    HW128589   4.440   2.086  12.095  0.7980  1.3330 -0.4240
 5709SOL    HW228590   4.362   2.118  11.984  0.0040  0.5188  0.3859
 5710SOL     OW28591   1.760   1.517   6.594 -0.1354  0.3921  0.1210
 5710SOL    HW128592   1.795   1.601   6.626  2.2873 -2.0760  3.9101
 5710SOL    HW228593   1.665   1.525   6.604 -0.2255  1.2533 -1.3950
 5711SOL     OW28594   0.199   3.915   9.302  0.3770 -0.3838  0.3603
 5711SOL    HW128595   0.142   3.879   9.370  1.0034  0.9821  1.5985
 5711SOL    HW228596   0.134   3.962   9.250  0.5930  0.5369  0.9248
 5712SOL     OW28597   3.721   2.628   4.736 -0.1237 -0.4011 -0.2382
 5712SOL    HW128598   3.721   2.562   4.805  1.0385  0.3037  0.4405
 5712SOL    HW228599   3.804   2.671   4.756 -0.4774  0.1749  0.0073
 5713SOL     OW28600   1.509   2.169  11.546 -0.4413  0.6878  0.1673
 5713SOL    HW128601   1.547   2.142  11.463  0.0542  0.2570  0.5286
 5713SOL    HW228602   1.533   2.090  11.595  0.0501  0.0886 -1.0432
 5714SOL     OW28603   2.379   4.563   8.206  0.1755 -0.2836  0.4028
 5714SOL    HW128604   2.354   4.583   8.296  3.4813  0.5469  1.1472
 5714SOL    HW228605   2.475   4.557   8.205  0.2718  0.9659  2.4890
 5715SOL     OW28606   3.918   2.241   2.417  0.0545  0.1660  0.0356
 5715SOL    HW128607   3.974   2.244   2.494  0.6717  1.9793 -0.4901
 5715SOL    HW228608   3.967   2.305   2.365  1.8618 -1.3697 -0.1213
 5716SOL     OW28609   1.946   0.503   5.193  0.4677  0.1499 -0.9138
 5716SOL    HW128610   1.855   0.519   5.217  0.2670 -2.2514 -0.1640
 5716SOL    HW228611   1.976   0.464   5.275 -2.1659 -1.0990 -0.5327
 5717SOL     OW28612   0.090   0.463  10.452  0.5273 -0.1731  0.5469
 5717SOL    HW128613   0.132   0.378  10.436 -2.0766 -1.2613 -0.5807
 5717SOL    HW228614   0.103   0.504  10.367 -0.4798  0.0449  0.4948
 5718SOL     OW28615   3.866   0.261  16.386 -0.4199  0.1588  0.3677
 5718SOL    HW128616   3.917   0.198  16.335  1.3085  1.3558  0.6015
 5718SOL    HW228617   3.841   0.317  16.313  0.3660 -2.8123 -2.1533
 5719SOL     OW28618   2.986   0.158   2.262 -0.2309  0.4812 -0.2008
 5719SOL    HW128619   3.047   0.144   2.190  0.6049 -2.0241  0.9979
 5719SOL    HW228620   2.978   0.070   2.299 -0.9571  0.9014  0.6553
 5720SOL     OW28621   1.694   3.809  15.923 -0.0495  0.4529 -0.1485
 5720SOL    HW128622   1.604   3.785  15.904 -0.3596  1.7798 -0.3593
 5720SOL    HW228623   1.717   3.847  15.839 -2.2016 -0.6001 -1.2068
 5721SOL     OW28624   1.327   1.695  14.807 -0.2423  0.0931  0.0667
 5721SOL    HW128625   1.264   1.629  14.779  1.2413 -1.3396  0.1009
 5721SOL    HW228626   1.324   1.685  14.902 -1.1352  1.6040  0.1950
 5722SOL     OW28627   4.052   2.022  11.381 -0.0125 -0.3672  0.1525
 5722SOL    HW128628   4.049   2.114  11.409  0.3192 -0.7150  1.2964
 5722SOL    HW228629   4.106   1.983  11.449 -1.3143 -2.9318 -0.2813
 5723SOL     OW28630   3.426   4.080   4.717  0.0116  0.2466 -0.3152
 5723SOL    HW128631   3.369   4.003   4.712  0.2055  0.0476  0.6318
 5723SOL    HW228632   3.448   4.085   4.810  0.7818  1.2751 -0.5454
 5724SOL     OW28633   3.267   2.891   5.733  0.4428  0.2640  0.2849
 5724SOL    HW128634   3.310   2.939   5.662  0.4957 -0.0196  0.1254
 5724SOL    HW228635   3.213   2.947   5.787  0.2260 -1.5830  1.9902
 5725SOL     OW28636   4.646   3.751  10.414  0.4575 -0.1131 -0.3424
 5725SOL    HW128637   4.622   3.843  10.407 -1.8073 -0.7697 -1.1297
 5725SOL    HW228638   4.661   3.740  10.320  2.3829  0.7323 -0.1489
 5726SOL     OW28639   2.905   0.210   0.428 -0.0733 -0.5605 -0.1603
 5726SOL    HW128640   2.975   0.257   0.473  1.6028 -2.2188 -1.0498
 5726SOL    HW228641   2.868   0.163   0.503 -1.3544  0.8541  0.0837
 5727SOL     OW28642   3.243   3.851   2.994 -0.4709  0.1232  0.2281
 5727SOL    HW128643   3.169   3.875   2.938  0.7066  1.4733 -0.7608
 5727SOL    HW228644   3.263   3.767   2.954  1.7833  0.8764 -0.2064
 5728SOL     OW28645   0.355   1.711   8.473  1.0816  0.0516 -0.5111
 5728SOL    HW128646   0.343   1.686   8.564 -1.5859  2.3001 -0.2495
 5728SOL    HW228647   0.332   1.804   8.474  1.2528  0.1106 -1.6036
 5729SOL     OW28648   2.663   2.113   5.221  0.3998 -0.2392  0.2266
 5729SOL    HW128649   2.703   2.077   5.141  0.2285  0.5454 -0.2146
 5729SOL    HW228650   2.571   2.086   5.213  0.5085  0.1236 -2.4454
 5730SOL     OW28651   2.438   0.151   5.255 -0.1952  0.1488  0.1534
 5730SOL    HW128652   2.513   0.210   5.255  0.0523 -0.1640 -1.7365
 5730SOL    HW228653   2.380   0.215   5.295 -0.5992  0.2094 -0.5214
 5731SOL     OW28654   1.167   2.823   8.683  0.6566  0.3389  0.2026
 5731SOL    HW128655   1.188   2.834   8.591  0.1273 -0.9641 -0.0849
 5731SOL    HW228656   1.243   2.861   8.727  0.9161 -2.5576  2.2989
 5732SOL     OW28657   2.581   4.341   6.681  0.3962  0.3269  0.4711
 5732SOL    HW128658   2.507   4.397   6.701  0.0502 -0.6816  2.0650
 5732SOL    HW228659   2.537   4.274   6.628  1.8145 -1.4276  1.4736
 5733SOL     OW28660   0.715   4.585   5.734 -0.7709  0.2284 -0.1744
 5733SOL    HW128661   0.649   4.564   5.801 -1.7497  4.5981  0.2972
 5733SOL    HW228662   0.660   4.565   5.659 -0.2144 -1.6725 -0.0560
 5734SOL     OW28663   4.618   4.112   6.813  0.2860 -0.3998  0.5287
 5734SOL    HW128664   4.703   4.080   6.842  1.1652  0.1177 -1.5234
 5734SOL    HW228665   4.640   4.123   6.721 -1.2970  0.3392  0.2384
 5735SOL     OW28666   3.911   0.214   9.243 -0.0973  0.0886  0.0234
 5735SOL    HW128667   3.950   0.147   9.299 -1.4439  0.0646  0.9347
 5735SOL    HW228668   3.985   0.273   9.253  0.5873 -0.1971 -3.2768
 5736SOL     OW28669   4.339   1.965   4.284 -0.0483  0.4515 -0.6054
 5736SOL    HW128670   4.401   1.918   4.229 -0.9013 -0.1888 -1.0250
 5736SOL    HW228671   4.352   2.059   4.272  1.1412  0.4633  0.6795
 5737SOL     OW28672   1.148   2.710   9.073 -0.5476  0.0199  0.0210
 5737SOL    HW128673   1.241   2.730   9.064 -0.3786 -1.1425 -0.9036
 5737SOL    HW228674   1.150   2.615   9.086  0.1649  0.0176 -0.1393
 5738SOL     OW28675   1.433   4.634   3.111 -0.4450  0.1944 -0.2307
 5738SOL    HW128676   1.346   4.671   3.125 -1.4026 -2.2122  0.1429
 5738SOL    HW228677   1.416   4.540   3.098 -0.8476  0.1167  0.8170
 5739SOL     OW28678   4.720   0.638  16.129 -0.7570 -0.1247 -1.3159
 5739SOL    HW128679   0.051   0.568  16.169  1.9240  1.4605 -2.0100
 5739SOL    HW228680   0.061   0.711  16.121  1.8736 -2.2707 -0.5997
 5740SOL     OW28681   4.486   0.257   8.273 -0.9032 -0.6340 -0.3578
 5740SOL    HW128682   4.572   0.273   8.310 -1.4089 -1.6327  1.2669
 5740SOL    HW228683   4.423   0.296   8.334 -0.3368 -1.4402  0.7493
 5741SOL     OW28684   4.436   2.321   8.396  0.4128 -0.1337  0.3843
 5741SOL    HW128685   4.362   2.260   8.397  0.8096 -0.6215  0.2818
 5741SOL    HW228686   4.460   2.311   8.488  1.6341  0.2463  0.1001
 5742SOL     OW28687   2.580   1.712   0.284 -0.4074  0.1217 -0.3469
 5742SOL    HW128688   2.575   1.707   0.379  1.4372  4.6067 -0.0214
 5742SOL    HW228689   2.614   1.625   0.262  1.5788  1.5219 -2.7137
 5743SOL     OW28690   4.098   0.954   0.339  0.5132 -0.3783  0.3405
 5743SOL    HW128691   4.014   0.972   0.382 -0.9166 -2.1051 -1.7595
 5743SOL    HW228692   4.161   0.969   0.410  1.1390 -0.6675 -0.1536
 5744SOL     OW28693   2.882   3.519   7.429  0.2373 -0.2171 -0.4383
 5744SOL    HW128694   2.892   3.573   7.508 -2.4328  0.7814 -0.7699
 5744SOL    HW228695   2.857   3.431   7.456  2.6421 -0.9224 -0.5077
 5745SOL     OW28696   4.165   4.122   9.032 -0.1685  0.1240 -0.4738
 5745SOL    HW128697   4.069   4.125   9.033 -0.2048 -1.3801  0.5935
 5745SOL    HW228698   4.191   4.111   8.941  1.6456  0.7112 -0.0312
 5746SOL     OW28699   4.312   2.561   4.053 -0.1328 -0.0813  0.4022
 5746SOL    HW128700   4.304   2.524   4.141 -0.8401 -2.2193 -0.5894
 5746SOL    HW228701   4.272   2.495   3.997 -0.2971  1.3870 -1.2045
 5747SOL     OW28702   1.229   2.067   0.080 -0.8914 -0.0127  0.1344
 5747SOL    HW128703   1.219   2.159   0.057  0.2887  0.6686  2.3649
 5747SOL    HW228704   1.198   2.062   0.170  0.2010  1.1026  0.5761
 5748SOL     OW28705   1.947   4.376  16.444 -0.2170  0.4248 -0.2379
 5748SOL    HW128706   1.890   4.330  16.383 -0.1700 -0.9938  0.7878
 5748SOL    HW228707   1.887   4.441  16.480 -0.5836 -0.2836  0.4463
 5749SOL     OW28708   2.092   2.253   8.999  0.3866 -0.7347 -0.1037
 5749SOL    HW128709   2.048   2.228   8.917 -1.4817  0.7753  0.4517
 5749SOL    HW228710   2.066   2.344   9.008  0.5489 -0.6696 -0.2979
 5750SOL     OW28711   2.393   4.362   6.093 -0.2017  0.1962  0.2815
 5750SOL    HW128712   2.470   4.353   6.038 -0.6790  1.2869 -0.5570
 5750SOL    HW228713   2.359   4.448   6.068  0.2249 -0.1854 -1.6025
 5751SOL     OW28714   3.896   2.115   9.654 -0.3667 -0.2097 -0.6943
 5751SOL    HW128715   3.918   2.205   9.677 -3.2745 -0.2540  2.2734
 5751SOL    HW228716   3.934   2.121   9.567  3.9984 -1.8172  1.1032
 5752SOL     OW28717   0.049   3.857   7.370  0.3608  0.2774 -0.6321
 5752SOL    HW128718   0.132   3.864   7.417 -0.7175  0.6330  1.2117
 5752SOL    HW228719   0.072   3.777   7.324  0.9469  0.8106 -1.2712
 5753SOL     OW28720   1.362   3.318  10.922  0.2814 -0.5398 -0.3986
 5753SOL    HW128721   1.277   3.363  10.923  1.0354  0.8752  1.3427
 5753SOL    HW228722   1.330   3.232  10.946 -1.9243  0.5357  0.5285
 5754SOL     OW28723   3.577   2.913   8.712 -0.1154 -0.4186  0.0250
 5754SOL    HW128724   3.547   2.850   8.778  0.2461 -0.7726 -0.1506
 5754SOL    HW228725   3.643   2.854   8.675 -0.1156 -1.6449  1.9758
 5755SOL     OW28726   4.120   3.910   2.648  0.0696 -0.4346 -0.3446
 5755SOL    HW128727   4.146   3.992   2.690  1.2189  0.6243 -3.1362
 5755SOL    HW228728   4.051   3.941   2.590 -1.2434 -1.2334  0.7999
 5756SOL     OW28729   2.581   4.326  11.592  0.3720  0.2059 -0.1736
 5756SOL    HW128730   2.650   4.352  11.531  1.1851 -1.5498  0.0068
 5756SOL    HW228731   2.568   4.409  11.637 -1.7624  1.1868 -2.6324
 5757SOL     OW28732   1.070   3.468   4.681 -0.0445  0.1896  0.5735
 5757SOL    HW128733   1.068   3.539   4.617  2.6049  1.5040  1.9763
 5757SOL    HW228734   0.987   3.474   4.728  0.6100  3.2333  1.3619
 5758SOL     OW28735   3.778   3.641   5.510 -0.1529  0.3100 -0.9531
 5758SOL    HW128736   3.752   3.638   5.602 -0.4241  1.3433 -0.9995
 5758SOL    HW228737   3.762   3.733   5.488 -1.2654 -0.2006 -2.3180
 5759SOL     OW28738   0.585   3.616   7.406 -0.0440  0.3690 -0.0890
 5759SOL    HW128739   0.523   3.635   7.335  0.6878 -3.2668 -1.7110
 5759SOL    HW228740   0.551   3.534   7.441  1.6337  1.6952  4.5524
 5760SOL     OW28741   4.678   1.882   3.294 -0.5009 -0.5015 -0.0092
 5760SOL    HW128742   4.676   1.881   3.199  1.8539 -1.2003 -0.0389
 5760SOL    HW228743   0.001   1.797   3.299 -1.4443 -0.9834  0.1584
 5761SOL     OW28744   4.088   4.558   4.644 -0.2172  0.3321 -0.1730
 5761SOL    HW128745   4.179   4.567   4.616 -0.3177 -1.5439 -1.1086
 5761SOL    HW228746   4.078   4.467   4.670 -0.6792  0.4498  0.0450
 5762SOL     OW28747   2.573   3.021  14.940 -0.1449 -0.2047  0.1431
 5762SOL    HW128748   2.488   2.978  14.948 -0.6228  0.9460  1.2173
 5762SOL    HW228749   2.620   2.974  14.871  1.4009 -0.7180  1.5562
 5763SOL     OW28750   4.559   3.394   2.313 -0.0764 -0.0194 -0.2396
 5763SOL    HW128751   4.553   3.343   2.232  1.3737 -0.6064  0.0312
 5763SOL    HW228752   4.646   3.363   2.339  0.5299  1.8032 -0.0939
 5764SOL     OW28753   1.839   2.126  11.009 -0.8336  0.4480 -0.1070
 5764SOL    HW128754   1.776   2.102  10.941  0.7474 -2.2557 -0.6140
 5764SOL    HW228755   1.853   2.220  10.997  1.0355  0.0977 -0.7511
 5765SOL     OW28756   3.236   1.018   3.142 -0.7775 -0.0327  0.1273
 5765SOL    HW128757   3.153   1.066   3.149 -0.1839  0.6768  2.2233
 5765SOL    HW228758   3.300   1.076   3.182  0.6788 -0.4441 -1.5925
 5766SOL     OW28759   4.450   3.354   3.485  0.0119 -0.6629  0.3179
 5766SOL    HW128760   4.438   3.264   3.516  0.5604 -0.4430  1.1644
 5766SOL    HW228761   4.383   3.356   3.416  2.5531 -1.1695 -2.1419
 5767SOL     OW28762   1.129   0.581  14.408  0.1149  0.1390  0.1805
 5767SOL    HW128763   1.058   0.634  14.373  0.3290 -1.1434 -2.1993
 5767SOL    HW228764   1.078   0.514  14.455  2.6124 -0.7216  1.6696
 5768SOL     OW28765   4.627   1.160  11.910 -0.0753  0.5858 -0.1383
 5768SOL    HW128766   4.647   1.196  11.823  0.1156 -0.7607 -0.6409
 5768SOL    HW228767   4.607   1.244  11.951  0.3861  0.1567  0.9521
 5769SOL     OW28768   3.910   1.139   6.551 -0.2760 -0.0159 -0.3292
 5769SOL    HW128769   3.942   1.071   6.611 -1.6547 -0.8101 -0.4942
 5769SOL    HW228770   3.855   1.189   6.612 -1.0739 -1.6434  0.2769
 5770SOL     OW28771   3.230   2.682   4.583 -0.0726  0.7522 -0.0307
 5770SOL    HW128772   3.155   2.687   4.643  1.1499  2.3345  1.3572
 5770SOL    HW228773   3.302   2.694   4.644  1.8816 -1.5347 -1.9054
 5771SOL     OW28774   2.744   0.418   3.647 -0.6331  0.1737  0.8049
 5771SOL    HW128775   2.683   0.430   3.719 -2.2850 -2.0469 -0.2038
 5771SOL    HW228776   2.827   0.437   3.690 -0.3178 -0.4599  0.4760
 5772SOL     OW28777   1.708   3.451   6.100  0.3283 -0.4991  0.0711
 5772SOL    HW128778   1.707   3.494   6.185  0.1255  0.9821 -0.6954
 5772SOL    HW228779   1.765   3.378   6.125  0.2873 -0.4083  0.4306
 5773SOL     OW28780   2.708   0.941   4.561  0.2773  0.3032 -0.0909
 5773SOL    HW128781   2.636   0.879   4.575  0.0955  0.5031 -0.1467
 5773SOL    HW228782   2.657   1.019   4.541 -0.5398 -0.3587 -0.6076
 5774SOL     OW28783   1.449   3.224   7.992 -0.3564 -0.4748  0.6862
 5774SOL    HW128784   1.437   3.313   7.960 -1.7087 -0.2902  1.7515
 5774SOL    HW228785   1.472   3.185   7.907 -1.7569  0.3462 -0.0623
 5775SOL     OW28786   0.646   0.574   8.108  0.0319  0.1730  0.0416
 5775SOL    HW128787   0.701   0.536   8.040 -0.2048 -1.7192  0.9125
 5775SOL    HW228788   0.679   0.522   8.182 -1.8634  1.7268  1.9735
 5776SOL     OW28789   1.936   3.934   9.367  0.5610  0.6373  0.2287
 5776SOL    HW128790   1.964   3.902   9.453  0.9372 -0.7542 -0.4111
 5776SOL    HW228791   1.886   3.861   9.330 -0.0548  2.0630 -1.7404
 5777SOL     OW28792   4.649   4.378   9.035 -0.3775  1.2183  0.5375
 5777SOL    HW128793   4.665   4.283   9.040 -2.5682  0.8545  0.6212
 5777SOL    HW228794   4.568   4.392   9.084  0.5788  1.6802  1.9833
 5778SOL     OW28795   1.338   3.548   2.729  0.8375 -0.2337 -0.1754
 5778SOL    HW128796   1.385   3.535   2.646  2.8680 -1.3352  1.1546
 5778SOL    HW228797   1.411   3.553   2.791 -1.9116 -0.1037  3.0437
 5779SOL     OW28798   0.644   2.721  14.646  0.0473  0.6572  0.4562
 5779SOL    HW128799   0.725   2.773  14.644  0.6783 -0.4664 -2.7450
 5779SOL    HW228800   0.631   2.722  14.551  0.7673  1.1787  0.3605
 5780SOL     OW28801   1.175   1.545   5.077  0.1559 -0.1147  0.2716
 5780SOL    HW128802   1.171   1.604   5.001 -0.8673 -1.3102 -0.5980
 5780SOL    HW228803   1.102   1.573   5.132 -0.6024  1.5036 -1.5558
 5781SOL     OW28804   3.800   0.802   4.227  0.0494 -0.2525  0.3452
 5781SOL    HW128805   3.742   0.874   4.253  0.8731  0.8259 -0.8178
 5781SOL    HW228806   3.844   0.843   4.153  1.5565 -2.5184  0.0029
 5782SOL     OW28807   1.356   2.039   7.429 -0.8088 -0.6782  0.4762
 5782SOL    HW128808   1.362   2.124   7.387 -2.4824 -1.2031 -0.7998
 5782SOL    HW228809   1.261   2.041   7.437 -0.7687  1.4226  0.3354
 5783SOL     OW28810   2.131   3.615  10.620 -0.3695 -0.5538 -0.3594
 5783SOL    HW128811   2.210   3.613  10.567 -0.3261 -0.4947 -0.2963
 5783SOL    HW228812   2.154   3.680  10.686 -0.4771  0.3646 -1.2244
 5784SOL     OW28813   4.021   2.086   9.404  0.5184 -0.3509  0.4012
 5784SOL    HW128814   4.056   2.037   9.330  0.3933 -0.9729  0.7604
 5784SOL    HW228815   3.980   2.160   9.357 -1.3654 -1.4930  0.2293
 5785SOL     OW28816   3.388   3.740   3.656  0.5899 -0.6014  0.0958
 5785SOL    HW128817   3.298   3.735   3.622  0.2233 -0.6518  1.0490
 5785SOL    HW228818   3.417   3.827   3.629 -0.2669 -0.5070 -0.5222
 5786SOL     OW28819   1.718   1.956   9.414  0.3918 -0.3082  0.3954
 5786SOL    HW128820   1.717   1.949   9.318 -0.5486 -0.6830  0.4336
 5786SOL    HW228821   1.732   1.863   9.432  0.1891 -1.0200 -3.0957
 5787SOL     OW28822   4.617   2.419   7.745  0.7423  0.0868 -0.2051
 5787SOL    HW128823   4.662   2.451   7.824 -0.0942  0.4311  0.1272
 5787SOL    HW228824   4.553   2.373   7.801  1.3370  2.5337  2.4860
 5788SOL     OW28825   0.419   4.080  17.077  0.0177 -0.3574 -0.1792
 5788SOL    HW128826   0.507   4.045  17.062  0.8189  1.5448  0.0478
 5788SOL    HW228827   0.372   4.025  17.140 -0.8951 -0.6862 -1.1442
 5789SOL     OW28828   3.265   0.258   2.796 -0.5910  0.0195 -0.0147
 5789SOL    HW128829   3.243   0.296   2.711  0.1899 -2.7723 -1.4521
 5789SOL    HW228830   3.251   0.165   2.780 -0.4258  0.2445 -1.4405
 5790SOL     OW28831   1.910   1.131   6.268 -0.4316  0.1746  0.2584
 5790SOL    HW128832   1.928   1.219   6.302  0.0059  0.5605 -0.9781
 5790SOL    HW228833   1.880   1.152   6.180 -0.8665 -2.0216 -0.1075
 5791SOL     OW28834   1.074   0.856   0.755  0.2543  0.1081  0.1994
 5791SOL    HW128835   0.996   0.900   0.788  2.6314  2.2600  3.0246
 5791SOL    HW228836   1.108   0.918   0.690  2.0317 -2.5220 -1.3754
 5792SOL     OW28837   3.739   1.483   5.813  0.1153  0.1712  0.0770
 5792SOL    HW128838   3.779   1.460   5.897  0.1151 -0.0531  0.0164
 5792SOL    HW228839   3.735   1.394   5.777 -1.5499 -0.2949  1.4087
 5793SOL     OW28840   3.088   4.646  15.165  0.2558 -0.2622  0.7535
 5793SOL    HW128841   3.078   0.000  15.223 -0.6131 -0.4756  0.8838
 5793SOL    HW228842   3.176   4.656  15.131 -0.0565 -0.5745 -0.1450
 5794SOL     OW28843   3.741   0.003   2.774  0.2279 -0.3939 -0.2503
 5794SOL    HW128844   3.805   0.067   2.806 -1.0708  1.5515 -1.6104
 5794SOL    HW228845   3.671   0.010   2.838  0.3197  1.2947 -0.3464
 5795SOL     OW28846   2.894   3.957   5.221 -0.5606  0.7245  0.1481
 5795SOL    HW128847   2.837   3.901   5.168  0.9216 -1.8619  1.2687
 5795SOL    HW228848   2.958   3.887   5.235 -0.0664  1.1340 -0.0765
 5796SOL     OW28849   1.522   2.116   4.524 -0.2361  0.6704 -0.2485
 5796SOL    HW128850   1.489   2.069   4.448  1.5765  0.1007 -0.6768
 5796SOL    HW228851   1.511   2.205   4.491 -2.4456  0.4477 -0.1309
 5797SOL     OW28852   3.894   0.253   7.990 -0.1577 -0.4518 -0.1581
 5797SOL    HW128853   3.870   0.235   7.899  0.5207  0.8303 -0.5881
 5797SOL    HW228854   3.808   0.268   8.028  0.0879 -0.6846  0.4903
 5798SOL     OW28855   3.338   1.044   3.811 -0.9156 -0.1836 -0.0037
 5798SOL    HW128856   3.342   1.081   3.723 -3.9977  0.6537  0.2132
 5798SOL    HW228857   3.410   1.082   3.861 -1.7554  1.6599 -0.2136
 5799SOL     OW28858   3.252   3.655   1.270 -0.3353 -0.0791  0.3018
 5799SOL    HW128859   3.265   3.727   1.209  1.0055  0.8473  1.6712
 5799SOL    HW228860   3.223   3.587   1.209 -1.7630  0.7439  0.0681
 5800SOL     OW28861   4.208   1.969   8.244 -0.5440 -0.4461 -0.5076
 5800SOL    HW128862   4.298   1.972   8.277 -0.4094  0.6962 -0.9956
 5800SOL    HW228863   4.161   1.999   8.321  0.7003 -2.4887  1.0552
 5801SOL     OW28864   4.019   3.738   7.426  0.3190  0.2755  0.3651
 5801SOL    HW128865   3.996   3.825   7.459 -0.9388  0.3739 -0.7376
 5801SOL    HW228866   3.948   3.740   7.361  1.2529 -0.2268 -0.6709
 5802SOL     OW28867   1.580   0.365   8.059 -0.5040 -0.3325  0.2041
 5802SOL    HW128868   1.646   0.435   8.053 -0.4877 -0.4570 -1.1281
 5802SOL    HW228869   1.643   0.294   8.071  0.3971  0.4650  0.2300
 5803SOL     OW28870   1.021   3.987   0.280 -0.4985 -0.3415  0.1871
 5803SOL    HW128871   0.970   4.010   0.202  2.7852  0.5620 -1.6991
 5803SOL    HW228872   1.042   3.895   0.264 -2.0972 -0.6861  0.0654
 5804SOL     OW28873   1.136   0.963   8.891  0.0083  0.7331  0.2346
 5804SOL    HW128874   1.126   0.902   8.818 -0.0272 -0.0568  0.8918
 5804SOL    HW228875   1.177   1.035   8.843 -0.7383  0.9464 -0.0938
 5805SOL     OW28876   2.743   2.006  14.582 -0.4967  0.0783 -0.5071
 5805SOL    HW128877   2.727   2.045  14.668 -2.1436  1.0992 -1.2830
 5805SOL    HW228878   2.810   1.942  14.604  1.9879  2.4878 -1.1355
 5806SOL     OW28879   3.408   2.826   3.208  0.0993  0.8121  0.2042
 5806SOL    HW128880   3.334   2.875   3.244  0.9266  1.5942  0.8480
 5806SOL    HW228881   3.422   2.861   3.120  1.0140 -0.1985 -0.0581
 5807SOL     OW28882   0.810   3.673  15.367  0.2503  0.2626 -0.5694
 5807SOL    HW128883   0.814   3.676  15.272 -0.1348 -0.1144 -0.5959
 5807SOL    HW228884   0.842   3.761  15.387 -0.3970  0.6967 -1.4662
 5808SOL     OW28885   2.405   1.035  11.558  0.1573  1.0509  0.7770
 5808SOL    HW128886   2.341   0.965  11.569  0.6127  0.2808 -1.5052
 5808SOL    HW228887   2.482   1.002  11.603  0.8085  0.1769 -0.9568
 5809SOL     OW28888   2.911   1.989   2.569 -0.3205  0.6492  0.6923
 5809SOL    HW128889   2.923   1.926   2.498  1.7000  1.5736  0.2334
 5809SOL    HW228890   2.896   2.077   2.534 -1.4196  0.5314  0.8469
 5810SOL     OW28891   1.967   1.000  11.069 -0.6155  0.3345  0.1302
 5810SOL    HW128892   2.021   1.003  11.147  0.1465  0.2840 -0.3966
 5810SOL    HW228893   1.879   1.010  11.105 -0.6986  1.9255 -0.5137
 5811SOL     OW28894   3.970   1.418   7.796  0.0481 -0.0559 -0.1434
 5811SOL    HW128895   3.990   1.399   7.888  4.5890 -0.3988 -1.1875
 5811SOL    HW228896   3.899   1.481   7.804 -1.8031 -1.6270 -4.2493
 5812SOL     OW28897   3.581   3.425   3.143  0.3366  0.5851 -0.4004
 5812SOL    HW128898   3.649   3.490   3.129  0.6100  0.0611 -1.5186
 5812SOL    HW228899   3.603   3.363   3.073  3.9118  1.2107  0.1759
 5813SOL     OW28900   2.341   1.026   2.375  0.3370 -0.1889 -0.1717
 5813SOL    HW128901   2.381   1.062   2.454 -0.6650  0.7223 -0.0740
 5813SOL    HW228902   2.390   0.946   2.357  0.3685  0.3386 -2.5315
 5814SOL     OW28903   2.116   0.093   4.974  0.4823 -0.4200  0.1337
 5814SOL    HW128904   2.141   0.049   5.056  1.5914 -2.3752 -1.2608
 5814SOL    HW228905   2.197   0.143   4.966  0.4206 -0.1002  1.5211
 5815SOL     OW28906   1.018   2.797   2.793 -0.0166  0.1365  0.3168
 5815SOL    HW128907   1.091   2.823   2.849  2.7655 -1.7202 -2.4203
 5815SOL    HW228908   1.075   2.773   2.720  0.1280  0.4281  0.3346
 5816SOL     OW28909   3.891   4.387  12.870 -0.1028 -0.0468 -0.4350
 5816SOL    HW128910   3.949   4.351  12.937 -0.5189  2.8444  1.4612
 5816SOL    HW228911   3.949   4.398  12.794  0.8276  1.8750  0.5346
 5817SOL     OW28912   4.474   2.081   6.044  0.7079 -0.1242  0.0479
 5817SOL    HW128913   4.470   2.001   6.097  1.4204  0.1960  0.5803
 5817SOL    HW228914   4.569   2.085   6.036  0.8395 -0.3447  1.3947
 5818SOL     OW28915   0.282   2.126   9.939  0.1085 -0.1398  0.4265
 5818SOL    HW128916   0.264   2.193  10.005  0.7429  1.2044 -0.7586
 5818SOL    HW228917   0.201   2.123   9.887 -1.9798 -1.5509  3.7595
 5819SOL     OW28918   2.030   0.721   0.735  0.0155 -0.1024  0.2748
 5819SOL    HW128919   1.958   0.768   0.693  0.9879 -1.1007 -2.4805
 5819SOL    HW228920   2.058   0.782   0.803  1.4945 -0.2693 -0.1768
 5820SOL     OW28921   1.624   2.769   3.343  0.2448  0.2961  0.9665
 5820SOL    HW128922   1.534   2.745   3.320  0.4766  1.4876 -1.1945
 5820SOL    HW228923   1.608   2.775   3.437 -2.6590  2.9484  0.3085
 5821SOL     OW28924   3.320   1.363   7.156 -0.2343 -0.2039 -0.1692
 5821SOL    HW128925   3.237   1.371   7.109 -0.7487  1.3864  1.0500
 5821SOL    HW228926   3.288   1.313   7.231  0.6845 -1.4020 -0.5654
 5822SOL     OW28927   1.332   3.830  17.629 -0.3649  0.2887 -0.5048
 5822SOL    HW128928   1.297   3.809   0.029 -0.9200  0.7390 -0.6230
 5822SOL    HW228929   1.267   3.889  17.592  0.1134  1.4678  0.5233
 5823SOL     OW28930   2.638   2.414   2.377  0.1868  0.0409  0.1624
 5823SOL    HW128931   2.675   2.424   2.290  1.7733  0.8290  0.9383
 5823SOL    HW228932   2.694   2.345   2.413 -0.1407  0.3693  1.3054
 5824SOL     OW28933   4.406   1.022   4.999 -0.4294  0.1671 -0.3391
 5824SOL    HW128934   4.328   1.019   5.053  0.3373  0.9132  0.8087
 5824SOL    HW228935   4.470   1.018   5.071 -1.7753  0.3255  0.8590
 5825SOL     OW28936   0.709   4.068  10.561  0.2219  0.4156 -0.0049
 5825SOL    HW128937   0.757   4.140  10.603  0.5523  0.3396 -0.2470
 5825SOL    HW228938   0.752   4.077  10.476  0.6582  2.3808  0.4273
 5826SOL     OW28939   2.512   1.706   5.736 -0.6232 -0.0299 -0.9193
 5826SOL    HW128940   2.471   1.707   5.822  2.8381  0.1677  0.7466
 5826SOL    HW228941   2.607   1.703   5.752 -0.8635  0.9405  0.6170
 5827SOL     OW28942   0.798   2.938   6.143  0.1657  0.1988 -0.1167
 5827SOL    HW128943   0.863   3.000   6.112  1.4742 -0.1735  1.8918
 5827SOL    HW228944   0.805   2.858   6.091 -0.3516 -0.7997  1.3100
 5828SOL     OW28945   2.364   3.675   5.165 -0.0286 -0.0690 -0.1313
 5828SOL    HW128946   2.358   3.729   5.244 -0.5775  0.0616 -0.2674
 5828SOL    HW228947   2.409   3.735   5.105 -0.4551  0.5778  0.1986
 5829SOL     OW28948   0.901   0.977   7.301 -0.2035  0.2301 -0.2480
 5829SOL    HW128949   0.972   0.944   7.355 -0.0644 -0.0098 -0.5819
 5829SOL    HW228950   0.823   0.955   7.353 -1.5665  3.1284 -1.0590
 5830SOL     OW28951   3.139   3.319   2.337 -0.1139  0.2328  0.0450
 5830SOL    HW128952   3.106   3.339   2.250  0.8228 -0.4161 -0.4675
 5830SOL    HW228953   3.183   3.399   2.366  1.4545 -1.0885  1.3625
 5831SOL     OW28954   2.118   3.982   2.500 -0.1463 -0.5023 -0.2294
 5831SOL    HW128955   2.051   4.024   2.446  1.1796  1.1197 -0.6140
 5831SOL    HW228956   2.174   4.060   2.504  0.0685 -0.8024  2.8460
 5832SOL     OW28957   1.848   0.104   2.153 -0.4006  0.0671  0.0126
 5832SOL    HW128958   1.913   0.136   2.090  2.3187 -1.3229  2.1129
 5832SOL    HW228959   1.850   0.175   2.217 -2.9566 -0.1931  0.3487
 5833SOL     OW28960   2.783   1.275  17.684  0.1771  0.1592  0.0234
 5833SOL    HW128961   2.831   1.337  17.629 -1.6364  2.1306  0.6715
 5833SOL    HW228962   2.737   1.330   0.061 -1.4165  0.0269 -1.0045
 5834SOL     OW28963   4.220   2.252   5.228 -0.5980 -0.0664  0.4115
 5834SOL    HW128964   4.259   2.311   5.292  0.5506 -0.6398  0.2360
 5834SOL    HW228965   4.192   2.311   5.158  1.4180  2.1851  1.5022
 5835SOL     OW28966   1.652   1.880   9.132 -0.4752  0.4833  0.0066
 5835SOL    HW128967   1.703   1.803   9.109 -1.1582  0.2637 -0.7850
 5835SOL    HW228968   1.582   1.829   9.174 -1.5256  1.9342  0.0369
 5836SOL     OW28969   1.898   4.378   0.184  0.1306 -0.1631  0.0468
 5836SOL    HW128970   1.817   4.429   0.177  0.3665  0.2653  0.4169
 5836SOL    HW228971   1.879   4.315   0.253  0.9842 -3.3414 -2.6544
 5837SOL     OW28972   1.899   0.883  14.493  0.0216  0.2187 -0.0177
 5837SOL    HW128973   1.906   0.945  14.421 -0.7164  0.0588 -0.2271
 5837SOL    HW228974   1.959   0.924  14.556  1.1993 -2.0253  0.3240
 5838SOL     OW28975   2.599   1.955   6.408 -0.3578 -0.0698 -0.3352
 5838SOL    HW128976   2.585   2.040   6.448 -0.3230  0.9116 -2.3707
 5838SOL    HW228977   2.540   1.898   6.458 -0.2936  0.2314  0.0755
 5839SOL     OW28978   2.987   4.008  13.700  0.3015 -0.0609 -0.1300
 5839SOL    HW128979   2.896   3.996  13.727  0.0270 -0.5249 -1.2809
 5839SOL    HW228980   3.018   4.054  13.778  2.2870 -1.1775 -0.2490
 5840SOL     OW28981   0.522   2.513   5.992 -0.7899 -0.3315 -0.1372
 5840SOL    HW128982   0.445   2.503   6.047 -0.9201  1.1067 -0.0579
 5840SOL    HW228983   0.577   2.453   6.042 -3.9547 -1.2728  2.1981
 5841SOL     OW28984   4.601   4.131   2.519  1.2734 -0.9342 -0.7837
 5841SOL    HW128985   4.537   4.069   2.485  0.2840  0.0051 -0.6218
 5841SOL    HW228986   4.586   4.213   2.471  1.3883 -0.9204 -0.7960
 5842SOL     OW28987   3.155   0.464   1.721  0.6986  0.5380 -0.5312
 5842SOL    HW128988   3.131   0.554   1.697  0.5751  1.2291  2.1755
 5842SOL    HW228989   3.195   0.479   1.807  0.6696 -1.5525 -0.1707
 5843SOL     OW28990   3.281   2.898  16.395  0.2288 -0.4072  0.2565
 5843SOL    HW128991   3.266   2.821  16.339  0.5572 -1.0927  1.1078
 5843SOL    HW228992   3.305   2.967  16.333 -3.2514  3.0438  2.7760
 5844SOL     OW28993   2.452   1.945   8.127 -0.5575 -0.6328  0.4870
 5844SOL    HW128994   2.434   2.015   8.064  0.2192 -1.8217 -1.0532
 5844SOL    HW228995   2.545   1.961   8.140 -0.3811  1.0212 -2.8498
 5845SOL     OW28996   1.049   1.576   6.556  0.1706  0.3116  0.3741
 5845SOL    HW128997   1.130   1.528   6.575  1.2172  1.3367 -1.4293
 5845SOL    HW228998   1.051   1.552   6.463 -0.4966  0.3266  0.3565
 5846SOL     OW28999   4.304   4.663  10.191 -0.1833 -0.2377  0.3368
 5846SOL    HW129000   4.295   4.639  10.283 -0.0202 -0.3084  0.3333
 5846SOL    HW229001   4.295   0.038  10.190 -0.5676 -0.2805 -0.0218
 5847SOL     OW29002   1.843   1.192   4.921 -0.1097 -0.1516 -0.0142
 5847SOL    HW129003   1.749   1.180   4.908 -0.4091  0.1543  1.9510
 5847SOL    HW229004   1.868   1.165   4.833  1.0696  0.8550  0.0084
 5848SOL     OW29005   1.965   2.042   3.384  0.2028  0.3780 -0.0929
 5848SOL    HW129006   1.882   2.052   3.432 -1.2383 -0.8520 -2.3313
 5848SOL    HW229007   2.025   2.065   3.455  0.7892 -1.3127 -0.0379
 5849SOL     OW29008   1.368   0.704   5.781 -0.5990  0.1283  0.2531
 5849SOL    HW129009   1.398   0.692   5.871 -0.0457 -0.2400  0.0240
 5849SOL    HW229010   1.437   0.764   5.752  0.0058 -0.4373  0.5233
 5850SOL     OW29011   2.523   1.429   5.687  0.2555  0.3969 -0.7299
 5850SOL    HW129012   2.614   1.422   5.661  0.6918  0.1159  0.8741
 5850SOL    HW229013   2.497   1.521   5.687 -0.1275  0.2819  1.8737
 5851SOL     OW29014   4.100   2.779   3.210 -0.2601  0.1590  0.5329
 5851SOL    HW129015   4.137   2.824   3.285  2.1747 -1.9697  0.5858
 5851SOL    HW229016   4.006   2.770   3.226 -0.6816 -0.0339 -1.9199
 5852SOL     OW29017   0.018   1.883   5.896 -0.4858  0.2696  0.3629
 5852SOL    HW129018   0.102   1.840   5.910 -0.2859  1.2236  2.1182
 5852SOL    HW229019   0.029   1.960   5.951 -1.5800  1.6263 -1.3285
 5853SOL     OW29020   2.758   1.961   8.924  0.1722  0.0013  0.1548
 5853SOL    HW129021   2.781   2.051   8.947  1.9017  0.3843 -3.0686
 5853SOL    HW229022   2.815   1.915   8.985  1.8189 -2.0738 -2.9682
 5854SOL     OW29023   3.100   2.547   5.098 -0.2975 -0.0249 -0.7282
 5854SOL    HW129024   3.129   2.553   5.189 -0.8775 -1.1989 -0.4647
 5854SOL    HW229025   3.057   2.632   5.089 -0.6607 -0.1250  0.0898
 5855SOL     OW29026   2.596   1.638   8.308  0.1386 -0.4905  0.7232
 5855SOL    HW129027   2.601   1.578   8.382 -0.4308  2.0676  2.8212
 5855SOL    HW229028   2.661   1.606   8.245  0.7077  1.5528  0.2757
 5856SOL     OW29029   0.501   1.572   9.059  0.2431 -0.3541  0.4334
 5856SOL    HW129030   0.569   1.632   9.028 -1.4055  0.8585 -0.8192
 5856SOL    HW229031   0.467   1.614   9.138 -1.3424 -0.3079 -0.2621
 5857SOL     OW29032   1.586   3.873   5.457  0.0998 -0.0756 -0.8223
 5857SOL    HW129033   1.676   3.867   5.490 -0.0891 -0.5421 -0.3762
 5857SOL    HW229034   1.533   3.836   5.528  1.1007  1.6493  0.8185
 5858SOL     OW29035   0.683   3.636   6.619 -0.0663  0.2539  0.0020
 5858SOL    HW129036   0.777   3.618   6.628  0.2131 -0.0515 -3.6007
 5858SOL    HW229037   0.686   3.720   6.571  3.5694 -0.7478 -1.5639
 5859SOL     OW29038   4.194   1.947   7.242 -0.4016  0.3549 -0.4142
 5859SOL    HW129039   4.208   1.949   7.337 -0.6980 -3.3932 -0.2928
 5859SOL    HW229040   4.169   2.037   7.223  0.4830  1.3232  2.9892
 5860SOL     OW29041   3.208   1.891   1.832 -0.2665 -0.4561  0.4183
 5860SOL    HW129042   3.235   1.888   1.740 -0.6797  0.2255  0.2699
 5860SOL    HW229043   3.275   1.942   1.878 -0.1630  0.5829 -0.8906
 5861SOL     OW29044   2.964   4.375   5.773  0.1867 -0.2071 -0.2322
 5861SOL    HW129045   2.893   4.392   5.835 -0.2392  0.1710 -0.8182
 5861SOL    HW229046   3.038   4.396   5.830  1.5981 -0.2983 -2.0138
 5862SOL     OW29047   4.283   2.845  15.796  0.5616 -0.1094  0.2160
 5862SOL    HW129048   4.364   2.811  15.835 -1.2777 -0.7176  3.4578
 5862SOL    HW229049   4.294   2.940  15.796 -2.0032  0.1795  0.3872
 5863SOL     OW29050   2.229   0.493   3.720  0.5725 -0.1509 -0.6799
 5863SOL    HW129051   2.290   0.451   3.660  0.9469  0.3956 -0.6884
 5863SOL    HW229052   2.272   0.579   3.715 -0.3747  0.3272 -0.6719
 5864SOL     OW29053   3.181   1.475   3.724  0.3086  0.0313 -0.5597
 5864SOL    HW129054   3.163   1.404   3.785 -1.6934 -0.3725 -1.6079
 5864SOL    HW229055   3.216   1.417   3.655  0.0152 -0.7442 -0.0551
 5865SOL     OW29056   0.589   0.751   8.981  0.0948 -0.2113  0.6035
 5865SOL    HW129057   0.525   0.790   9.041 -0.6704 -1.3617  0.5347
 5865SOL    HW229058   0.668   0.740   9.035  0.4654 -0.7528 -0.0515
 5866SOL     OW29059   3.736   2.151   7.484  0.4395 -0.8522 -0.2420
 5866SOL    HW129060   3.685   2.216   7.532  0.2964  0.6104 -2.3501
 5866SOL    HW229061   3.774   2.197   7.409  1.1108 -1.4208 -0.2500
 5867SOL     OW29062   2.770   0.695   2.239  0.6505  0.5626  0.2142
 5867SOL    HW129063   2.856   0.686   2.199  0.3204 -2.3230  0.1781
 5867SOL    HW229064   2.725   0.614   2.215 -0.3893  0.9930  0.6677
 5868SOL     OW29065   3.675   3.050   1.484  0.0495 -0.0742 -0.1132
 5868SOL    HW129066   3.677   3.081   1.394  0.0382 -0.6834 -0.3203
 5868SOL    HW229067   3.740   2.979   1.488 -1.1503 -1.1084  1.0155
 5869SOL     OW29068   2.735   0.367   0.286  0.2575 -0.5225 -0.2741
 5869SOL    HW129069   2.680   0.391   0.360 -0.1664  0.2097 -0.8350
 5869SOL    HW229070   2.808   0.319   0.325  0.4083 -0.3169 -0.3024
 5870SOL     OW29071   0.861   1.740   7.252  0.2053 -0.5588 -0.2131
 5870SOL    HW129072   0.797   1.692   7.199 -0.1514 -0.8422  0.4767
 5870SOL    HW229073   0.933   1.678   7.247  1.1456  0.5704 -0.6717
 5871SOL     OW29074   2.001   0.196   5.308  0.4794 -0.4621 -0.3849
 5871SOL    HW129075   2.023   0.178   5.399  2.2090 -2.3453 -1.1769
 5871SOL    HW229076   2.081   0.156   5.274  0.7071  0.1247 -0.5481
 5872SOL     OW29077   1.338   4.609   2.459 -0.1244 -0.3475 -0.1231
 5872SOL    HW129078   1.251   4.605   2.500 -0.6450  0.9523 -1.1399
 5872SOL    HW229079   1.343   4.701   2.433  2.0553 -1.3202 -3.1260
 5873SOL     OW29080   4.501   1.656  15.748 -0.1483 -0.1720 -0.6135
 5873SOL    HW129081   4.478   1.569  15.781  2.1822 -0.1116  1.1401
 5873SOL    HW229082   4.590   1.659  15.783 -0.2779  1.5247 -0.4248
 5874SOL     OW29083   3.848   2.527   3.530  0.0730 -0.2360 -0.3259
 5874SOL    HW129084   3.755   2.542   3.546  0.5964  0.0970  2.3530
 5874SOL    HW229085   3.855   2.432   3.519  1.8937 -0.0436 -0.8596
 5875SOL     OW29086   4.510   0.328  11.836  0.4679  0.2873  0.9155
 5875SOL    HW129087   4.448   0.324  11.763  0.4789  0.3295  0.9036
 5875SOL    HW229088   4.592   0.305  11.792 -0.2815 -1.1732  0.2844
 5876SOL     OW29089   3.727   3.208   6.184  0.0136  0.3602 -0.0757
 5876SOL    HW129090   3.767   3.278   6.131 -0.1136 -0.8496 -1.7554
 5876SOL    HW229091   3.714   3.147   6.112  1.9136 -0.3862  0.1992
 5877SOL     OW29092   1.157   4.502   9.556  0.5963 -0.0107  0.5016
 5877SOL    HW129093   1.189   4.438   9.492 -0.2743 -0.2749  0.3401
 5877SOL    HW229094   1.198   4.585   9.531 -0.5724  0.3229 -0.3367
 5878SOL     OW29095   4.680   3.813  11.352 -0.4937  0.0947  0.3039
 5878SOL    HW129096   0.027   3.881  11.350  2.2170 -2.4891  4.6657
 5878SOL    HW229097   0.011   3.743  11.312  1.9708  1.7435  0.5621
 5879SOL     OW29098   4.512   3.838   1.207  0.4175  0.3189 -0.3766
 5879SOL    HW129099   4.447   3.868   1.143 -0.5546  1.2167  1.0387
 5879SOL    HW229100   4.464   3.868   1.283 -0.2243  1.4517 -1.2258
 5880SOL     OW29101   2.781   1.396   5.616 -0.8980  0.3059 -0.0303
 5880SOL    HW129102   2.860   1.395   5.669 -0.6827  1.2480 -0.3220
 5880SOL    HW229103   2.769   1.302   5.619  0.8274  0.1075  0.8088
 5881SOL     OW29104   3.717   1.370  10.728  0.7933  0.3664 -0.4177
 5881SOL    HW129105   3.727   1.464  10.715 -1.9931  0.8963  1.4317
 5881SOL    HW229106   3.731   1.361  10.822  0.8346 -2.8284 -0.7270
 5882SOL     OW29107   3.801   4.159  13.313 -0.0440 -0.0801 -0.1315
 5882SOL    HW129108   3.746   4.214  13.368  1.5801  1.6197 -0.2076
 5882SOL    HW229109   3.890   4.193  13.320  0.4766 -1.3981 -0.3284
 5883SOL     OW29110   2.561   4.575   6.916  0.4940 -0.6368 -0.6221
 5883SOL    HW129111   2.484   4.557   6.862  0.6967 -0.0845 -1.1040
 5883SOL    HW229112   2.603   4.491   6.899 -1.9185 -2.3200  1.6638
 5884SOL     OW29113   3.719   0.765   7.573 -0.6105  0.7596 -0.5055
 5884SOL    HW129114   3.764   0.772   7.489  0.4236  0.7208  0.0422
 5884SOL    HW229115   3.741   0.848   7.614  2.1867  1.1488 -2.7628
 5885SOL     OW29116   2.969   3.726   4.805 -0.5025 -0.2223 -0.1333
 5885SOL    HW129117   2.949   3.797   4.744 -1.6761 -1.6471 -1.3956
 5885SOL    HW229118   2.903   3.662   4.780  0.9353 -0.3141 -3.7574
 5886SOL     OW29119   4.501   2.651  14.617  0.0671  0.5459  0.3130
 5886SOL    HW129120   4.458   2.737  14.617 -0.5960  0.2123  0.4715
 5886SOL    HW229121   4.592   2.674  14.637  0.4677 -0.9268  0.1522
 5887SOL     OW29122   1.327   0.068   4.145 -0.7029  1.1010  0.0412
 5887SOL    HW129123   1.343   0.162   4.143  2.0516  0.6724  1.7103
 5887SOL    HW229124   1.403   0.034   4.192 -1.4893  1.5761  1.6278
 5888SOL     OW29125   2.319   2.640   1.424 -0.1961 -0.8498 -0.0028
 5888SOL    HW129126   2.395   2.606   1.470 -1.2830 -0.0642  2.3498
 5888SOL    HW229127   2.310   2.580   1.350  1.6877  0.8324 -1.6155
 5889SOL     OW29128   4.690   0.105  10.378 -1.1040  0.1920  0.4473
 5889SOL    HW129129   4.676   0.048  10.302  2.3535 -0.9608  0.6910
 5889SOL    HW229130   4.714   0.039  10.443  0.4077  0.4057  0.1042
 5890SOL     OW29131   3.113   4.446   7.943  0.4947 -0.3831  0.4314
 5890SOL    HW129132   3.096   4.352   7.949  0.3915 -0.4609 -1.0807
 5890SOL    HW229133   3.096   4.457   7.849  1.2096  2.2306  0.5961
 5891SOL     OW29134   1.175   2.428  11.931  0.2559 -0.4972 -0.3640
 5891SOL    HW129135   1.126   2.347  11.948 -1.0015  0.5843  1.1393
 5891SOL    HW229136   1.173   2.424  11.835 -1.9590  0.1068 -0.3519
 5892SOL     OW29137   2.022   0.101  12.259  0.1175  0.1199 -0.2918
 5892SOL    HW129138   2.079   0.092  12.336 -0.8435  2.2675  0.6703
 5892SOL    HW229139   1.962   0.174  12.273  0.3576  0.4542 -1.0152
 5893SOL     OW29140   1.840   2.109  12.206 -0.0406 -0.2647 -0.0595
 5893SOL    HW129141   1.842   2.178  12.273 -0.2481 -2.3524  2.0985
 5893SOL    HW229142   1.908   2.057  12.248  0.4724 -0.5141 -1.2104
 5894SOL     OW29143   2.073   1.979   4.848 -0.0551 -0.3019 -0.1402
 5894SOL    HW129144   2.115   2.021   4.922  0.1464 -1.3269  0.3265
 5894SOL    HW229145   2.114   1.893   4.857 -0.8044 -0.8407 -1.7296
 5895SOL     OW29146   0.594   0.857   9.412 -0.1016  0.7557  0.6520
 5895SOL    HW129147   0.683   0.885   9.392 -0.8813  0.5925 -3.0285
 5895SOL    HW229148   0.553   0.890   9.332  0.4432 -1.1295 -0.4038
 5896SOL     OW29149   2.177   2.941   2.206 -0.2899  0.3419  0.0261
 5896SOL    HW129150   2.245   2.971   2.147 -1.5080 -0.1246 -1.5997
 5896SOL    HW229151   2.214   2.861   2.243  1.7097  1.3211  0.1270
 5897SOL     OW29152   3.640   4.618  11.963  0.2343 -1.0436  0.0760
 5897SOL    HW129153   3.652   4.681  12.034  0.0680 -0.5398 -0.3416
 5897SOL    HW229154   3.719   4.634  11.913 -1.0511  1.2798 -1.2262
 5898SOL     OW29155   2.490   4.245  13.350 -0.4553  0.1971  0.3722
 5898SOL    HW129156   2.561   4.308  13.337 -0.4910 -0.2996 -2.2021
 5898SOL    HW229157   2.529   4.177  13.404  0.3529  0.0985 -0.3398
 5899SOL     OW29158   0.335   3.156   2.540 -0.2790 -0.0616  0.1332
 5899SOL    HW129159   0.297   3.068   2.539 -1.1532  0.3015  1.4580
 5899SOL    HW229160   0.265   3.201   2.491  1.5278  2.9265  0.2958
 5900SOL     OW29161   0.708   4.195  12.551  0.3390  0.6082 -0.1773
 5900SOL    HW129162   0.747   4.231  12.630 -1.6969  0.0245  1.0978
 5900SOL    HW229163   0.741   4.105  12.550  1.1434  0.8984  0.9037
 5901SOL     OW29164   1.394   2.203   3.177  0.9964  0.3217  0.7035
 5901SOL    HW129165   1.412   2.296   3.170 -1.2627  0.4959 -2.5441
 5901SOL    HW229166   1.298   2.198   3.177  1.0219 -0.1727 -2.0406
 5902SOL     OW29167   3.340   0.164   3.762  0.0519  0.1459 -0.5354
 5902SOL    HW129168   3.419   0.204   3.799  0.4707 -1.2026  0.0344
 5902SOL    HW229169   3.324   0.215   3.683 -1.9671  0.1459 -0.1202
 5903SOL     OW29170   2.873   3.166   0.131  0.4474  0.2481  0.2045
 5903SOL    HW129171   2.877   3.074   0.157  0.2435  0.0003 -0.6275
 5903SOL    HW229172   2.780   3.176   0.149  0.3559 -0.1838 -0.0488
 5904SOL     OW29173   1.497   1.546   7.730 -0.2884 -0.3566  0.7743
 5904SOL    HW129174   1.542   1.583   7.807 -1.8934  1.5392  0.8064
 5904SOL    HW229175   1.563   1.511   7.670  1.7489  2.8526  1.1486
 5905SOL     OW29176   3.080   4.348  10.204  0.0157 -0.0851 -0.7234
 5905SOL    HW129177   3.030   4.321  10.282 -0.2102 -0.7124 -1.0857
 5905SOL    HW229178   3.120   4.264  10.180  1.4362  0.4046 -0.1051
 5906SOL     OW29179   3.512   1.451   6.715  0.0210  0.3469  0.0518
 5906SOL    HW129180   3.529   1.396   6.791 -2.0177  0.4600  0.5852
 5906SOL    HW229181   3.472   1.388   6.655  0.5479  0.8163 -0.8067
 5907SOL     OW29182   0.635   1.281  10.217 -1.0187 -0.0954 -0.2046
 5907SOL    HW129183   0.651   1.207  10.158  1.1792  0.8437 -0.7976
 5907SOL    HW229184   0.708   1.343  10.213 -1.8218  0.9220  1.0039
 5908SOL     OW29185   4.694   2.504  10.214  0.5025  0.3031 -0.5953
 5908SOL    HW129186   4.718   2.505  10.307  0.0011 -1.4734 -0.4343
 5908SOL    HW229187   4.674   2.412  10.200  0.2958  0.2594 -0.0153
 5909SOL     OW29188   4.314   4.374   3.758  0.5249 -1.0881 -0.1329
 5909SOL    HW129189   4.364   4.422   3.692  1.0584  0.3160  1.3163
 5909SOL    HW229190   4.338   4.416   3.840  1.6665 -0.3167 -0.8635
 5910SOL     OW29191   2.515   1.916   6.696 -0.0563 -0.4523 -0.1015
 5910SOL    HW129192   2.600   1.913   6.740 -0.2768  0.6591  0.3870
 5910SOL    HW229193   2.485   1.825   6.706  0.3363 -0.6285 -0.5015
 5911SOL     OW29194   1.733   3.388  14.882 -0.4520 -0.2895  0.1382
 5911SOL    HW129195   1.801   3.423  14.825 -1.3538  2.2854  0.6230
 5911SOL    HW229196   1.720   3.303  14.841  1.7189 -0.5899  0.0675
 5912SOL     OW29197   0.865   4.218   8.986  1.0269 -0.0875  0.8033
 5912SOL    HW129198   0.919   4.296   8.997  2.0789 -0.8366  1.0200
 5912SOL    HW229199   0.905   4.190   8.903  0.4664  0.1889  0.4424
 5913SOL     OW29200   2.165   4.217   4.009 -0.7254  0.3554 -0.3779
 5913SOL    HW129201   2.221   4.183   3.938 -0.4755  1.4637 -0.7139
 5913SOL    HW229202   2.228   4.241   4.077  0.8027 -1.8850 -1.0072
 5914SOL     OW29203   2.760   2.480   8.116 -0.2578  0.5079 -0.0322
 5914SOL    HW129204   2.793   2.570   8.123  1.7042 -0.3484  1.6268
 5914SOL    HW229205   2.744   2.482   8.022 -2.5589 -3.4658  0.3052
 5915SOL     OW29206   0.230   1.190   2.899  0.2103  0.5086 -0.0099
 5915SOL    HW129207   0.282   1.142   2.963 -0.2603 -1.3284 -0.9933
 5915SOL    HW229208   0.144   1.200   2.938  0.0432  3.2427 -1.0131
 5916SOL     OW29209   4.585   1.146   8.240 -0.1240  0.0237  0.1928
 5916SOL    HW129210   4.591   1.127   8.146  0.1384 -1.2715  0.4778
 5916SOL    HW229211   4.679   1.158   8.256  0.1319 -1.1141 -0.4632
 5917SOL     OW29212   4.201   2.695  12.886  0.3634 -0.8870 -0.1064
 5917SOL    HW129213   4.243   2.680  12.971 -1.9720 -0.1203  1.1818
 5917SOL    HW229214   4.116   2.654  12.898 -0.4976  0.2001 -2.3381
 5918SOL     OW29215   3.327   2.242   3.946  0.1239  0.0814  0.1448
 5918SOL    HW129216   3.279   2.264   3.866  1.7635  1.4972 -0.4477
 5918SOL    HW229217   3.350   2.330   3.974 -0.0411  0.6299 -1.4474
 5919SOL     OW29218   4.199   2.475   7.777 -0.6169  0.6226  0.4002
 5919SOL    HW129219   4.149   2.394   7.787  1.3695 -0.7433 -0.7732
 5919SOL    HW229220   4.237   2.446   7.694  1.3471  0.4812  1.3518
 5920SOL     OW29221   2.485   4.092  17.628  0.1952 -0.2428  0.0613
 5920SOL    HW129222   2.468   4.061   0.031 -0.0704  0.3411  0.2074
 5920SOL    HW229223   2.463   4.008  17.586 -1.2691  1.2040 -2.0304
 5921SOL     OW29224   2.846   1.525  12.199 -0.1835  0.1026  0.4259
 5921SOL    HW129225   2.867   1.618  12.206 -3.2476  0.6144  2.8381
 5921SOL    HW229226   2.840   1.513  12.294  1.0628 -0.7286  0.3976
 5922SOL     OW29227   2.164   1.135   5.313  0.1693 -0.2502  0.1317
 5922SOL    HW129228   2.257   1.136   5.336  0.6545 -0.2795 -1.8474
 5922SOL    HW229229   2.170   1.202   5.245 -3.5151  1.5890  1.6052
 5923SOL     OW29230   3.372   4.006   9.272  0.4872  0.3436 -0.1401
 5923SOL    HW129231   3.439   4.054   9.320 -1.3830  2.0246  0.7952
 5923SOL    HW229232   3.291   4.055   9.282  0.7786  0.0903  3.6185
 5924SOL     OW29233   3.355   0.758   7.144 -0.4296  0.1008  0.1212
 5924SOL    HW129234   3.277   0.715   7.107  0.8235 -0.9263 -1.3240
 5924SOL    HW229235   3.424   0.741   7.080  0.5528 -0.9080  1.4481
 5925SOL     OW29236   1.948   3.464   5.069  0.3446  0.6632  0.4876
 5925SOL    HW129237   1.962   3.551   5.106 -0.7910  0.8944  0.3743
 5925SOL    HW229238   1.917   3.491   4.983  1.3251  1.5822  0.4198
 5926SOL     OW29239   0.283   1.825   8.962  0.2782  0.1617 -0.1522
 5926SOL    HW129240   0.312   1.908   9.001  0.6844 -0.1321  0.1680
 5926SOL    HW229241   0.270   1.785   9.048  1.9504 -0.9418 -0.4105
 5927SOL     OW29242   3.616   3.855   8.093  0.3807  0.3253  0.1941
 5927SOL    HW129243   3.556   3.783   8.116 -1.1356  0.7770 -2.3772
 5927SOL    HW229244   3.658   3.816   8.017  0.5744  2.6660 -0.8938
 5928SOL     OW29245   4.286   1.431   1.027  0.6832  0.1144 -0.0373
 5928SOL    HW129246   4.212   1.425   1.086  1.4518 -2.0303  0.7170
 5928SOL    HW229247   4.260   1.515   0.989  0.0466 -0.0897 -0.0561
 5929SOL     OW29248   4.391   2.133   9.426 -0.4586  0.0938 -0.2697
 5929SOL    HW129249   4.380   2.098   9.338  0.1008 -0.6155 -0.0613
 5929SOL    HW229250   4.424   2.219   9.400  0.6942 -0.3251 -0.2212
 5930SOL     OW29251   3.281   1.280   1.774 -0.3443  0.2409 -0.1822
 5930SOL    HW129252   3.242   1.299   1.859 -0.7489 -0.1422 -0.2842
 5930SOL    HW229253   3.232   1.200   1.755 -2.7727  1.8440 -0.7222
 5931SOL     OW29254   2.922   3.124  14.658  0.8239 -0.0759  0.4856
 5931SOL    HW129255   2.842   3.168  14.685 -0.0844 -0.4706 -1.5792
 5931SOL    HW229256   2.879   3.039  14.651  0.5002 -0.0632  2.3496
 5932SOL     OW29257   3.382   3.939  14.921 -0.6447 -0.2373 -0.2407
 5932SOL    HW129258   3.418   3.854  14.899  2.5004  0.6370  1.5132
 5932SOL    HW229259   3.421   3.955  15.007  0.8942  2.1950 -1.3925
 5933SOL     OW29260   3.513   0.480   5.198 -0.0249 -0.1885  0.0018
 5933SOL    HW129261   3.485   0.533   5.273  0.6484 -0.5591  0.5247
 5933SOL    HW229262   3.434   0.447   5.157 -1.6411  2.3681  1.0299
 5934SOL     OW29263   3.533   3.114  15.055  0.5497  0.0799 -0.0211
 5934SOL    HW129264   3.587   3.052  15.104 -0.0352  0.4992  1.1567
 5934SOL    HW229265   3.451   3.071  15.077 -0.3288  0.8817 -1.7352
 5935SOL     OW29266   2.725   0.150   6.431 -0.2191 -0.2950  0.0495
 5935SOL    HW129267   2.819   0.135   6.437  0.3646  2.6459 -1.7611
 5935SOL    HW229268   2.706   0.067   6.388 -0.3299 -0.7519  0.9829
 5936SOL     OW29269   3.713   1.064   0.228 -0.5307 -0.0444  0.1826
 5936SOL    HW129270   3.708   1.158   0.214 -2.5151 -0.4403 -1.8344
 5936SOL    HW229271   3.796   1.055   0.275 -0.9313 -0.8663  0.7324
 5937SOL     OW29272   2.089   4.177  13.362 -0.1716 -0.1648  0.0317
 5937SOL    HW129273   2.121   4.243  13.423 -0.8989  0.0363  0.1875
 5937SOL    HW229274   2.023   4.142  13.422  0.2321  1.3015  1.3336
 5938SOL     OW29275   0.883   2.332   1.117  0.5460  0.3712  0.9800
 5938SOL    HW129276   0.949   2.395   1.085 -0.0515  0.9424  0.8693
 5938SOL    HW229277   0.927   2.301   1.197 -0.9642  0.8465  1.9939
 5939SOL     OW29278   1.672   3.844   2.967 -0.5459  0.1137 -0.3714
 5939SOL    HW129279   1.651   3.920   3.021  0.0554 -0.8876  1.2717
 5939SOL    HW229280   1.757   3.866   2.930 -0.8706  1.2942 -0.4090
 5940SOL     OW29281   2.132   1.145  11.867  0.1557  0.0480 -0.0082
 5940SOL    HW129282   2.203   1.177  11.923  0.8998 -3.0861  0.8366
 5940SOL    HW229283   2.095   1.230  11.844 -3.1647 -0.6236  2.9602
 5941SOL     OW29284   0.297   0.929   8.034 -0.1473 -0.1292  0.5867
 5941SOL    HW129285   0.201   0.925   8.041 -0.0041  0.1454  2.7000
 5941SOL    HW229286   0.321   0.843   8.067 -1.3058 -0.4290  0.6681
 5942SOL     OW29287   0.079   2.848  11.531 -0.0113  0.0893  0.5493
 5942SOL    HW129288   0.011   2.895  11.580 -1.2603  0.5399 -1.6131
 5942SOL    HW229289   0.152   2.909  11.539 -0.6575  1.0248 -0.8054
 5943SOL     OW29290   3.278   0.376   3.562  0.1820  0.6818 -0.0607
 5943SOL    HW129291   3.199   0.423   3.589 -1.4500 -3.6554  2.6496
 5943SOL    HW229292   3.235   0.319   3.499  0.1235  1.5846 -0.8502
 5944SOL     OW29293   2.517   0.854   3.242  0.0947  0.1766  0.5276
 5944SOL    HW129294   2.426   0.837   3.220  0.6247  1.2043 -2.4114
 5944SOL    HW229295   2.549   0.764   3.248  2.9705  1.0640 -1.5644
 5945SOL     OW29296   1.496   0.516  12.801 -0.3754  0.9512 -0.0058
 5945SOL    HW129297   1.434   0.581  12.833 -3.0604 -1.6536  0.0666
 5945SOL    HW229298   1.444   0.471  12.734 -0.3864 -0.0246  0.6616
 5946SOL     OW29299   4.103   1.343   0.270  0.3871 -0.2896 -0.2971
 5946SOL    HW129300   4.019   1.307   0.296  0.1160 -0.0454 -0.8274
 5946SOL    HW229301   4.077   1.428   0.232 -0.9615 -0.4873  0.1894
 5947SOL     OW29302   2.268   1.691   6.804  0.2175 -0.0761 -0.0339
 5947SOL    HW129303   2.201   1.639   6.759 -0.3427  0.0525  0.6670
 5947SOL    HW229304   2.323   1.617   6.829  0.9688  0.9943  1.4511
 5948SOL     OW29305   1.814   0.311  12.792 -0.3276 -0.1414 -0.3701
 5948SOL    HW129306   1.900   0.324  12.753  0.2649  1.1840  1.4122
 5948SOL    HW229307   1.786   0.401  12.777  0.3991  0.0859 -0.3300
 5949SOL     OW29308   0.618   3.416   8.354 -0.2050  0.2323  0.0018
 5949SOL    HW129309   0.669   3.484   8.399 -0.1520  1.8421 -2.4720
 5949SOL    HW229310   0.636   3.334   8.399 -0.7948  0.0127 -0.1562
 5950SOL     OW29311   4.064   4.531   8.583  0.0663 -0.0080 -0.0149
 5950SOL    HW129312   4.040   4.466   8.518 -0.7922  0.0102  0.2760
 5950SOL    HW229313   3.979   4.571   8.603 -1.1611 -1.3991 -2.4652
 5951SOL     OW29314   4.126   3.226   4.941  0.2394 -0.2486  0.2521
 5951SOL    HW129315   4.153   3.142   4.976  2.4491 -0.3439 -1.6749
 5951SOL    HW229316   4.200   3.285   4.960  1.5265 -2.0123  0.7128
 5952SOL     OW29317   1.514   1.587   6.684  0.3407 -0.1697 -0.0910
 5952SOL    HW129318   1.515   1.649   6.756  1.0196  0.8652 -0.9992
 5952SOL    HW229319   1.481   1.516   6.739 -0.3783 -1.5681 -2.2804
 5953SOL     OW29320   3.966   0.507   1.472 -0.1330 -0.1606  0.1966
 5953SOL    HW129321   4.017   0.534   1.396 -0.4317  0.2004  0.1232
 5953SOL    HW229322   4.029   0.471   1.534 -0.0114  3.3344  2.0974
 5954SOL     OW29323   2.414   3.609   9.891 -0.0989  0.1806 -0.3565
 5954SOL    HW129324   2.409   3.705   9.900  0.8031  0.2810 -0.9590
 5954SOL    HW229325   2.365   3.579   9.967  0.3950  0.6786  0.1605
 5955SOL     OW29326   3.972   0.985  16.107 -0.0114  0.4713  0.0881
 5955SOL    HW129327   3.934   0.952  16.189  3.0240 -0.2345  1.2119
 5955SOL    HW229328   4.056   0.938  16.105 -0.1016  0.2909  0.5052
 5956SOL     OW29329   2.601   3.129  15.312  0.1257  0.7625  0.0174
 5956SOL    HW129330   2.530   3.072  15.341  1.1492 -0.1722  0.6569
 5956SOL    HW229331   2.558   3.211  15.287 -1.2205  0.1588  0.3750
 5957SOL     OW29332   2.242   3.455   5.066  0.2221 -0.8525  0.6253
 5957SOL    HW129333   2.149   3.449   5.045 -0.0070 -0.0221  1.4568
 5957SOL    HW229334   2.244   3.530   5.125  0.9295 -0.9696  0.7530
 5958SOL     OW29335   1.859   1.241  14.182  0.0191 -0.2816 -0.1383
 5958SOL    HW129336   1.867   1.334  14.159  1.6396 -0.7021 -1.2595
 5958SOL    HW229337   1.885   1.206  14.097 -0.3914 -0.8821 -0.0179
 5959SOL     OW29338   3.859   1.298   4.098 -0.1194 -0.3794  0.0155
 5959SOL    HW129339   3.898   1.240   4.033  2.5248  2.5472 -0.9773
 5959SOL    HW229340   3.823   1.361   4.036  1.6893 -0.3064 -0.9283
 5960SOL     OW29341   2.502   3.942   3.033  0.1877  0.1015 -0.1930
 5960SOL    HW129342   2.482   3.854   3.003  0.8932 -0.3151  0.5419
 5960SOL    HW229343   2.537   3.984   2.955  0.8795 -0.4646 -0.1832
 5961SOL     OW29344   0.067   4.368  15.957 -1.2490  0.1626 -0.1498
 5961SOL    HW129345   0.148   4.418  15.955 -1.3596  0.3301 -0.4864
 5961SOL    HW229346   0.094   4.278  15.975 -1.5561  0.1894  0.4295
 5962SOL     OW29347   0.188   3.978   6.169 -0.0088  0.2363 -0.0531
 5962SOL    HW129348   0.239   3.976   6.089 -1.5885 -0.3597 -1.0581
 5962SOL    HW229349   0.224   4.060   6.202  2.1709 -0.8821  0.3087
 5963SOL     OW29350   0.024   4.088  15.193 -0.5251  0.6009  0.3283
 5963SOL    HW129351   4.679   4.135  15.141  0.8945  1.6652 -0.5037
 5963SOL    HW229352   0.069   4.153  15.247  1.7127  0.0081 -0.8253
 5964SOL     OW29353   0.363   0.966   2.994  0.2111 -0.2137  0.1470
 5964SOL    HW129354   0.405   0.884   3.018  0.0479  0.0237  1.2597
 5964SOL    HW229355   0.412   0.998   2.919  1.2274 -0.0907  0.8686
 5965SOL     OW29356   3.426   0.851   0.476 -0.3238  0.5419  0.0855
 5965SOL    HW129357   3.477   0.897   0.544 -2.2679  0.6168  1.4884
 5965SOL    HW229358   3.373   0.792   0.529 -0.7127 -0.2511 -1.2050
 5966SOL     OW29359   3.075   3.154   3.687 -0.2656 -0.2017 -0.5695
 5966SOL    HW129360   2.987   3.115   3.686 -0.0137 -0.8016  0.6437
 5966SOL    HW229361   3.123   3.087   3.639  2.2751  1.0456  0.2520
 5967SOL     OW29362   1.235   2.201   7.970  0.6163  0.1997  0.0409
 5967SOL    HW129363   1.272   2.188   7.883  0.7026  0.4670  0.0387
 5967SOL    HW229364   1.301   2.163   8.027  0.4602 -1.0252 -0.5918
 5968SOL     OW29365   2.764   0.654   6.587 -0.3042  0.3083  0.5888
 5968SOL    HW129366   2.749   0.627   6.496 -2.4681  1.6689  0.5358
 5968SOL    HW229367   2.677   0.681   6.617  0.4619  2.0965  1.2090
 5969SOL     OW29368   1.755   0.018   6.984 -0.6108  0.0423  0.1434
 5969SOL    HW129369   1.737   0.052   7.072 -1.2145 -3.4741  1.3953
 5969SOL    HW229370   1.785   4.650   7.000 -0.1777  0.2429  0.4241
 5970SOL     OW29371   0.307   1.287   8.016 -0.1487  0.1909 -0.5062
 5970SOL    HW129372   0.229   1.330   7.981  0.2909  1.7497  0.4504
 5970SOL    HW229373   0.313   1.304   8.110 -1.1224  0.7429 -0.5390
 5971SOL     OW29374   3.992   3.123   1.791  0.1737  0.7313  0.2855
 5971SOL    HW129375   3.955   3.110   1.879  0.5740 -0.3915  0.2820
 5971SOL    HW229376   4.058   3.054   1.784 -2.0560 -1.3483  0.0707
 5972SOL     OW29377   0.104   2.158   9.267 -0.3940 -0.2341  0.0835
 5972SOL    HW129378   0.082   2.208   9.345 -2.7656 -2.3567  0.7471
 5972SOL    HW229379   0.046   2.084   9.285  1.0617 -1.1080  1.1367
 5973SOL     OW29380   2.443   2.993   0.406 -0.1693 -0.1348 -0.3722
 5973SOL    HW129381   2.466   3.084   0.424  1.8679 -0.7156 -0.0263
 5973SOL    HW229382   2.368   2.987   0.466 -1.5478  2.0094 -1.8796
 5974SOL     OW29383   3.886   4.057   2.082  0.0449  0.4167  0.1123
 5974SOL    HW129384   3.874   3.963   2.068  0.7666  0.3536 -0.0718
 5974SOL    HW229385   3.800   4.077   2.119 -0.6388 -2.0685 -0.1250
 5975SOL     OW29386   1.792   3.519   8.438  0.4391 -0.2760  0.2381
 5975SOL    HW129387   1.766   3.526   8.346 -1.9823  2.4189  1.1217
 5975SOL    HW229388   1.837   3.435   8.443 -1.1164 -0.9967  2.1997
 5976SOL     OW29389   3.111   0.245   3.392 -0.3339 -0.4619 -0.3875
 5976SOL    HW129390   3.092   0.337   3.377 -0.8333 -0.4013  0.6227
 5976SOL    HW229391   3.155   0.216   3.312 -0.5971 -2.6237  0.2275
 5977SOL     OW29392   3.936   1.085   8.052 -0.1979 -0.0455  0.3163
 5977SOL    HW129393   3.847   1.104   8.022 -0.1334  0.6754  0.6037
 5977SOL    HW229394   3.903   1.067   8.140 -1.5919 -1.3735 -0.4653
 5978SOL     OW29395   1.487   3.432   6.980 -0.2731 -0.7132  0.1774
 5978SOL    HW129396   1.496   3.349   6.933  1.3129 -0.7557  0.5478
 5978SOL    HW229397   1.401   3.459   6.948  1.2937  2.8572 -0.9630
 5979SOL     OW29398   4.390   0.752   2.615 -0.6453 -0.4611 -0.4185
 5979SOL    HW129399   4.438   0.835   2.615  3.2068 -2.6895  0.6102
 5979SOL    HW229400   4.398   0.727   2.523  0.8380  0.6430 -0.5798
 5980SOL     OW29401   3.456   2.299   7.164  0.3757  0.1017 -0.4071
 5980SOL    HW129402   3.513   2.348   7.224 -0.1110  0.9376 -0.6203
 5980SOL    HW229403   3.421   2.378   7.124  0.3613  0.8766  1.1154
 5981SOL     OW29404   1.684   0.124  15.389 -0.2317 -0.5713  0.3579
 5981SOL    HW129405   1.623   0.050  15.398 -1.6394  0.6620  1.0939
 5981SOL    HW229406   1.692   0.143  15.483  0.5351  1.2634 -0.0821
 5982SOL     OW29407   3.701   3.507   7.086 -0.0716  0.2162  0.3901
 5982SOL    HW129408   3.710   3.449   7.010  3.8003 -0.2998  1.2857
 5982SOL    HW229409   3.640   3.459   7.142  1.0540 -2.2481 -0.4763
 5983SOL     OW29410   0.340   0.898  13.199 -0.3460 -0.8587  0.0523
 5983SOL    HW129411   0.318   0.982  13.158 -0.5560 -0.2850  1.3264
 5983SOL    HW229412   0.339   0.921  13.292 -1.0832  1.3476 -0.5055
 5984SOL     OW29413   0.965   4.647  12.113  0.0074  0.1267  0.5052
 5984SOL    HW129414   0.880   4.637  12.070 -1.7715  0.7403  3.8928
 5984SOL    HW229415   0.972   0.022  12.111  0.1792  0.0776 -0.9640
 5985SOL     OW29416   0.021   2.206   8.770 -0.4348 -0.2150  0.0454
 5985SOL    HW129417   0.011   2.115   8.799 -0.5340 -0.2655 -0.1514
 5985SOL    HW229418   0.068   2.246   8.843  0.7978 -1.6351  0.0328
 5986SOL     OW29419   3.142   3.706   6.108  0.2579 -0.1689  0.0198
 5986SOL    HW129420   3.229   3.706   6.068  1.3869 -0.9223  2.4854
 5986SOL    HW229421   3.159   3.711   6.202  0.4720  1.4177 -0.1058
 5987SOL     OW29422   1.018   4.110   4.127 -0.1096 -0.0704  0.4943
 5987SOL    HW129423   1.085   4.173   4.102  0.1276 -0.6958 -0.4061
 5987SOL    HW229424   0.975   4.093   4.043  0.9237 -0.5683  0.0735
 5988SOL     OW29425   4.088   3.666   8.438 -0.4074  0.3247  0.0150
 5988SOL    HW129426   4.176   3.669   8.477 -0.1311 -0.7568 -0.5260
 5988SOL    HW229427   4.030   3.690   8.510 -0.2365  0.1770  0.2039
 5989SOL     OW29428   2.385   2.157   0.383 -0.0208 -0.3281 -0.2250
 5989SOL    HW129429   2.470   2.161   0.427  0.3105 -0.9332 -0.8015
 5989SOL    HW229430   2.331   2.212   0.439  0.5863 -0.7596  0.7993
 5990SOL     OW29431   3.938   2.582   6.575  0.2034  0.3414  0.0230
 5990SOL    HW129432   3.893   2.658   6.612  1.3986  0.8337  0.4846
 5990SOL    HW229433   4.029   2.586   6.606 -0.3652  2.4653  1.4306
 5991SOL     OW29434   2.871   0.498   5.855  0.0965 -0.1626  0.3011
 5991SOL    HW129435   2.908   0.537   5.776 -0.9350 -0.6238 -0.4177
 5991SOL    HW229436   2.890   0.571   5.914  0.5377  0.5795 -0.7577
 5992SOL     OW29437   0.645   4.489  10.230  0.0463  0.4692  0.2375
 5992SOL    HW129438   0.625   4.485  10.324 -0.9618  0.7141  0.0247
 5992SOL    HW229439   0.735   4.522  10.238 -0.3561  1.9104 -1.2524
 5993SOL     OW29440   0.068   2.184   5.360  0.3311 -0.5916  0.6968
 5993SOL    HW129441   0.101   2.123   5.294 -1.1259 -0.6746  0.0307
 5993SOL    HW229442   4.694   2.183   5.346  0.3831 -0.4647  0.3374
 5994SOL     OW29443   0.304   3.153   1.679  0.1860 -0.7906  0.2167
 5994SOL    HW129444   0.241   3.152   1.606  0.5412  0.4360 -0.1147
 5994SOL    HW229445   0.371   3.098   1.638 -0.4867 -2.4078  1.3085
 5995SOL     OW29446   0.816   0.215   2.423 -0.0344  0.1713 -0.1833
 5995SOL    HW129447   0.789   0.125   2.445 -0.2993  0.1172 -0.7184
 5995SOL    HW229448   0.736   0.252   2.460 -0.1647 -1.9361  1.6231
 5996SOL     OW29449   2.703   2.311   1.627  0.0426 -0.0854  0.3159
 5996SOL    HW129450   2.678   2.252   1.698 -2.4396 -1.5176 -1.7501
 5996SOL    HW229451   2.792   2.327   1.658 -0.3016  1.3140  0.6035
 5997SOL     OW29452   2.936   0.811   1.734 -0.3344  0.3958  0.1449
 5997SOL    HW129453   3.018   0.805   1.782  0.2811 -0.5604 -1.0333
 5997SOL    HW229454   2.948   0.746   1.664  1.0496  1.1231 -0.2770
 5998SOL     OW29455   2.305   3.153  14.796  0.1951 -0.1609  0.4449
 5998SOL    HW129456   2.354   3.112  14.868 -2.0498  0.0333  2.0741
 5998SOL    HW229457   2.308   3.080  14.734  2.9594  0.7464 -0.5011
 5999SOL     OW29458   4.180   1.992   3.554 -0.2372 -0.0035  0.1654
 5999SOL    HW129459   4.274   1.972   3.558 -0.2406  0.3310  2.1105
 5999SOL    HW229460   4.179   2.067   3.494 -1.3168 -1.7135 -1.9608
 6000SOL     OW29461   1.174   3.192   7.795 -0.1565  0.3370  0.1954
 6000SOL    HW129462   1.124   3.263   7.756  0.8411  0.4971 -0.7816
 6000SOL    HW229463   1.154   3.197   7.889 -0.5912  2.4045 -0.0156
 6001SOL     OW29464   4.376   3.199  10.273  0.2366  0.3915  0.4990
 6001SOL    HW129465   4.334   3.154  10.200  4.2893 -1.5788 -0.6561
 6001SOL    HW229466   4.419   3.277  10.239  0.9689 -0.2376 -0.0414
 6002SOL     OW29467   0.899   1.408  12.716 -0.0713  0.0455  0.4376
 6002SOL    HW129468   0.887   1.410  12.811  2.5491 -1.7900  0.8109
 6002SOL    HW229469   0.892   1.500  12.691 -1.0586  0.1635  1.0949
 6003SOL     OW29470   3.758   0.674   4.686  0.4655 -0.6593  0.2474
 6003SOL    HW129471   3.818   0.664   4.612  0.1074  2.7015 -0.4752
 6003SOL    HW229472   3.816   0.681   4.762 -1.1596 -0.5996  1.4679
 6004SOL     OW29473   2.134   3.243  17.614 -0.0326 -0.4630 -0.0398
 6004SOL    HW129474   2.160   3.264  17.524 -0.2814  0.1058  0.0211
 6004SOL    HW229475   2.060   3.304  17.625  1.4704  0.8412  2.8418
 6005SOL     OW29476   2.165   4.020  12.702 -0.6095 -0.3128 -0.0190
 6005SOL    HW129477   2.240   4.025  12.644  0.8772  0.9782  2.0150
 6005SOL    HW229478   2.171   4.078  12.779 -0.7971  1.2905 -1.2128
 6006SOL     OW29479   0.026   2.880  11.266  0.1082 -0.3876 -0.0269
 6006SOL    HW129480   4.658   2.845  11.266  0.6684 -1.8115  1.3284
 6006SOL    HW229481   0.045   2.862  11.358  1.1571  0.0738 -0.1544
 6007SOL     OW29482   2.812   3.397   3.074 -0.0789  0.1914 -0.7150
 6007SOL    HW129483   2.900   3.421   3.045 -1.1270  1.0070 -3.2753
 6007SOL    HW229484   2.783   3.356   2.992 -0.1545  0.4086 -0.7972
 6008SOL     OW29485   0.945   2.413   8.379 -0.0220  0.2955 -0.0031
 6008SOL    HW129486   1.004   2.343   8.354 -1.4830  0.0492 -2.7548
 6008SOL    HW229487   0.991   2.457   8.451 -1.7928  0.8310  0.8080
 6009SOL     OW29488   2.472   2.291   3.172 -0.5403 -0.3106  0.2664
 6009SOL    HW129489   2.452   2.248   3.089  0.4994 -5.1715  2.5331
 6009SOL    HW229490   2.434   2.235   3.239  0.2237  2.8714  3.3378
 6010SOL     OW29491   4.156   4.072   6.460 -0.8958  0.2436 -0.3215
 6010SOL    HW129492   4.149   4.007   6.390 -0.3280 -2.8133  2.4106
 6010SOL    HW229493   4.198   4.138   6.406 -1.1952  0.0252 -0.8206
 6011SOL     OW29494   3.562   1.630   3.729 -0.3231 -0.1397  0.1138
 6011SOL    HW129495   3.549   1.710   3.679 -1.0561 -0.3303 -0.0133
 6011SOL    HW229496   3.549   1.561   3.663 -1.7680  0.1861  0.0443
 6012SOL     OW29497   1.659   1.365   8.183  0.1662 -0.0064  0.2780
 6012SOL    HW129498   1.743   1.350   8.227 -0.7281 -2.6152  1.1172
 6012SOL    HW229499   1.701   1.401   8.106  1.5727  2.0248  1.9794
 6013SOL     OW29500   4.360   4.145   0.122 -0.2492 -0.4167 -0.7461
 6013SOL    HW129501   4.379   4.070   0.065  2.7784 -0.3164  0.0985
 6013SOL    HW229502   4.338   4.212   0.057  0.1933 -0.2232 -0.7022
 6014SOL     OW29503   1.574   2.627   4.727 -0.9071 -0.2904 -0.0900
 6014SOL    HW129504   1.633   2.702   4.721 -0.8270 -0.3630 -0.2067
 6014SOL    HW229505   1.540   2.628   4.637 -0.5602 -0.3547 -0.2231
 6015SOL     OW29506   0.648   3.264  17.251  0.2289  0.0966 -0.3220
 6015SOL    HW129507   0.664   3.332  17.317  0.1324  1.4859 -1.7192
 6015SOL    HW229508   0.712   3.284  17.182 -0.3546 -0.1936 -0.9529
 6016SOL     OW29509   2.040   0.439  12.629  0.8930  0.2027 -0.5868
 6016SOL    HW129510   2.127   0.470  12.604  0.6917  0.8792 -0.4240
 6016SOL    HW229511   1.993   0.493  12.566 -0.7692 -1.3444 -0.6549
 6017SOL     OW29512   0.467   3.386   7.887 -0.0439  0.1457  0.3065
 6017SOL    HW129513   0.380   3.351   7.868 -0.7967  2.4416 -0.4671
 6017SOL    HW229514   0.462   3.377   7.983  1.2293 -2.0552  0.1680
 6018SOL     OW29515   3.774   2.110   4.691 -0.8428  0.0431 -0.1866
 6018SOL    HW129516   3.693   2.074   4.653  0.3253 -2.0791 -0.6935
 6018SOL    HW229517   3.787   2.051   4.765 -0.5738 -1.3420 -1.3316
 6019SOL     OW29518   4.146   4.170   2.093 -0.5679 -0.4248  0.4969
 6019SOL    HW129519   4.051   4.166   2.082 -1.0445  2.2244  3.8171
 6019SOL    HW229520   4.161   4.081   2.060 -0.7030  0.9950 -3.3858
 6020SOL     OW29521   1.341   1.532   1.271 -0.0552 -0.3120  0.4425
 6020SOL    HW129522   1.272   1.473   1.242  1.2859 -1.3164 -0.6775
 6020SOL    HW229523   1.300   1.578   1.345 -2.0402 -2.6724  0.8029
 6021SOL     OW29524   0.365   1.812   9.999 -0.1791  0.4087  0.5682
 6021SOL    HW129525   0.413   1.732   9.976 -1.2009  0.5363 -1.9785
 6021SOL    HW229526   0.388   1.823  10.091  0.5651  1.2957  0.2759
 6022SOL     OW29527   2.703   2.292  10.065 -0.0720  0.3783  0.3065
 6022SOL    HW129528   2.651   2.227  10.016  0.4929  0.0013  0.2061
 6022SOL    HW229529   2.684   2.376  10.024 -0.5308  0.8665  1.5357
 6023SOL     OW29530   2.342   4.692   4.346  0.4241 -0.0991  0.4637
 6023SOL    HW129531   2.314   4.634   4.274  0.9147  1.1868 -0.7641
 6023SOL    HW229532   2.433   4.664   4.354 -0.1601 -1.9526  0.7385
 6024SOL     OW29533   2.985   1.401   1.920 -0.2363  0.6242 -0.3713
 6024SOL    HW129534   2.930   1.328   1.890  1.0088  0.0755 -1.3199
 6024SOL    HW229535   2.921   1.471   1.933  0.2234  0.6734  1.6268
 6025SOL     OW29536   0.365   3.557  16.876  0.1406  0.3827  0.3542
 6025SOL    HW129537   0.282   3.524  16.841  0.1147  0.0169  0.7558
 6025SOL    HW229538   0.433   3.518  16.821 -1.4940 -1.2006 -0.5521
 6026SOL     OW29539   3.220   2.840   7.648 -0.3504  0.3513 -0.1085
 6026SOL    HW129540   3.164   2.900   7.697 -1.0695 -1.9549  1.8466
 6026SOL    HW229541   3.214   2.869   7.557 -1.2966 -2.5580 -0.9636
 6027SOL     OW29542   0.494   2.468   4.340 -0.0041  0.0309  0.4611
 6027SOL    HW129543   0.511   2.381   4.304  0.1412  0.7265 -1.1605
 6027SOL    HW229544   0.537   2.521   4.272  0.1988 -0.9928 -0.2055
 6028SOL     OW29545   3.901   0.460   2.560  0.5529 -0.1927  0.2293
 6028SOL    HW129546   3.983   0.505   2.542  0.5102  0.0632  0.6733
 6028SOL    HW229547   3.928   0.368   2.566  2.8830  0.4794  0.0770
 6029SOL     OW29548   2.212   2.914   2.994  0.4507  0.4887  0.2736
 6029SOL    HW129549   2.193   3.001   2.958 -2.4629  0.0283  0.7158
 6029SOL    HW229550   2.140   2.864   2.957  0.3973  0.3887  0.5107
 6030SOL     OW29551   3.022   3.264   6.261  0.1968 -0.2037  0.4390
 6030SOL    HW129552   3.056   3.322   6.329 -0.0446  0.1794  0.2317
 6030SOL    HW229553   3.036   3.321   6.185  3.1347  0.5256  1.5150
 6031SOL     OW29554   1.854   0.249   8.095 -0.3520  0.4198 -0.2478
 6031SOL    HW129555   1.943   0.274   8.069 -0.9857  0.8902 -1.9433
 6031SOL    HW229556   1.872   0.220   8.184  2.9223  0.3429 -0.9264
 6032SOL     OW29557   1.536   3.267   8.759  0.4783 -0.7801 -0.5369
 6032SOL    HW129558   1.534   3.266   8.663 -0.4388 -1.1980 -0.5129
 6032SOL    HW229559   1.605   3.327   8.787 -1.2379  1.6636 -1.6645
 6033SOL     OW29560   3.867   3.105   1.094 -0.2080  0.3786 -0.4293
 6033SOL    HW129561   3.871   3.147   1.009 -0.4617 -0.5523 -0.9024
 6033SOL    HW229562   3.959   3.086   1.111 -0.7647 -0.1619  1.9820
 6034SOL     OW29563   3.482   4.497   8.948 -0.1996  0.1003  0.1569
 6034SOL    HW129564   3.434   4.419   8.921  2.5267 -0.7999 -2.0405
 6034SOL    HW229565   3.432   4.559   8.894  0.4314  0.6389  0.1865
 6035SOL     OW29566   1.528   0.715   2.633  0.2214 -0.1376  0.3945
 6035SOL    HW129567   1.503   0.807   2.626  3.1047  0.5326 -1.0679
 6035SOL    HW229568   1.488   0.674   2.556 -0.0277 -1.2563  1.1316
 6036SOL     OW29569   0.298   2.667   9.418 -0.5998 -0.1317  0.1692
 6036SOL    HW129570   0.208   2.649   9.445 -0.2284  0.0716  1.5638
 6036SOL    HW229571   0.319   2.588   9.370  0.7292  1.1293 -1.3041
 6037SOL     OW29572   3.063   3.379   2.962 -0.2817  0.2742 -0.3486
 6037SOL    HW129573   3.150   3.401   2.993  0.0499  0.6356 -1.5471
 6037SOL    HW229574   3.072   3.359   2.869 -0.8341  0.6032 -0.4738
 6038SOL     OW29575   0.718   3.835   8.498  0.5455 -0.0309 -0.2942
 6038SOL    HW129576   0.801   3.860   8.540  2.2583 -0.8188 -3.2592
 6038SOL    HW229577   0.739   3.742   8.485 -0.2972 -0.1761 -0.5689
 6039SOL     OW29578   3.851   3.237   8.223 -0.0136 -0.2085  0.6124
 6039SOL    HW129579   3.823   3.148   8.243  0.9499 -0.8506 -0.9104
 6039SOL    HW229580   3.932   3.247   8.272  0.4056 -0.4063 -0.0395
 6040SOL     OW29581   4.268   3.076   8.186 -0.3614  0.0364  0.2791
 6040SOL    HW129582   4.321   3.154   8.205 -1.4621  1.2659 -1.7281
 6040SOL    HW229583   4.191   3.094   8.241  0.4530  2.3741  0.6300
 6041SOL     OW29584   2.093   0.921   8.807  0.3099 -0.2403 -0.5573
 6041SOL    HW129585   2.114   0.838   8.851 -1.9093 -0.0821  0.7775
 6041SOL    HW229586   2.048   0.969   8.877 -2.7230 -2.2600 -1.1036
 6042SOL     OW29587   2.585   2.222   7.725  0.1678 -0.4868 -0.5541
 6042SOL    HW129588   2.494   2.197   7.709 -0.4811  0.3588  1.8171
 6042SOL    HW229589   2.601   2.178   7.808 -1.3845 -0.5774 -0.3112
 6043SOL     OW29590   3.467   3.706   8.977  0.4191  0.0500  0.0570
 6043SOL    HW129591   3.409   3.735   9.048  0.2631 -0.2781  0.0615
 6043SOL    HW229592   3.402   3.652   8.932 -0.2878 -0.2786  1.4449
 6044SOL     OW29593   0.166   3.459  13.738 -0.0106  0.1030  0.1851
 6044SOL    HW129594   0.076   3.478  13.766  0.4714 -0.2746  1.9874
 6044SOL    HW229595   0.199   3.402  13.808  0.6030 -1.8115 -1.6381
 6045SOL     OW29596   1.143   1.245  11.511  0.1076  0.0861  0.1616
 6045SOL    HW129597   1.238   1.250  11.522  0.1353  1.3775 -0.5787
 6045SOL    HW229598   1.106   1.312  11.568  2.3632 -0.3221  2.1176
 6046SOL     OW29599   1.898   3.241   3.855 -0.5171  0.0389 -0.2207
 6046SOL    HW129600   1.951   3.200   3.923  2.2602  1.8196 -1.3286
 6046SOL    HW229601   1.920   3.333   3.865 -0.9355  0.2888 -1.5938
 6047SOL     OW29602   4.243   2.137   8.000  0.3014 -0.2139 -0.3891
 6047SOL    HW129603   4.221   2.108   8.089 -1.4120 -1.7290 -1.3094
 6047SOL    HW229604   4.321   2.189   8.017  1.7261 -2.7701  0.9198
 6048SOL     OW29605   1.693   3.162  11.016 -0.2333  0.2659 -0.4135
 6048SOL    HW129606   1.697   3.195  11.106 -0.4379  1.7804 -0.9680
 6048SOL    HW229607   1.786   3.148  10.995  0.0050  0.4950  0.4728
 6049SOL     OW29608   2.570   2.668   2.346 -0.1492 -0.3762  0.1099
 6049SOL    HW129609   2.659   2.703   2.345 -0.3809  0.1971 -0.4313
 6049SOL    HW229610   2.572   2.574   2.364 -1.7548 -0.8965 -2.3419
 6050SOL     OW29611   2.691   2.089  15.705 -0.1305 -0.0604 -0.3723
 6050SOL    HW129612   2.604   2.050  15.710 -0.0850  0.0051  1.0223
 6050SOL    HW229613   2.672   2.146  15.631 -0.6630  1.9248  1.2937
 6051SOL     OW29614   0.263   1.745   7.287 -0.3248 -0.2429 -0.2513
 6051SOL    HW129615   0.269   1.677   7.220 -0.4991 -0.7563  0.2505
 6051SOL    HW229616   0.356   1.761   7.305  0.0623 -0.2679 -2.2185
 6052SOL     OW29617   3.138   0.722   8.078  0.0052  0.0533 -0.9357
 6052SOL    HW129618   3.216   0.695   8.031  0.6489  0.3864 -0.0492
 6052SOL    HW229619   3.178   0.767   8.152  1.2781  0.1093 -1.6578
 6053SOL     OW29620   3.803   3.234   5.254  0.1292 -0.0455  0.0196
 6053SOL    HW129621   3.829   3.155   5.301 -1.4190  0.2204  1.3052
 6053SOL    HW229622   3.752   3.294   5.308 -0.3458 -0.0263 -0.4520
 6054SOL     OW29623   0.948   1.060  11.436 -0.2759 -0.3014 -0.4121
 6054SOL    HW129624   0.997   1.135  11.470 -3.0023  0.9486  0.8548
 6054SOL    HW229625   0.890   1.101  11.372 -0.0909  2.4861  1.2183
 6055SOL     OW29626   1.978   2.077   8.747  0.0685 -0.6908 -0.1741
 6055SOL    HW129627   2.031   1.997   8.744  0.6916 -0.3300  0.8860
 6055SOL    HW229628   1.890   2.041   8.755 -0.1453 -0.1987 -0.3731
 6056SOL     OW29629   4.718   1.201  11.343 -0.0310 -1.2038  0.0196
 6056SOL    HW129630   0.045   1.120  11.325 -1.6510 -1.3699 -3.6385
 6056SOL    HW229631   4.655   1.192  11.271 -1.3320 -0.8778  1.1202
 6057SOL     OW29632   0.675   3.319   7.695  0.3505 -0.0188  0.0519
 6057SOL    HW129633   0.708   3.278   7.776  0.3863  1.5285  0.8226
 6057SOL    HW229634   0.589   3.347   7.725 -0.9173 -1.9472 -1.7790
 6058SOL     OW29635   2.778   1.752   3.959 -0.6243  0.0914  0.5023
 6058SOL    HW129636   2.848   1.763   4.023  1.7773  1.2261 -2.3268
 6058SOL    HW229637   2.828   1.783   3.883  1.7990 -2.6825  1.0025
 6059SOL     OW29638   1.320   2.263   5.170  0.4547 -0.6694  0.1698
 6059SOL    HW129639   1.314   2.253   5.265 -1.5112 -2.6260 -0.1739
 6059SOL    HW229640   1.347   2.355   5.159 -0.2685 -0.5563 -0.6299
 6060SOL     OW29641   0.398   4.504  13.610 -0.0807  0.0084 -0.5043
 6060SOL    HW129642   0.419   4.579  13.666 -1.3764  0.4796 -0.6506
 6060SOL    HW229643   0.308   4.485  13.638  0.3123 -2.3058 -0.8244
 6061SOL     OW29644   2.491   4.006   6.449  0.0847  0.1824 -0.2253
 6061SOL    HW129645   2.435   4.074   6.485  0.0764  0.5041 -0.8391
 6061SOL    HW229646   2.481   3.929   6.505  1.0060  1.2646  1.4280
 6062SOL     OW29647   2.008   3.372  12.149  0.1475 -0.2305  0.2977
 6062SOL    HW129648   2.015   3.277  12.146 -1.7560 -0.4148  1.3288
 6062SOL    HW229649   2.079   3.402  12.093 -0.5879 -1.7380 -1.4197
 6063SOL     OW29650   2.394   0.592   3.264  0.1492 -0.1383  0.1871
 6063SOL    HW129651   2.444   0.535   3.323 -0.5169  0.3560  1.2321
 6063SOL    HW229652   2.328   0.614   3.329  0.6352 -0.2583  0.7261
 6064SOL     OW29653   2.023   0.267   5.707 -0.2679 -0.2523 -0.2460
 6064SOL    HW129654   2.114   0.294   5.696 -0.2208 -0.8881 -1.3269
 6064SOL    HW229655   2.002   0.319   5.785  0.1044 -2.1244  1.1005
 6065SOL     OW29656   4.612   2.838   3.735  0.4473  0.5710 -0.0302
 6065SOL    HW129657   4.682   2.861   3.674  0.5495  2.0458  0.6259
 6065SOL    HW229658   4.664   2.846   3.815  1.8704  0.4422 -0.9502
 6066SOL     OW29659   4.092   4.132   4.944  0.6745  0.4540 -0.5552
 6066SOL    HW129660   4.163   4.194   4.959 -0.0601  0.6884  1.9852
 6066SOL    HW229661   4.021   4.188   4.977 -0.6259 -1.6360  0.1887
 6067SOL     OW29662   0.309   1.029   1.038  0.2285 -0.3564 -0.5242
 6067SOL    HW129663   0.290   0.956   0.979  0.3857 -0.3541 -0.5778
 6067SOL    HW229664   0.404   1.020   1.045  0.7249  2.0854 -4.2453
 6068SOL     OW29665   4.698   0.049  14.223  0.3645 -0.2972  0.0863
 6068SOL    HW129666   4.699   4.677  14.243  2.4323 -0.0903  0.9819
 6068SOL    HW229667   4.643   0.088  14.290  0.0141 -0.5353 -0.0666
 6069SOL     OW29668   1.726   1.650  17.096 -0.3149 -0.6299 -0.1671
 6069SOL    HW129669   1.708   1.734  17.138  1.1991 -0.6011  0.4020
 6069SOL    HW229670   1.640   1.613  17.116 -0.1764 -1.4987 -1.1619
 6070SOL     OW29671   0.743   0.675   9.790 -0.5447 -0.3288  0.6842
 6070SOL    HW129672   0.807   0.688   9.860  1.4729 -0.6656 -1.1131
 6070SOL    HW229673   0.704   0.594   9.825 -2.4735 -0.0027 -0.7000
 6071SOL     OW29674   0.511   0.949   5.150 -0.4218 -0.2768  0.2490
 6071SOL    HW129675   0.437   0.901   5.114  0.5758 -2.0393  0.5947
 6071SOL    HW229676   0.466   1.029   5.178 -0.1060 -0.3717  1.0197
 6072SOL     OW29677   1.290   0.511  11.673 -0.2911 -0.8370  0.0790
 6072SOL    HW129678   1.381   0.520  11.701 -0.3392  0.2525 -0.1358
 6072SOL    HW229679   1.298   0.442  11.606 -0.6149 -0.5233 -0.2829
 6073SOL     OW29680   3.006   2.341   9.133  0.3565 -0.5140 -0.3294
 6073SOL    HW129681   3.095   2.311   9.116  1.2113  1.6666  0.3084
 6073SOL    HW229682   2.954   2.267   9.102 -3.5432  1.7074  0.8963
 6074SOL     OW29683   2.305   0.431   2.432  0.2264 -0.1977  0.0170
 6074SOL    HW129684   2.388   0.393   2.462  0.6810 -0.7950 -1.9936
 6074SOL    HW229685   2.273   0.357   2.380 -1.4476  1.1632 -0.8683
 6075SOL     OW29686   1.242   2.557   3.092  0.2134 -0.0672  0.5149
 6075SOL    HW129687   1.298   2.504   3.036  0.8654  0.0636  1.0484
 6075SOL    HW229688   1.251   2.641   3.046 -1.0449 -0.4624 -0.4419
 6076SOL     OW29689   2.598   4.257   7.482 -0.1173 -0.1106 -0.4264
 6076SOL    HW129690   2.533   4.211   7.536  0.0217 -1.1747 -1.1555
 6076SOL    HW229691   2.663   4.187   7.474 -0.2977 -0.3459  0.1282
 6077SOL     OW29692   0.803   3.291  15.526 -0.0731  0.1270  0.0204
 6077SOL    HW129693   0.807   3.244  15.609  0.9090 -0.9878 -0.6632
 6077SOL    HW229694   0.738   3.361  15.538  1.0289  1.0221  0.7515
 6078SOL     OW29695   1.296   1.418   0.409 -0.2884 -0.1146  0.0073
 6078SOL    HW129696   1.296   1.443   0.316 -1.5298 -1.4476 -0.3470
 6078SOL    HW229697   1.385   1.386   0.426 -0.4004 -1.6675 -2.3973
 6079SOL     OW29698   3.795   0.276   5.993  0.1353  0.1151  0.2370
 6079SOL    HW129699   3.764   0.185   5.991  1.5558 -0.3933  0.7711
 6079SOL    HW229700   3.856   0.264   5.920 -1.2401 -0.4049 -0.8285
 6080SOL     OW29701   0.624   0.864   2.277  0.0220  0.0996 -0.1802
 6080SOL    HW129702   0.689   0.854   2.207  0.1859 -0.5080  0.0516
 6080SOL    HW229703   0.685   0.905   2.338  0.7594 -1.1778 -0.0482
 6081SOL     OW29704   4.492   4.542   8.610 -0.1602  0.2811 -1.0920
 6081SOL    HW129705   4.542   4.537   8.691  0.9557 -3.4548 -2.0103
 6081SOL    HW229706   4.440   4.623   8.618  0.2470  0.4844 -0.4774
 6082SOL     OW29707   4.052   1.717   6.786  0.3507 -0.3685 -0.2871
 6082SOL    HW129708   4.052   1.739   6.879 -1.6302 -2.6517  0.2640
 6082SOL    HW229709   3.958   1.718   6.770  0.2453  0.3545  0.4015
 6083SOL     OW29710   4.448   2.913  13.163 -0.0341  0.0578 -0.6243
 6083SOL    HW129711   4.462   2.940  13.072 -2.6602 -2.1706 -1.7006
 6083SOL    HW229712   4.479   2.992  13.206 -1.0956 -0.2745  0.7253
 6084SOL     OW29713   1.159   3.140   7.449  0.2745  0.3107  0.7568
 6084SOL    HW129714   1.066   3.151   7.469  0.0984 -0.4165  0.3380
 6084SOL    HW229715   1.168   3.174   7.360 -2.8124 -0.9478 -0.0457
 6085SOL     OW29716   3.600   3.124   8.267  0.0193  0.0941  0.0353
 6085SOL    HW129717   3.601   3.122   8.363  2.6914 -1.3634 -0.0226
 6085SOL    HW229718   3.509   3.106   8.245 -0.1872 -1.6864  2.3450
 6086SOL     OW29719   3.901   1.740   8.358 -0.0446  0.1129  0.1912
 6086SOL    HW129720   3.979   1.691   8.386 -1.2829 -1.5228  0.8385
 6086SOL    HW229721   3.860   1.763   8.442 -1.3646 -0.3943 -0.3096
 6087SOL     OW29722   4.233   4.076   8.760 -0.2717 -0.0624 -0.3156
 6087SOL    HW129723   4.306   4.024   8.794 -0.4330 -1.5111 -2.1447
 6087SOL    HW229724   4.276   4.129   8.693 -0.1122  0.4676  0.2094
 6088SOL     OW29725   1.267   0.805   1.989 -0.8039  0.0674  0.2352
 6088SOL    HW129726   1.311   0.721   1.976 -1.1482 -0.2551  1.1357
 6088SOL    HW229727   1.190   0.775   2.037 -0.4437  0.6706  1.2003
 6089SOL     OW29728   1.753   1.685   8.973  0.2884  0.2271  0.5052
 6089SOL    HW129729   1.753   1.605   9.027 -0.9135  1.0432  1.7219
 6089SOL    HW229730   1.787   1.651   8.891 -0.4399  0.0480  0.2718
 6090SOL     OW29731   2.921   0.270   0.994  0.0174  0.0535 -0.0650
 6090SOL    HW129732   2.837   0.262   1.041 -0.5170 -2.1834 -1.4130
 6090SOL    HW229733   2.955   0.182   1.010 -0.6545 -0.2757 -0.4550
 6091SOL     OW29734   0.260   1.887   7.571  0.0596 -0.2449  0.5324
 6091SOL    HW129735   0.207   1.817   7.611 -0.3945 -0.1942  0.0174
 6091SOL    HW229736   0.221   1.960   7.619  1.5513  0.0033  1.3382
 6092SOL     OW29737   4.624   3.283  15.007 -0.1657 -0.1625  0.8463
 6092SOL    HW129738   4.592   3.330  14.930  1.2987 -0.4029  0.0917
 6092SOL    HW229739   4.559   3.213  15.011  0.6889 -1.1145 -2.0346
 6093SOL     OW29740   2.519   2.183   2.197  0.8340 -0.1456 -0.0176
 6093SOL    HW129741   2.603   2.176   2.153 -0.0183  0.3536 -1.7213
 6093SOL    HW229742   2.494   2.091   2.193  1.2597 -0.2918  0.7283
 6094SOL     OW29743   4.291   2.185   6.302 -0.1769  0.2854  0.4412
 6094SOL    HW129744   4.232   2.118   6.336 -0.5267  0.6949  0.6499
 6094SOL    HW229745   4.252   2.268   6.332 -0.9614  0.5150 -1.2488
 6095SOL     OW29746   1.971   3.413  10.503  0.9778 -0.4457 -0.2073
 6095SOL    HW129747   1.991   3.507  10.502  1.1370 -0.5167 -2.5240
 6095SOL    HW229748   1.885   3.429  10.543  0.0959 -1.1593 -1.8632
 6096SOL     OW29749   4.479   3.970  11.912  0.0487  0.0121  0.4546
 6096SOL    HW129750   4.561   3.978  11.864 -0.3793 -0.0865 -0.3014
 6096SOL    HW229751   4.441   4.057  11.906  1.2788  0.5589  0.5270
 6097SOL     OW29752   1.998   3.961   2.125 -0.4408  0.4910  0.1825
 6097SOL    HW129753   1.942   3.888   2.099  0.2946  0.0047 -0.0515
 6097SOL    HW229754   2.081   3.914   2.119  0.1241  1.3568  1.1343
 6098SOL     OW29755   1.733   2.026   3.576  0.1388 -0.0304 -0.1067
 6098SOL    HW129756   1.709   1.996   3.664  2.0707 -0.5643  0.2306
 6098SOL    HW229757   1.711   2.119   3.578 -3.0615 -0.7923  0.0464
 6099SOL     OW29758   3.209   0.641   1.335 -0.2866 -0.3586 -1.0741
 6099SOL    HW129759   3.128   0.597   1.308  0.0011 -2.3027  1.1954
 6099SOL    HW229760   3.174   0.714   1.385  2.1381 -1.3472  2.0792
 6100SOL     OW29761   2.909   2.793  10.121  0.6580 -0.2088  0.5355
 6100SOL    HW129762   2.848   2.722  10.136  1.1634 -0.8545 -0.5125
 6100SOL    HW229763   2.934   2.811  10.212  0.0948 -0.8619  0.8143
 6101SOL     OW29764   1.815   2.122  14.087  0.3590 -0.4194 -0.0082
 6101SOL    HW129765   1.796   2.164  14.002  1.3053 -0.3417 -0.1743
 6101SOL    HW229766   1.726   2.095  14.111 -0.9239  2.0867 -2.0005
 6102SOL     OW29767   3.207   3.003  15.497  0.1201 -0.4415  0.3220
 6102SOL    HW129768   3.284   3.018  15.443 -1.4895 -1.7469 -2.3328
 6102SOL    HW229769   3.228   3.055  15.575 -2.2981 -0.2774  0.8638
 6103SOL     OW29770   4.341   3.276   7.858 -0.4052 -0.1628 -0.3261
 6103SOL    HW129771   4.372   3.189   7.883 -1.7785 -1.5162 -3.2466
 6103SOL    HW229772   4.357   3.258   7.765  3.6754  2.2305 -0.0675
 6104SOL     OW29773   1.869   2.356   2.973 -0.1606  0.2244 -0.5963
 6104SOL    HW129774   1.855   2.280   2.917 -0.2108 -0.2659  0.0778
 6104SOL    HW229775   1.779   2.381   2.995 -0.1136 -0.9127  0.9123
 6105SOL     OW29776   3.226   3.240  13.277 -0.0660  0.1411  0.8845
 6105SOL    HW129777   3.253   3.292  13.201 -1.8210 -1.9184 -1.1292
 6105SOL    HW229778   3.287   3.166  13.278  0.3235  0.3850 -2.8485
 6106SOL     OW29779   0.398   0.039  13.720  0.1991 -0.1928 -0.3744
 6106SOL    HW129780   0.305   0.063  13.722  0.2146 -0.0408 -1.4601
 6106SOL    HW229781   0.412   0.046  13.815  0.1161 -0.0313 -0.3733
 6107SOL     OW29782   2.221   3.842  13.657 -0.2192  0.3775 -0.0089
 6107SOL    HW129783   2.170   3.800  13.727 -1.2134  0.0928 -0.8963
 6107SOL    HW229784   2.150   3.876  13.602 -0.2792 -0.6758 -0.5843
 6108SOL     OW29785   3.483   2.419   5.047  0.1979  0.2147  0.0983
 6108SOL    HW129786   3.438   2.503   5.060 -1.4738 -0.8952  1.6013
 6108SOL    HW229787   3.469   2.375   5.131  1.8361 -2.0461 -0.8387
 6109SOL     OW29788   0.662   2.570   1.289  0.5373 -0.0557 -0.3608
 6109SOL    HW129789   0.712   2.500   1.331  1.1009 -0.0559 -1.0274
 6109SOL    HW229790   0.729   2.638   1.276  0.0278  0.8650  1.8952
 6110SOL     OW29791   1.873   2.854   1.014 -0.1249  0.2823 -0.0989
 6110SOL    HW129792   1.900   2.779   1.067 -1.0255 -0.5841 -0.8584
 6110SOL    HW229793   1.927   2.919   1.058  0.6479 -0.4282  0.0180
 6111SOL     OW29794   4.002   2.986   3.993 -0.8904  0.0985 -0.6942
 6111SOL    HW129795   3.942   3.003   3.921 -2.1505 -0.6685  0.1698
 6111SOL    HW229796   3.971   3.050   4.057  1.0811  0.0242  0.3506
 6112SOL     OW29797   4.077   2.740   3.866 -0.1066  0.5696  0.8242
 6112SOL    HW129798   4.165   2.716   3.896 -0.2241  2.0697  2.3130
 6112SOL    HW229799   4.070   2.824   3.911  2.1037  1.8386 -1.2057
 6113SOL     OW29800   2.632   4.213   5.722  0.6079 -0.7948 -0.4048
 6113SOL    HW129801   2.573   4.153   5.676 -2.0036  1.3965  0.0461
 6113SOL    HW229802   2.627   4.289   5.663  3.6952  0.1146  0.5329
 6114SOL     OW29803   2.073   4.334  12.320 -0.0402 -0.0775 -0.3894
 6114SOL    HW129804   2.035   4.418  12.295  0.1943  0.6943  1.8038
 6114SOL    HW229805   2.020   4.297  12.391 -1.2577  0.0140 -1.2455
 6115SOL     OW29806   2.888   1.182  13.545 -1.1628  0.0540  0.0214
 6115SOL    HW129807   2.793   1.179  13.531 -1.3243  1.3575  0.8389
 6115SOL    HW229808   2.889   1.174  13.640  2.0545  0.8960  0.0438
 6116SOL     OW29809   1.328   3.884   5.942  0.1812 -0.0377 -0.2260
 6116SOL    HW129810   1.420   3.909   5.940  0.0343  0.4660 -0.6753
 6116SOL    HW229811   1.279   3.959   5.906  1.8183  0.6011 -1.0890
 6117SOL     OW29812   3.701   1.167   6.073  0.0959 -0.2201 -0.2322
 6117SOL    HW129813   3.783   1.130   6.040 -0.5407 -0.4698 -1.5334
 6117SOL    HW229814   3.637   1.125   6.015 -0.9522 -0.6073  1.1976
 6118SOL     OW29815   3.584   4.505   3.777  0.2463  0.1232 -0.4559
 6118SOL    HW129816   3.529   4.430   3.759 -0.1835  1.7026 -5.7186
 6118SOL    HW229817   3.571   4.556   3.697 -1.6703  0.4108  0.0373
 6119SOL     OW29818   4.376   1.741   6.492  0.1790 -0.6792  0.3215
 6119SOL    HW129819   4.358   1.652   6.462 -0.9520  0.2342 -1.7370
 6119SOL    HW229820   4.413   1.783   6.415  0.0369  1.2951  1.3391
 6120SOL     OW29821   3.288   3.512   8.404  0.2385 -0.1759  0.4118
 6120SOL    HW129822   3.365   3.569   8.402  0.3072 -0.4118 -3.2214
 6120SOL    HW229823   3.322   3.436   8.452 -2.9710 -0.7343  1.8075
 6121SOL     OW29824   3.540   0.403   0.932  0.2569  0.1488 -0.2011
 6121SOL    HW129825   3.449   0.433   0.935 -0.2873 -1.6077  1.1181
 6121SOL    HW229826   3.571   0.471   0.991  0.7100 -0.4657  0.2703
 6122SOL     OW29827   2.011   0.214   8.331  0.4052 -0.1007  0.0347
 6122SOL    HW129828   2.084   0.268   8.301 -0.5387  1.7184  1.0067
 6122SOL    HW229829   2.003   0.245   8.421  1.3533  0.2569  0.0006
 6123SOL     OW29830   1.858   0.473  10.452  0.5700 -0.1815  0.2242
 6123SOL    HW129831   1.789   0.410  10.473 -0.7606  2.2929  3.2534
 6123SOL    HW229832   1.810   0.551  10.426  2.5247  1.3098  1.0922
 6124SOL     OW29833   0.291   1.565  11.734 -0.1759 -0.1514 -0.1503
 6124SOL    HW129834   0.261   1.655  11.723 -0.9679 -0.2534  1.1051
 6124SOL    HW229835   0.370   1.563  11.681  0.6671 -3.7945  1.2939
 6125SOL     OW29836   1.732   0.981   3.847 -0.2689  0.2393  0.0826
 6125SOL    HW129837   1.655   0.962   3.901  0.9831  0.0792  1.8165
 6125SOL    HW229838   1.731   0.902   3.793 -0.6493  0.7160 -0.6021
 6126SOL     OW29839   0.750   4.105   8.054 -1.1343 -0.9287 -0.1250
 6126SOL    HW129840   0.671   4.150   8.025  0.2228  1.5359  0.0023
 6126SOL    HW229841   0.726   4.045   8.125 -0.3925  2.4552  2.9900
 6127SOL     OW29842   0.832   1.896   3.090 -0.2482 -0.1942 -0.1131
 6127SOL    HW129843   0.763   1.958   3.067  0.1157  1.1725  2.5028
 6127SOL    HW229844   0.783   1.814   3.096  0.4419 -0.7504 -1.7152
 6128SOL     OW29845   3.900   4.335   5.037 -0.2142  0.1276  0.2238
 6128SOL    HW129846   3.871   4.423   5.014  1.3649  1.2099  2.4388
 6128SOL    HW229847   3.913   4.357   5.129 -0.2996  0.7536  0.0839
 6129SOL     OW29848   1.272   1.552  12.654 -0.2425  0.0827  0.5004
 6129SOL    HW129849   1.365   1.570  12.665 -0.1889 -1.3117  2.2373
 6129SOL    HW229850   1.238   1.640  12.673 -1.9977 -0.6463  0.7616
 6130SOL     OW29851   0.004   3.835   3.639 -0.0902  0.2324  0.3466
 6130SOL    HW129852   0.040   3.850   3.552  1.0359 -2.1871  0.3973
 6130SOL    HW229853   4.661   3.905   3.655  0.1568  0.7045 -0.7611
 6131SOL     OW29854   3.275   3.574   7.151 -0.4403 -0.0603 -0.1311
 6131SOL    HW129855   3.323   3.540   7.075  1.6984 -0.6443  1.4995
 6131SOL    HW229856   3.208   3.617   7.098  1.2202  3.8452  0.9489
 6132SOL     OW29857   4.223   1.342   9.071  0.4069 -0.2300 -0.1465
 6132SOL    HW129858   4.291   1.365   9.134 -0.6797  1.1638  0.5017
 6132SOL    HW229859   4.154   1.402   9.100  0.1107 -0.2105 -0.8802
 6133SOL     OW29860   3.471   2.746   2.710 -0.0708 -0.5464  0.4955
 6133SOL    HW129861   3.512   2.778   2.630 -1.5797 -1.0763 -0.4906
 6133SOL    HW229862   3.498   2.654   2.706  2.6755  0.2975 -0.6649
 6134SOL     OW29863   3.087   3.332   0.653  0.4220 -0.4194 -0.0461
 6134SOL    HW129864   3.043   3.416   0.668 -3.1051 -2.3651  0.5819
 6134SOL    HW229865   3.082   3.310   0.746  0.1564  0.5974  0.1880
 6135SOL     OW29866   3.512   3.956   7.382  0.9950  0.4494  0.0093
 6135SOL    HW129867   3.510   3.876   7.330 -0.4676  1.2383 -1.1399
 6135SOL    HW229868   3.587   3.940   7.440 -0.9085 -0.9023  2.1245
 6136SOL     OW29869   0.962   3.971   3.190  0.2171  0.3384  0.0306
 6136SOL    HW129870   1.001   3.954   3.104 -0.1181  0.7564 -0.2050
 6136SOL    HW229871   0.987   4.064   3.185  1.1798 -0.0023 -1.5678
 6137SOL     OW29872   2.222   1.837   3.508  0.0258  0.2177  0.1211
 6137SOL    HW129873   2.195   1.830   3.600 -1.1653 -3.7985 -0.5302
 6137SOL    HW229874   2.230   1.931   3.497 -0.9509  0.0594 -1.9409
 6138SOL     OW29875   1.605   2.049   7.567 -0.4779 -0.1695  0.5959
 6138SOL    HW129876   1.584   2.107   7.641  1.1121  0.4078  0.5986
 6138SOL    HW229877   1.519   2.020   7.536  0.6960 -0.7370 -2.1487
 6139SOL     OW29878   1.253   3.926   7.879 -0.0885  0.3012 -0.0690
 6139SOL    HW129879   1.214   3.870   7.946  1.8335 -0.3898  0.4802
 6139SOL    HW229880   1.179   3.984   7.860  0.9773  1.5324 -0.4349
 6140SOL     OW29881   1.115   4.192  14.678 -0.2220 -0.1052 -0.2975
 6140SOL    HW129882   1.019   4.195  14.678 -0.0925  3.8803  0.2810
 6140SOL    HW229883   1.133   4.105  14.642 -0.4437 -0.8413  1.3711
 6141SOL     OW29884   3.651   0.684  10.885 -0.3927 -0.0337  0.5008
 6141SOL    HW129885   3.633   0.777  10.899  1.3363  0.5152 -0.8521
 6141SOL    HW229886   3.741   0.681  10.852 -0.5944  2.7984 -0.3281
 6142SOL     OW29887   4.159   0.231   4.342  1.0217 -0.4014 -0.0164
 6142SOL    HW129888   4.242   0.184   4.347  0.6244 -1.1877 -0.8248
 6142SOL    HW229889   4.179   0.317   4.306 -3.7140  1.1864  1.0874
 6143SOL     OW29890   0.003   4.080   7.210 -0.4454 -0.4627  0.0264
 6143SOL    HW129891   4.702   4.135   7.285 -0.4714  0.0668 -0.3739
 6143SOL    HW229892   0.044   4.002   7.249  0.6856  0.3420  0.4731
 6144SOL     OW29893   0.211   2.206  13.354  0.3436 -0.4253  0.8333
 6144SOL    HW129894   0.144   2.270  13.380 -0.5867 -1.4399  0.9785
 6144SOL    HW229895   0.285   2.214  13.413  1.0606 -0.7503 -0.0267
 6145SOL     OW29896   3.164   0.960   2.090  0.2047 -0.5008 -0.2805
 6145SOL    HW129897   3.227   0.941   2.160 -0.2874  0.4734  0.4197
 6145SOL    HW229898   3.113   0.879   2.091  0.9044 -0.9344  0.8534
 6146SOL     OW29899   3.683   4.232   1.438  0.2674  0.1024 -0.5559
 6146SOL    HW129900   3.711   4.322   1.456  0.0697 -0.0640  0.5920
 6146SOL    HW229901   3.770   4.205   1.409  1.4488  1.0094  2.0617
 6147SOL     OW29902   1.134   1.325   0.590 -0.2604  0.2051  0.2791
 6147SOL    HW129903   1.185   1.369   0.522 -0.8594 -1.1785 -1.0334
 6147SOL    HW229904   1.046   1.331   0.554 -0.8448  0.6389  1.7813
 6148SOL     OW29905   0.469   3.261   9.128  0.5256 -0.0313  0.0846
 6148SOL    HW129906   0.462   3.317   9.205  0.8542  1.0970 -0.7033
 6148SOL    HW229907   0.480   3.322   9.055  0.2733 -0.5012 -0.3488
 6149SOL     OW29908   1.468   3.182  16.418  0.6160 -0.0458  0.0550
 6149SOL    HW129909   1.380   3.220  16.414 -0.1545 -1.6568  2.0878
 6149SOL    HW229910   1.508   3.249  16.474  1.8760 -1.5064  0.8996
 6150SOL     OW29911   3.610   0.052  14.313  0.0680 -0.4636 -0.0669
 6150SOL    HW129912   3.704   0.064  14.322  0.3383 -3.1381  0.4350
 6150SOL    HW229913   3.579   0.140  14.290 -0.6822 -0.7429 -0.1412
 6151SOL     OW29914   2.740   1.703  14.982 -0.1917 -0.1666 -0.1173
 6151SOL    HW129915   2.799   1.651  14.927  0.6416 -1.8553  2.3604
 6151SOL    HW229916   2.666   1.648  14.955 -1.0689  0.2320  1.4732
 6152SOL     OW29917   1.765   2.066  11.924 -0.2691  0.2722 -0.2508
 6152SOL    HW129918   1.829   2.096  11.988  0.8017 -0.6560 -0.8723
 6152SOL    HW229919   1.720   2.009  11.987  2.0208 -0.3268  0.8403
 6153SOL     OW29920   4.467   2.273   0.057 -0.3123  0.2964 -0.3874
 6153SOL    HW129921   4.430   2.361   0.053 -1.2470 -0.1129 -0.8095
 6153SOL    HW229922   4.529   2.268  17.670  3.1488 -0.7918  2.6497
 6154SOL     OW29923   4.381   0.889  14.715 -0.2159  0.4940  0.1954
 6154SOL    HW129924   4.393   0.855  14.804 -0.1712 -1.2765 -0.4795
 6154SOL    HW229925   4.408   0.813  14.664 -0.6853  0.4528  0.0144
 6155SOL     OW29926   3.278   2.593  17.569 -0.0407 -0.1507 -0.2352
 6155SOL    HW129927   3.332   2.525  17.530 -2.1661 -1.1159 -1.5304
 6155SOL    HW229928   3.220   2.613  17.495  3.3518  2.3166 -2.2361
 6156SOL     OW29929   3.623   1.062   5.530  0.0922 -0.1742 -0.3309
 6156SOL    HW129930   3.556   0.999   5.555 -0.6593  1.1572  0.9987
 6156SOL    HW229931   3.605   1.076   5.437 -1.2099  1.4504  0.1730
 6157SOL     OW29932   2.179   2.036   3.028 -0.1185 -0.0149 -0.5190
 6157SOL    HW129933   2.148   2.126   3.036 -1.0465 -0.3167 -0.7549
 6157SOL    HW229934   2.108   1.984   3.065  0.7686  0.1783  1.4945
 6158SOL     OW29935   4.182   0.770   6.095 -0.1988 -1.5904  0.2703
 6158SOL    HW129936   4.147   0.701   6.038 -1.5533  0.9342 -1.9744
 6158SOL    HW229937   4.275   0.755   6.077  0.2044 -0.1447  1.1906
 6159SOL     OW29938   3.030   3.602   6.373  0.2468 -0.0881  0.4439
 6159SOL    HW129939   3.025   3.698   6.379 -0.4905 -0.0617 -0.7100
 6159SOL    HW229940   2.961   3.581   6.436 -0.4007  0.4356 -0.0907
 6160SOL     OW29941   3.995   1.351   4.799  0.1636  0.0360 -0.4738
 6160SOL    HW129942   3.917   1.395   4.765 -1.1265 -1.8916 -0.0255
 6160SOL    HW229943   4.065   1.410   4.770  1.7595 -1.2710  0.7476
 6161SOL     OW29944   1.028   1.351   2.605 -0.4845  0.1416 -0.1423
 6161SOL    HW129945   1.088   1.391   2.668  0.1681 -2.0010  0.6077
 6161SOL    HW229946   1.052   1.261   2.627 -1.5366 -0.0627  0.1286
 6162SOL     OW29947   1.624   0.520   3.805  0.3953 -0.3414  0.4591
 6162SOL    HW129948   1.533   0.508   3.830  0.6055 -1.0481  0.8710
 6162SOL    HW229949   1.667   0.461   3.866 -0.9694  0.1597  1.8964
 6163SOL     OW29950   2.881   0.183   8.792 -0.2711  0.5117 -0.0674
 6163SOL    HW129951   2.821   0.233   8.736  0.8931  3.3025  1.1636
 6163SOL    HW229952   2.819   0.132   8.844  0.7863  0.4183  1.0924
 6164SOL     OW29953   2.694   3.535   6.975 -0.4766  0.7572  0.6699
 6164SOL    HW129954   2.749   3.518   7.051  0.4081  2.5494  0.4239
 6164SOL    HW229955   2.634   3.460   6.975  1.4672 -0.8046  0.9958
 6165SOL     OW29956   1.031   0.759  17.483 -0.3493  0.1671  0.0227
 6165SOL    HW129957   0.975   0.819  17.533  0.8119 -1.5946  3.3402
 6165SOL    HW229958   1.067   0.709  17.555 -1.5789 -1.1002 -0.2367
 6166SOL     OW29959   1.328   4.129   2.980 -0.3773 -0.3784  0.5186
 6166SOL    HW129960   1.281   4.048   3.000 -0.9496 -0.3916 -0.8658
 6166SOL    HW229961   1.277   4.164   2.907 -2.0266  0.3719  2.0329
 6167SOL     OW29962   3.248   1.860  11.831 -0.0382  0.3757 -0.2700
 6167SOL    HW129963   3.158   1.850  11.863 -0.2514  1.5873 -0.4862
 6167SOL    HW229964   3.302   1.819  11.898  0.1863  2.4884  0.8465
 6168SOL     OW29965   2.744   0.944   7.053  0.2314 -0.0955  0.3603
 6168SOL    HW129966   2.784   0.923   7.137  0.1474  1.1314  0.7104
 6168SOL    HW229967   2.742   0.857   7.014  0.0937  0.8254 -1.6935
 6169SOL     OW29968   3.737   2.760   3.290 -0.0392 -0.1263  0.0930
 6169SOL    HW129969   3.715   2.669   3.308 -0.9141 -0.3244 -2.0194
 6169SOL    HW229970   3.717   2.768   3.197  2.6178  1.9541 -0.3099
 6170SOL     OW29971   2.781   0.967   3.199 -0.0953  0.4055 -0.2093
 6170SOL    HW129972   2.688   0.947   3.207 -0.2684  0.6383 -1.5958
 6170SOL    HW229973   2.827   0.943   3.279  1.8163 -3.2361 -2.3968
 6171SOL     OW29974   3.550   1.906   8.647  0.2422  0.2275 -0.3870
 6171SOL    HW129975   3.598   1.934   8.569  0.3848 -0.8052 -0.6825
 6171SOL    HW229976   3.554   1.810   8.637  0.5027 -0.1543  3.2738
 6172SOL     OW29977   2.221   0.586  17.000  0.1747 -0.3764 -0.3045
 6172SOL    HW129978   2.261   0.582  16.913  0.4616 -1.4744 -0.1183
 6172SOL    HW229979   2.148   0.525  16.991 -0.1280 -0.1095  0.3351
 6173SOL     OW29980   1.182   4.142  16.721  0.3404  0.3335 -0.4400
 6173SOL    HW129981   1.124   4.201  16.672  0.0043 -1.1730 -1.8536
 6173SOL    HW229982   1.128   4.110  16.793 -0.5229  1.7074 -0.4794
 6174SOL     OW29983   2.296   4.420  14.250 -0.0910 -0.2727  0.1788
 6174SOL    HW129984   2.372   4.472  14.272  0.2883  0.7255 -3.5186
 6174SOL    HW229985   2.299   4.365  14.328  0.4112  0.0534  0.3812
 6175SOL     OW29986   4.517   3.250   2.085 -0.5950  0.3396  0.1698
 6175SOL    HW129987   4.488   3.173   2.134  0.8569 -0.6739 -0.5764
 6175SOL    HW229988   4.547   3.211   2.003  0.3043 -0.5776  0.9218
 6176SOL     OW29989   4.401   2.714  12.703 -0.0197 -0.3006  0.3223
 6176SOL    HW129990   4.313   2.699  12.736  0.5174 -0.0808  1.8668
 6176SOL    HW229991   4.394   2.800  12.661  1.6629 -0.9453 -1.3055
 6177SOL     OW29992   1.919   3.390  10.917 -0.2275  0.4055  0.3565
 6177SOL    HW129993   1.920   3.380  10.822 -1.1389  4.7400 -0.1184
 6177SOL    HW229994   1.933   3.299  10.939 -0.8439  0.1287 -0.3881
 6178SOL     OW29995   2.247   1.121   0.608 -0.2751 -0.3970 -0.1043
 6178SOL    HW129996   2.293   1.169   0.677 -0.5846 -0.7510  0.3546
 6178SOL    HW229997   2.308   1.125   0.535 -1.9783 -1.9152 -1.6061
 6179SOL     OW29998   4.308   4.452   7.345  0.3111  0.3801  0.1605
 6179SOL    HW129999   4.330   4.412   7.261 -1.7987 -1.7323  0.5832
 6179SOL    HW230000   4.259   4.375   7.376  1.2230 -0.8708 -1.4998
 6180SOL     OW30001   0.794   3.793  12.053 -0.2009 -0.1724  0.0250
 6180SOL    HW130002   0.764   3.781  11.963  0.4206 -1.4081 -0.0156
 6180SOL    HW230003   0.724   3.846  12.093 -0.7284  0.6718 -2.0478
 6181SOL     OW30004   1.819   2.453   6.235 -0.1864 -0.5554 -0.3873
 6181SOL    HW130005   1.827   2.357   6.236  0.5512 -0.4819  0.7988
 6181SOL    HW230006   1.736   2.458   6.188 -0.1581  1.9809 -0.1359
 6182SOL     OW30007   3.071   2.470   9.475 -0.0102  0.8536  0.4273
 6182SOL    HW130008   3.000   2.518   9.517 -0.4264  1.4487 -0.9578
 6182SOL    HW230009   3.102   2.418   9.549  1.0302  0.5687 -0.2040
 6183SOL     OW30010   4.314   3.190   9.696 -0.0957  0.5021 -0.1425
 6183SOL    HW130011   4.399   3.173   9.737  0.0009 -0.8224 -0.9192
 6183SOL    HW230012   4.341   3.180   9.605 -0.7400  0.9741 -0.3867
 6184SOL     OW30013   4.316   0.485   8.686  0.2751  0.0056 -0.2130
 6184SOL    HW130014   4.377   0.423   8.725 -2.5007 -2.6688 -0.1822
 6184SOL    HW230015   4.378   0.555   8.666  0.3570 -0.1934 -0.6498
 6185SOL     OW30016   1.491   1.971  17.089 -0.2728 -0.0479 -0.2422
 6185SOL    HW130017   1.509   1.927  17.006 -0.1856 -0.6434  0.0911
 6185SOL    HW230018   1.548   1.921  17.148 -1.7392 -1.4238  0.0342
 6186SOL     OW30019   4.293   2.437   5.418 -1.0470 -0.0587  0.2914
 6186SOL    HW130020   4.219   2.465   5.472 -0.6505  1.4138  0.0563
 6186SOL    HW230021   4.340   2.519   5.404 -1.0253 -0.1116  0.0627
 6187SOL     OW30022   0.125   1.455   1.907  0.3649 -0.2433 -0.0807
 6187SOL    HW130023   0.192   1.517   1.933  1.9239 -2.2848  0.8089
 6187SOL    HW230024   0.091   1.499   1.829 -2.5591 -1.4662  0.4721
 6188SOL     OW30025   3.071   0.636  12.681 -0.1261 -0.2004  0.0150
 6188SOL    HW130026   3.128   0.707  12.712 -1.2627 -0.0539  1.7713
 6188SOL    HW230027   3.102   0.559  12.730  0.7105 -0.6022 -1.1464
 6189SOL     OW30028   4.454   4.204   1.217 -0.3274 -0.1311 -0.5079
 6189SOL    HW130029   4.448   4.118   1.175  0.5703 -0.1373 -0.6343
 6189SOL    HW230030   4.433   4.259   1.141 -1.8419  0.0465  0.0414
 6190SOL     OW30031   2.062   0.943  11.686 -0.5556  1.3259  0.2671
 6190SOL    HW130032   2.104   0.977  11.765  1.0482 -0.9743  0.4114
 6190SOL    HW230033   2.075   0.848  11.693 -0.5191  1.2098 -1.5393
 6191SOL     OW30034   0.443   4.367   4.971 -0.3965  0.0046 -0.1284
 6191SOL    HW130035   0.419   4.278   4.997 -2.7330  0.6119 -0.1974
 6191SOL    HW230036   0.411   4.405   5.053 -1.5083 -0.9064 -0.1360
 6192SOL     OW30037   2.124   0.301   3.346  0.3412 -0.0378  0.0405
 6192SOL    HW130038   2.041   0.278   3.306 -1.0211  0.3845  2.6245
 6192SOL    HW230039   2.182   0.282   3.272  0.0235  1.1831 -0.5194
 6193SOL     OW30040   2.822   4.610   5.560  0.5230 -0.3981 -0.0113
 6193SOL    HW130041   2.864   4.533   5.599  0.8790  0.9418  2.3100
 6193SOL    HW230042   2.780   4.650   5.636  0.6938 -2.5039  1.1878
 6194SOL     OW30043   1.384   4.284  16.971 -0.0162 -0.4771  0.4868
 6194SOL    HW130044   1.377   4.189  16.983 -0.2636 -0.8487 -2.4571
 6194SOL    HW230045   1.477   4.286  16.948  0.0829  1.9756  1.1571
 6195SOL     OW30046   2.423   0.111  16.226  0.2342  0.1387 -0.3330
 6195SOL    HW130047   2.396   0.029  16.268  1.7354 -1.2966 -2.1665
 6195SOL    HW230048   2.518   0.105  16.215  0.6409  3.2137  1.3243
 6196SOL     OW30049   2.004   3.456   5.720 -0.0464 -0.4813 -0.1842
 6196SOL    HW130050   1.976   3.423   5.635 -0.4437  2.9818 -1.4005
 6196SOL    HW230051   2.087   3.409   5.729  0.7302  0.5927 -1.8270
 6197SOL     OW30052   0.717   2.295   9.046 -0.1558  0.4832  0.0074
 6197SOL    HW130053   0.788   2.358   9.038 -0.2743  0.5840 -0.2306
 6197SOL    HW230054   0.765   2.213   9.058 -0.4194  0.3989  0.5040
 6198SOL     OW30055   0.755   0.743   3.030 -0.4999  0.2501  0.1256
 6198SOL    HW130056   0.741   0.725   2.937  0.2582 -1.5739  0.3763
 6198SOL    HW230057   0.665   0.755   3.061 -0.5352 -0.1930  0.2024
 6199SOL     OW30058   1.417   2.977   8.796  0.1623 -0.1559 -0.1895
 6199SOL    HW130059   1.369   2.998   8.876  0.4748 -1.0519  0.2408
 6199SOL    HW230060   1.474   3.049   8.770  2.3237 -2.1240 -0.9323
 6200SOL     OW30061   4.662   2.193   3.866 -0.0945 -0.3190  0.3441
 6200SOL    HW130062   4.673   2.243   3.786 -1.5241  0.5433  0.6747
 6200SOL    HW230063   4.567   2.198   3.881 -0.3198 -0.5257 -0.9854
 6201SOL     OW30064   0.991   0.719  11.650 -0.6542  0.6928 -0.2397
 6201SOL    HW130065   0.988   0.722  11.746  3.4171  0.7920 -0.1321
 6201SOL    HW230066   0.912   0.769  11.627 -1.0615  0.1475 -0.0095
 6202SOL     OW30067   4.052   3.431   3.712 -0.0393  0.4065  0.3723
 6202SOL    HW130068   4.086   3.375   3.782 -0.3416  1.2796  1.2281
 6202SOL    HW230069   3.968   3.463   3.745 -0.4803 -2.3369  1.9443
 6203SOL     OW30070   1.927   1.123  17.647 -0.0127 -0.5990  0.4770
 6203SOL    HW130071   1.883   1.191   0.013  3.4641  1.7739  0.3240
 6203SOL    HW230072   1.862   1.052  17.652 -0.3975 -0.2227  0.8870
 6204SOL     OW30073   1.619   4.582   9.563 -0.3205  0.3472 -0.9168
 6204SOL    HW130074   1.665   4.620   9.638 -0.8539  0.3702 -0.6010
 6204SOL    HW230075   1.627   4.489   9.585 -1.1633 -0.2943 -3.3994
 6205SOL     OW30076   1.237   3.337   2.159  0.3502  0.2945 -0.2835
 6205SOL    HW130077   1.264   3.378   2.077  0.4809 -0.9817 -0.8739
 6205SOL    HW230078   1.260   3.245   2.151 -0.1596 -0.0010  1.5355
 6206SOL     OW30079   2.371   4.142   3.171  0.0353  0.6174 -0.1453
 6206SOL    HW130080   2.419   4.216   3.132  0.1448  1.1633  1.0105
 6206SOL    HW230081   2.433   4.072   3.150  0.5513  1.0220  0.0148
 6207SOL     OW30082   2.747   2.508   8.418 -0.0984 -0.2193  0.1610
 6207SOL    HW130083   2.656   2.536   8.429  0.3116  0.3196  2.1114
 6207SOL    HW230084   2.748   2.505   8.322  1.4715 -1.1211  0.2079
 6208SOL     OW30085   1.061   1.099   3.152  0.4442  0.1292 -0.1746
 6208SOL    HW130086   1.055   1.140   3.066  0.1018  0.4045 -0.0243
 6208SOL    HW230087   1.144   1.132   3.185 -0.4914  2.3829 -0.0623
 6209SOL     OW30088   0.179   3.333   7.989  0.6140 -0.1191  0.5318
 6209SOL    HW130089   0.118   3.398   7.953  0.2001  0.1045  1.6500
 6209SOL    HW230090   0.215   3.372   8.068  0.4758  0.4048  0.3382
 6210SOL     OW30091   0.393   3.386   4.019  0.6661 -0.5056  0.1701
 6210SOL    HW130092   0.461   3.452   4.029 -0.5252  0.6621  0.5804
 6210SOL    HW230093   0.333   3.413   4.089  0.1840 -0.0181 -0.4277
 6211SOL     OW30094   3.680   4.516   2.634  0.4611 -0.0339  0.2933
 6211SOL    HW130095   3.707   4.595   2.680 -1.8315 -0.1252  1.7510
 6211SOL    HW230096   3.768   4.481   2.617 -0.7134 -1.8804 -2.0185
 6212SOL     OW30097   3.273   3.349   2.594 -0.1519  0.1740  0.1261
 6212SOL    HW130098   3.287   3.283   2.526  0.3103 -1.5186  1.8720
 6212SOL    HW230099   3.289   3.429   2.543  0.7078  0.6888  1.1923
 6213SOL     OW30100   3.121   3.136  16.477  0.1190 -0.4118  0.3694
 6213SOL    HW130101   3.032   3.099  16.475  0.0093 -0.2099  2.3600
 6213SOL    HW230102   3.172   3.058  16.457  0.6516 -0.8168  3.3245
 6214SOL     OW30103   0.445   3.798   2.943  0.0266  0.4965 -0.1042
 6214SOL    HW130104   0.539   3.802   2.961 -0.1713  2.7591  0.3533
 6214SOL    HW230105   0.418   3.722   2.994 -0.6096 -0.7540 -2.2921
 6215SOL     OW30106   2.884   2.866   0.230 -0.2737  0.2517 -0.0444
 6215SOL    HW130107   2.857   2.901   0.314 -0.3615  1.2897 -0.4991
 6215SOL    HW230108   2.795   2.852   0.196  0.0804 -2.2752  0.1178
 6216SOL     OW30109   4.168   1.020  13.604 -0.4526  0.1666  0.3132
 6216SOL    HW130110   4.163   1.115  13.591  0.3985  0.0182 -1.1931
 6216SOL    HW230111   4.138   0.997  13.516  1.1410 -0.4857 -0.0691
 6217SOL     OW30112   3.586   0.792   2.716 -0.3818  0.4676  0.1302
 6217SOL    HW130113   3.680   0.780   2.698 -0.3764 -2.6165  2.1248
 6217SOL    HW230114   3.598   0.816   2.808  0.1043  1.1667 -0.1163
 6218SOL     OW30115   1.607   2.654  15.671 -0.2586  0.2265  0.5237
 6218SOL    HW130116   1.561   2.722  15.622  0.6321  0.0388 -0.5702
 6218SOL    HW230117   1.644   2.614  15.592  0.7217  0.1373  1.0221
 6219SOL     OW30118   4.622   3.785  10.014  0.1441  0.4059  0.0828
 6219SOL    HW130119   4.578   3.830   9.942  1.5257 -1.0033 -1.6733
 6219SOL    HW230120   4.685   3.851  10.045  0.1182  0.4672  0.0063
 6220SOL     OW30121   3.226   2.854   4.973  0.1888 -0.1085  0.4848
 6220SOL    HW130122   3.142   2.885   5.007 -0.3783 -3.3217  2.0813
 6220SOL    HW230123   3.187   2.796   4.908  0.2534  0.5248 -0.1187
 6221SOL     OW30124   1.044   0.883   1.250 -0.3304 -0.3165 -0.4892
 6221SOL    HW130125   0.958   0.911   1.219  0.5114  0.4280 -2.1308
 6221SOL    HW230126   1.065   0.952   1.313 -0.3324  0.2864 -1.1449
 6222SOL     OW30127   1.601   0.815  14.432  0.2575  0.3007 -0.0260
 6222SOL    HW130128   1.560   0.900  14.417 -0.0920 -0.1858 -1.8010
 6222SOL    HW230129   1.517   0.771  14.444  0.2891  0.3427  0.3708
 6223SOL     OW30130   1.094   4.643   1.608 -0.4318 -0.2771  0.4586
 6223SOL    HW130131   1.180   4.602   1.621 -0.6190 -0.8067  0.0120
 6223SOL    HW230132   1.071   4.617   1.520 -0.3608  1.2059 -0.0066
 6224SOL     OW30133   1.136   4.703   6.810 -0.4232  0.0142  0.0986
 6224SOL    HW130134   1.094   4.664   6.733  0.5600 -0.9630  0.0510
 6224SOL    HW230135   1.128   4.632   6.874  0.3151 -0.6407 -0.5211
 6225SOL     OW30136   0.210   1.022   7.351 -0.0539  0.3657 -0.4257
 6225SOL    HW130137   0.275   1.022   7.421 -0.0568  1.2664 -0.4139
 6225SOL    HW230138   0.201   0.929   7.333 -1.3435  0.4966 -0.4463
 6226SOL     OW30139   1.411   0.733   1.076 -0.1839  0.2525 -0.4289
 6226SOL    HW130140   1.447   0.650   1.045 -1.0367 -0.1879 -0.2442
 6226SOL    HW230141   1.496   0.777   1.071 -0.8113  1.5183  0.0935
 6227SOL     OW30142   3.049   4.459  17.377 -0.2012 -0.0528  0.3669
 6227SOL    HW130143   3.123   4.501  17.332 -2.2340  0.8341 -2.1859
 6227SOL    HW230144   2.989   4.534  17.380 -1.0162 -0.7764  1.7455
 6228SOL     OW30145   1.916   4.108  13.070  0.1089 -0.2144 -0.5058
 6228SOL    HW130146   1.863   4.068  13.139 -0.3722  3.0852  1.0612
 6228SOL    HW230147   1.994   4.144  13.113  0.6027 -0.2865 -1.3454
 6229SOL     OW30148   3.285   2.950   8.715  0.4259 -0.3171  0.2420
 6229SOL    HW130149   3.375   2.953   8.746  0.9159  0.0147 -1.1905
 6229SOL    HW230150   3.301   2.887   8.645 -1.6177 -0.3431 -0.2203
 6230SOL     OW30151   3.094   3.638   8.273 -0.0595  0.0213 -0.1805
 6230SOL    HW130152   3.147   3.584   8.332  2.4796  2.4354 -0.3096
 6230SOL    HW230153   3.147   3.717   8.282  1.4927 -0.9031 -1.3385
 6231SOL     OW30154   1.516   1.845  17.530 -0.1026  0.3564 -0.3374
 6231SOL    HW130155   1.514   1.915  17.595  0.4874  0.8485 -0.8505
 6231SOL    HW230156   1.446   1.862  17.467 -0.8846  0.7433  0.6459
 6232SOL     OW30157   4.364   3.884  12.737  0.5990 -0.8814 -0.1904
 6232SOL    HW130158   4.453   3.888  12.703  0.8264 -4.7093 -0.0823
 6232SOL    HW230159   4.357   3.789  12.746  1.3658 -0.9478 -0.3439
 6233SOL     OW30160   3.967   3.450  10.626 -0.4506  0.4801  0.5777
 6233SOL    HW130161   3.973   3.544  10.608 -1.8945  0.5773  0.6060
 6233SOL    HW230162   4.020   3.438  10.705  1.8030 -2.1351 -1.3805
 6234SOL     OW30163   1.709   0.060   7.497 -0.1428 -0.1397  0.7152
 6234SOL    HW130164   1.707   4.720   7.572  0.7559 -0.4767  0.4653
 6234SOL    HW230165   1.699   0.145   7.539 -0.7725  0.5345 -0.8216
 6235SOL     OW30166   0.492   2.994  10.349 -0.5391  0.0233 -0.1177
 6235SOL    HW130167   0.554   2.921  10.336 -1.8076 -0.8332 -1.2871
 6235SOL    HW230168   0.549   3.071  10.347  2.2840 -2.1005 -1.9696
 6236SOL     OW30169   2.932   2.125   4.163  0.2736 -0.3586  0.4617
 6236SOL    HW130170   2.899   2.128   4.073 -0.7358 -1.3713  0.8045
 6236SOL    HW230171   2.939   2.031   4.182 -0.8650 -0.8366 -1.5395
 6237SOL     OW30172   1.297   3.849   7.519 -0.2256 -0.1672 -0.8617
 6237SOL    HW130173   1.390   3.867   7.531  0.0604 -1.4926 -1.1893
 6237SOL    HW230174   1.271   3.941   7.520 -3.4519 -1.0517 -0.3636
 6238SOL     OW30175   2.376   2.654   6.851 -0.1687  0.2531  0.0249
 6238SOL    HW130176   2.285   2.640   6.874  0.3836 -2.5468  0.5320
 6238SOL    HW230177   2.376   2.670   6.757 -0.4344  2.4170  0.3824
 6239SOL     OW30178   2.054   1.500   2.600 -0.3261  0.0451 -0.1592
 6239SOL    HW130179   2.087   1.520   2.687  1.3546 -0.8508 -0.5850
 6239SOL    HW230180   2.006   1.577   2.569  0.5802  0.8780  0.5303
 6240SOL     OW30181   0.502   1.904   5.690  0.0939  0.0974 -0.2393
 6240SOL    HW130182   0.415   1.873   5.666  0.5547 -0.7767 -0.8003
 6240SOL    HW230183   0.550   1.829   5.656 -0.9708 -1.2374  1.1953
 6241SOL     OW30184   1.647   4.315   2.826  0.9901  0.3460 -0.6327
 6241SOL    HW130185   1.703   4.298   2.750  1.7619  1.5604 -0.3333
 6241SOL    HW230186   1.600   4.232   2.835 -3.8335  3.1504 -0.0296
 6242SOL     OW30187   0.262   2.245   4.735 -0.2114  0.9059 -0.0473
 6242SOL    HW130188   0.283   2.175   4.797  2.1105  4.1579  2.8242
 6242SOL    HW230189   0.182   2.212   4.694  0.5195 -0.8668 -0.0270
 6243SOL     OW30190   4.590   1.977  15.782 -0.0274 -0.3420 -0.0337
 6243SOL    HW130191   4.634   1.895  15.807 -0.3219 -0.0541  1.4122
 6243SOL    HW230192   4.668   2.031  15.769  0.4295 -0.8990  0.3868
 6244SOL     OW30193   3.967   3.183  17.277 -0.5006 -0.3592  0.0203
 6244SOL    HW130194   4.047   3.131  17.265  0.9118  2.3849 -2.8003
 6244SOL    HW230195   3.946   3.170  17.369 -3.5340 -0.8521 -0.7605
 6245SOL     OW30196   4.219   1.366  17.440  0.0524 -0.2723 -0.0355
 6245SOL    HW130197   4.156   1.294  17.444  2.6735 -2.5791 -0.0814
 6245SOL    HW230198   4.257   1.362  17.352 -0.6148 -1.2737 -0.2739
 6246SOL     OW30199   1.419   1.390   6.859 -0.5074 -0.3933 -0.6283
 6246SOL    HW130200   1.426   1.303   6.820  1.4484 -0.7616  0.5494
 6246SOL    HW230201   1.472   1.370   6.936 -2.1429 -0.2026  0.5392
 6247SOL     OW30202   2.835   4.240   9.045 -0.0869  0.3936 -0.3338
 6247SOL    HW130203   2.740   4.227   9.047 -0.3298  2.5015  1.7932
 6247SOL    HW230204   2.876   4.155   9.060  0.7887  1.3680  2.8318
 6248SOL     OW30205   4.224   3.038   2.272 -0.1117 -0.4425  0.1778
 6248SOL    HW130206   4.231   2.999   2.359 -1.1752 -0.5018  0.2301
 6248SOL    HW230207   4.139   3.002   2.246 -0.9059  1.2348  0.4623
 6249SOL     OW30208   0.078   4.496   2.986  0.2561  0.0222 -0.7684
 6249SOL    HW130209   0.143   4.431   3.010  0.7022  1.9263  3.1293
 6249SOL    HW230210   0.134   4.574   2.982  1.4240 -0.9421 -3.1349
 6250SOL     OW30211   1.527   3.146   7.396 -0.4330 -0.1453  0.0835
 6250SOL    HW130212   1.467   3.209   7.356  1.0505  0.6047 -0.9887
 6250SOL    HW230213   1.492   3.131   7.484  0.1390  0.3833  0.4048
 6251SOL     OW30214   0.097   2.072   6.090 -0.7542 -1.1941 -0.3072
 6251SOL    HW130215   0.095   2.167   6.094 -0.8380 -1.1978 -0.2748
 6251SOL    HW230216   0.192   2.068   6.097 -0.6793 -3.3510 -2.2131
 6252SOL     OW30217   4.172   1.277   0.526  0.7298  0.5159 -0.0454
 6252SOL    HW130218   4.193   1.275   0.432  1.6193 -1.0080  0.2031
 6252SOL    HW230219   4.172   1.373   0.532  1.7545  0.6773 -2.3470
 6253SOL     OW30220   2.559   1.884   2.547  0.2553 -0.3402 -0.4766
 6253SOL    HW130221   2.533   1.868   2.638  1.3181 -1.2012 -0.3219
 6253SOL    HW230222   2.585   1.976   2.550 -0.8491 -0.1139  2.0488
 6254SOL     OW30223   2.791   0.564  12.078 -0.0495 -0.3205 -0.0862
 6254SOL    HW130224   2.880   0.540  12.103  1.0720  3.0241 -0.9230
 6254SOL    HW230225   2.742   0.487  12.109 -0.2759 -0.6268 -1.2089
 6255SOL     OW30226   0.437   4.698   5.697  0.0059 -0.8385 -0.0098
 6255SOL    HW130227   0.408   0.063   5.669 -0.2103  0.1752  3.2991
 6255SOL    HW230228   0.397   4.635   5.637 -2.2454 -1.1973  1.8718
 6256SOL     OW30229   3.798   4.254   9.232  0.0505 -0.5153  0.1667
 6256SOL    HW130230   3.860   4.234   9.303  1.0434  0.6144 -0.3666
 6256SOL    HW230231   3.857   4.268   9.157 -1.4742  0.1451 -0.9085
 6257SOL     OW30232   4.638   2.993   7.735  0.3176 -0.7340  0.1116
 6257SOL    HW130233   4.664   2.902   7.750  1.3642 -0.5286 -0.4401
 6257SOL    HW230234   4.709   3.034   7.785 -0.0335  1.8010 -1.4584
 6258SOL     OW30235   3.928   2.274  16.996 -0.4450  0.4173 -0.3205
 6258SOL    HW130236   3.961   2.247  16.911  0.7233 -0.2795  0.3700
 6258SOL    HW230237   3.857   2.210  17.002 -0.9968  0.9559 -1.1296
 6259SOL     OW30238   0.176   2.864  16.091  0.1463  0.0590  0.5995
 6259SOL    HW130239   0.160   2.831  16.179 -0.1352  0.0030  0.5290
 6259SOL    HW230240   0.106   2.930  16.088 -0.2516 -0.3437  0.9213
 6260SOL     OW30241   2.115   1.661   0.318 -0.4189  0.3347  0.0550
 6260SOL    HW130242   2.065   1.734   0.283 -1.0414  1.3824  3.1209
 6260SOL    HW230243   2.082   1.587   0.266 -1.2651  1.0890 -0.4726
 6261SOL     OW30244   3.868   3.026   9.047  0.0638 -0.0890  0.2681
 6261SOL    HW130245   3.918   2.951   9.078  0.6179 -1.0916 -3.0181
 6261SOL    HW230246   3.795   3.038   9.108  0.8396 -1.8006  1.5310
 6262SOL     OW30247   3.869   3.080   8.788 -0.0538 -0.1398 -0.0618
 6262SOL    HW130248   3.858   3.060   8.881  0.1776  0.4592  0.0905
 6262SOL    HW230249   3.889   2.994   8.751  0.2783 -0.3745  0.6616
 6263SOL     OW30250   2.445   1.145  12.560  0.2216  0.0415 -0.0847
 6263SOL    HW130251   2.434   1.050  12.554  0.2322  0.0547 -0.3272
 6263SOL    HW230252   2.404   1.159  12.474  0.9475 -0.2929 -0.4810
 6264SOL     OW30253   1.252   1.440   5.667 -0.3527  0.0140 -0.8471
 6264SOL    HW130254   1.183   1.457   5.603 -3.2413 -1.8896  1.7590
 6264SOL    HW230255   1.213   1.356   5.691  0.6379 -0.5544 -1.2122
 6265SOL     OW30256   4.413   2.902  14.578  0.5648  0.2648 -0.0158
 6265SOL    HW130257   4.425   2.981  14.526 -1.2286 -0.6979 -1.9031
 6265SOL    HW230258   4.415   2.936  14.668 -3.2878  0.2011  0.0928
 6266SOL     OW30259   3.475   3.583   2.594 -0.2344 -0.0891 -0.5325
 6266SOL    HW130260   3.535   3.657   2.584  0.5114 -0.4035  1.5323
 6266SOL    HW230261   3.515   3.541   2.671 -0.7838  0.4122  0.0249
 6267SOL     OW30262   1.038   3.149   2.949 -0.1652  0.1357  0.3243
 6267SOL    HW130263   1.089   3.217   2.992  0.6254  0.1626 -0.6577
 6267SOL    HW230264   1.052   3.157   2.854  1.0482  0.8464  0.5669
 6268SOL     OW30265   3.769   0.021  12.385 -0.7775  0.1383  0.1661
 6268SOL    HW130266   3.839   0.060  12.332  0.1042  2.2686  2.9244
 6268SOL    HW230267   3.719   4.701  12.314 -2.3158  1.5752  0.4080
 6269SOL     OW30268   3.008   3.736   0.144 -0.2226 -0.0741  0.4279
 6269SOL    HW130269   2.924   3.741   0.189  0.1727  0.3604  1.1207
 6269SOL    HW230270   2.995   3.665   0.081  1.4643  0.8289 -0.9177
 6270SOL     OW30271   4.107   2.390  15.205 -0.0872  0.0128 -0.2723
 6270SOL    HW130272   4.057   2.380  15.124 -0.4587 -0.3125 -0.0035
 6270SOL    HW230273   4.069   2.312  15.246  1.9159 -0.3759  0.8611
 6271SOL     OW30274   1.243   0.098  16.912  0.1659 -0.4111 -0.7302
 6271SOL    HW130275   1.278   0.127  16.828 -0.5164 -0.1462 -0.9223
 6271SOL    HW230276   1.322   0.085  16.965  0.7240  0.3705 -1.3749
 6272SOL     OW30277   0.531   1.870   7.604 -0.3219  0.5026 -0.0946
 6272SOL    HW130278   0.436   1.870   7.596 -0.1903  0.4741 -1.6314
 6272SOL    HW230279   0.548   1.961   7.628 -1.5108  0.8816 -0.7361
 6273SOL     OW30280   3.702   2.408  13.365  0.3512  0.1369  0.0594
 6273SOL    HW130281   3.721   2.487  13.315 -1.1012 -1.5979 -3.3304
 6273SOL    HW230282   3.785   2.401  13.411  0.6992 -2.1831 -0.8780
 6274SOL     OW30283   1.650   1.107   2.473 -0.8131 -0.0052  0.2440
 6274SOL    HW130284   1.566   1.065   2.451 -1.7056  2.2065 -0.6060
 6274SOL    HW230285   1.684   1.035   2.525  1.9283  0.9460 -0.2723
 6275SOL     OW30286   3.868   4.039   1.213 -0.1669  0.3059  0.0224
 6275SOL    HW130287   3.909   4.088   1.143  1.0223 -1.6310 -0.6483
 6275SOL    HW230288   3.786   4.013   1.170 -1.4553  2.8101  0.9928
 6276SOL     OW30289   4.540   1.428  13.426 -0.0227  0.0353  0.4521
 6276SOL    HW130290   4.455   1.386  13.432 -0.7561  1.2791 -1.3353
 6276SOL    HW230291   4.502   1.516  13.433  0.9192  0.6002 -1.6129
 6277SOL     OW30292   2.596   2.918  10.206 -0.0169 -0.2017  0.3442
 6277SOL    HW130293   2.511   2.958  10.188 -0.5276 -0.8068  1.4449
 6277SOL    HW230294   2.629   2.968  10.281  1.9548  1.0684 -1.3453
 6278SOL     OW30295   4.525   0.818   9.928  0.2735 -0.1063 -0.8284
 6278SOL    HW130296   4.587   0.745   9.928 -0.2933 -0.5856 -1.3738
 6278SOL    HW230297   4.446   0.776   9.893  0.0796 -0.4365 -0.0123
 6279SOL     OW30298   1.893   2.636   5.211 -0.2423 -0.3164 -0.2104
 6279SOL    HW130299   1.976   2.682   5.220  0.7867 -2.4117  0.9044
 6279SOL    HW230300   1.872   2.646   5.118  0.3511  1.8139 -0.1169
 6280SOL     OW30301   1.049   4.363   1.702  0.1826  0.1033 -0.3291
 6280SOL    HW130302   1.021   4.355   1.611 -1.4659 -0.3138  0.2074
 6280SOL    HW230303   1.133   4.400   1.675 -1.0084  2.4453 -0.8256
 6281SOL     OW30304   0.044   0.282   3.752 -0.2578 -0.2836 -0.2131
 6281SOL    HW130305   0.042   0.217   3.682 -0.0705 -1.9969  1.3629
 6281SOL    HW230306   0.136   0.278   3.778  0.3595 -2.3161 -2.6274
 6282SOL     OW30307   1.193   3.803   1.584 -0.1355 -0.0375 -0.4465
 6282SOL    HW130308   1.129   3.753   1.634 -0.3144  0.3623 -0.2822
 6282SOL    HW230309   1.212   3.876   1.642 -0.5517 -0.1130 -0.2115
 6283SOL     OW30310   4.232   0.239  16.659  0.0937 -0.0530 -0.3039
 6283SOL    HW130311   4.212   0.214  16.568  1.4423  1.4206 -1.0043
 6283SOL    HW230312   4.145   0.246  16.698  1.0168 -1.8507  2.0423
 6284SOL     OW30313   2.140   2.116   3.858  0.6188 -0.6115 -0.3838
 6284SOL    HW130314   2.074   2.181   3.883 -1.8037 -1.8251 -3.5150
 6284SOL    HW230315   2.220   2.165   3.876 -0.8952  1.6418  0.3058
 6285SOL     OW30316   2.577   2.347   5.576 -0.2574 -0.5314  0.0494
 6285SOL    HW130317   2.545   2.371   5.663 -3.2091  0.1272 -1.2115
 6285SOL    HW230318   2.564   2.252   5.572 -1.3304 -0.4049  0.4459
 6286SOL     OW30319   3.129   4.162   4.917  0.2049  0.4138  0.0308
 6286SOL    HW130320   3.102   4.071   4.928  1.4375 -0.1691 -1.8251
 6286SOL    HW230321   3.074   4.200   4.849  1.5003  0.4739 -0.9811
 6287SOL     OW30322   1.286   4.285  14.486 -0.1223 -0.1289 -0.6040
 6287SOL    HW130323   1.221   4.263  14.554  1.5335 -0.6113  0.8222
 6287SOL    HW230324   1.234   4.256  14.411  2.1598 -1.4862 -1.6374
 6288SOL     OW30325   3.409   1.008   3.545  0.6190  0.5961 -0.0014
 6288SOL    HW130326   3.473   1.029   3.612 -0.6029 -1.6799  1.8429
 6288SOL    HW230327   3.454   0.933   3.508  1.2261 -0.1385  2.2473
 6289SOL     OW30328   0.805   1.985   3.376  0.6672  0.1205  0.1148
 6289SOL    HW130329   0.834   1.927   3.305  1.3081 -0.3513  0.7726
 6289SOL    HW230330   0.731   1.933   3.410  0.6044 -0.5207 -0.9844
 6290SOL     OW30331   3.938   4.481   3.904 -0.3912  0.3753  0.9470
 6290SOL    HW130332   4.028   4.497   3.931 -1.1612  1.0788  3.1648
 6290SOL    HW230333   3.921   4.560   3.853 -0.5451 -0.4343 -0.2444
 6291SOL     OW30334   1.585   1.110   4.800  0.3313  0.2805  0.2351
 6291SOL    HW130335   1.515   1.172   4.822  0.2254  0.4360 -0.5374
 6291SOL    HW230336   1.561   1.101   4.707 -1.9196 -0.1085  0.8533
 6292SOL     OW30337   1.168   3.702   8.020  0.3996  0.7240 -0.0791
 6292SOL    HW130338   1.101   3.696   8.088  0.8019  1.4420  0.3722
 6292SOL    HW230339   1.112   3.695   7.942 -0.4478 -0.0841  0.6007
 6293SOL     OW30340   0.558   2.832   0.203  0.6115 -0.4598  0.0728
 6293SOL    HW130341   0.473   2.871   0.223  1.8400  2.1996  0.0721
 6293SOL    HW230342   0.580   2.774   0.276  2.6983 -0.1617 -0.3113
 6294SOL     OW30343   3.330   1.723   5.774  0.2067  0.4715 -0.2740
 6294SOL    HW130344   3.357   1.635   5.801  0.2343  0.4080 -0.5125
 6294SOL    HW230345   3.316   1.758   5.862  0.9744 -0.9998  0.4343
 6295SOL     OW30346   1.978   4.071   4.290  0.3876 -0.3635  0.0504
 6295SOL    HW130347   1.987   4.022   4.371  2.3443  0.8552  0.5655
 6295SOL    HW230348   1.895   4.039   4.255  0.5340 -1.8337  1.0752
 6296SOL     OW30349   4.143   0.582  11.087  0.3114  0.2365  0.2098
 6296SOL    HW130350   4.188   0.617  11.010 -0.9139 -0.2888 -0.7566
 6296SOL    HW230351   4.056   0.623  11.085 -0.3315 -1.1767 -2.4187
 6297SOL     OW30352   1.407   4.697  11.893  0.6499 -0.1530 -0.2078
 6297SOL    HW130353   1.322   4.661  11.919  1.2255 -1.2370  0.1831
 6297SOL    HW230354   1.462   4.659  11.962 -0.1194 -1.0619 -0.0951
 6298SOL     OW30355   1.097   0.577  15.967  0.5122  0.4151  0.3420
 6298SOL    HW130356   1.067   0.662  15.934  0.2075 -0.2106 -1.0079
 6298SOL    HW230357   1.050   0.573  16.050  0.8588  1.8417  0.6149
 6299SOL     OW30358   0.760   2.183   7.780  0.7959  0.3088  0.1017
 6299SOL    HW130359   0.757   2.095   7.816  0.4358 -0.5179 -1.9283
 6299SOL    HW230360   0.680   2.217   7.820 -0.5488 -2.7158  0.0371
 6300SOL     OW30361   0.860   2.641   8.252  0.4491 -0.8143  0.8021
 6300SOL    HW130362   0.780   2.618   8.204 -1.1304  2.7489  1.7335
 6300SOL    HW230363   0.898   2.556   8.273  1.1467 -0.6039  0.3942
 6301SOL     OW30364   4.632   2.800   2.319 -0.0120  0.3040  0.1423
 6301SOL    HW130365   4.577   2.864   2.274 -0.1111 -0.9308 -1.4982
 6301SOL    HW230366   4.570   2.745   2.367  0.8556 -1.1259 -0.3883
 6302SOL     OW30367   0.334   3.585   5.675 -0.1558 -0.3930  0.2232
 6302SOL    HW130368   0.264   3.566   5.737 -1.3049  1.4935 -0.4818
 6302SOL    HW230369   0.296   3.571   5.588 -4.6036  2.1591  1.7475
 6303SOL     OW30370   1.855   1.517   7.520  0.2701 -0.2697 -0.0377
 6303SOL    HW130371   1.936   1.548   7.479  0.0915  0.2430 -0.0079
 6303SOL    HW230372   1.870   1.518   7.614 -1.3534  1.0178  0.2158
 6304SOL     OW30373   0.416   2.001   8.744  0.3708 -0.0760  0.1927
 6304SOL    HW130374   0.431   1.979   8.836  1.0158 -1.2355 -0.1872
 6304SOL    HW230375   0.415   2.094   8.763 -0.2390 -0.5909  2.5901
 6305SOL     OW30376   0.833   0.668   7.206 -0.0281  0.1116 -0.3084
 6305SOL    HW130377   0.923   0.685   7.235 -1.0032 -0.6408  3.1086
 6305SOL    HW230378   0.852   0.677   7.112  0.4331  2.4350  0.0018
 6306SOL     OW30379   3.163   0.868   1.471  0.4405 -0.3430 -0.1534
 6306SOL    HW130380   3.253   0.850   1.497  0.5860 -0.6276 -0.8409
 6306SOL    HW230381   3.110   0.815   1.531 -0.9864 -1.7509 -2.6165
 6307SOL     OW30382   3.687   2.477  11.470  0.0578 -0.5388  0.4398
 6307SOL    HW130383   3.608   2.424  11.464 -0.2372 -0.3281  2.5582
 6307SOL    HW230384   3.745   2.401  11.461 -0.0191 -0.0968 -3.8713
 6308SOL     OW30385   1.465   0.935   6.240 -0.0076  0.2688  0.1270
 6308SOL    HW130386   1.463   0.997   6.167 -0.3462 -0.4178 -0.4333
 6308SOL    HW230387   1.543   0.964   6.289  0.5018 -1.5579  0.3855
 6309SOL     OW30388   0.159   4.503  12.460  0.0955  0.3028  0.1356
 6309SOL    HW130389   0.184   4.571  12.397  2.0526 -1.4914 -1.0363
 6309SOL    HW230390   0.069   4.532  12.474  0.1949  0.9961 -0.6345
 6310SOL     OW30391   3.849   3.709   9.750  0.2818 -0.2186  0.2012
 6310SOL    HW130392   3.845   3.741   9.660 -0.1472  2.8767  1.3296
 6310SOL    HW230393   3.807   3.781   9.796 -0.3978 -0.2125 -0.4444
 6311SOL     OW30394   4.482   0.563  11.029  0.4523  0.2754 -0.1696
 6311SOL    HW130395   4.541   0.527  11.095  0.3873 -0.5950 -0.5804
 6311SOL    HW230396   4.529   0.645  11.018 -0.8275  0.9659 -0.4578
 6312SOL     OW30397   0.664   3.963   2.502  0.0866  0.1013  0.5018
 6312SOL    HW130398   0.624   4.039   2.459  3.0429  1.5790  0.3979
 6312SOL    HW230399   0.740   3.938   2.450 -0.1639 -1.4386  0.8903
 6313SOL     OW30400   0.240   0.653   7.083 -0.1274 -0.1992  0.0924
 6313SOL    HW130401   0.164   0.678   7.031 -0.2757 -0.3213  0.2542
 6313SOL    HW230402   0.240   0.560   7.059 -0.8329 -0.4686  1.1509
 6314SOL     OW30403   2.527   2.555   9.926  0.2407 -0.2008 -0.3077
 6314SOL    HW130404   2.549   2.480   9.870  1.3500  1.1636 -1.6926
 6314SOL    HW230405   2.480   2.511   9.997 -0.0468  0.5124 -0.0608
 6315SOL     OW30406   1.746   2.216  16.966 -0.4720 -0.0681 -0.1259
 6315SOL    HW130407   1.807   2.255  16.903 -0.3502  2.3412  1.4826
 6315SOL    HW230408   1.793   2.133  16.981  2.2473  1.7672  1.4738
 6316SOL     OW30409   2.733   2.665   4.500 -0.2338  0.0755 -0.2632
 6316SOL    HW130410   2.670   2.712   4.445 -0.6199 -0.6382 -0.4249
 6316SOL    HW230411   2.704   2.576   4.479  0.9015 -1.1111  3.1854
 6317SOL     OW30412   3.390   1.301  12.304  0.3832 -0.5177 -0.0473
 6317SOL    HW130413   3.436   1.285  12.386  0.5882  1.8902  0.2981
 6317SOL    HW230414   3.306   1.264  12.331 -0.7933  0.1741 -2.7681
 6318SOL     OW30415   2.810   3.852  12.512 -0.1165 -0.6775  0.0299
 6318SOL    HW130416   2.726   3.813  12.537  0.3117  0.4818  3.3134
 6318SOL    HW230417   2.814   3.826  12.420 -0.0805 -0.4750 -0.0265
 6319SOL     OW30418   1.290   2.084   1.696  0.1244 -0.8611  0.1206
 6319SOL    HW130419   1.267   2.052   1.783 -1.0851  1.0813  0.5299
 6319SOL    HW230420   1.220   2.149   1.687  0.2879 -0.7628 -0.4355
 6320SOL     OW30421   3.352   1.223   7.485  0.1000 -0.4176  0.2830
 6320SOL    HW130422   3.269   1.224   7.437 -0.3339 -0.7208  1.0362
 6320SOL    HW230423   3.370   1.130   7.477  1.5070 -0.1141 -0.1559
 6321SOL     OW30424   3.606   3.373   4.100  0.6226  0.2447 -0.0549
 6321SOL    HW130425   3.552   3.294   4.090  0.1865  0.6241 -0.6859
 6321SOL    HW230426   3.581   3.399   4.188 -1.0062  1.0811 -0.7741
 6322SOL     OW30427   3.363   3.651   5.982  0.3158  0.4168  0.1751
 6322SOL    HW130428   3.437   3.678   6.036 -0.2123 -1.4639  1.8263
 6322SOL    HW230429   3.411   3.623   5.903 -0.3564  4.1785 -1.5729
 6323SOL     OW30430   3.572   1.869   3.603  0.2385  0.9413 -0.0501
 6323SOL    HW130431   3.554   1.941   3.663 -1.2723  0.8521 -0.3921
 6323SOL    HW230432   3.657   1.887   3.564  0.0052  1.6262 -0.2299
 6324SOL     OW30433   2.804   0.909   5.808 -0.5407 -0.2074  0.0414
 6324SOL    HW130434   2.718   0.932   5.845 -1.7472 -3.6241 -0.6365
 6324SOL    HW230435   2.801   0.971   5.736 -0.7442  0.9644  1.0605
 6325SOL     OW30436   0.678   3.658   3.679  0.0506 -0.3551 -0.0593
 6325SOL    HW130437   0.622   3.603   3.624  1.5521 -0.6447 -1.2907
 6325SOL    HW230438   0.676   3.738   3.625  0.0027  1.0341  1.9954
 6326SOL     OW30439   1.349   4.366  16.718 -0.2085 -0.4821 -0.2755
 6326SOL    HW130440   1.368   4.346  16.810 -4.7134  2.7210  1.4084
 6326SOL    HW230441   1.312   4.279  16.707 -1.2494  0.0033 -0.5863
 6327SOL     OW30442   0.250   3.976  13.297 -0.2454  0.1067 -0.0275
 6327SOL    HW130443   0.294   4.025  13.366  0.7129 -3.0440  1.5773
 6327SOL    HW230444   0.257   3.893  13.343  1.1523  0.3843  0.2705
 6328SOL     OW30445   2.997   2.717   4.138  0.4414 -0.3063  0.2119
 6328SOL    HW130446   2.992   2.623   4.124 -1.5031 -0.1632 -0.1053
 6328SOL    HW230447   3.091   2.721   4.123  0.2630  1.0088 -0.5817
 6329SOL     OW30448   1.749   2.843   6.181  0.1962 -0.2232 -0.4847
 6329SOL    HW130449   1.822   2.904   6.181  0.7081 -0.8367 -0.5065
 6329SOL    HW230450   1.785   2.760   6.212  0.8801 -0.4260 -1.8074
 6330SOL     OW30451   4.223   0.571  17.266 -0.2333  0.7640 -0.1797
 6330SOL    HW130452   4.207   0.661  17.296 -0.3791  0.3490  0.9817
 6330SOL    HW230453   4.299   0.550  17.320 -0.7412  2.0231  1.0224
 6331SOL     OW30454   1.284   0.215  14.450  0.0426 -0.0945 -0.2840
 6331SOL    HW130455   1.360   0.215  14.393  0.5868 -0.4909  0.4423
 6331SOL    HW230456   1.277   0.310  14.459 -0.8217 -0.3206  1.4145
 6332SOL     OW30457   1.236   0.341   6.576 -0.0233 -0.1274  0.6595
 6332SOL    HW130458   1.260   0.392   6.498  3.0293 -0.9399  1.1002
 6332SOL    HW230459   1.205   0.262   6.531 -1.7891 -0.3402  2.2614
 6333SOL     OW30460   0.835   3.500   4.804 -0.3368 -0.3422 -0.2635
 6333SOL    HW130461   0.835   3.532   4.894 -1.6088 -3.5866  0.9083
 6333SOL    HW230462   0.766   3.434   4.811 -1.2219  0.7172  0.7320
 6334SOL     OW30463   2.032   3.915  10.634  0.0626  0.0001  0.0717
 6334SOL    HW130464   2.086   3.948  10.705  1.8156 -2.2119 -0.2199
 6334SOL    HW230465   1.964   3.875  10.689 -0.6909 -1.1727 -1.7026
 6335SOL     OW30466   0.994   2.817  11.082 -0.5185 -0.4992  0.5223
 6335SOL    HW130467   0.976   2.812  11.176  0.1141 -0.3235  0.6540
 6335SOL    HW230468   1.086   2.792  11.079 -0.2716  0.7043 -1.7451
 6336SOL     OW30469   3.301   1.164   8.416  0.0032  0.2919  0.4300
 6336SOL    HW130470   3.372   1.207   8.463 -0.8090  1.0193  0.9944
 6336SOL    HW230471   3.261   1.104   8.480  1.6300 -0.8576  0.3822
 6337SOL     OW30472   1.800   3.921   9.994  0.2256  0.2611  0.9407
 6337SOL    HW130473   1.857   3.844   9.986 -0.5758 -0.3702  1.4068
 6337SOL    HW230474   1.854   3.995   9.965  1.4221 -0.5712  1.0185
 6338SOL     OW30475   3.069   2.176  12.573  0.6326 -0.1087  0.1355
 6338SOL    HW130476   3.038   2.105  12.629 -1.9173  1.4032  0.6398
 6338SOL    HW230477   3.033   2.245  12.629  1.2659  0.5344 -0.2516
 6339SOL     OW30478   3.575   2.331   7.630  0.0300 -0.1171 -0.2399
 6339SOL    HW130479   3.537   2.396   7.690  0.1061 -0.3556  0.0677
 6339SOL    HW230480   3.518   2.255   7.639 -0.6519  0.3243 -0.8635
 6340SOL     OW30481   3.587   2.231  14.113  0.6134  0.8627 -0.1016
 6340SOL    HW130482   3.607   2.281  14.034 -0.9468  0.7488 -0.5775
 6340SOL    HW230483   3.572   2.295  14.183 -1.5585 -0.7538  0.9137
 6341SOL     OW30484   1.446   3.133  14.547  0.3802  0.4581 -0.2107
 6341SOL    HW130485   1.447   3.039  14.564 -1.4985  0.5031  0.2063
 6341SOL    HW230486   1.539   3.147  14.527  0.7334 -0.8762  0.5330
 6342SOL     OW30487   4.577   1.592   3.302  0.2138  0.3915  0.5967
 6342SOL    HW130488   4.574   1.605   3.207 -1.0320 -2.0599  0.3045
 6342SOL    HW230489   4.597   1.499   3.310 -3.2393 -0.4496 -0.4240
 6343SOL     OW30490   1.383   1.045   1.983  0.5770 -0.0167 -0.1780
 6343SOL    HW130491   1.341   0.959   1.994 -0.6516  0.7558  1.1625
 6343SOL    HW230492   1.471   1.019   1.957 -0.9608 -1.1096 -4.2394
 6344SOL     OW30493   1.357   2.141  13.952 -0.1861  0.0129 -0.8608
 6344SOL    HW130494   1.440   2.185  13.968 -0.6992  0.6790 -0.0498
 6344SOL    HW230495   1.297   2.216  13.948  1.4417  1.2982 -0.9065
 6345SOL     OW30496   4.591   2.083   1.793 -0.0609  0.1289  0.1400
 6345SOL    HW130497   4.510   2.094   1.842  0.8688  2.2005  1.1953
 6345SOL    HW230498   4.567   2.014   1.730  1.8213  0.3942 -0.8656
 6346SOL     OW30499   3.401   3.590   4.077  0.7684  0.6993 -0.6380
 6346SOL    HW130500   3.332   3.613   4.139  0.6108 -1.9751  0.1581
 6346SOL    HW230501   3.427   3.502   4.103  0.6991  0.1611 -2.3730
 6347SOL     OW30502   0.732   3.018   8.801  0.3075 -0.4531 -0.4386
 6347SOL    HW130503   0.705   3.057   8.884 -0.6431 -0.2372 -0.8545
 6347SOL    HW230504   0.801   2.955   8.824  0.9029  0.8752  1.4568
 6348SOL     OW30505   2.074   2.589   5.690 -0.1793 -0.2443 -0.3078
 6348SOL    HW130506   2.115   2.512   5.650  0.5056  0.0590 -0.1989
 6348SOL    HW230507   1.992   2.579   5.643  0.4536 -1.7725 -1.0941
 6349SOL     OW30508   3.163   2.758   9.462  0.2435  0.3193 -0.3736
 6349SOL    HW130509   3.086   2.711   9.494  0.4271 -0.4945 -1.1308
 6349SOL    HW230510   3.172   2.828   9.527  1.8853 -2.2141  2.1553
 6350SOL     OW30511   1.833   3.207  13.054 -0.9667  0.5957  0.2598
 6350SOL    HW130512   1.810   3.294  13.084 -0.9085  0.5426  0.4548
 6350SOL    HW230513   1.928   3.211  13.044 -0.8716 -0.6613  0.5667
 6351SOL     OW30514   3.523   0.670  17.224 -0.5519  0.2071  0.8188
 6351SOL    HW130515   3.553   0.759  17.244 -0.7320 -0.0198  2.0624
 6351SOL    HW230516   3.432   0.685  17.197 -0.4319 -2.2374 -0.9331
 6352SOL     OW30517   2.669   1.184   6.957 -0.6882  0.0987 -0.2716
 6352SOL    HW130518   2.581   1.208   6.984 -0.5069  0.2686  0.1754
 6352SOL    HW230519   2.672   1.109   7.016  1.6875 -0.4405 -1.0916
 6353SOL     OW30520   0.517   1.831   7.191 -0.0980  0.2654  0.2920
 6353SOL    HW130521   0.534   1.835   7.097  0.0242  1.4879  0.3750
 6353SOL    HW230522   0.467   1.911   7.205 -0.6968 -0.2488  1.1703
 6354SOL     OW30523   1.749   2.681  12.710 -0.2776 -0.7281 -0.0749
 6354SOL    HW130524   1.685   2.695  12.640 -0.6131 -4.4904 -0.5199
 6354SOL    HW230525   1.784   2.770  12.714  2.0206 -1.6069 -0.6607
 6355SOL     OW30526   3.333   1.262  12.051 -0.0166 -0.2338 -0.5817
 6355SOL    HW130527   3.355   1.275  12.144 -1.9654 -3.0027  0.2331
 6355SOL    HW230528   3.373   1.339  12.010  1.9812 -1.9313 -1.8526
 6356SOL     OW30529   4.297   3.858   1.363 -0.0169 -0.3541 -0.0691
 6356SOL    HW130530   4.271   3.942   1.323 -0.0901 -1.0833 -1.5651
 6356SOL    HW230531   4.327   3.891   1.448 -1.9183 -2.1895  1.3209
 6357SOL     OW30532   0.560   1.412   7.956 -0.1237  0.3224 -0.3688
 6357SOL    HW130533   0.490   1.355   7.988  0.9306  0.1798  1.6678
 6357SOL    HW230534   0.514   1.495   7.973  0.5728 -0.0589  3.2550
 6358SOL     OW30535   0.149   3.523   1.227  0.0345  0.0746 -0.3430
 6358SOL    HW130536   0.055   3.538   1.235  0.2226  0.3459  1.3835
 6358SOL    HW230537   0.182   3.607   1.258 -2.8216  0.2160  2.2370
 6359SOL     OW30538   0.977   4.620   4.867 -0.3432 -0.0809  0.1486
 6359SOL    HW130539   0.925   4.557   4.817  0.0037 -0.1466 -0.1257
 6359SOL    HW230540   1.067   4.588   4.865  0.4951  2.2875 -0.1231
 6360SOL     OW30541   2.972   3.040   9.231  0.4869 -0.4355  0.2979
 6360SOL    HW130542   2.910   3.031   9.302  0.6095  1.3190  0.6425
 6360SOL    HW230543   2.967   2.952   9.194 -0.1252  0.2882 -1.3673
 6361SOL     OW30544   0.265   1.080  15.692  0.0783  0.1222 -0.1618
 6361SOL    HW130545   0.176   1.083  15.727  0.1962 -0.3987  0.1781
 6361SOL    HW230546   0.285   1.174  15.682  1.7323 -0.3302 -1.1789
 6362SOL     OW30547   4.224   0.946   4.541  0.1882  0.5089  0.4009
 6362SOL    HW130548   4.226   1.016   4.606 -2.0743  0.7892  0.1532
 6362SOL    HW230549   4.215   1.007   4.468  0.8376 -2.4331 -2.1254
 6363SOL     OW30550   3.138   2.878   2.342  0.0897 -0.3540 -0.0541
 6363SOL    HW130551   3.161   2.848   2.254  0.0364 -0.3924 -0.0545
 6363SOL    HW230552   3.215   2.931   2.362 -1.0574  1.3620 -0.1173
 6364SOL     OW30553   3.715   2.872   3.550  0.0659  0.3066 -0.2101
 6364SOL    HW130554   3.792   2.924   3.573  0.1407 -0.3806  1.0853
 6364SOL    HW230555   3.753   2.836   3.470 -1.5918  0.2834 -0.9880
 6365SOL     OW30556   0.473   4.097   1.732 -0.5338 -0.5399 -0.2604
 6365SOL    HW130557   0.431   4.133   1.654  0.6542 -1.0531 -1.1250
 6365SOL    HW230558   0.407   4.043   1.776 -0.2832  1.5902  2.6940
 6366SOL     OW30559   2.675   3.051   8.815 -0.4268  0.4067 -0.1211
 6366SOL    HW130560   2.754   3.077   8.767  0.0238 -2.2006 -0.8418
 6366SOL    HW230561   2.625   3.009   8.745 -1.9978  0.7426  0.8244
 6367SOL     OW30562   4.009   4.712   7.138 -0.2138 -0.2039  0.2056
 6367SOL    HW130563   3.933   4.703   7.081 -0.3611 -0.6782  0.4747
 6367SOL    HW230564   4.009   0.086   7.139 -2.2870 -0.1902 -1.5679
 6368SOL     OW30565   1.099   2.349   7.603  0.0258 -0.0778  0.4168
 6368SOL    HW130566   1.052   2.430   7.620 -1.0822 -0.8777  1.1833
 6368SOL    HW230567   1.022   2.292   7.600 -0.5502  0.7117  0.1817
 6369SOL     OW30568   3.054   0.563   8.494  0.0706 -0.3213 -0.3893
 6369SOL    HW130569   3.051   0.523   8.581  2.1149 -0.2380 -0.2839
 6369SOL    HW230570   3.096   0.646   8.514 -0.5252  0.0507 -0.6953
 6370SOL     OW30571   1.460   1.247   1.005  0.1505  0.2767  0.4764
 6370SOL    HW130572   1.446   1.226   0.913 -1.1958 -3.4532  1.5329
 6370SOL    HW230573   1.491   1.163   1.039 -1.4792 -1.3656 -2.1345
 6371SOL     OW30574   4.121   2.285   2.595 -0.9078  0.1113 -0.1772
 6371SOL    HW130575   4.185   2.290   2.525 -0.1165  1.1489  0.6221
 6371SOL    HW230576   4.155   2.346   2.661 -0.5112  0.5258 -0.7650
 6372SOL     OW30577   2.042   4.295   6.523 -0.1188 -0.1001  0.3165
 6372SOL    HW130578   1.997   4.305   6.607 -0.6030 -2.8508  0.3665
 6372SOL    HW230579   1.988   4.347   6.463  0.4869  1.5428  1.1974
 6373SOL     OW30580   4.368   0.202   4.996 -0.2245  0.2487 -0.4655
 6373SOL    HW130581   4.417   0.276   4.960  0.1788  0.7171  1.0259
 6373SOL    HW230582   4.298   0.205   4.931  0.9574  2.7072 -1.6255
 6374SOL     OW30583   3.624   1.799   8.140 -0.0700  0.3579 -0.2032
 6374SOL    HW130584   3.641   1.706   8.151  0.5211  0.7858  2.3482
 6374SOL    HW230585   3.692   1.832   8.080  0.0097  2.8713  1.2618
 6375SOL     OW30586   4.608   0.844  16.739  0.5406 -0.6608 -0.2937
 6375SOL    HW130587   4.649   0.773  16.789  1.9117  2.0749  2.4416
 6375SOL    HW230588   4.683   0.891  16.702 -0.3361  0.6283 -0.4528
 6376SOL     OW30589   1.171   0.308   5.514 -0.2867  0.4965 -0.1014
 6376SOL    HW130590   1.183   0.395   5.551 -0.5687  0.5435 -0.1177
 6376SOL    HW230591   1.076   0.298   5.516 -0.1460 -0.6248  0.8726
 6377SOL     OW30592   3.330   1.998   8.447  0.4416  0.2080  0.4537
 6377SOL    HW130593   3.300   1.954   8.526 -0.0005  0.4963  0.4437
 6377SOL    HW230594   3.262   1.979   8.383  0.4384 -0.3955  0.6325
 6378SOL     OW30595   0.735   3.713   5.399  0.0526 -0.0454 -0.6543
 6378SOL    HW130596   0.698   3.726   5.486 -0.2592  1.6713 -1.0481
 6378SOL    HW230597   0.736   3.799   5.358  0.1444 -0.2223 -1.0257
 6379SOL     OW30598   2.989   3.120   8.038  0.2835 -0.3042 -0.4882
 6379SOL    HW130599   2.932   3.177   7.987  0.3097 -0.6613 -0.9177
 6379SOL    HW230600   3.071   3.168   8.038 -0.2210  0.5555  0.3773
 6380SOL     OW30601   2.215   3.703   3.831  1.0715 -0.2682 -0.4811
 6380SOL    HW130602   2.261   3.669   3.755  3.0795  0.1410  0.5580
 6380SOL    HW230603   2.210   3.794   3.802  0.7998 -0.6446 -1.6016
 6381SOL     OW30604   0.401   2.734  16.691  0.1758  0.3432 -0.3863
 6381SOL    HW130605   0.398   2.818  16.737  1.4473 -1.1820  2.4720
 6381SOL    HW230606   0.479   2.756  16.640 -0.4561  1.4460 -0.8781
 6382SOL     OW30607   0.039   0.733   9.674 -0.3566  0.1469 -0.1666
 6382SOL    HW130608   0.092   0.804   9.710 -0.4351  0.7620 -1.2756
 6382SOL    HW230609   0.062   0.737   9.581 -0.1470 -1.2843 -0.1782
 6383SOL     OW30610   0.129   1.623  11.188  0.1381  0.6038 -0.4636
 6383SOL    HW130611   0.062   1.604  11.123 -0.1674  1.9800 -0.5517
 6383SOL    HW230612   0.180   1.694  11.147  0.2976  0.7050 -0.0909
 6384SOL     OW30613   2.203   3.468  11.998 -0.5386  0.8399 -0.4515
 6384SOL    HW130614   2.191   3.441  11.907  2.8953  0.0061 -0.6808
 6384SOL    HW230615   2.284   3.423  12.023 -1.9681 -1.3936  0.1618
 6385SOL     OW30616   3.035   4.265   5.548 -0.4924 -0.2169 -0.0791
 6385SOL    HW130617   2.981   4.191   5.518  1.4007 -1.2726 -0.9159
 6385SOL    HW230618   3.000   4.286   5.634  1.5759 -1.7392  1.1181
 6386SOL     OW30619   4.222   0.866   4.225  0.5097  0.3452 -0.1882
 6386SOL    HW130620   4.317   0.876   4.222  0.5318  0.2625  0.1426
 6386SOL    HW230621   4.200   0.958   4.241 -0.6759 -0.2831  1.8629
 6387SOL     OW30622   3.128   1.611   0.579  0.0685 -0.1658 -0.2335
 6387SOL    HW130623   3.034   1.630   0.579  0.2695  0.8326 -1.2943
 6387SOL    HW230624   3.147   1.623   0.672  0.4465 -0.2873 -0.2956
 6388SOL     OW30625   3.173   2.465  15.491  0.1575  0.1631  0.4219
 6388SOL    HW130626   3.108   2.515  15.540  1.4605  0.0244  2.2974
 6388SOL    HW230627   3.250   2.476  15.547  0.6321  0.0024 -0.2038
 6389SOL     OW30628   1.171   3.088   8.936  0.1819  0.6727 -0.0955
 6389SOL    HW130629   1.076   3.088   8.944  0.1732  1.7831 -0.2196
 6389SOL    HW230630   1.189   3.079   9.030 -0.5772  0.7515  0.0540
 6390SOL     OW30631   2.486   3.485   2.533  0.1846  0.2209  0.2524
 6390SOL    HW130632   2.541   3.541   2.478 -0.2335  1.3455  0.9810
 6390SOL    HW230633   2.522   3.402   2.504 -0.2293 -0.9333  3.0628
 6391SOL     OW30634   3.387   1.514   5.076 -0.3240 -0.2073 -0.0950
 6391SOL    HW130635   3.457   1.500   5.140 -0.2050 -1.5780 -0.5235
 6391SOL    HW230636   3.428   1.468   5.003  2.6598  0.6466  1.0339
 6392SOL     OW30637   3.775   0.852  16.566  0.0662 -0.0234 -0.4739
 6392SOL    HW130638   3.795   0.937  16.527  0.3303  0.0003 -0.2860
 6392SOL    HW230639   3.865   0.820  16.567  0.7253  1.8548 -0.1935
 6393SOL     OW30640   4.573   3.077   6.417  0.5268 -0.3780 -0.4139
 6393SOL    HW130641   4.635   3.142   6.451  0.6001 -1.1995  1.0016
 6393SOL    HW230642   4.515   3.056   6.489  0.5843  0.3141 -0.1638
 6394SOL     OW30643   4.149   3.905   6.247 -0.5027 -0.0532 -0.7226
 6394SOL    HW130644   4.098   3.937   6.173 -0.6564  0.9718 -0.1695
 6394SOL    HW230645   4.223   3.867   6.198  0.4023  0.1669  0.4675
 6395SOL     OW30646   3.529   4.200   6.055  0.7578  0.0599  0.2834
 6395SOL    HW130647   3.514   4.295   6.053  0.4083  0.1020  3.8261
 6395SOL    HW230648   3.608   4.191   6.110  0.7223  1.1421  0.5069
 6396SOL     OW30649   4.316   1.250   3.387 -0.0149 -0.2764 -0.4773
 6396SOL    HW130650   4.289   1.323   3.443 -1.8808  0.1891 -1.9817
 6396SOL    HW230651   4.245   1.186   3.396 -0.3602  0.1721  0.0306
 6397SOL     OW30652   4.038   4.610   5.934 -0.3629 -0.1980  0.1767
 6397SOL    HW130653   4.100   4.595   6.005 -2.1997 -1.2734  1.5496
 6397SOL    HW230654   3.976   4.538   5.950 -1.2731  0.4239 -0.5445
 6398SOL     OW30655   4.363   0.422   2.498 -0.1547 -0.3883  0.0709
 6398SOL    HW130656   4.455   0.430   2.524 -0.4966  2.2708  0.4433
 6398SOL    HW230657   4.358   0.326   2.502 -0.4292 -0.2734  2.3435
 6399SOL     OW30658   3.866   0.577   5.993  0.1385 -0.3094 -0.5019
 6399SOL    HW130659   3.793   0.631   6.023 -0.1566 -0.5956 -0.7184
 6399SOL    HW230660   3.840   0.485   5.996 -1.7846  0.2172 -1.2488
 6400SOL     OW30661   2.687   3.584   5.409 -0.1556  0.0079 -0.2197
 6400SOL    HW130662   2.604   3.578   5.456 -0.5003  0.4298 -0.7705
 6400SOL    HW230663   2.694   3.680   5.401 -0.4557  0.2628  2.7047
 6401SOL     OW30664   0.327   0.936   5.499  0.5278 -0.2289  0.7146
 6401SOL    HW130665   0.368   0.943   5.413 -1.7106  2.0478 -0.1722
 6401SOL    HW230666   0.301   1.025   5.522  1.2933  0.0961  0.3134
 6402SOL     OW30667   0.781   0.278   8.672 -0.1627  0.1401  0.4551
 6402SOL    HW130668   0.686   0.284   8.661  0.0768 -0.0922 -1.7094
 6402SOL    HW230669   0.798   0.273   8.766 -0.1637  1.2088  0.5147
 6403SOL     OW30670   1.134   2.449   8.992  0.6351  0.0350  0.4490
 6403SOL    HW130671   1.182   2.380   9.037  1.1194 -0.7188 -1.2221
 6403SOL    HW230672   1.171   2.458   8.904 -1.9693 -1.3191 -0.8045
 6404SOL     OW30673   0.680   4.323   1.687 -0.3322 -0.3441 -0.7924
 6404SOL    HW130674   0.675   4.336   1.592  1.6976 -0.9324 -0.9963
 6404SOL    HW230675   0.598   4.281   1.710  1.2351 -0.7766  4.0616
 6405SOL     OW30676   0.426   3.659  15.701 -0.4760  0.1658  0.4531
 6405SOL    HW130677   0.438   3.575  15.745  0.2424 -0.3241 -0.6842
 6405SOL    HW230678   0.331   3.654  15.693 -0.5275 -1.0036  2.0588
 6406SOL     OW30679   1.805   4.031   5.629 -0.9249 -0.0735  0.0396
 6406SOL    HW130680   1.752   4.092   5.682 -1.0486  0.6142 -0.8779
 6406SOL    HW230681   1.853   3.978   5.692  0.8087  1.4538 -0.0059
 6407SOL     OW30682   0.053   2.402   8.537 -0.0844  0.6906 -0.3303
 6407SOL    HW130683   4.720   2.463   8.588  3.2010  2.5699  0.8532
 6407SOL    HW230684   0.072   2.333   8.600 -1.1177 -0.4010 -1.2232
 6408SOL     OW30685   2.477   3.458   4.155 -0.2421  0.1099  0.7727
 6408SOL    HW130686   2.555   3.495   4.198  0.9546 -0.8910 -0.5268
 6408SOL    HW230687   2.493   3.484   4.064  0.7598  0.7121  1.1102
 6409SOL     OW30688   1.221   0.666   3.952  0.0807 -0.2291 -0.0802
 6409SOL    HW130689   1.301   0.677   4.003  1.2086  0.8537 -2.0851
 6409SOL    HW230690   1.267   0.672   3.868  1.4206 -0.0268  0.6702
 6410SOL     OW30691   2.663   2.441  14.969 -0.4761  0.1455 -0.0614
 6410SOL    HW130692   2.580   2.440  15.017 -0.8439  0.1932 -0.6918
 6410SOL    HW230693   2.730   2.430  15.036 -2.2068 -0.9910  1.5181
 6411SOL     OW30694   4.217   0.997   9.972 -0.3675 -0.0987  0.0009
 6411SOL    HW130695   4.312   1.002   9.964 -0.0994 -2.7844  1.3360
 6411SOL    HW230696   4.219   0.938  10.047 -0.9228  0.3767  0.3894
 6412SOL     OW30697   4.087   0.227   2.222 -0.0614 -0.6080 -0.5192
 6412SOL    HW130698   3.999   0.251   2.192 -0.1794  1.2523  1.2856
 6412SOL    HW230699   4.124   0.315   2.226 -2.4929  0.4117 -0.5299
 6413SOL     OW30700   1.216   0.822  15.714  0.1303  0.0193 -0.1996
 6413SOL    HW130701   1.226   0.740  15.666 -0.4318 -0.4016  0.4007
 6413SOL    HW230702   1.123   0.833  15.734  0.1316 -0.9082  0.3125
 6414SOL     OW30703   2.684   1.625   7.591  0.6369  0.0191 -0.1189
 6414SOL    HW130704   2.687   1.659   7.501 -1.2242  2.3936  0.7379
 6414SOL    HW230705   2.778   1.607   7.594  0.7494  0.9048  1.2578
 6415SOL     OW30706   1.372   1.571   1.801 -0.0765 -0.4526 -0.6934
 6415SOL    HW130707   1.460   1.576   1.838 -0.7110 -1.2605  0.9033
 6415SOL    HW230708   1.368   1.486   1.758 -2.2866 -1.1043  0.8123
 6416SOL     OW30709   2.767   1.920   4.696  0.4246  0.5557  0.7904
 6416SOL    HW130710   2.761   1.825   4.705 -0.9115  0.4261 -1.3272
 6416SOL    HW230711   2.752   1.920   4.601  0.0192  0.3655  0.8538
 6417SOL     OW30712   3.605   3.037  15.747 -0.0621 -0.6148 -0.2415
 6417SOL    HW130713   3.673   2.970  15.741  0.0774 -0.3865 -1.1052
 6417SOL    HW230714   3.571   3.032  15.837  0.4284 -0.1505 -0.0301
 6418SOL     OW30715   4.627   0.601   3.220  0.3644 -0.0689  0.5185
 6418SOL    HW130716   4.685   0.623   3.293 -2.0033  1.2989  2.0137
 6418SOL    HW230717   4.620   0.508   3.242 -0.1340  0.1356  1.2391
 6419SOL     OW30718   3.134   1.008   7.075  0.6024  0.2650 -0.3447
 6419SOL    HW130719   3.105   1.087   7.030 -1.3079  0.4116  1.1593
 6419SOL    HW230720   3.147   1.040   7.164 -0.0035 -0.4133 -0.0119
 6420SOL     OW30721   2.377   0.521  10.760  0.5576  0.0458 -0.6184
 6420SOL    HW130722   2.458   0.516  10.811  0.1285 -0.3429  0.0294
 6420SOL    HW230723   2.315   0.553  10.826  1.4170 -0.8791  0.6574
 6421SOL     OW30724   0.306   3.635   1.789  0.1463 -0.2690 -0.4741
 6421SOL    HW130725   0.221   3.679   1.778 -0.3699 -1.2627 -0.5159
 6421SOL    HW230726   0.366   3.692   1.741 -0.0079  0.6833  0.4879
 6422SOL     OW30727   1.899   2.090   4.256  0.2706 -0.5881  0.3334
 6422SOL    HW130728   1.867   2.155   4.193 -0.9149 -1.2059  0.3058
 6422SOL    HW230729   1.978   2.067   4.207  1.9385 -0.4859  2.9507
 6423SOL     OW30730   4.549   0.360  17.261 -0.5254 -0.1806 -0.0653
 6423SOL    HW130731   4.614   0.293  17.282  0.3144  0.5101 -0.4467
 6423SOL    HW230732   4.508   0.378  17.345  2.2919 -3.4517  1.9853
 6424SOL     OW30733   4.082   0.250   7.156 -0.4236  0.1069 -0.1080
 6424SOL    HW130734   4.165   0.286   7.123 -0.9308  0.9432 -0.4729
 6424SOL    HW230735   4.088   0.267   7.251  1.7290 -2.3033  0.1862
 6425SOL     OW30736   0.554   0.315   7.009  0.3129  0.5586  0.0111
 6425SOL    HW130737   0.554   0.411   7.018 -3.7797  0.5194  0.1162
 6425SOL    HW230738   0.649   0.310   7.021  0.0763  0.9523  1.9337
 6426SOL     OW30739   4.190   2.372   3.860 -0.1272 -0.2024  0.6593
 6426SOL    HW130740   4.126   2.334   3.799 -0.6581  0.2684  0.9272
 6426SOL    HW230741   4.262   2.309   3.860  0.7513  0.8124 -0.0954
 6427SOL     OW30742   1.321   0.467   6.327 -0.4734 -0.7681  0.1777
 6427SOL    HW130743   1.381   0.536   6.298 -0.7886 -0.3708  0.4591
 6427SOL    HW230744   1.239   0.497   6.287  0.8995  0.4793 -1.7094
 6428SOL     OW30745   0.920   3.797   6.268 -0.4684  0.5432  0.2295
 6428SOL    HW130746   1.002   3.838   6.241 -0.6469 -0.0480 -1.2133
 6428SOL    HW230747   0.935   3.705   6.289 -1.8390 -0.0071 -1.2525
 6429SOL     OW30748   2.035   3.057   7.930 -0.3868 -0.0919 -0.0544
 6429SOL    HW130749   1.941   3.044   7.939 -0.5173  0.5298 -0.5093
 6429SOL    HW230750   2.032   3.151   7.912 -0.6997  0.0666  0.8399
 6430SOL     OW30751   0.484   3.190   2.258 -0.3596 -0.2665 -0.2260
 6430SOL    HW130752   0.511   3.148   2.339 -0.5360 -1.0163 -0.5525
 6430SOL    HW230753   0.388   3.180   2.261 -0.0823 -1.8608  3.4905
 6431SOL     OW30754   1.761   0.139   6.290  0.3060  0.0629 -0.9813
 6431SOL    HW130755   1.793   0.077   6.356  0.4804  2.6327  1.3470
 6431SOL    HW230756   1.745   0.218   6.341  2.0521 -0.1174 -0.1554
 6432SOL     OW30757   0.286   0.688   2.760  0.0920  0.1669  0.0626
 6432SOL    HW130758   0.348   0.617   2.779 -0.4116  0.2907  2.1533
 6432SOL    HW230759   0.260   0.714   2.848  1.8713  3.7068 -0.4814
 6433SOL     OW30760   4.151   0.902   5.684 -0.0362  0.0497 -0.5520
 6433SOL    HW130761   4.119   0.940   5.603  0.9435  1.7380 -0.1452
 6433SOL    HW230762   4.198   0.823   5.657 -2.0476 -0.8533 -1.4390
 6434SOL     OW30763   0.293   0.479   6.243 -0.3472  0.6216 -0.0037
 6434SOL    HW130764   0.386   0.498   6.236  0.1709 -2.2454 -0.7892
 6434SOL    HW230765   0.284   0.393   6.203  0.8872  0.3990  0.1931
 6435SOL     OW30766   2.572   1.535   8.607  0.2585 -0.1951  0.6285
 6435SOL    HW130767   2.551   1.612   8.660 -1.2478  1.1491 -1.9171
 6435SOL    HW230768   2.666   1.531   8.623  0.0410  1.2516  2.2710
 6436SOL     OW30769   1.007   1.518   7.145 -0.3889  0.1521 -0.5384
 6436SOL    HW130770   1.050   1.434   7.158  1.3864  0.8184 -2.1223
 6436SOL    HW230771   1.073   1.571   7.101 -0.3829 -0.6020 -1.4619
 6437SOL     OW30772   2.368   1.393   1.400  0.0816  0.0804  0.1883
 6437SOL    HW130773   2.408   1.390   1.313  0.8181 -0.4103  0.5455
 6437SOL    HW230774   2.313   1.315   1.404 -0.4097  0.4967  1.4633
 6438SOL     OW30775   0.005   2.214   3.533 -0.2834 -0.0621 -0.0677
 6438SOL    HW130776   0.047   2.140   3.489 -0.9605 -0.2423 -0.4086
 6438SOL    HW230777   0.054   2.289   3.502  0.8188 -0.5274  0.5311
 6439SOL     OW30778   1.446   4.137   7.089 -0.0962  0.2155 -0.3597
 6439SOL    HW130779   1.426   4.121   7.182 -3.6633 -0.9504 -1.3118
 6439SOL    HW230780   1.384   4.073   7.054  1.7231 -1.0796 -1.1834
 6440SOL     OW30781   4.193   2.354  10.154 -0.0187 -0.0178 -0.2074
 6440SOL    HW130782   4.247   2.374  10.231 -0.1084 -1.1095  0.1344
 6440SOL    HW230783   4.186   2.438  10.107 -2.5763  0.0649  0.3421
 6441SOL     OW30784   0.939   4.316   5.798 -0.1185 -0.2146  0.2430
 6441SOL    HW130785   0.965   4.284   5.884  1.2158 -0.4858 -0.2594
 6441SOL    HW230786   0.911   4.404   5.825 -0.5885 -0.0991 -0.6304
 6442SOL     OW30787   4.653   4.653  16.539  0.1721 -0.2871  0.2071
 6442SOL    HW130788   0.012   4.666  16.590  0.8998 -0.7204 -0.8121
 6442SOL    HW230789   4.587   4.681  16.602  0.3924  2.5018 -0.7954
 6443SOL     OW30790   1.651   2.507  17.170 -0.1383  0.2315  0.0721
 6443SOL    HW130791   1.745   2.492  17.176  0.3651  3.1713 -0.0957
 6443SOL    HW230792   1.633   2.454  17.092 -1.4492  0.3546  0.2836
 6444SOL     OW30793   2.935   0.724   5.981  0.6991 -0.0519 -0.0487
 6444SOL    HW130794   3.030   0.724   5.992  0.5602 -0.6666  1.2493
 6444SOL    HW230795   2.921   0.779   5.905 -4.2201  0.7120  1.3829
 6445SOL     OW30796   0.382   3.681   1.431 -0.3993 -0.2123  0.7795
 6445SOL    HW130797   0.429   3.698   1.512  0.7351  1.6910 -0.2770
 6445SOL    HW230798   0.383   3.768   1.392 -0.1014 -0.7945 -0.5042
 6446SOL     OW30799   4.706   2.746   5.677  0.7597  0.2006 -0.0549
 6446SOL    HW130800   0.078   2.750   5.656  0.7362 -2.1137 -0.5947
 6446SOL    HW230801   4.664   2.780   5.599  0.0432 -1.6772 -0.4862
 6447SOL     OW30802   3.630   3.993   9.013 -0.0138  0.8514 -0.1715
 6447SOL    HW130803   3.663   3.910   8.981  0.6281  0.2416  2.0444
 6447SOL    HW230804   3.659   3.990   9.104 -0.3808 -0.3477 -0.0936
 6448SOL     OW30805   3.397   1.244   6.587  0.1290 -0.5007  0.2324
 6448SOL    HW130806   3.356   1.222   6.671  1.4515  1.4395  1.3831
 6448SOL    HW230807   3.320   1.277   6.541  1.3406  1.0931 -0.6489
 6449SOL     OW30808   1.830   4.564   2.229 -0.0355 -0.2344 -0.3659
 6449SOL    HW130809   1.920   4.542   2.254 -0.8757 -3.8172 -0.5254
 6449SOL    HW230810   1.848   4.651   2.195 -0.0064  0.2045  0.7820
 6450SOL     OW30811   3.615   2.974   5.084  0.1607  0.3131 -0.3322
 6450SOL    HW130812   3.559   2.975   5.006 -1.0969  1.0138  0.5853
 6450SOL    HW230813   3.561   3.012   5.152 -0.9575  1.0938 -1.6547
 6451SOL     OW30814   1.738   2.757  13.001  0.1972  0.8374  0.1612
 6451SOL    HW130815   1.729   2.703  12.923 -0.1288  0.2594  0.6076
 6451SOL    HW230816   1.798   2.825  12.969  3.2176 -2.2315 -0.6652
 6452SOL     OW30817   1.150   2.922  14.669  0.1509 -0.3130  0.0145
 6452SOL    HW130818   1.158   2.973  14.589  0.3258  0.4182  0.4940
 6452SOL    HW230819   1.233   2.874  14.666  0.3869  0.0691  0.3675
 6453SOL     OW30820   3.435   2.453   3.508 -0.8893 -0.0968  0.0437
 6453SOL    HW130821   3.353   2.407   3.487  0.2577 -2.0684 -0.1014
 6453SOL    HW230822   3.459   2.486   3.422  0.4133 -0.0542  0.4154
 6454SOL     OW30823   4.198   3.397   2.600 -0.1272  0.1950  0.6330
 6454SOL    HW130824   4.252   3.378   2.524 -2.4359 -0.3671 -0.8922
 6454SOL    HW230825   4.190   3.492   2.593 -1.6737 -0.1395 -2.1295
 6455SOL     OW30826   4.260   4.256  13.762 -0.2914  0.3334  0.9218
 6455SOL    HW130827   4.307   4.339  13.754 -1.4350  0.7179 -1.6749
 6455SOL    HW230828   4.288   4.209  13.684 -2.6708  1.9787 -0.9046
 6456SOL     OW30829   0.802   2.030   5.907  0.2369 -0.1404  0.0596
 6456SOL    HW130830   0.830   1.947   5.868  0.8111  0.5488 -1.0021
 6456SOL    HW230831   0.851   2.086   5.847 -2.5478  0.6430 -1.4958
 6457SOL     OW30832   2.129   1.651   7.072  0.1658  0.1244 -0.2501
 6457SOL    HW130833   2.078   1.578   7.038 -0.3413 -0.2370  1.2931
 6457SOL    HW230834   2.179   1.681   6.996 -1.9091  1.6107 -0.9857
 6458SOL     OW30835   1.690   4.344   5.542 -0.4020 -0.6950 -0.1364
 6458SOL    HW130836   1.599   4.371   5.543 -0.0301  0.4933  1.0552
 6458SOL    HW230837   1.725   4.407   5.479 -1.6093 -0.1008 -0.2073
 6459SOL     OW30838   3.496   0.706   8.394 -0.3981 -0.7083  0.9151
 6459SOL    HW130839   3.591   0.694   8.391 -0.4608 -0.4642 -1.5926
 6459SOL    HW230840   3.483   0.782   8.338  1.1788 -0.4076  0.9647
 6460SOL     OW30841   1.590   1.594   6.243  0.4572 -0.2687  0.6119
 6460SOL    HW130842   1.555   1.648   6.314  0.9308  0.5536  0.2205
 6460SOL    HW230843   1.528   1.613   6.173  2.4185  0.3029 -0.9716
 6461SOL     OW30844   0.088   3.621   2.487  0.2389  0.1044  0.2486
 6461SOL    HW130845   4.715   3.631   2.468  0.3005 -0.8716 -0.5655
 6461SOL    HW230846   0.107   3.715   2.479 -0.2358 -0.1160 -3.5239
 6462SOL     OW30847   2.599   0.455   4.634 -0.0788 -0.5349 -0.3172
 6462SOL    HW130848   2.582   0.413   4.719  0.5776 -0.3809 -0.1146
 6462SOL    HW230849   2.597   0.378   4.577 -2.4549 -0.9285  0.2725
 6463SOL     OW30850   1.625   2.457   3.036 -0.1734  0.0789  0.5139
 6463SOL    HW130851   1.552   2.447   2.974  0.0372  1.8375 -0.0282
 6463SOL    HW230852   1.636   2.552   3.035  0.5213  0.0019  0.5423
 6464SOL     OW30853   1.294   0.357   7.017 -0.8508 -0.0122  0.2512
 6464SOL    HW130854   1.296   0.434   7.075 -0.6099  0.9132 -0.9802
 6464SOL    HW230855   1.203   0.331   7.031 -1.4677  2.1887  0.4024
 6465SOL     OW30856   4.656   3.522   3.567 -0.5679  0.0405  0.0641
 6465SOL    HW130857   4.571   3.482   3.547 -0.4271 -0.8509  1.2517
 6465SOL    HW230858   4.707   3.509   3.487  0.5461  0.9906  0.6209
 6466SOL     OW30859   1.741   2.805   4.027 -0.3145 -0.0865  0.6593
 6466SOL    HW130860   1.810   2.848   3.978  0.9019 -0.7926  1.7562
 6466SOL    HW230861   1.772   2.836   4.112  2.0277  1.0152 -0.6032
 6467SOL     OW30862   2.005   3.109  12.107  0.5854 -0.1058  0.1411
 6467SOL    HW130863   1.974   3.104  12.017 -0.5259 -1.0862  0.5819
 6467SOL    HW230864   1.930   3.070  12.152  2.4478 -4.1065 -0.2128
 6468SOL     OW30865   0.602   1.695   8.696 -0.6773 -0.1016 -0.0016
 6468SOL    HW130866   0.597   1.605   8.730  0.1445 -0.0055  0.3716
 6468SOL    HW230867   0.511   1.723   8.695 -1.1083 -1.5222 -0.7632
 6469SOL     OW30868   3.798   2.487   4.974 -0.3438 -0.2209 -0.0545
 6469SOL    HW130869   3.852   2.425   5.023 -0.8868 -0.6559 -0.0099
 6469SOL    HW230870   3.709   2.475   5.009 -0.2636 -0.9802 -0.1179
 6470SOL     OW30871   3.917   0.854  15.723 -0.0456 -0.4787 -0.4246
 6470SOL    HW130872   3.903   0.899  15.807  1.0652 -0.0925 -0.4448
 6470SOL    HW230873   3.991   0.899  15.682  0.3167 -4.5426 -4.2347
 6471SOL     OW30874   2.255   1.040   6.210 -0.2776  0.5805  0.2759
 6471SOL    HW130875   2.323   1.092   6.252  1.7654 -1.3959 -0.5967
 6471SOL    HW230876   2.215   1.095   6.143 -0.1810 -1.0051 -1.0783
 6472SOL     OW30877   2.595   1.040   7.496 -0.0769 -0.2065 -0.1910
 6472SOL    HW130878   2.641   1.124   7.493  1.1393 -0.8591  0.3398
 6472SOL    HW230879   2.518   1.078   7.453  0.3576 -0.1336 -0.9040
 6473SOL     OW30880   3.843   0.017   0.903  0.4271 -0.4789  0.4184
 6473SOL    HW130881   3.815   0.085   0.841  0.7145 -2.8326 -2.3290
 6473SOL    HW230882   3.861   0.060   0.986  1.3378 -0.7798  0.3788
 6474SOL     OW30883   0.889   3.091   9.081  0.3716 -0.2073  0.4381
 6474SOL    HW130884   0.825   3.038   9.129 -0.3875 -0.8750 -1.2952
 6474SOL    HW230885   0.865   3.182   9.096  3.8234  1.0378 -1.7295
 6475SOL     OW30886   0.058   1.271   4.054 -0.0880  0.3528  0.2238
 6475SOL    HW130887   0.001   1.216   4.108 -1.7092  2.3899  0.6099
 6475SOL    HW230888   0.142   1.250   4.096  0.0759 -0.6230 -0.5932
 6476SOL     OW30889   2.890   1.364   6.229 -0.0950  0.0690  0.5110
 6476SOL    HW130890   2.849   1.279   6.214 -0.7884  0.3294  0.9290
 6476SOL    HW230891   2.979   1.345   6.259 -0.2142 -3.7407 -1.5825
 6477SOL     OW30892   4.418   3.030   5.865 -0.3063  0.6295  0.0650
 6477SOL    HW130893   4.422   3.118   5.828  1.6706  0.5689  0.0894
 6477SOL    HW230894   4.326   3.006   5.862 -0.1788  0.0837  0.4188
 6478SOL     OW30895   2.041   2.283  15.465 -0.2116 -0.2590  0.4467
 6478SOL    HW130896   1.967   2.343  15.466 -0.8788 -1.0741 -0.7051
 6478SOL    HW230897   2.003   2.217  15.407  2.5565 -0.9768 -0.5625
 6479SOL     OW30898   1.793   3.023   7.470  0.1679 -0.9631 -0.1887
 6479SOL    HW130899   1.719   2.996   7.525 -1.2047  0.2650 -1.4586
 6479SOL    HW230900   1.755   3.099   7.426 -1.5324 -3.3903 -2.9175
 6480SOL     OW30901   3.588   3.351   0.671  0.8246 -0.1454 -0.2492
 6480SOL    HW130902   3.573   3.285   0.604  0.4907  0.6696 -0.9673
 6480SOL    HW230903   3.505   3.400   0.672  0.6718 -0.4089  0.6401
 6481SOL     OW30904   3.187   3.928   6.939  0.6744 -0.4457  0.4383
 6481SOL    HW130905   3.282   3.918   6.945  0.5307 -2.1030  0.0389
 6481SOL    HW230906   3.178   3.915   6.845 -0.1131 -0.6133  0.5385
 6482SOL     OW30907   1.013   2.467   6.235 -0.2970  0.0367 -0.3875
 6482SOL    HW130908   0.924   2.464   6.271  0.5117 -0.5718  1.5427
 6482SOL    HW230909   1.034   2.560   6.250 -1.0407  0.2538 -0.6925
 6483SOL     OW30910   4.664   1.650  11.582 -0.0732 -0.0325  0.0693
 6483SOL    HW130911   4.718   1.715  11.537 -0.2827 -0.5112 -0.8618
 6483SOL    HW230912   4.684   1.578  11.522  1.0708 -0.1195  0.5361
 6484SOL     OW30913   2.758   1.590  13.931 -0.0164 -1.0456 -0.7310
 6484SOL    HW130914   2.837   1.543  13.958 -1.5923 -2.4183  1.3935
 6484SOL    HW230915   2.726   1.533  13.861  0.3536 -0.9382 -0.9868
 6485SOL     OW30916   0.079   3.543   7.674  0.0099 -0.0370 -0.4866
 6485SOL    HW130917   0.047   3.566   7.761  1.4361  4.6749 -1.1693
 6485SOL    HW230918   0.094   3.630   7.636  0.1795  0.0699 -0.1787
 6486SOL     OW30919   2.631   3.391   8.678 -0.3998 -0.0808 -0.4157
 6486SOL    HW130920   2.659   3.343   8.756  2.6123 -0.5171 -1.7772
 6486SOL    HW230921   2.571   3.324   8.644 -0.5330 -0.8252  1.2652
 6487SOL     OW30922   4.635   1.188   5.397 -0.6058  0.0019 -0.3837
 6487SOL    HW130923   4.619   1.140   5.315 -0.1718  1.6878 -1.4630
 6487SOL    HW230924   4.602   1.273   5.368 -2.4547 -1.1574 -1.7433
 6488SOL     OW30925   2.776   2.556  10.155  0.0498  0.8335  0.2743
 6488SOL    HW130926   2.781   2.538  10.249 -1.8735  0.6843  0.3488
 6488SOL    HW230927   2.687   2.525  10.136  0.0505  0.8477  0.2477
 6489SOL     OW30928   2.502   0.040   5.009  0.6486 -0.2187 -0.3004
 6489SOL    HW130929   2.445   0.112   4.983 -1.3664 -2.0007 -0.8657
 6489SOL    HW230930   2.490   0.052   5.103  0.4419 -3.3228  0.0775
 6490SOL     OW30931   3.757   0.475  14.874 -0.1988  0.2855 -0.0883
 6490SOL    HW130932   3.804   0.395  14.895 -0.4591  0.1192 -0.1330
 6490SOL    HW230933   3.676   0.446  14.832  0.8008  0.6694 -2.2940
 6491SOL     OW30934   3.667   0.553  14.226  0.6777  0.9876  1.0622
 6491SOL    HW130935   3.723   0.629  14.245  0.8017  1.3129 -0.6300
 6491SOL    HW230936   3.646   0.556  14.133 -1.1772 -1.4429  1.3990
 6492SOL     OW30937   2.622   1.333   9.939  0.0140 -0.0805  0.4405
 6492SOL    HW130938   2.692   1.298   9.885 -1.5778 -1.2032 -0.8806
 6492SOL    HW230939   2.665   1.303  10.019  0.2107  0.7748  0.6505
 6493SOL     OW30940   1.968   3.038   8.455  0.0334  0.6641  0.3644
 6493SOL    HW130941   2.020   3.050   8.375  1.3041 -0.7859  0.9599
 6493SOL    HW230942   2.020   2.967   8.494  0.4392  0.0998 -1.1877
 6494SOL     OW30943   4.037   4.173   1.074 -0.4978 -0.2964 -0.0755
 6494SOL    HW130944   4.069   4.144   0.989  1.5433 -0.5415  0.7765
 6494SOL    HW230945   4.011   4.263   1.054  0.4130 -0.1698 -0.6838
 6495SOL     OW30946   0.075   1.705   2.394  1.1206 -0.1617 -0.6379
 6495SOL    HW130947   0.144   1.684   2.331  2.4008  1.5997  0.1524
 6495SOL    HW230948   0.002   1.693   2.333 -0.3441 -1.5154  1.3826
 6496SOL     OW30949   1.698   2.267   8.541 -0.1941 -0.1420 -0.0587
 6496SOL    HW130950   1.793   2.265   8.540 -0.2186 -0.9659 -0.9224
 6496SOL    HW230951   1.675   2.347   8.494  1.8237  0.2076 -0.4173
 6497SOL     OW30952   0.612   4.327  15.258 -0.2207  0.3572  0.5468
 6497SOL    HW130953   0.591   4.241  15.294 -0.3311  0.2803  0.2996
 6497SOL    HW230954   0.550   4.343  15.187 -2.3029 -1.5740  1.9414
 6498SOL     OW30955   1.516   1.938  14.665 -0.1137 -0.2805  0.1420
 6498SOL    HW130956   1.563   1.864  14.703  0.9188  0.4300  0.2406
 6498SOL    HW230957   1.590   1.994  14.642 -1.1767  0.4437 -1.4767
 6499SOL     OW30958   2.064   1.583   3.201  0.1917 -0.3551  0.1245
 6499SOL    HW130959   2.158   1.600   3.189  0.2302 -0.3648  0.4244
 6499SOL    HW230960   2.056   1.513   3.136  1.4405 -1.9089  1.6469
 6500SOL     OW30961   2.143   2.021   4.161 -0.0054 -0.2508  0.0457
 6500SOL    HW130962   2.212   1.988   4.104 -0.8140 -1.0820 -0.4342
 6500SOL    HW230963   2.195   2.059   4.232 -2.3598  0.7368  1.2473
 6501SOL     OW30964   0.541   3.629  11.448 -0.6688  0.1289  0.1438
 6501SOL    HW130965   0.513   3.705  11.500 -2.0901  0.3688 -0.9887
 6501SOL    HW230966   0.636   3.641  11.450 -0.6908  0.5816 -1.8134
 6502SOL     OW30967   3.060   0.876   6.507 -0.7374 -0.5552 -0.3459
 6502SOL    HW130968   3.097   0.798   6.548  1.9704  0.0716 -1.6333
 6502SOL    HW230969   2.969   0.851   6.521 -1.4208  2.3851  0.4223
 6503SOL     OW30970   0.919   3.205   1.808  0.0357 -0.7933  0.2215
 6503SOL    HW130971   0.939   3.266   1.878 -0.7605 -1.8836  1.3905
 6503SOL    HW230972   0.871   3.133   1.849 -0.8695 -0.9874 -1.1734
 6504SOL     OW30973   0.214   4.620   9.343  0.6098 -0.2251 -0.4763
 6504SOL    HW130974   0.201   4.570   9.263  0.8423 -0.9236 -0.0734
 6504SOL    HW230975   0.128   4.658   9.360  0.5145 -1.0302  0.7624
 6505SOL     OW30976   3.192   2.855   2.051  0.1666  0.3586  0.3404
 6505SOL    HW130977   3.165   2.937   2.010 -0.5608  0.9167  1.9491
 6505SOL    HW230978   3.132   2.799   2.001  0.8994  1.2429 -1.5455
 6506SOL     OW30979   4.671   3.874   2.810  0.0440 -0.5696 -0.0318
 6506SOL    HW130980   0.003   3.890   2.731 -0.1914 -2.5409 -0.6004
 6506SOL    HW230981   4.667   3.957   2.856  1.1956 -1.3442  1.4603
 6507SOL     OW30982   3.507   3.265   9.765  0.4500 -0.7373  0.2609
 6507SOL    HW130983   3.545   3.352   9.768 -1.3347  0.0232  0.9189
 6507SOL    HW230984   3.423   3.277   9.810  0.5431 -0.2270  0.2928
 6508SOL     OW30985   1.778   3.414   4.236 -0.0782 -0.3113 -0.3891
 6508SOL    HW130986   1.718   3.447   4.302 -1.4401 -2.3625 -0.5964
 6508SOL    HW230987   1.724   3.443   4.162  0.1198 -0.2430 -0.5079
 6509SOL     OW30988   4.429   2.670  10.452  0.2589  0.0525 -0.6341
 6509SOL    HW130989   4.349   2.707  10.416 -0.3438  0.8791  1.5251
 6509SOL    HW230990   4.493   2.741  10.454  1.3312 -0.9104 -0.0071
 6510SOL     OW30991   0.967   2.163  13.972 -0.9429  0.0801 -0.6109
 6510SOL    HW130992   1.013   2.160  14.055 -0.6918  1.0207 -0.7195
 6510SOL    HW230993   0.947   2.256  13.974 -1.4089 -0.0140 -0.8649
 6511SOL     OW30994   2.817   4.243   3.206 -0.0730  0.0511 -0.2750
 6511SOL    HW130995   2.850   4.322   3.163  0.6453 -0.4727 -0.6918
 6511SOL    HW230996   2.845   4.172   3.147  0.1757  0.1771 -0.3070
 6512SOL     OW30997   0.365   0.894   4.837  0.1183  0.1547  0.0139
 6512SOL    HW130998   0.422   0.829   4.879  2.3630  1.5525 -0.8654
 6512SOL    HW230999   0.307   0.831   4.794 -0.6904  1.1505 -0.3423
 6513SOL     OW31000   4.311   4.344   7.038 -0.0809  0.0004  0.9245
 6513SOL    HW131001   4.273   4.430   7.020  0.3628  0.1787  0.8350
 6513SOL    HW231002   4.397   4.339   6.996 -0.7569  0.7545 -0.5537
 6514SOL     OW31003   3.306   4.636  16.755  0.2363  0.1572 -0.2969
 6514SOL    HW131004   3.245   4.579  16.802  0.2614  1.0491  0.8058
 6514SOL    HW231005   3.249   4.660  16.682  0.5880  2.0985  0.0765
 6515SOL     OW31006   4.320   4.514   5.935  0.1912  0.0936 -0.2627
 6515SOL    HW131007   4.317   4.599   5.893  1.1589  0.2667  0.0179
 6515SOL    HW231008   4.262   4.461   5.881  0.1008  1.0129 -1.0641
 6516SOL     OW31009   4.095   0.645   5.859 -0.0016  0.0675  0.2184
 6516SOL    HW131010   4.002   0.640   5.881 -0.3372 -3.1380 -1.8769
 6516SOL    HW231011   4.098   0.719   5.798  3.6097  0.2116  0.5543
 6517SOL     OW31012   4.052   4.384   4.173 -0.2565  0.3183  0.4001
 6517SOL    HW131013   4.139   4.358   4.143  0.0698  2.8419 -0.8726
 6517SOL    HW231014   4.063   4.478   4.160  2.6303  0.4067  3.5416
 6518SOL     OW31015   0.925   3.500   6.385 -0.1917 -0.0229  0.2283
 6518SOL    HW131016   0.850   3.442   6.398  0.4604 -0.5234  1.7001
 6518SOL    HW231017   0.927   3.543   6.471 -0.4356  1.7041 -0.6261
 6519SOL     OW31018   2.448   2.023  11.585  0.0152 -0.5289 -0.4745
 6519SOL    HW131019   2.533   2.062  11.564  0.1732 -0.6040  0.0399
 6519SOL    HW231020   2.428   2.059  11.672 -1.6454  1.9998 -1.8813
 6520SOL     OW31021   2.551   3.095   4.465  0.4111  0.2167  0.0104
 6520SOL    HW131022   2.572   3.044   4.543 -0.7324 -1.3774 -0.7271
 6520SOL    HW231023   2.638   3.129   4.441 -0.1889  1.2384 -0.7087
 6521SOL     OW31024   3.228   0.702  10.607 -0.0076 -0.0225 -0.4565
 6521SOL    HW131025   3.226   0.764  10.679 -0.3373  1.3018 -1.6045
 6521SOL    HW231026   3.311   0.663  10.634 -0.1427 -0.6820 -1.0052
 6522SOL     OW31027   0.384   0.700   8.174  0.0487 -1.3256 -0.1254
 6522SOL    HW131028   0.457   0.654   8.131  0.9913  1.6336 -1.7315
 6522SOL    HW231029   0.400   0.704   8.268 -2.3308  2.2024  0.1105
 6523SOL     OW31030   2.760   3.261   2.838 -0.4373 -0.1158  0.0935
 6523SOL    HW131031   2.842   3.233   2.797 -1.4135  0.8879 -2.5808
 6523SOL    HW231032   2.692   3.224   2.781  1.3853 -1.3654 -1.2638
 6524SOL     OW31033   4.358   2.487   6.231  0.1001  0.0859  0.3827
 6524SOL    HW131034   4.429   2.442   6.185 -0.5518 -0.4565 -0.0870
 6524SOL    HW231035   4.412   2.516   6.304  0.1737  0.2841  0.2500
 6525SOL     OW31036   0.245   0.628   4.216 -0.0546  0.0964  0.5972
 6525SOL    HW131037   0.259   0.580   4.134 -2.2045 -0.9574  0.8515
 6525SOL    HW231038   0.271   0.556   4.273 -3.1895  0.1133  2.0487
 6526SOL     OW31039   3.365   1.756   6.784  0.2494 -0.1414 -0.3307
 6526SOL    HW131040   3.352   1.678   6.730 -1.1313 -0.0108 -0.1942
 6526SOL    HW231041   3.449   1.743   6.828  0.0505 -0.9832 -0.1990
 6527SOL     OW31042   4.184   4.298  12.077  0.0633 -0.2399 -0.1159
 6527SOL    HW131043   4.251   4.280  12.011 -0.9541 -1.9065 -0.6918
 6527SOL    HW231044   4.116   4.332  12.020  1.1130 -0.5006 -1.5215
 6528SOL     OW31045   2.255   0.876   8.489  0.6284  0.3610  0.0671
 6528SOL    HW131046   2.297   0.846   8.408 -1.8669 -1.0508 -0.6937
 6528SOL    HW231047   2.325   0.861   8.552  0.2100  0.2573  0.5061
 6529SOL     OW31048   4.533   1.714   5.985  0.1811 -0.3653 -0.3174
 6529SOL    HW131049   4.579   1.798   5.986 -0.2371 -0.1343 -0.3986
 6529SOL    HW231050   4.601   1.663   6.028  1.1114  1.9016  0.9167
 6530SOL     OW31051   2.639   3.774  16.485 -0.4116 -0.3680  0.1639
 6530SOL    HW131052   2.693   3.704  16.520 -1.0056 -0.3641  1.1015
 6530SOL    HW231053   2.611   3.821  16.563  2.3338 -0.9918  1.5073
 6531SOL     OW31054   3.127   1.086  15.031 -0.4789  0.1400 -0.3342
 6531SOL    HW131055   3.162   1.009  14.986 -1.2553 -0.3696 -0.0690
 6531SOL    HW231056   3.051   1.045  15.072  1.1744  0.0139  2.6839
 6532SOL     OW31057   0.598   2.059  12.786 -0.0041 -0.8937  0.7441
 6532SOL    HW131058   0.658   1.996  12.827 -2.4268 -1.7337  2.9963
 6532SOL    HW231059   0.538   2.075  12.859 -1.5650  0.5971 -0.8530
 6533SOL     OW31060   4.226   3.123  17.394 -0.3983  0.2856  0.6323
 6533SOL    HW131061   4.282   3.067  17.448  0.8979  1.3829  0.4358
 6533SOL    HW231062   4.213   3.068  17.318 -0.3398  0.0993  0.7575
 6534SOL     OW31063   2.269   1.122  15.106  0.2064  0.0254  0.0200
 6534SOL    HW131064   2.294   1.178  15.033 -0.8056  0.4071 -0.0287
 6534SOL    HW231065   2.250   1.185  15.176 -0.6153  1.3618 -1.4254
 6535SOL     OW31066   3.140   2.386   1.231 -0.5843  0.1358  0.4003
 6535SOL    HW131067   3.209   2.433   1.183 -0.5625  1.5084  1.7715
 6535SOL    HW231068   3.142   2.304   1.182  0.2128  1.2462 -1.4118
 6536SOL     OW31069   2.795   4.164   8.069  0.4810 -0.2519  0.1880
 6536SOL    HW131070   2.783   4.251   8.109  1.3531  0.1834 -0.4918
 6536SOL    HW231071   2.890   4.158   8.060  0.5129  0.7637 -0.1747
 6537SOL     OW31072   3.138   3.380   4.382 -0.0258 -0.2916 -0.3364
 6537SOL    HW131073   3.068   3.319   4.358  0.3502 -0.7641 -0.2382
 6537SOL    HW231074   3.123   3.439   4.309 -0.1271  1.3162  0.9884
 6538SOL     OW31075   1.000   0.227   0.436 -0.4149  0.5708  0.1448
 6538SOL    HW131076   0.935   0.168   0.472  2.4997 -3.3089 -0.9724
 6538SOL    HW231077   0.979   0.210   0.344  3.8250  0.2293 -0.7806
 6539SOL     OW31078   1.013   2.593   4.090  0.2634 -0.5719  0.7822
 6539SOL    HW131079   1.028   2.563   4.180 -0.1944 -0.8614  0.7654
 6539SOL    HW231080   1.067   2.671   4.094  0.4327 -0.6422 -0.1148
 6540SOL     OW31081   0.536   1.320   3.661  0.5141 -0.4199 -0.2628
 6540SOL    HW131082   0.595   1.395   3.661  0.7754 -0.6220  1.7671
 6540SOL    HW231083   0.455   1.359   3.695  0.5634  1.1562 -1.9657
 6541SOL     OW31084   3.890   2.334   5.210 -0.0685  0.6735  0.4476
 6541SOL    HW131085   3.932   2.256   5.174  0.5722  1.6014 -0.7938
 6541SOL    HW231086   3.824   2.289   5.263 -1.1138  2.0888  0.3540
 6542SOL     OW31087   4.095   2.926  10.546 -0.3444 -0.2391  0.5288
 6542SOL    HW131088   4.075   2.936  10.639  3.2717 -2.0527  1.5192
 6542SOL    HW231089   4.152   3.002  10.529  0.7109 -1.2199 -0.3698
 6543SOL     OW31090   1.762   1.041  14.723 -0.0785 -0.6171 -0.5107
 6543SOL    HW131091   1.798   1.032  14.634 -1.7048 -1.3532 -1.1073
 6543SOL    HW231092   1.793   0.956  14.754 -2.8036 -1.5952 -0.4700
 6544SOL     OW31093   1.047   0.295   3.109  0.2804 -0.1842 -0.1125
 6544SOL    HW131094   1.114   0.331   3.167 -0.4370 -1.8278  1.7175
 6544SOL    HW231095   1.058   0.337   3.023 -2.1742 -1.3545 -0.9969
 6545SOL     OW31096   2.946   1.653   8.470  0.1797 -0.1221 -0.3051
 6545SOL    HW131097   2.905   1.629   8.553 -0.3027  0.1170 -0.4714
 6545SOL    HW231098   2.914   1.743   8.464 -0.6285 -0.3318  0.8886
 6546SOL     OW31099   4.680   3.237   3.934 -0.0767  0.2862 -0.3331
 6546SOL    HW131100   4.594   3.265   3.904 -0.6180 -0.5003  0.4767
 6546SOL    HW231101   0.012   3.317   3.931  2.2903 -1.2110  1.2020
 6547SOL     OW31102   1.963   2.526   2.236 -0.3791  0.2734  0.4005
 6547SOL    HW131103   1.892   2.463   2.232 -0.3657  0.1606  1.8227
 6547SOL    HW231104   2.031   2.464   2.261 -1.0645 -0.2830  0.8982
 6548SOL     OW31105   3.101   1.918   7.094  0.4774 -0.1313 -0.0467
 6548SOL    HW131106   3.174   1.977   7.076 -0.5531  0.4490 -2.2905
 6548SOL    HW231107   3.116   1.856   7.023  0.1277 -1.7773  1.2996
 6549SOL     OW31108   1.633   2.110   2.402 -0.1229 -0.1124  0.2127
 6549SOL    HW131109   1.545   2.146   2.413 -0.2293 -1.0713  2.5213
 6549SOL    HW231110   1.648   2.071   2.488 -2.7347  0.8343  1.1011
 6550SOL     OW31111   0.904   4.620   2.830 -0.0660 -0.0002  0.3033
 6550SOL    HW131112   0.839   4.553   2.810 -2.2276  2.2877 -0.4061
 6550SOL    HW231113   0.975   4.579   2.879  0.4214 -1.9089 -2.0152
 6551SOL     OW31114   2.303   4.224   2.464 -0.1057  0.0820  0.1038
 6551SOL    HW131115   2.373   4.175   2.421 -1.3089 -1.1228 -0.4805
 6551SOL    HW231116   2.298   4.306   2.415  1.6617  0.8854  1.2592
 6552SOL     OW31117   3.187   3.472  15.715  0.0499  0.7079  0.3612
 6552SOL    HW131118   3.124   3.449  15.647  1.2820  0.7324 -0.7825
 6552SOL    HW231119   3.237   3.393  15.738  2.8605  2.0792 -0.9720
 6553SOL     OW31120   2.024   2.977   3.617  0.5592 -0.2347  0.6406
 6553SOL    HW131121   2.089   3.047   3.617 -0.8880  1.0819 -1.7771
 6553SOL    HW231122   2.003   2.976   3.524  0.6898  0.4197  0.6063
 6554SOL     OW31123   0.640   3.009   1.051 -0.5435  0.4525  0.2587
 6554SOL    HW131124   0.704   3.080   1.055 -1.3949  1.2165  0.2120
 6554SOL    HW231125   0.576   3.039   1.115  0.6280  2.0310  0.7010
 6555SOL     OW31126   0.488   0.301   3.924 -0.0793  0.5103 -0.1399
 6555SOL    HW131127   0.552   0.366   3.894 -1.6575  1.9607 -0.3754
 6555SOL    HW231128   0.543   0.224   3.911  0.3961  0.5932  1.3735
 6556SOL     OW31129   1.590   1.088   8.646 -0.0972 -0.3190  0.2054
 6556SOL    HW131130   1.566   1.031   8.720  0.0112  0.0457  0.5189
 6556SOL    HW231131   1.669   1.047   8.609 -0.6160 -2.0047  0.9428
 6557SOL     OW31132   0.139   0.805   2.999  0.3826  0.3818 -0.4519
 6557SOL    HW131133   0.187   0.886   3.016 -0.3376  0.9725 -1.2495
 6557SOL    HW231134   0.057   0.827   2.955 -0.1576 -0.0251  0.3697
 6558SOL     OW31135   0.480   1.396   4.523 -0.3731  0.1812 -0.2242
 6558SOL    HW131136   0.412   1.331   4.506  0.6014 -1.2409  1.3781
 6558SOL    HW231137   0.432   1.478   4.530 -2.1755 -0.7351 -1.7694
 6559SOL     OW31138   1.497   4.417   4.366 -0.0818  0.0697  0.0964
 6559SOL    HW131139   1.483   4.497   4.416  0.9804  0.9735 -1.0541
 6559SOL    HW231140   1.591   4.409   4.382  0.0986 -0.5432 -1.2802
 6560SOL     OW31141   1.424   0.946   2.994 -0.3147  0.6704 -0.1008
 6560SOL    HW131142   1.509   0.905   3.011 -0.4373 -0.3758 -2.0386
 6560SOL    HW231143   1.383   0.894   2.926 -3.0367  1.2129  1.1336
 6561SOL     OW31144   1.446   1.132   6.738 -0.2744 -0.3853 -0.0513
 6561SOL    HW131145   1.462   1.156   6.646  1.4037  1.1207  0.6246
 6561SOL    HW231146   1.527   1.086   6.759 -1.4743 -1.4664  2.0914
 6562SOL     OW31147   0.747   1.882   8.860  0.6199  0.3831  0.0933
 6562SOL    HW131148   0.676   1.824   8.830  0.1427  0.2141  1.5538
 6562SOL    HW231149   0.774   1.920   8.776  0.9068 -0.5313 -0.2330
 6563SOL     OW31150   2.950   1.761   1.605 -0.2930  0.9306  0.0622
 6563SOL    HW131151   2.886   1.825   1.636 -0.6205  1.3231 -1.3772
 6563SOL    HW231152   2.962   1.818   1.529 -1.1742  1.3039  0.1955
 6564SOL     OW31153   4.169   2.898   9.368 -0.3028  0.0846 -0.3973
 6564SOL    HW131154   4.116   2.897   9.448 -0.9764  0.2707 -0.8405
 6564SOL    HW231155   4.249   2.876   9.416  0.4023 -0.6003 -1.9080
 6565SOL     OW31156   4.547   1.396   1.630  0.5155 -0.5749  0.1207
 6565SOL    HW131157   4.578   1.319   1.677  0.6612 -0.4755  0.1887
 6565SOL    HW231158   4.635   1.434   1.622  1.1865 -1.8975  1.1711
 6566SOL     OW31159   1.981   3.108   6.069 -0.0265 -0.3428 -0.3588
 6566SOL    HW131160   2.036   3.030   6.064  3.2737  1.9027  1.1716
 6566SOL    HW231161   1.916   3.092   6.000 -0.6325 -0.1639  0.1711
 6567SOL     OW31162   3.209   4.633  13.343 -0.8220 -0.5839 -0.8867
 6567SOL    HW131163   3.128   4.584  13.357 -0.0570 -1.9178 -1.2029
 6567SOL    HW231164   3.212   4.702  13.410 -1.6105 -1.9401  0.5736
 6568SOL     OW31165   4.484   2.920  12.893 -0.2803  0.1117 -0.4082
 6568SOL    HW131166   4.510   2.992  12.834 -0.2360  1.0401  0.7483
 6568SOL    HW231167   4.484   2.847  12.831 -2.2838  0.0180 -0.2746
 6569SOL     OW31168   0.803   1.910  12.637  0.2077  0.2848  0.0395
 6569SOL    HW131169   0.757   1.990  12.613 -0.9482 -0.7690 -1.2675
 6569SOL    HW231170   0.805   1.908  12.733  3.4394  0.8795  0.0055
 6570SOL     OW31171   0.805   3.534   1.875  0.2270 -0.6327  0.1222
 6570SOL    HW131172   0.889   3.533   1.829  0.6933  2.0085  0.9560
 6570SOL    HW231173   0.832   3.541   1.966 -3.2615 -1.4367  1.2063
 6571SOL     OW31174   2.719   4.380  13.525 -0.0183  0.1796 -0.2108
 6571SOL    HW131175   2.779   4.387  13.599 -0.3183 -4.5717  0.4723
 6571SOL    HW231176   2.712   4.286  13.537  0.0084  0.3175  0.9184
 6572SOL     OW31177   4.270   1.562   7.644 -0.5089 -0.7232 -0.4206
 6572SOL    HW131178   4.243   1.500   7.576 -0.2466  0.1890 -1.3485
 6572SOL    HW231179   4.184   1.597   7.663 -0.3498  0.0617 -1.1577
 6573SOL     OW31180   2.775   1.278   7.490 -0.4131 -0.8646  0.4478
 6573SOL    HW131181   2.828   1.243   7.561 -1.1715  2.1700  2.5452
 6573SOL    HW231182   2.816   1.362   7.470 -0.2135 -1.3076 -1.0117
 6574SOL     OW31183   1.391   3.866  13.303 -0.0151 -0.1151 -0.5006
 6574SOL    HW131184   1.400   3.937  13.241 -2.2005 -1.1596 -1.9999
 6574SOL    HW231185   1.465   3.887  13.360 -0.4670  1.3969 -0.4711
 6575SOL     OW31186   2.943   2.882   6.364 -0.0090  0.1977  0.2979
 6575SOL    HW131187   2.989   2.905   6.283  0.1394  1.5092  0.7629
 6575SOL    HW231188   2.991   2.932   6.431 -1.5572  2.2936 -0.1756
 6576SOL     OW31189   2.096   2.231  12.845  0.0795 -0.0184  0.0988
 6576SOL    HW131190   2.021   2.194  12.892 -0.8984 -0.5273 -1.8640
 6576SOL    HW231191   2.089   2.324  12.868  1.8864  0.1760 -0.1520
 6577SOL     OW31192   4.299   1.896   3.941  0.1779  0.1074 -0.0061
 6577SOL    HW131193   4.220   1.900   3.887 -0.1238 -0.7499  0.3819
 6577SOL    HW231194   4.277   1.812   3.982 -2.0309  1.2307  1.1246
 6578SOL     OW31195   1.589   1.529   7.366 -0.4356  0.0600  0.6852
 6578SOL    HW131196   1.672   1.505   7.407 -0.6255 -0.5472  0.7235
 6578SOL    HW231197   1.580   1.623   7.379 -0.2952  0.6074 -3.3998
 6579SOL     OW31198   3.391   2.284  10.783  0.1542  0.1119  0.2182
 6579SOL    HW131199   3.453   2.296  10.712  0.0531 -0.2854  0.0629
 6579SOL    HW231200   3.310   2.297  10.734  0.0036  2.7086  1.1817
 6580SOL     OW31201   2.298   2.525   8.010 -0.4512 -0.4925 -0.2092
 6580SOL    HW131202   2.255   2.606   7.982 -0.1190 -0.3103 -0.2000
 6580SOL    HW231203   2.379   2.553   8.054 -0.3107 -2.9590  1.0702
 6581SOL     OW31204   1.111   2.349   0.039 -0.0987  0.4374  0.3766
 6581SOL    HW131205   1.054   2.421   0.012 -1.0198 -0.3191  0.3053
 6581SOL    HW231206   1.197   2.391   0.043  0.3537 -0.4900  0.3855
 6582SOL     OW31207   4.067   2.400  13.746  0.3835 -0.2587 -0.7927
 6582SOL    HW131208   4.074   2.367  13.836  3.3515 -2.3811 -1.8361
 6582SOL    HW231209   4.158   2.422  13.728  0.3608  0.3823 -0.1088
 6583SOL     OW31210   0.654   3.519  15.511  0.2330  0.4118 -0.1092
 6583SOL    HW131211   0.586   3.555  15.569  1.2915  1.5596  0.4210
 6583SOL    HW231212   0.676   3.593  15.454 -3.0530  0.4527 -1.3499
 6584SOL     OW31213   3.145   3.771   3.494  0.2948  0.4498  0.4091
 6584SOL    HW131214   3.158   3.708   3.424  1.5713 -0.5696  1.5872
 6584SOL    HW231215   3.125   3.845   3.436  0.8563 -0.4769 -0.9674
 6585SOL     OW31216   1.250   0.197   1.324 -0.5388 -0.0180 -0.3056
 6585SOL    HW131217   1.328   0.248   1.345 -2.3969  2.0293  1.5807
 6585SOL    HW231218   1.207   0.192   1.409 -2.0003  3.1336 -0.8621
 6586SOL     OW31219   1.970   1.423  14.983 -0.3758  0.3396 -0.0573
 6586SOL    HW131220   1.956   1.329  14.970  0.1452  0.0041  1.8009
 6586SOL    HW231221   2.029   1.424  15.059  2.9276  0.2362 -2.6550
 6587SOL     OW31222   2.189   3.646   7.295  0.0575 -0.3079  0.4786
 6587SOL    HW131223   2.193   3.663   7.389 -2.4780  2.1002  0.1334
 6587SOL    HW231224   2.225   3.728   7.261  2.6044 -1.2034  0.9841
 6588SOL     OW31225   3.676   2.033   6.683  0.2711  0.0604 -0.0249
 6588SOL    HW131226   3.696   1.943   6.710  2.3220 -0.1158 -2.1170
 6588SOL    HW231227   3.764   2.061   6.707 -0.3322  0.6891  1.4614
 6589SOL     OW31228   4.062   3.328   3.979  0.4767  0.5879 -0.2025
 6589SOL    HW131229   3.980   3.376   3.968  0.4226  0.7181  0.8520
 6589SOL    HW231230   4.026   3.268   4.044  1.0725  0.4647  0.0131
 6590SOL     OW31231   3.239   1.757   3.817 -0.1230 -0.4108 -0.3531
 6590SOL    HW131232   3.330   1.772   3.840 -0.8073  1.8965  0.8827
 6590SOL    HW231233   3.248   1.680   3.761 -0.1244  0.5081 -1.6197
 6591SOL     OW31234   1.368   0.996  16.250 -0.5961 -0.3117 -0.0662
 6591SOL    HW131235   1.363   0.953  16.336 -1.5978 -0.2084 -0.0725
 6591SOL    HW231236   1.374   0.921  16.191  1.5448  0.8350 -1.2964
 6592SOL     OW31237   2.989   1.445   4.031 -0.3483  0.5418 -0.6136
 6592SOL    HW131238   3.050   1.395   3.977  1.3957  1.0076  0.9091
 6592SOL    HW231239   2.996   1.533   3.995  0.7921  0.2244 -1.1681
 6593SOL     OW31240   4.491   2.753   9.000 -0.0132  0.3397  0.8673
 6593SOL    HW131241   4.414   2.779   8.949  0.7312  1.8942  0.5247
 6593SOL    HW231242   4.463   2.673   9.045  1.8230 -0.7269  0.1398
 6594SOL     OW31243   3.455   0.561   5.501  0.6113 -0.0944 -0.5121
 6594SOL    HW131244   3.386   0.589   5.561  1.3540 -0.3340  0.4442
 6594SOL    HW231245   3.534   0.585   5.549  0.2821  0.2211 -0.1258
 6595SOL     OW31246   1.804   0.364   1.581 -0.2983 -0.6718 -0.1214
 6595SOL    HW131247   1.835   0.312   1.655 -1.7629 -0.5977  0.5472
 6595SOL    HW231248   1.775   0.440   1.631 -3.1820  0.0468 -2.8647
 6596SOL     OW31249   1.431   1.277  11.607 -0.7146  0.5977 -0.1960
 6596SOL    HW131250   1.499   1.281  11.539 -1.7671 -0.4527 -1.3052
 6596SOL    HW231251   1.470   1.250  11.690  0.9054 -0.1399 -1.1945
 6597SOL     OW31252   0.030   4.341   2.655 -0.6080  0.1266  0.3349
 6597SOL    HW131253   4.709   4.355   2.569 -0.1089 -0.7727 -0.0443
 6597SOL    HW231254   0.003   4.420   2.703 -1.5849 -0.5382  0.8842
 6598SOL     OW31255   3.134   3.240   7.643  0.1373 -1.2357 -0.2937
 6598SOL    HW131256   3.112   3.201   7.727 -0.5187 -1.5625 -0.6154
 6598SOL    HW231257   3.143   3.331   7.670  1.3948 -0.6996 -2.4847
 6599SOL     OW31258   1.489   2.567   2.254 -0.1708 -0.3604  0.2671
 6599SOL    HW131259   1.557   2.605   2.198  1.6968  0.8226  3.3282
 6599SOL    HW231260   1.447   2.507   2.193 -2.9737  0.5875  1.2698
 6600SOL     OW31261   2.494   2.807   7.211 -0.0803  0.2720  0.6491
 6600SOL    HW131262   2.498   2.873   7.141  1.6203  0.5744  1.0249
 6600SOL    HW231263   2.496   2.862   7.289  0.0091 -2.2703  2.4232
 6601SOL     OW31264   2.289   0.375   5.350 -0.1972 -0.3706 -0.4766
 6601SOL    HW131265   2.214   0.375   5.409  1.1833  1.6224  1.3009
 6601SOL    HW231266   2.250   0.408   5.268 -0.8591  0.7333  0.2849
 6602SOL     OW31267   4.040   4.025  17.001  0.3766 -0.2387 -0.0733
 6602SOL    HW131268   3.981   3.961  16.960  0.7255 -0.0883 -0.8094
 6602SOL    HW231269   4.027   4.009  17.095  1.1734  1.1338  0.2665
 6603SOL     OW31270   2.893   0.626   7.279  0.5222 -0.2255  0.5304
 6603SOL    HW131271   2.837   0.703   7.277  1.5503  0.5800  2.3022
 6603SOL    HW231272   2.934   0.632   7.366 -0.1468  0.2499  0.8115
 6604SOL     OW31273   2.607   2.967   5.189 -0.3842  0.1920 -0.2081
 6604SOL    HW131274   2.626   2.898   5.253 -0.9318  0.0626 -0.1856
 6604SOL    HW231275   2.694   3.007   5.186 -0.2414 -0.0546  0.8626
 6605SOL     OW31276   1.853   3.298  14.489  0.5485  0.1830 -0.2040
 6605SOL    HW131277   1.834   3.334  14.576 -0.4154 -0.4377 -0.1530
 6605SOL    HW231278   1.885   3.378  14.448  1.6632 -0.1915 -0.0469
 6606SOL     OW31279   0.457   0.133   6.350  0.3808  0.0667  0.0738
 6606SOL    HW131280   0.542   0.100   6.321 -0.4972 -1.3477 -0.8670
 6606SOL    HW231281   0.460   0.099   6.440 -0.0659  0.4250  0.2261
 6607SOL     OW31282   3.205   0.187   3.153 -0.3091  0.1622 -0.0935
 6607SOL    HW131283   3.153   0.149   3.083 -1.4506  1.5553 -0.0010
 6607SOL    HW231284   3.267   0.244   3.107  0.7911 -0.2692  0.8400
 6608SOL     OW31285   4.383   1.869   8.986 -0.3207  0.0339 -0.9799
 6608SOL    HW131286   4.313   1.907   8.933 -0.3056 -0.2002 -1.1639
 6608SOL    HW231287   4.428   1.823   8.915  0.3194 -0.0116 -0.5516
 6609SOL     OW31288   1.384   0.670   0.583 -0.5899  0.5574  0.6446
 6609SOL    HW131289   1.421   0.758   0.588 -1.9247  1.0280  2.4113
 6609SOL    HW231290   1.297   0.675   0.623 -0.6199 -0.0339  0.6497
 6610SOL     OW31291   1.609   0.315  12.974 -0.0003  0.0710  0.0375
 6610SOL    HW131292   1.682   0.301  12.913 -1.8466 -1.0638 -1.9131
 6610SOL    HW231293   1.557   0.365  12.912  1.5050 -1.4923 -2.5384
 6611SOL     OW31294   3.505   1.914  10.106  0.0752 -0.5896  0.2895
 6611SOL    HW131295   3.567   1.842  10.105 -0.1195 -0.7594  0.4099
 6611SOL    HW231296   3.460   1.894  10.188  0.7463  1.4002  1.1357
 6612SOL     OW31297   0.312   3.704  13.350 -0.1759  0.7728 -0.1958
 6612SOL    HW131298   0.259   3.679  13.425  0.1286  0.8736  0.0557
 6612SOL    HW231299   0.390   3.727  13.401 -0.7286  0.8989  0.5892
 6613SOL     OW31300   3.702   1.684   1.963  0.4276 -0.7221 -0.0004
 6613SOL    HW131301   3.619   1.667   2.009  0.4160  1.5561  0.8222
 6613SOL    HW231302   3.722   1.766   2.007 -1.6680  0.0354 -0.4441
 6614SOL     OW31303   0.251   3.195   6.899 -0.4647  0.5265 -0.2741
 6614SOL    HW131304   0.271   3.281   6.936 -0.4386 -0.0819  1.1264
 6614SOL    HW231305   0.237   3.209   6.805  1.1331  0.0622 -0.5667
 6615SOL     OW31306   1.943   1.128   7.137  0.9106  0.4582 -0.1467
 6615SOL    HW131307   1.979   1.054   7.186 -0.7324 -0.3073 -0.1133
 6615SOL    HW231308   1.925   1.193   7.205  0.3342 -0.6557  0.7613
 6616SOL     OW31309   4.249   2.165  13.097 -0.1331 -0.3791  0.6277
 6616SOL    HW131310   4.343   2.169  13.077  0.0233 -2.4900  0.9389
 6616SOL    HW231311   4.245   2.227  13.169  1.5754 -1.2204  1.4550
 6617SOL     OW31312   3.742   3.055   2.391 -0.7143  0.9248  1.0238
 6617SOL    HW131313   3.780   3.137   2.422  0.6308  1.7721 -2.8789
 6617SOL    HW231314   3.698   3.093   2.314  0.7298  2.0415  0.7516
 6618SOL     OW31315   1.938   3.125  11.596 -0.1313 -0.4264  0.9461
 6618SOL    HW131316   1.879   3.099  11.525 -1.2314 -1.2756  2.1790
 6618SOL    HW231317   2.002   3.178  11.548  0.7475 -1.7206  0.7065
 6619SOL     OW31318   4.645   2.401   3.231  0.4429  0.7392 -0.0661
 6619SOL    HW131319   4.561   2.373   3.194 -0.6360  3.8834  0.0751
 6619SOL    HW231320   4.651   2.351   3.313 -0.5294 -1.1192 -1.1087
 6620SOL     OW31321   0.682   1.236   6.978  0.1724  0.4963  0.0002
 6620SOL    HW131322   0.747   1.304   6.999  0.1265  0.3317  0.6865
 6620SOL    HW231323   0.614   1.252   7.044  0.9990  0.1617  0.9407
 6621SOL     OW31324   0.299   3.270   6.195  0.2859 -0.0783 -0.4803
 6621SOL    HW131325   0.353   3.346   6.217  0.5507 -0.6571  0.8673
 6621SOL    HW231326   0.293   3.287   6.101 -3.4581  1.2561  0.0249
 6622SOL     OW31327   4.489   4.167   6.262  0.1016  0.2276  0.4147
 6622SOL    HW131328   4.530   4.211   6.336  1.2214  0.0014 -0.0813
 6622SOL    HW231329   4.401   4.205   6.260 -0.9952 -2.2676  0.3247
 6623SOL     OW31330   4.023   4.672   4.245 -0.3493  0.3276 -0.2890
 6623SOL    HW131331   3.930   4.686   4.226  0.1820  3.1901 -0.9103
 6623SOL    HW231332   4.031   4.696   4.338 -0.3692  2.4203 -0.8118
 6624SOL     OW31333   4.133   2.822   6.883  0.3028  0.3810  0.1002
 6624SOL    HW131334   4.118   2.911   6.851 -4.0720 -0.2489  0.3644
 6624SOL    HW231335   4.048   2.800   6.921  1.7033 -1.9195  1.9045
 6625SOL     OW31336   3.734   1.484   3.909  0.8525 -0.3417  0.1484
 6625SOL    HW131337   3.670   1.513   3.844  1.7768  1.9339  0.2505
 6625SOL    HW231338   3.757   1.561   3.960 -0.8626 -0.6928  1.4492
 6626SOL     OW31339   3.269   3.417   4.720  0.2995 -0.0909 -0.3262
 6626SOL    HW131340   3.347   3.410   4.775 -0.0910 -1.5879  0.0353
 6626SOL    HW231341   3.293   3.376   4.637  1.8571 -1.0164  0.5698
 6627SOL     OW31342   0.287   4.051  10.670 -0.0111  0.5152  0.0114
 6627SOL    HW131343   0.215   4.080  10.613 -0.2608  0.5859  0.3627
 6627SOL    HW231344   0.253   3.969  10.705  1.0823  0.1958  0.3210
 6628SOL     OW31345   3.146   3.857  15.149  0.0973  0.1815 -0.0544
 6628SOL    HW131346   3.235   3.829  15.170  0.3074  0.7290 -0.2177
 6628SOL    HW231347   3.105   3.776  15.178  0.9254  0.5356  2.1087
 6629SOL     OW31348   3.121   0.016   7.705  0.2626 -0.0259  0.1021
 6629SOL    HW131349   3.092   4.647   7.720 -3.5359  1.1868 -0.1306
 6629SOL    HW231350   3.090   0.039   7.617 -1.6940 -2.4515  0.1594
 6630SOL     OW31351   2.411   4.454   6.370 -0.1117  0.2262  0.1504
 6630SOL    HW131352   2.415   4.430   6.278  0.9806 -0.8905  0.4818
 6630SOL    HW231353   2.449   4.541   6.381 -0.0613  0.1588  0.5121
 6631SOL     OW31354   2.371   1.396   0.729  0.0785 -0.3495 -0.3945
 6631SOL    HW131355   2.456   1.434   0.706  0.7285 -2.0010 -0.7272
 6631SOL    HW231356   2.314   1.443   0.667 -0.1429  1.7927  1.4429
 6632SOL     OW31357   0.794   3.930  13.456  0.4019  0.4079 -0.2340
 6632SOL    HW131358   0.800   3.978  13.538  1.7780 -0.2543  0.0512
 6632SOL    HW231359   0.849   3.854  13.475  1.6872  1.7123  1.1519
 6633SOL     OW31360   3.866   1.439   6.926  0.1827 -0.9888 -0.4176
 6633SOL    HW131361   3.833   1.525   6.954  1.7606 -1.0537  1.6430
 6633SOL    HW231362   3.858   1.394   7.010  0.6221 -1.7042 -0.7626
 6634SOL     OW31363   1.766   4.204   5.849 -0.0219  0.5428  0.0846
 6634SOL    HW131364   1.840   4.260   5.827 -0.0395  0.0792 -1.1301
 6634SOL    HW231365   1.790   4.179   5.938  1.4944 -1.4993 -0.9023
 6635SOL     OW31366   3.324   2.127   2.861  0.3862 -0.3456 -0.1367
 6635SOL    HW131367   3.289   2.068   2.928 -1.5545  2.1318  1.0154
 6635SOL    HW231368   3.282   2.212   2.876  1.6573 -0.2224  2.6818
 6636SOL     OW31369   0.856   3.231  12.119 -0.1937 -0.4705  0.2600
 6636SOL    HW131370   0.840   3.191  12.033 -3.0015  1.5327 -0.1567
 6636SOL    HW231371   0.941   3.193  12.143  0.0921  0.0493  0.0678
 6637SOL     OW31372   4.620   2.196   7.288  0.2046  0.0257 -0.2386
 6637SOL    HW131373   4.687   2.129   7.274  1.8339  1.2536  1.6988
 6637SOL    HW231374   4.584   2.169   7.372 -1.3196 -1.2483 -1.3039
 6638SOL     OW31375   4.000   2.926   5.464 -0.1758 -0.1921 -0.4426
 6638SOL    HW131376   3.926   2.964   5.418  0.3485 -0.3966 -1.4634
 6638SOL    HW231377   4.020   2.849   5.411 -0.1221 -0.0851 -0.5792
 6639SOL     OW31378   2.473   3.055   1.797 -0.1905 -0.0630  0.6603
 6639SOL    HW131379   2.504   3.137   1.836  0.1548 -0.7725  1.8848
 6639SOL    HW231380   2.395   3.069   1.744 -0.3941  0.8329  1.2047
 6640SOL     OW31381   1.587   2.036   5.670  0.4540  0.2273 -0.0183
 6640SOL    HW131382   1.592   2.131   5.680 -1.9909  0.2221  1.3340
 6640SOL    HW231383   1.585   2.023   5.575  1.5417 -2.6168  0.3360
 6641SOL     OW31384   3.976   2.027   4.084 -0.3911  0.5279  0.0189
 6641SOL    HW131385   4.000   1.941   4.120  0.9190  1.0093  0.3011
 6641SOL    HW231386   3.906   1.999   4.025 -1.3219 -0.1670  1.4410
 6642SOL     OW31387   1.915   2.858  16.672 -0.1456  0.0992  0.0861
 6642SOL    HW131388   1.883   2.929  16.728  0.1921  1.1926 -1.1177
 6642SOL    HW231389   1.898   2.787  16.734 -0.1496 -0.3966 -0.4818
 6643SOL     OW31390   4.509   1.362  11.745 -0.1765 -0.3070  0.1817
 6643SOL    HW131391   4.522   1.374  11.651  0.8013 -0.6842  0.2758
 6643SOL    HW231392   4.593   1.401  11.767 -0.6461  0.9684 -0.2231
 6644SOL     OW31393   3.458   3.508  11.350 -0.2233 -0.0772  0.0239
 6644SOL    HW131394   3.434   3.591  11.309  1.2637 -0.4807 -1.6506
 6644SOL    HW231395   3.477   3.450  11.276  0.8352  1.6654 -1.0458
 6645SOL     OW31396   1.063   4.268   8.083 -0.0141  0.7242 -0.4990
 6645SOL    HW131397   1.149   4.254   8.122 -0.9411 -1.2290  0.8150
 6645SOL    HW231398   1.057   4.194   8.023  0.1265  1.5349 -1.5165
 6646SOL     OW31399   1.708   2.402   2.682  0.0701 -0.7387 -0.4405
 6646SOL    HW131400   1.755   2.424   2.762 -0.3336  1.1090 -0.7057
 6646SOL    HW231401   1.767   2.434   2.614  3.0969 -0.3770  2.3618
 6647SOL     OW31402   0.449   4.102   2.351 -0.3837  0.2303 -0.6518
 6647SOL    HW131403   0.420   4.052   2.427 -0.0402  2.7882  1.1306
 6647SOL    HW231404   0.366   4.139   2.323 -0.2467  0.8312 -0.2604
 6648SOL     OW31405   3.098   0.520   3.312 -0.6696 -0.2142  0.0272
 6648SOL    HW131406   3.122   0.605   3.273 -2.1714  0.2982  0.2209
 6648SOL    HW231407   3.037   0.551   3.379  1.7452 -1.6561  2.8932
 6649SOL     OW31408   2.577   0.513   3.021 -0.1121 -0.2923  0.3938
 6649SOL    HW131409   2.493   0.529   3.065 -0.7702 -0.9517 -0.6160
 6649SOL    HW231410   2.626   0.593   3.039 -1.6239  0.2998  1.8952
 6650SOL     OW31411   0.929   2.091   0.998 -0.3162  0.0338  0.2177
 6650SOL    HW131412   0.895   2.050   1.078  0.5264 -1.8310 -0.3860
 6650SOL    HW231413   0.922   2.185   1.019 -1.0632 -0.0228  0.2323
 6651SOL     OW31414   3.398   2.660   5.897 -0.2936 -0.0536  0.4386
 6651SOL    HW131415   3.426   2.569   5.893 -0.1172  0.0119  0.1686
 6651SOL    HW231416   3.343   2.659   5.818 -0.1259 -0.7009  0.3331
 6652SOL     OW31417   0.639   2.156   5.685  0.4135  0.4361  0.4989
 6652SOL    HW131418   0.669   2.116   5.766 -1.0332  0.9513  1.2956
 6652SOL    HW231419   0.617   2.079   5.632  1.5479  0.8983 -0.6425
 6653SOL     OW31420   0.236   4.655   3.196 -0.0050 -0.4022 -0.1649
 6653SOL    HW131421   0.229   4.646   3.292 -0.1367 -1.0035 -0.2306
 6653SOL    HW231422   0.276   4.577   3.159  2.9373  0.9927  0.0665
 6654SOL     OW31423   4.447   0.176  10.220  0.2998  0.2328 -0.1119
 6654SOL    HW131424   4.478   0.266  10.216 -0.2319  0.2910 -2.6076
 6654SOL    HW231425   4.519   0.133  10.174 -1.3916 -1.8303 -0.8449
 6655SOL     OW31426   3.463   0.829  17.471  0.2996 -0.1940 -0.5585
 6655SOL    HW131427   3.390   0.852  17.414  0.0981 -0.6617 -0.4895
 6655SOL    HW231428   3.448   0.885  17.547 -0.6461  0.7665 -1.4494
 6656SOL     OW31429   4.339   4.515   7.771 -0.0094 -0.2296  0.2089
 6656SOL    HW131430   4.390   4.445   7.812 -1.2962 -0.0715  2.0521
 6656SOL    HW231431   4.364   4.593   7.820 -0.7886  0.1544 -0.0080
 6657SOL     OW31432   2.425   0.555   9.424  0.2756  0.5471 -0.4480
 6657SOL    HW131433   2.494   0.489   9.432 -1.1665 -0.9409 -0.3229
 6657SOL    HW231434   2.414   0.564   9.329 -0.3430  0.2458 -0.4062
 6658SOL     OW31435   1.260   2.773   2.930  0.0823  0.0745 -0.0959
 6658SOL    HW131436   1.317   2.727   2.868  0.2281 -1.8059  1.4189
 6658SOL    HW231437   1.293   2.862   2.939  0.3332 -0.0528  0.2528
 6659SOL     OW31438   3.436   0.764   5.942 -0.6985  0.8861  0.4577
 6659SOL    HW131439   3.507   0.705   5.967 -0.7096  0.6096 -0.1695
 6659SOL    HW231440   3.466   0.854   5.948  0.1321  0.7020 -0.9704
 6660SOL     OW31441   0.526   3.875  10.237  0.1630  0.1976 -0.3670
 6660SOL    HW131442   0.521   3.940  10.307 -0.3413 -0.3794  0.1300
 6660SOL    HW231443   0.622   3.867  10.239  0.0776 -0.1510  1.5932
 6661SOL     OW31444   4.038   0.011  14.748  0.4693 -0.8146  0.1549
 6661SOL    HW131445   4.083   4.660  14.703 -0.1723 -1.3285  0.3473
 6661SOL    HW231446   3.961   0.013  14.692  0.8983  3.0251 -0.3454
 6662SOL     OW31447   4.504   0.360  10.481 -0.3685  0.0829 -0.1963
 6662SOL    HW131448   4.574   0.414  10.518  0.1331 -0.0889 -0.9046
 6662SOL    HW231449   4.554   0.279  10.473  0.9377  0.8217  0.5769
 6663SOL     OW31450   0.167   3.838   7.645 -0.4083 -0.1474 -0.5361
 6663SOL    HW131451   0.244   3.865   7.595 -0.6296  1.5616  0.0424
 6663SOL    HW231452   0.184   3.877   7.731  1.4280 -1.6774 -0.2196
 6664SOL     OW31453   2.323   0.388   5.726 -0.1763 -0.5498 -0.4181
 6664SOL    HW131454   2.372   0.453   5.676  0.1387 -0.5397 -0.0933
 6664SOL    HW231455   2.266   0.448   5.774 -1.9006 -0.9070 -2.0098
 6665SOL     OW31456   1.920   0.853   1.491 -0.0425  0.2423  0.3972
 6665SOL    HW131457   2.002   0.896   1.516  0.6654 -2.3281  2.4721
 6665SOL    HW231458   1.871   0.921   1.443  0.6047  1.7046  1.8091
 6666SOL     OW31459   0.805   2.057   8.631  0.0806 -0.0666  0.0956
 6666SOL    HW131460   0.764   2.111   8.564  0.5507  1.1845  0.8032
 6666SOL    HW231461   0.814   2.123   8.700 -0.5659 -0.4231  0.5188
 6667SOL     OW31462   1.562   1.199  17.632  0.4113  0.1969  0.7440
 6667SOL    HW131463   1.604   1.151  17.561 -1.0545 -2.2939  1.5645
 6667SOL    HW231464   1.633   1.224   0.007  2.9988  0.1471 -2.2587
 6668SOL     OW31465   2.564   4.576  13.661 -0.0831  0.7823 -0.2009
 6668SOL    HW131466   2.602   4.521  13.592 -1.5895 -0.6552  0.1363
 6668SOL    HW231467   2.475   4.542  13.658 -0.3951  1.4716  1.4672
 6669SOL     OW31468   2.095   4.192   3.085  0.1169  0.0548  0.2124
 6669SOL    HW131469   2.031   4.138   3.130 -1.1184 -0.0767 -1.6935
 6669SOL    HW231470   2.171   4.178   3.140 -0.3748  1.1475  1.1681
 6670SOL     OW31471   1.724   1.134   0.736 -0.0685 -0.6041  0.0597
 6670SOL    HW131472   1.745   1.066   0.801 -0.0659 -0.9033 -0.2554
 6670SOL    HW231473   1.792   1.132   0.669  0.4262  1.3693  0.5106
 6671SOL     OW31474   1.739   3.584   5.372  0.2811  0.2348  0.3740
 6671SOL    HW131475   1.751   3.662   5.427 -1.5889 -0.9276  2.4252
 6671SOL    HW231476   1.813   3.589   5.312  0.1935 -0.1888  0.2363
 6672SOL     OW31477   3.548   0.842   4.863 -0.2611  0.0827 -0.7586
 6672SOL    HW131478   3.473   0.822   4.919  0.6296  2.3505  1.2798
 6672SOL    HW231479   3.609   0.772   4.885  0.0022 -0.2205 -2.5269
 6673SOL     OW31480   1.112   3.136  12.879  0.6159  0.4955 -0.0039
 6673SOL    HW131481   1.153   3.089  12.951  0.7238  0.1975 -0.2595
 6673SOL    HW231482   1.186   3.156  12.822  0.6171  1.7403  0.4346
 6674SOL     OW31483   4.661   4.112   4.589  0.2603  0.3489 -0.3868
 6674SOL    HW131484   0.007   4.052   4.557 -1.0351  0.3896 -3.1724
 6674SOL    HW231485   4.661   4.187   4.530  0.8863  2.6626  2.5998
 6675SOL     OW31486   0.379   2.595   8.508  0.1290  0.1022 -0.2608
 6675SOL    HW131487   0.441   2.624   8.441  0.5954 -1.7517 -0.6277
 6675SOL    HW231488   0.343   2.675   8.547  0.1511  0.3964 -0.8437
 6676SOL     OW31489   0.779   2.079   8.237 -0.3857 -0.0333 -0.1174
 6676SOL    HW131490   0.729   2.155   8.208  1.4464  0.9548 -0.6819
 6676SOL    HW231491   0.710   2.026   8.276  1.9601 -2.1282  1.1567
 6677SOL     OW31492   1.801   2.296  14.298 -0.1585 -0.0768 -0.5624
 6677SOL    HW131493   1.896   2.300  14.283 -0.2450 -0.3343 -1.1733
 6677SOL    HW231494   1.788   2.207  14.265 -1.6858  0.2016 -0.6867
 6678SOL     OW31495   3.955   2.498  16.015  0.0221 -0.1312 -0.3270
 6678SOL    HW131496   3.985   2.486  16.105  0.0192  0.7022 -0.2109
 6678SOL    HW231497   3.961   2.594  16.008 -2.6800  0.1910  1.7319
 6679SOL     OW31498   2.986   0.514   0.270 -0.4518 -0.5223  0.6037
 6679SOL    HW131499   2.899   0.496   0.235  0.0464 -0.1268 -0.8376
 6679SOL    HW231500   2.964   0.558   0.352  0.3052 -1.3839  1.2753
 6680SOL     OW31501   1.675   1.156   1.705  0.0819  0.0235  0.5988
 6680SOL    HW131502   1.760   1.194   1.682  0.7305 -1.4705  0.4887
 6680SOL    HW231503   1.672   1.095   1.631 -0.6692 -0.9575  1.4308
 6681SOL     OW31504   4.198   2.824   8.256 -0.6961 -0.2753 -0.6010
 6681SOL    HW131505   4.269   2.779   8.210  0.3992  0.3401  0.4842
 6681SOL    HW231506   4.222   2.913   8.228 -4.2777  0.8608 -0.0268
 6682SOL     OW31507   4.673   4.525   7.127  0.1877  0.7988  0.4051
 6682SOL    HW131508   4.650   4.447   7.076 -0.8060  1.9954 -1.0012
 6682SOL    HW231509   0.018   4.487   7.184  0.7207  1.8898  0.5221
 6683SOL     OW31510   2.636   0.229   8.178  0.2820 -0.1549  0.4834
 6683SOL    HW131511   2.590   0.270   8.251 -1.3182  0.3546 -0.8199
 6683SOL    HW231512   2.705   0.292   8.158  0.3068 -0.4982 -0.5191
 6684SOL     OW31513   2.172   4.580   4.123 -0.0916 -0.1345 -0.7638
 6684SOL    HW131514   2.152   4.590   4.030 -2.9494  1.2047 -0.0112
 6684SOL    HW231515   2.154   4.486   4.132 -3.0466  0.5393  0.2893
 6685SOL     OW31516   0.864   1.165   3.448 -0.8151  0.4723 -0.0007
 6685SOL    HW131517   0.893   1.195   3.362 -2.5465 -0.7677 -1.0241
 6685SOL    HW231518   0.945   1.157   3.498 -1.1015  2.9663  0.8460
 6686SOL     OW31519   2.185   2.670  16.535 -0.1444  0.0624  0.7559
 6686SOL    HW131520   2.215   2.734  16.470  0.8574  0.5774  1.7246
 6686SOL    HW231521   2.222   2.716  16.611 -2.2327  2.3998  0.3529
 6687SOL     OW31522   3.523   1.328   6.990  0.4009  0.7875  0.3699
 6687SOL    HW131523   3.449   1.351   7.046 -1.8134  0.7255 -2.5359
 6687SOL    HW231524   3.510   1.234   6.980  0.9981  0.5247  2.0133
 6688SOL     OW31525   1.302   1.670  16.846  0.1304  0.2353  0.0176
 6688SOL    HW131526   1.225   1.657  16.901 -1.1137  1.4582 -1.4392
 6688SOL    HW231527   1.254   1.695  16.766  0.1382  2.0881  0.5963
 6689SOL     OW31528   2.982   1.147   5.137 -0.3301 -0.0731  0.7278
 6689SOL    HW131529   3.007   1.069   5.087 -1.1604  0.7935 -1.0065
 6689SOL    HW231530   3.038   1.146   5.215  1.3015  1.8306 -0.3939
 6690SOL     OW31531   1.876   4.028  12.814 -0.0537 -0.5420  0.1825
 6690SOL    HW131532   1.900   4.056  12.903 -0.6722 -0.2359  0.2486
 6690SOL    HW231533   1.962   3.997  12.786  0.2883  0.1446  0.4583
 6691SOL     OW31534   0.197   2.119   3.947  0.1037 -1.3460  0.0059
 6691SOL    HW131535   0.208   2.176   4.023  2.7345 -1.5253 -0.2632
 6691SOL    HW231536   0.108   2.145   3.921  1.0177  2.3627  0.6181
 6692SOL     OW31537   2.087   1.204   4.422 -0.1761 -0.2382 -0.3284
 6692SOL    HW131538   2.003   1.249   4.421 -0.2947 -0.3597  2.6784
 6692SOL    HW231539   2.121   1.239   4.340  1.5991  2.2667  1.4374
 6693SOL     OW31540   4.482   3.041   6.694  0.4114  0.3043  0.4480
 6693SOL    HW131541   4.572   3.009   6.699  1.0418  2.1595  0.8698
 6693SOL    HW231542   4.449   3.024   6.782  1.9939  0.1763  1.0050
 6694SOL     OW31543   2.250   3.214   7.613 -0.2855  0.5380 -0.4754
 6694SOL    HW131544   2.333   3.225   7.566  1.4503  0.4560  2.5622
 6694SOL    HW231545   2.218   3.137   7.566  1.6526  0.3263 -1.4739
 6695SOL     OW31546   1.398   3.109  11.833 -0.4374 -0.4515 -0.3848
 6695SOL    HW131547   1.317   3.058  11.829 -0.1345 -0.9560 -0.1268
 6695SOL    HW231548   1.369   3.177  11.893 -2.8867 -1.6417 -0.2411
 6696SOL     OW31549   2.267   1.604  15.015  0.5611 -0.2486 -0.4126
 6696SOL    HW131550   2.282   1.698  15.023  2.2211 -0.4305 -1.4740
 6696SOL    HW231551   2.261   1.584  15.108  0.9278  1.9662  0.0766
 6697SOL     OW31552   1.566   2.941   7.159 -0.0076 -0.2899  0.0205
 6697SOL    HW131553   1.492   2.977   7.207  0.9499  1.4154  0.2237
 6697SOL    HW231554   1.554   2.960   7.066  1.3792 -0.0454 -0.1189
 6698SOL     OW31555   1.421   3.257  16.942 -0.7065 -0.2373  0.4711
 6698SOL    HW131556   1.452   3.175  16.904 -0.2596 -0.4778  1.3655
 6698SOL    HW231557   1.374   3.296  16.868  0.7330 -0.0275 -0.3279
 6699SOL     OW31558   4.601   0.568  11.975 -0.1865  0.9049  0.0752
 6699SOL    HW131559   4.573   0.500  11.913  3.5666 -2.7418  2.3503
 6699SOL    HW231560   4.521   0.617  11.994 -1.2574 -1.5309  1.9988
 6700SOL     OW31561   0.402   1.495   5.046 -0.7949 -0.5066 -0.5194
 6700SOL    HW131562   0.320   1.463   5.083 -1.4048  0.9599 -0.6048
 6700SOL    HW231563   0.379   1.578   5.005  3.4027  1.7316  1.6159
 6701SOL     OW31564   1.216   3.123   5.986 -0.1132  0.2104 -0.2632
 6701SOL    HW131565   1.194   3.134   6.079  1.6383  1.3175  0.0220
 6701SOL    HW231566   1.134   3.091   5.949  0.6514 -2.1079  0.0392
 6702SOL     OW31567   3.385   4.686   8.493  0.3307 -0.5137 -0.2541
 6702SOL    HW131568   3.435   4.624   8.440  1.6015 -1.0947  1.6275
 6702SOL    HW231569   3.434   0.044   8.471 -1.7864  0.1471 -2.6511
 6703SOL     OW31570   1.469   2.860  14.590  0.3240 -0.5148  0.1540
 6703SOL    HW131571   1.536   2.838  14.654  1.0274 -0.1944 -0.4679
 6703SOL    HW231572   1.452   2.768  14.571  0.9652 -0.5926 -0.0409
 6704SOL     OW31573   3.128   3.282   5.833 -0.1945 -0.2434  0.2700
 6704SOL    HW131574   3.104   3.365   5.874 -0.4812 -0.7108  1.0420
 6704SOL    HW231575   3.212   3.268   5.875 -1.1692 -0.2628  2.1979
 6705SOL     OW31576   1.286   1.750   0.573  0.2189 -0.1424  0.3161
 6705SOL    HW131577   1.193   1.775   0.573  0.4540  0.7286  0.4023
 6705SOL    HW231578   1.313   1.769   0.663  2.6452 -4.6545  0.5577
 6706SOL     OW31579   0.053   2.451  13.452  0.3845 -0.2850  0.1413
 6706SOL    HW131580   4.693   2.410  13.422  0.5527 -0.4770 -0.0527
 6706SOL    HW231581   0.014   2.503  13.523  0.8430 -0.4723  0.5297
 6707SOL     OW31582   0.445   3.312  15.399  0.4919  0.2462  0.0797
 6707SOL    HW131583   0.486   3.384  15.447 -0.2113 -0.9551  2.4417
 6707SOL    HW231584   0.459   3.246  15.467 -1.8954  0.0637  0.3862
 6708SOL     OW31585   2.688   4.286  14.627  0.2439  0.1976 -0.0466
 6708SOL    HW131586   2.631   4.216  14.595  1.6557 -0.5629 -0.8900
 6708SOL    HW231587   2.759   4.240  14.673 -0.9444  0.0381  1.6450
 6709SOL     OW31588   3.347   4.712   8.777 -0.1894 -0.2748 -0.0076
 6709SOL    HW131589   3.316   0.082   8.780  1.4452  0.3351 -1.4741
 6709SOL    HW231590   3.371   4.709   8.684 -0.9998  1.3189 -0.2614
 6710SOL     OW31591   3.111   0.845  14.932  0.1648  0.3086  0.1539
 6710SOL    HW131592   3.058   0.825  14.855  0.8828 -1.4786  0.1367
 6710SOL    HW231593   3.172   0.772  14.941  1.4541  1.3105 -0.4546
 6711SOL     OW31594   2.436   4.063   5.603 -0.4129 -0.0716 -0.0655
 6711SOL    HW131595   2.357   4.039   5.652 -1.0676  1.8537 -0.1792
 6711SOL    HW231596   2.408   4.058   5.512 -0.3670 -0.2789 -0.0689
 6712SOL     OW31597   4.362   3.174   5.391 -0.1482 -0.0458 -0.1856
 6712SOL    HW131598   4.428   3.112   5.422  1.9701  1.6452 -1.2443
 6712SOL    HW231599   4.354   3.228   5.469 -1.4376 -0.7961  0.2015
 6713SOL     OW31600   0.243   4.413   8.080 -0.4177 -0.6518 -0.3895
 6713SOL    HW131601   0.193   4.449   8.007 -3.0016 -1.2597  1.1200
 6713SOL    HW231602   0.169   4.403   8.140  0.7553  1.4440  1.4227
 6714SOL     OW31603   3.605   4.665  16.017 -0.0659 -0.3676  0.5073
 6714SOL    HW131604   3.601   0.026  16.066  0.2913 -0.2994  0.4221
 6714SOL    HW231605   3.679   4.682  15.958 -2.4927 -1.0592 -2.6911
 6715SOL     OW31606   2.349   0.021   3.540 -0.6996  0.6237 -0.2307
 6715SOL    HW131607   2.261   4.716   3.567 -0.1929  1.5587  2.3191
 6715SOL    HW231608   2.406   4.673   3.573  0.5451  1.4901 -0.5526
 6716SOL     OW31609   4.381   0.864   6.973 -0.0077  0.9671  0.3334
 6716SOL    HW131610   4.367   0.868   6.878  1.0844  1.4159  0.1890
 6716SOL    HW231611   4.452   0.926   6.990  0.4112  0.7244 -0.5264
 6717SOL     OW31612   0.324   2.692  11.929  0.3645  0.1432 -0.1671
 6717SOL    HW131613   0.321   2.628  12.001 -1.6159  1.8842  1.3079
 6717SOL    HW231614   0.239   2.732  11.948  0.0582  0.1750 -1.6329
 6718SOL     OW31615   3.681   0.357   4.296 -0.6501  0.7863  1.0063
 6718SOL    HW131616   3.748   0.318   4.353  0.1108 -1.1301 -1.1976
 6718SOL    HW231617   3.643   0.279   4.256  0.6583  0.4296  0.4644
 6719SOL     OW31618   1.345   0.838  11.635 -0.3503 -0.4589  0.0524
 6719SOL    HW131619   1.422   0.833  11.692 -1.6997  0.0835  1.9371
 6719SOL    HW231620   1.280   0.868  11.699  1.0819  1.8709  0.4023
 6720SOL     OW31621   3.464   2.016   2.446 -0.7889 -0.0842 -0.1028
 6720SOL    HW131622   3.558   2.006   2.430 -0.4847 -0.0836  1.7737
 6720SOL    HW231623   3.432   1.976   2.365 -1.6564 -0.4692  0.4290
 6721SOL     OW31624   2.641   2.319   4.934  0.1748  0.5922  0.3399
 6721SOL    HW131625   2.570   2.271   4.890  1.5722  0.6025 -1.9512
 6721SOL    HW231626   2.713   2.285   4.881  1.4004 -0.0150  2.4306
 6722SOL     OW31627   0.879   4.469   7.098  0.6204 -0.0849 -0.0750
 6722SOL    HW131628   0.853   4.559   7.083 -1.1961 -0.8876 -1.7440
 6722SOL    HW231629   0.967   4.478   7.061  0.9094  0.8085  0.8207
 6723SOL     OW31630   3.520   2.090   3.798 -0.5731 -0.1270 -0.3288
 6723SOL    HW131631   3.566   2.159   3.751  3.8472 -0.9417  2.6960
 6723SOL    HW231632   3.453   2.143   3.841  0.2299 -0.4035  1.2855
 6724SOL     OW31633   3.735   1.485   2.768 -0.2366  0.5121  0.2714
 6724SOL    HW131634   3.702   1.561   2.816  0.0232  0.0406  1.2030
 6724SOL    HW231635   3.728   1.408   2.826  1.1384 -0.6955 -1.1870
 6725SOL     OW31636   0.286   4.503   5.226  0.6422  0.0639 -0.3353
 6725SOL    HW131637   0.245   4.550   5.298 -0.8720  2.1144 -2.5187
 6725SOL    HW231638   0.360   4.563   5.216  0.9986 -0.2814  0.2844
 6726SOL     OW31639   2.661   4.246   7.787 -0.3976 -0.0857 -0.5502
 6726SOL    HW131640   2.684   4.288   7.870  0.8277  0.5092 -1.2052
 6726SOL    HW231641   2.681   4.156   7.815 -0.9231 -0.7705 -2.4272
 6727SOL     OW31642   4.227   2.558   2.661 -0.1967 -0.2286  0.4146
 6727SOL    HW131643   4.305   2.592   2.617 -1.8373  0.0102 -2.3672
 6727SOL    HW231644   4.274   2.525   2.737  2.0559 -0.8666 -1.2648
 6728SOL     OW31645   3.735   4.156  12.776  0.6806  0.3341 -0.0085
 6728SOL    HW131646   3.676   4.141  12.850 -0.1199  1.1133 -0.4926
 6728SOL    HW231647   3.786   4.230  12.811 -1.6116  2.2120 -0.6264
 6729SOL     OW31648   1.185   1.511   2.753 -0.0543  0.1634 -0.3048
 6729SOL    HW131649   1.197   1.547   2.841 -0.2653 -0.9894  0.1927
 6729SOL    HW231650   1.238   1.569   2.698 -1.4510  0.4657 -1.3089
 6730SOL     OW31651   4.046   1.479  15.154  0.2313  0.0752 -0.1225
 6730SOL    HW131652   3.980   1.487  15.086  1.0020 -0.4948 -0.9401
 6730SOL    HW231653   4.039   1.569  15.186  3.2313  0.3624 -0.2683
 6731SOL     OW31654   1.499   0.864   8.963 -0.0373  0.3925 -0.8147
 6731SOL    HW131655   1.456   0.853   8.878 -0.5705  2.5842 -0.8495
 6731SOL    HW231656   1.513   0.775   8.994 -0.3846  0.0226 -1.7014
 6732SOL     OW31657   1.994   2.054   8.338  0.0177  0.0768 -0.0739
 6732SOL    HW131658   2.010   1.981   8.279  0.9273  1.0132 -0.9741
 6732SOL    HW231659   2.040   2.010   8.409 -0.4892  1.5020  1.1386
 6733SOL     OW31660   2.030   0.927   6.389 -0.2765  0.2881  0.1507
 6733SOL    HW131661   1.977   0.999   6.355  0.4785  0.6312 -0.2903
 6733SOL    HW231662   2.112   0.934   6.341 -1.2605  0.9792 -1.4148
 6734SOL     OW31663   0.711   1.366   9.017  0.8952  0.0647  0.0209
 6734SOL    HW131664   0.633   1.421   9.030  0.4716 -0.3154 -0.9345
 6734SOL    HW231665   0.756   1.428   8.959  1.5256 -0.4596 -0.0473
 6735SOL     OW31666   1.882   2.895   5.829 -0.3283 -0.4324 -1.3134
 6735SOL    HW131667   1.829   2.974   5.838 -1.6571 -1.1620 -2.7603
 6735SOL    HW231668   1.830   2.824   5.868 -0.4010 -0.4460 -1.4375
 6736SOL     OW31669   1.155   0.333   8.687  0.5077 -0.3274 -0.2570
 6736SOL    HW131670   1.095   0.375   8.749  1.5880 -2.1805  2.0577
 6736SOL    HW231671   1.241   0.349   8.726 -0.6698  0.5665  2.0048
 6737SOL     OW31672   4.617   1.897  17.489  0.4568  0.6153  0.1343
 6737SOL    HW131673   4.694   1.929  17.535  0.3745 -0.1621  0.8196
 6737SOL    HW231674   4.561   1.974  17.496  0.7040  0.7780  0.3163
 6738SOL     OW31675   2.504   3.181   5.369  0.1078  0.8638 -0.5636
 6738SOL    HW131676   2.530   3.118   5.302  0.4113  0.9663 -0.5409
 6738SOL    HW231677   2.471   3.123   5.438  0.4582  2.0432  0.6129
 6739SOL     OW31678   0.387   3.104  15.601 -0.1435 -0.6046 -0.0595
 6739SOL    HW131679   0.337   3.126  15.680 -4.3848 -0.7423 -2.7154
 6739SOL    HW231680   0.315   3.100  15.538  0.7692 -0.1290 -1.1217
 6740SOL     OW31681   4.413   3.742   7.720  0.3583  0.0168 -0.2366
 6740SOL    HW131682   4.417   3.671   7.784  0.0002  1.3121  1.2225
 6740SOL    HW231683   4.401   3.684   7.645  0.3832 -0.2462 -0.0362
 6741SOL     OW31684   0.376   0.322   7.774  0.2668  0.2410  0.0239
 6741SOL    HW131685   0.285   0.333   7.802  0.1473  0.6444 -0.5359
 6741SOL    HW231686   0.366   0.253   7.709 -3.3782  0.1876  0.6721
 6742SOL     OW31687   1.524   2.524   8.672 -0.2056 -0.2347  0.0036
 6742SOL    HW131688   1.502   2.616   8.657  1.2062  0.3991  1.8163
 6742SOL    HW231689   1.569   2.506   8.590  1.8186 -0.9264  1.2593
 6743SOL     OW31690   3.830   0.994   4.551 -0.2169 -0.0050 -0.7292
 6743SOL    HW131691   3.915   1.000   4.593 -2.0728 -1.3462  3.2387
 6743SOL    HW231692   3.843   1.048   4.473  1.1513  0.3007 -0.2758
 6744SOL     OW31693   3.626   0.495   1.380  0.2194  0.4949 -0.0315
 6744SOL    HW131694   3.549   0.521   1.329  1.4633  1.3386 -1.4748
 6744SOL    HW231695   3.599   0.418   1.429 -3.0044  1.8808  0.4171
 6745SOL     OW31696   0.367   2.127   1.002  0.2823  0.3647  0.1564
 6745SOL    HW131697   0.386   2.041   1.041  1.6712  0.2756 -0.7443
 6745SOL    HW231698   0.430   2.188   1.039 -0.4255  2.0967 -1.5129
 6746SOL     OW31699   0.780   1.385   9.279 -0.0055  0.1518  0.4108
 6746SOL    HW131700   0.749   1.378   9.188 -0.5221  0.8262  0.5287
 6746SOL    HW231701   0.873   1.384   9.256  0.1851 -0.3362  1.2257
 6747SOL     OW31702   1.401   0.381   5.962  0.4264  0.3094 -0.0467
 6747SOL    HW131703   1.313   0.373   5.997  1.4328 -1.0631  2.1433
 6747SOL    HW231704   1.443   0.307   6.007  0.6318  1.4301  1.6028
 6748SOL     OW31705   1.365   0.920   6.935  0.2388  0.2172 -0.3710
 6748SOL    HW131706   1.335   0.976   6.864 -0.0122 -0.8267 -1.0945
 6748SOL    HW231707   1.388   0.843   6.883  0.8643 -0.3264  0.7080
 6749SOL     OW31708   1.770   3.560  15.623  0.0521  0.8334  0.0726
 6749SOL    HW131709   1.695   3.531  15.570  1.2311 -1.0528 -0.5680
 6749SOL    HW231710   1.762   3.655  15.614  0.7750  1.1653  2.7920
 6750SOL     OW31711   1.456   0.318   4.196 -0.0728  0.7164  0.2503
 6750SOL    HW131712   1.472   0.303   4.289 -0.9952 -2.8788 -0.1477
 6750SOL    HW231713   1.517   0.387   4.170 -0.6228  0.7683 -0.8931
 6751SOL     OW31714   3.768   4.415   6.505 -0.1844  0.4200  0.6950
 6751SOL    HW131715   3.772   4.319   6.501  1.5548  0.5128  0.0675
 6751SOL    HW231716   3.821   4.438   6.428 -1.8179 -0.9384 -0.8388
 6752SOL     OW31717   4.473   1.966   3.739  0.2820 -0.5242  0.0123
 6752SOL    HW131718   4.475   1.897   3.805  0.5419 -2.1383 -1.7133
 6752SOL    HW231719   4.529   1.922   3.675 -0.3877 -1.3016 -0.0361
 6753SOL     OW31720   2.199   0.722   2.018  0.3565 -0.0198 -0.0144
 6753SOL    HW131721   2.149   0.784   2.071 -0.2355 -1.3315  0.9311
 6753SOL    HW231722   2.258   0.689   2.085  2.4685  0.2447 -1.7458
 6754SOL     OW31723   1.444   4.194  16.412  0.3600 -0.3399 -0.5436
 6754SOL    HW131724   1.360   4.201  16.367  0.4283  1.7484 -0.3124
 6754SOL    HW231725   1.496   4.266  16.376 -0.1505 -0.4391 -1.4851
 6755SOL     OW31726   1.683   2.715   3.042  0.3136  0.3228 -0.9387
 6755SOL    HW131727   1.693   2.810   3.054  1.4320 -0.2952  3.0995
 6755SOL    HW231728   1.774   2.694   3.022  0.9120  1.9830 -0.0525
 6756SOL     OW31729   0.469   3.056   4.974  0.9658  0.1207 -0.0028
 6756SOL    HW131730   0.484   3.062   4.880  4.5245 -0.2538  0.5322
 6756SOL    HW231731   0.541   3.109   5.008 -2.2342  3.5104  1.3706
 6757SOL     OW31732   0.823   3.064  11.904  0.0775  0.1600  0.0415
 6757SOL    HW131733   0.736   3.025  11.897  0.9334 -1.2832 -2.2982
 6757SOL    HW231734   0.870   2.983  11.887 -2.7352 -1.2545 -1.0434
 6758SOL     OW31735   2.306   4.277  12.187 -0.1846 -0.6656 -0.2664
 6758SOL    HW131736   2.289   4.349  12.126 -3.1441 -0.2380  1.0691
 6758SOL    HW231737   2.226   4.276  12.238  0.2799  0.6716  0.5071
 6759SOL     OW31738   0.395   4.095   5.017 -0.0393  0.3917 -0.2723
 6759SOL    HW131739   0.482   4.069   5.049 -2.0309 -3.4543  1.9889
 6759SOL    HW231740   0.340   4.050   5.081 -0.1578  0.4360 -0.3443
 6760SOL     OW31741   2.786   2.359  16.069  0.3280 -1.1207  0.4324
 6760SOL    HW131742   2.831   2.289  16.022 -0.4679  0.2401 -2.3756
 6760SOL    HW231743   2.701   2.359  16.026  0.3980  1.8852  0.3039
 6761SOL     OW31744   2.862   3.450   8.867 -0.9440 -0.0860  0.0290
 6761SOL    HW131745   2.824   3.470   8.953 -2.6091 -0.7186 -0.5579
 6761SOL    HW231746   2.899   3.364   8.884  0.6213  0.4482 -0.6238
 6762SOL     OW31747   3.159   3.864  16.740  0.0542 -0.2172 -0.4828
 6762SOL    HW131748   3.217   3.789  16.726  0.3365  0.4420 -2.7951
 6762SOL    HW231749   3.127   3.897  16.656 -1.5889  0.5474  0.4339
 6763SOL     OW31750   3.018   1.475   8.000 -0.3044 -0.7734 -0.1234
 6763SOL    HW131751   3.085   1.407   7.996  0.0990 -0.2591 -1.7785
 6763SOL    HW231752   3.008   1.491   7.907  0.5178 -0.7195 -0.2014
 6764SOL     OW31753   1.028   0.173  12.068 -0.3323 -0.0824  0.1207
 6764SOL    HW131754   0.983   0.249  12.032 -0.1093  0.7182  1.5588
 6764SOL    HW231755   1.106   0.214  12.104 -1.4421  0.0879  2.3000
 6765SOL     OW31756   2.767   4.017   4.235 -0.2514  0.3602 -0.9243
 6765SOL    HW131757   2.748   3.932   4.195  1.1746 -0.6191  0.4813
 6765SOL    HW231758   2.857   4.006   4.266 -1.3706 -0.6030  2.0595
 6766SOL     OW31759   2.994   0.162   0.153 -0.9519 -0.2068  0.4666
 6766SOL    HW131760   3.006   0.067   0.151 -1.8577 -0.3164  0.0278
 6766SOL    HW231761   2.923   0.165   0.218  1.1381  2.4579  2.6351
 6767SOL     OW31762   1.849   4.117  16.613 -0.2113  0.2266 -0.4330
 6767SOL    HW131763   1.908   4.042  16.621 -0.5665  0.0774  0.8184
 6767SOL    HW231764   1.782   4.093  16.677 -1.3080  0.1868 -1.5914
 6768SOL     OW31765   3.154   2.990   0.595 -0.2396  0.6007 -0.1194
 6768SOL    HW131766   3.063   3.019   0.585 -0.2061 -0.5561 -3.8063
 6768SOL    HW231767   3.176   3.013   0.686 -2.8360  3.6096 -0.2701
 6769SOL     OW31768   2.974   0.347   6.249  0.0752  0.0234 -0.0520
 6769SOL    HW131769   3.032   0.368   6.322 -0.8202  1.7287  0.1498
 6769SOL    HW231770   3.015   0.398   6.179 -0.2104 -1.1037 -1.0492
 6770SOL     OW31771   0.765   2.034  16.614 -0.1114  0.2015  0.1803
 6770SOL    HW131772   0.834   2.080  16.661 -1.6270  0.7003  1.8949
 6770SOL    HW231773   0.754   2.087  16.535 -1.0671 -0.8652 -0.4085
 6771SOL     OW31774   3.113   1.209   7.332 -0.0774  0.2268  0.0154
 6771SOL    HW131775   3.061   1.136   7.366  0.9398  0.3012  1.6792
 6771SOL    HW231776   3.061   1.285   7.360  1.0843  0.0504  2.6331
 6772SOL     OW31777   3.370   2.226   8.149  0.4041 -0.0308 -0.1489
 6772SOL    HW131778   3.378   2.248   8.242  1.1194 -0.3811 -0.1276
 6772SOL    HW231779   3.281   2.256   8.132  0.4915 -0.0228 -0.6006
 6773SOL     OW31780   1.711   4.183   6.149 -0.4407 -0.3799  0.2283
 6773SOL    HW131781   1.665   4.265   6.167 -1.4814 -0.8735 -0.2130
 6773SOL    HW231782   1.767   4.175   6.226 -1.2055  0.2629  0.8580
 6774SOL     OW31783   1.870   3.847   5.438 -0.1199 -0.0212 -0.1976
 6774SOL    HW131784   1.960   3.830   5.466  0.2096 -0.8140 -1.7486
 6774SOL    HW231785   1.848   3.919   5.497  0.1060 -0.7251  0.7444
 6775SOL     OW31786   1.208   1.908   4.660  0.4160  0.3549 -0.0638
 6775SOL    HW131787   1.144   1.954   4.714 -0.0746  0.5325 -0.8014
 6775SOL    HW231788   1.279   1.887   4.721 -0.4538  2.9270  1.8053
 6776SOL     OW31789   0.276   4.086  10.265 -0.6021  0.0019 -0.3208
 6776SOL    HW131790   0.341   4.062  10.331  1.2009  0.5332 -1.8976
 6776SOL    HW231791   0.203   4.096  10.325 -0.1888  0.5810  0.0873
 6777SOL     OW31792   4.097   4.146   3.480 -0.2081  0.0317 -0.3793
 6777SOL    HW131793   4.061   4.219   3.530  2.5413  0.2762  1.2212
 6777SOL    HW231794   4.141   4.096   3.548 -0.6310 -1.1066 -0.9295
 6778SOL     OW31795   0.567   1.464   6.389 -0.0341 -0.1478  0.2951
 6778SOL    HW131796   0.475   1.465   6.415  0.1042 -3.5398  0.9209
 6778SOL    HW231797   0.600   1.437   6.475 -1.3470 -0.3783  0.7168
 6779SOL     OW31798   3.047   3.681   0.543 -0.0537  0.0565 -0.3511
 6779SOL    HW131799   3.005   3.754   0.498 -1.9855 -1.7679 -1.4774
 6779SOL    HW231800   3.126   3.679   0.489  0.2316 -1.0546  0.1111
 6780SOL     OW31801   3.854   4.399   1.105 -0.5239 -0.0142 -0.0343
 6780SOL    HW131802   3.936   4.448   1.113 -0.2062 -0.5741  0.1510
 6780SOL    HW231803   3.810   4.483   1.119  0.9772  1.0395 -1.6263
 6781SOL     OW31804   0.680   0.809   4.338 -0.8449  0.3717 -0.0619
 6781SOL    HW131805   0.645   0.732   4.295 -0.8191  0.3224  0.0050
 6781SOL    HW231806   0.774   0.794   4.328 -1.3058 -2.5859  0.2743
 6782SOL     OW31807   3.161   1.138   1.542 -0.0649 -0.2464 -0.4559
 6782SOL    HW131808   3.200   1.051   1.535 -0.8123 -0.7948  2.1968
 6782SOL    HW231809   3.071   1.114   1.565  0.5126 -1.8765  0.1141
 6783SOL     OW31810   1.040   0.381   1.725 -0.1370 -0.5560  0.1578
 6783SOL    HW131811   1.090   0.300   1.712  2.1140  0.8828 -0.1500
 6783SOL    HW231812   1.101   0.438   1.679 -1.0145  0.2214 -0.0440
 6784SOL     OW31813   2.178   3.785   7.536  0.0968 -0.4794  0.3884
 6784SOL    HW131814   2.133   3.869   7.528  2.1579  0.5243 -0.7253
 6784SOL    HW231815   2.262   3.816   7.503 -0.0206  1.8776  2.3044
 6785SOL     OW31816   2.634   3.452   4.914  0.4945 -0.7743  0.4044
 6785SOL    HW131817   2.688   3.373   4.906 -0.3580 -1.3518  0.3465
 6785SOL    HW231818   2.622   3.469   5.008  3.8279 -0.8463  0.8481
 6786SOL     OW31819   4.631   1.723   6.746  0.3084  0.1371  0.2154
 6786SOL    HW131820   4.612   1.770   6.828 -3.5921  3.1023 -2.3928
 6786SOL    HW231821   4.585   1.780   6.684 -0.0963  1.0449  1.3392
 6787SOL     OW31822   2.955   4.711   5.924  0.0145  0.0781  0.5669
 6787SOL    HW131823   2.874   4.701   5.875  0.5202  2.6988 -0.7798
 6787SOL    HW231824   3.017   4.692   5.853  0.0119  1.4427  0.2028
 6788SOL     OW31825   0.180   4.366   3.435  0.1008  0.4280  0.5269
 6788SOL    HW131826   0.271   4.371   3.404  0.0168 -0.3181  0.1345
 6788SOL    HW231827   0.201   4.350   3.527  1.7392 -0.1841  0.0517
 6789SOL     OW31828   3.139   0.265   9.797  0.0028 -0.2353 -0.1861
 6789SOL    HW131829   3.111   0.203   9.864  3.4008  0.4608  1.8476
 6789SOL    HW231830   3.222   0.231   9.764 -0.8863 -2.7920  0.1945
 6790SOL     OW31831   2.656   0.520   4.040  0.4571  0.5414 -0.2834
 6790SOL    HW131832   2.574   0.520   3.991  1.8899 -0.3109 -2.6827
 6790SOL    HW231833   2.632   0.507   4.132 -0.4596  0.1087 -0.5835
 6791SOL     OW31834   1.810   1.301  10.986  0.0242  0.5544 -0.5756
 6791SOL    HW131835   1.769   1.333  10.906  0.5341 -1.4328 -1.6314
 6791SOL    HW231836   1.740   1.240  11.008  0.5513 -0.2270 -1.0458
 6792SOL     OW31837   2.176   1.565   2.824 -0.2916  0.0122 -0.5038
 6792SOL    HW131838   2.115   1.551   2.896 -0.6226 -1.3903 -1.0557
 6792SOL    HW231839   2.233   1.626   2.872 -0.8970 -0.2905  0.5845
 6793SOL     OW31840   3.024   0.101  16.854 -0.2327 -0.4046  0.6897
 6793SOL    HW131841   3.021   0.196  16.852  0.6071 -0.3500  1.9109
 6793SOL    HW231842   3.028   0.076  16.761 -2.7050 -1.3014  0.8268
 6794SOL     OW31843   1.432   0.748   7.943 -0.1947 -0.1996  0.5489
 6794SOL    HW131844   1.441   0.713   8.032  0.3288 -1.4416  0.0106
 6794SOL    HW231845   1.352   0.701   7.920 -0.3723  0.0634  0.6222
 6795SOL     OW31846   0.770   0.081   5.294 -0.2643  0.2769 -0.4140
 6795SOL    HW131847   0.820   0.085   5.213 -1.9015  0.6351 -1.4272
 6795SOL    HW231848   0.687   0.122   5.267 -0.2016  1.1050  0.6878
 6796SOL     OW31849   1.915   0.275  16.670  0.1321  0.0214 -0.0991
 6796SOL    HW131850   1.865   0.269  16.752  2.3947 -1.1597  1.1948
 6796SOL    HW231851   2.007   0.277  16.698  0.1795  1.2894 -0.3457
 6797SOL     OW31852   4.088   1.427  10.706 -0.1407  0.6092  0.2452
 6797SOL    HW131853   4.155   1.492  10.726 -1.4276  1.5459  1.5430
 6797SOL    HW231854   4.150   1.368  10.665 -0.4989 -1.1524  2.2662
 6798SOL     OW31855   2.495   0.765  14.810 -0.4254  0.3372 -0.3756
 6798SOL    HW131856   2.524   0.674  14.815 -0.3147  0.4022  0.1471
 6798SOL    HW231857   2.463   0.783  14.898  0.9469  0.0645  0.1703
 6799SOL     OW31858   3.746   1.669   1.699 -0.0687 -0.0642 -0.8714
 6799SOL    HW131859   3.776   1.590   1.652  3.3559  0.0603  1.0685
 6799SOL    HW231860   3.767   1.648   1.790 -0.3610  0.3252 -0.7189
 6800SOL     OW31861   0.442   0.819   8.752  0.2256 -0.1923  0.2165
 6800SOL    HW131862   0.484   0.755   8.810 -0.1330 -0.9327 -0.3341
 6800SOL    HW231863   0.406   0.882   8.814  0.2614  0.1061 -0.0700
 6801SOL     OW31864   2.368   1.700   3.017 -0.2806  0.2819 -0.2287
 6801SOL    HW131865   2.366   1.704   3.113  0.4143  0.4449 -0.2161
 6801SOL    HW231866   2.457   1.666   3.004  0.0033  1.2560 -0.9129
 6802SOL     OW31867   0.282   2.769   8.240 -0.2825  0.7741 -0.1406
 6802SOL    HW131868   0.239   2.851   8.217 -0.6040  0.6036 -0.1384
 6802SOL    HW231869   0.368   2.797   8.274  0.4768 -1.1314 -0.4764
 6803SOL     OW31870   4.374   4.024  16.620  0.3585 -0.2089  0.5604
 6803SOL    HW131871   4.387   3.952  16.682 -0.4273 -1.1300 -0.3515
 6803SOL    HW231872   4.463   4.045  16.592 -0.0880  0.4158 -0.3842
 6804SOL     OW31873   1.847   0.209   1.813 -0.4005  0.1197 -0.2736
 6804SOL    HW131874   1.791   0.180   1.885  0.3423  2.1882  1.1354
 6804SOL    HW231875   1.910   0.137   1.818 -3.0464 -2.2061 -0.1815
 6805SOL     OW31876   1.135   3.916  13.574  0.1879 -0.1338 -0.1060
 6805SOL    HW131877   1.071   3.855  13.537 -0.4470 -0.1136  0.9553
 6805SOL    HW231878   1.185   3.939  13.496  1.4125 -0.3134  0.6150
 6806SOL     OW31879   0.023   0.142   6.456  0.7372 -0.4376 -0.2060
 6806SOL    HW131880   0.095   0.203   6.439 -0.0102  0.8531  1.2540
 6806SOL    HW231881   0.039   0.083   6.383  0.2868 -0.4611 -0.2911
 6807SOL     OW31882   1.908   1.786   6.813 -0.1273  0.0581  0.2003
 6807SOL    HW131883   1.945   1.704   6.781  3.5240  1.5904  0.5360
 6807SOL    HW231884   1.859   1.767   6.893 -1.7656  1.0224 -0.5763
 6808SOL     OW31885   1.393   1.190  15.937  0.3583 -0.3073 -0.0469
 6808SOL    HW131886   1.333   1.184  16.011  1.1758 -0.7682  0.5823
 6808SOL    HW231887   1.368   1.120  15.877 -0.1972 -0.5506  0.4650
 6809SOL     OW31888   0.388   1.371  15.344 -0.1864 -0.2903  0.2671
 6809SOL    HW131889   0.446   1.296  15.361 -0.6091 -0.7414 -0.3062
 6809SOL    HW231890   0.313   1.314  15.324 -1.5044  1.4167  0.3941
 6810SOL     OW31891   2.090   1.221   1.095 -0.2415  0.2402 -0.1279
 6810SOL    HW131892   2.153   1.156   1.126 -0.9541  0.0242  0.8564
 6810SOL    HW231893   2.115   1.240   1.005 -2.9311 -1.7226 -1.2601
 6811SOL     OW31894   0.838   1.076   4.363 -0.1222  0.6677  0.2146
 6811SOL    HW131895   0.834   1.149   4.424 -1.0314  0.9863 -0.2246
 6811SOL    HW231896   0.838   0.994   4.412  2.3711  1.3388  1.3282
 6812SOL     OW31897   1.832   1.493   2.141 -0.0385 -0.2890 -0.0913
 6812SOL    HW131898   1.900   1.426   2.128  0.7171  0.7799 -1.6728
 6812SOL    HW231899   1.753   1.441   2.155  1.0939 -1.9762  0.0413
 6813SOL     OW31900   3.474   4.684   4.016 -0.0545 -1.1682  0.6210
 6813SOL    HW131901   3.524   4.637   4.083  2.8135  0.3450 -0.4351
 6813SOL    HW231902   3.505   4.649   3.933  0.9794  1.1892  0.0022
 6814SOL     OW31903   3.267   2.592   7.718 -0.0274 -0.1852 -0.0251
 6814SOL    HW131904   3.248   2.685   7.724 -1.1696 -0.5319  1.9664
 6814SOL    HW231905   3.210   2.576   7.643  1.6822  1.4936 -1.7042
 6815SOL     OW31906   4.306   1.769   6.764 -0.5018  0.0360 -0.0056
 6815SOL    HW131907   4.348   1.776   6.678  0.6053  2.8791  0.7481
 6815SOL    HW231908   4.216   1.745   6.744 -0.9302  0.6049  1.2277
 6816SOL     OW31909   0.350   3.492   2.449  0.5185 -0.3331  0.1913
 6816SOL    HW131910   0.262   3.525   2.467  0.6209 -0.0477  0.1810
 6816SOL    HW231911   0.375   3.555   2.382 -1.9915  0.6280  0.1786
 6817SOL     OW31912   4.319   0.563  15.870 -0.0099 -0.4554 -0.6355
 6817SOL    HW131913   4.320   0.630  15.938  0.7198 -1.1989  0.0873
 6817SOL    HW231914   4.278   0.603  15.793 -0.1472  1.5044  0.4348
 6818SOL     OW31915   3.222   0.241   8.520 -0.3998  0.0279 -0.0399
 6818SOL    HW131916   3.199   0.192   8.441  1.0299  1.4121 -1.3270
 6818SOL    HW231917   3.280   0.305   8.478 -2.1284  0.4781 -1.7320
 6819SOL     OW31918   0.172   2.433   3.465  0.1370  0.1031 -0.2684
 6819SOL    HW131919   0.239   2.407   3.528  0.4022  0.5757 -0.3563
 6819SOL    HW231920   0.231   2.443   3.391 -2.2103 -1.7488 -2.3885
 6820SOL     OW31921   2.755   4.527   7.153  0.1178  0.0834 -0.3653
 6820SOL    HW131922   2.731   4.493   7.067 -1.3224 -1.3700  0.6280
 6820SOL    HW231923   2.682   4.499   7.207  1.8789 -0.6773  1.6404
 6821SOL     OW31924   2.509   4.070   4.230  0.1978  0.4300  0.0919
 6821SOL    HW131925   2.602   4.047   4.231  0.1223  0.2673  2.7415
 6821SOL    HW231926   2.480   3.989   4.188  0.3261  0.9389 -0.9880
 6822SOL     OW31927   0.362   3.182  11.254  0.1473 -0.1294  0.0852
 6822SOL    HW131928   0.433   3.180  11.190 -0.9833 -0.0533 -1.1766
 6822SOL    HW231929   0.368   3.269  11.292 -1.0775  0.4013 -0.9426
 6823SOL     OW31930   1.967   1.519   5.285  0.0338 -0.2503 -0.4249
 6823SOL    HW131931   1.873   1.522   5.300  0.1250  0.5385 -0.0105
 6823SOL    HW231932   1.971   1.454   5.215 -2.7305 -0.4511 -0.3673
 6824SOL     OW31933   4.487   4.021  17.288  0.2834  0.0308 -0.7829
 6824SOL    HW131934   4.575   4.041  17.257  0.8464 -0.1652  0.7294
 6824SOL    HW231935   4.432   4.055  17.217 -0.4926 -0.0048 -0.2077
 6825SOL     OW31936   2.454   1.993  16.846  0.3698  0.0152  0.0481
 6825SOL    HW131937   2.522   2.006  16.780 -0.9859 -1.2160 -1.5825
 6825SOL    HW231938   2.488   2.048  16.917 -0.8725  0.5617  0.2147
 6826SOL     OW31939   0.508   4.134   5.595  0.7115  0.1413 -0.3358
 6826SOL    HW131940   0.570   4.119   5.666 -0.7115 -1.2528  0.6046
 6826SOL    HW231941   0.434   4.083   5.628  0.2453  0.2654 -1.1693
 6827SOL     OW31942   0.034   3.393   5.631  0.0955 -0.8218 -0.4157
 6827SOL    HW131943   4.700   3.403   5.709  0.7059 -2.3736  0.2344
 6827SOL    HW231944   0.053   3.299   5.638  1.0437 -0.5454  0.7517
 6828SOL     OW31945   3.693   3.271   4.342  0.0467 -0.1846  0.0539
 6828SOL    HW131946   3.644   3.272   4.424 -2.3266 -0.1004 -1.3560
 6828SOL    HW231947   3.736   3.357   4.343 -0.6981  0.2193 -1.5770
 6829SOL     OW31948   4.692   3.525  15.827  0.3690  0.0802 -0.1097
 6829SOL    HW131949   4.684   3.532  15.732  0.1770  0.4135 -0.0700
 6829SOL    HW231950   4.686   3.616  15.855 -2.0738  0.3168 -1.4076
 6830SOL     OW31951   0.530   1.487   9.622  0.4876  0.0248 -0.2388
 6830SOL    HW131952   0.583   1.522   9.551 -1.2528  1.7264 -0.7034
 6830SOL    HW231953   0.446   1.519   9.590  0.9726  1.1712 -0.3672
 6831SOL     OW31954   1.318   1.304   1.706  0.4877 -0.1856 -0.2185
 6831SOL    HW131955   1.370   1.324   1.628  0.2329  2.3520  0.2781
 6831SOL    HW231956   1.259   1.243   1.662 -0.6815 -0.6656  2.0090
 6832SOL     OW31957   1.487   1.992   0.071  0.7533 -0.9643 -0.2429
 6832SOL    HW131958   1.397   2.024   0.072  0.6189 -1.3400 -0.0015
 6832SOL    HW231959   1.535   2.073   0.051 -0.3129 -0.2650  0.0605
 6833SOL     OW31960   3.931   3.905   7.894  0.2724 -0.3856 -0.3861
 6833SOL    HW131961   4.020   3.871   7.888  0.0257 -1.0324 -0.4114
 6833SOL    HW231962   3.929   3.945   7.980 -3.5235 -0.0775 -0.5989
 6834SOL     OW31963   1.150   4.367   5.618  0.0070 -0.5116 -0.0595
 6834SOL    HW131964   1.064   4.348   5.657  0.6626 -1.6299  0.8446
 6834SOL    HW231965   1.130   4.379   5.525 -0.7908  0.2197  0.2026
 6835SOL     OW31966   2.676   4.284   4.534 -0.2398 -0.0276 -0.0418
 6835SOL    HW131967   2.681   4.280   4.439  0.5572  2.9213 -0.1362
 6835SOL    HW231968   2.596   4.330   4.559  0.1777 -0.9782  3.0388
 6836SOL     OW31969   1.178   1.711   7.026 -0.3861 -0.2945 -0.3821
 6836SOL    HW131970   1.234   1.752   7.092  1.3560 -2.5497 -0.4618
 6836SOL    HW231971   1.112   1.779   7.015 -2.2456 -2.1563 -0.5677
 6837SOL     OW31972   4.320   0.945   8.157 -0.1495  0.6843 -0.3037
 6837SOL    HW131973   4.332   0.979   8.069  0.7397  0.6666 -0.1898
 6837SOL    HW231974   4.404   0.901   8.173 -1.1018 -0.2524  2.1943
 6838SOL     OW31975   2.726   4.615   3.754 -0.2051 -0.0760 -0.2265
 6838SOL    HW131976   2.797   4.578   3.701 -1.1780 -0.1991 -1.4346
 6838SOL    HW231977   2.753   4.705   3.770  0.3033  0.0395 -1.7409
 6839SOL     OW31978   0.139   0.147   4.727  0.3710 -0.3291  0.1384
 6839SOL    HW131979   0.091   0.095   4.791  0.9040 -1.0135 -0.0183
 6839SOL    HW231980   0.079   0.221   4.717 -1.8090 -2.0668  0.5321
 6840SOL     OW31981   0.551   3.210   5.884 -0.0063  1.1634  0.6428
 6840SOL    HW131982   0.635   3.164   5.891 -0.6014 -0.0673 -0.3675
 6840SOL    HW231983   0.500   3.134   5.914  1.5537  1.0131  2.9215
 6841SOL     OW31984   4.397   2.680   5.906  0.0679 -0.3725  0.1925
 6841SOL    HW131985   4.351   2.596   5.899 -1.2708  0.3296  0.7425
 6841SOL    HW231986   4.484   2.651   5.935 -0.1652  0.3138  1.5629
 6842SOL     OW31987   1.955   2.060  17.052  0.1507 -0.1659 -0.5579
 6842SOL    HW131988   2.038   2.053  17.003  1.1217  2.0366  0.7491
 6842SOL    HW231989   1.965   1.984  17.109  1.4397 -0.6298 -1.3696
 6843SOL     OW31990   4.229   1.183   6.895 -0.5697 -0.3371 -0.0431
 6843SOL    HW131991   4.158   1.238   6.929 -0.4150  0.2697 -0.6894
 6843SOL    HW231992   4.247   1.233   6.815  1.6000  0.1030  0.7198
 6844SOL     OW31993   3.105   0.502  11.123 -0.0948  0.0552 -0.4210
 6844SOL    HW131994   3.180   0.445  11.103 -0.1767  1.5665 -5.0940
 6844SOL    HW231995   3.079   0.468  11.208  0.0999  0.6494 -0.1247
 6845SOL     OW31996   2.221   4.350   0.950 -0.2139  0.3567 -0.2360
 6845SOL    HW131997   2.195   4.265   0.987  1.0550  0.5349  1.0639
 6845SOL    HW231998   2.138   4.396   0.941  0.5691  1.6030 -1.0912
 6846SOL     OW31999   0.636   4.672   2.952 -0.0229 -0.6231 -0.2498
 6846SOL    HW132000   0.623   0.045   2.965  0.1447 -0.7517  0.8295
 6846SOL    HW232001   0.722   4.675   2.908 -0.2890  2.7039 -0.5582
 6847SOL     OW32002   4.674   1.316  16.637 -0.3289 -0.4567 -0.5293
 6847SOL    HW132003   4.695   1.409  16.636 -0.5482 -0.4138 -1.0426
 6847SOL    HW232004   4.607   1.317  16.706  0.4060  2.1966  0.1313
 6848SOL     OW32005   1.332   1.989   2.444 -0.1699  0.1235 -0.2142
 6848SOL    HW132006   1.355   1.984   2.537 -1.7462 -0.3604  0.1434
 6848SOL    HW232007   1.336   2.084   2.429 -1.0720  0.2010  0.0661
 6849SOL     OW32008   2.992   1.295  15.991  0.0484 -0.3065  0.5059
 6849SOL    HW132009   3.029   1.364  15.936  0.1857 -0.1198  0.8354
 6849SOL    HW232010   3.025   1.215  15.950 -0.9122 -1.0150  1.1202
 6850SOL     OW32011   4.462   0.733   5.390 -0.7603  0.1407  0.2135
 6850SOL    HW132012   4.556   0.744   5.374 -0.6178 -0.3738  0.7303
 6850SOL    HW232013   4.443   0.687   5.308  1.1154  1.8547 -1.2134
 6851SOL     OW32014   1.334   4.518  17.093  0.4018 -0.0323  0.2493
 6851SOL    HW132015   1.350   4.433  17.053 -1.0386 -0.4426  0.5565
 6851SOL    HW232016   1.412   4.566  17.065 -0.6658  0.9388 -1.0543
 6852SOL     OW32017   4.146   0.619  16.266 -0.2223  1.0122  0.3639
 6852SOL    HW132018   4.184   0.537  16.234 -2.4466  0.3352 -0.5116
 6852SOL    HW232019   4.182   0.622  16.354 -0.3092  2.2060  0.3608
 6853SOL     OW32020   3.029   4.539  15.538 -0.0700 -0.4010 -0.0463
 6853SOL    HW132021   2.979   4.606  15.584  0.9897  0.6208 -0.3898
 6853SOL    HW232022   2.964   4.470  15.524 -0.6375 -0.1884  1.6186
 6854SOL     OW32023   2.872   4.006   8.783 -0.0378  0.2356  0.1059
 6854SOL    HW132024   2.949   3.975   8.830 -0.9040 -1.5041  0.3515
 6854SOL    HW232025   2.851   3.920   8.747 -1.3129  0.6394 -0.1097
 6855SOL     OW32026   0.143   2.036  17.673 -0.8333 -0.0714 -0.7428
 6855SOL    HW132027   0.179   1.951   0.016  0.1721  0.8444  0.7044
 6855SOL    HW232028   0.188   2.102   0.040 -1.8135  1.2481 -1.5615
 6856SOL     OW32029   2.690   1.916   0.104 -0.4511  0.0519 -0.5661
 6856SOL    HW132030   2.706   2.000   0.147  0.6629 -0.4490  0.0179
 6856SOL    HW232031   2.660   1.860   0.175 -2.8342 -0.3978 -1.9302
 6857SOL     OW32032   2.435   0.121   4.639  0.0642 -0.2959 -0.2868
 6857SOL    HW132033   2.377   0.047   4.622  0.6060 -1.0095  1.0215
 6857SOL    HW232034   2.374   0.194   4.631 -0.4655 -0.6797  0.2134
 6858SOL     OW32035   0.518   2.669   4.140 -0.4127 -0.1920 -0.1335
 6858SOL    HW132036   0.479   2.756   4.125 -3.7631 -1.7893 -0.7021
 6858SOL    HW232037   0.611   2.694   4.142  0.0499 -2.1419  1.9818
 6859SOL     OW32038   1.911   2.177   1.484 -0.4179 -0.1303 -1.3537
 6859SOL    HW132039   1.937   2.120   1.557 -1.7564  1.2434  0.2097
 6859SOL    HW232040   1.870   2.255   1.522 -0.4051 -0.2824 -1.0287
 6860SOL     OW32041   3.675   1.940  16.130  0.1222  0.2934 -0.7022
 6860SOL    HW132042   3.640   1.851  16.142  0.5581  0.2699  0.4059
 6860SOL    HW232043   3.769   1.923  16.139  0.0909 -0.4885 -1.8178
 6861SOL     OW32044   2.801   3.367   8.420 -0.1547 -0.7586  0.2429
 6861SOL    HW132045   2.832   3.319   8.497  2.7502  0.2725 -0.2605
 6861SOL    HW232046   2.802   3.459   8.448  1.0881 -1.3169  2.0465
 6862SOL     OW32047   2.368   2.325   5.747  0.1794  0.1880 -0.3239
 6862SOL    HW132048   2.301   2.314   5.680  1.0869 -1.6752 -0.9081
 6862SOL    HW232049   2.319   2.350   5.826 -0.0620  0.1800 -0.4716
 6863SOL     OW32050   1.066   0.589  16.692 -0.1958  0.1792 -0.0393
 6863SOL    HW132051   1.074   0.528  16.766 -3.4541  1.8107  1.6549
 6863SOL    HW232052   0.989   0.640  16.715 -0.7500 -1.3313  1.4293
 6864SOL     OW32053   0.521   1.309  13.808  0.3713 -0.0913  0.0760
 6864SOL    HW132054   0.436   1.289  13.848  2.0078 -2.9585  2.1468
 6864SOL    HW232055   0.551   1.370  13.875  0.4305  0.5152 -0.5110
 6865SOL     OW32056   0.819   1.025   3.063  0.0334 -0.3879  0.1569
 6865SOL    HW132057   0.908   1.019   3.097 -0.3850 -0.7912  1.1766
 6865SOL    HW232058   0.788   0.936   3.044  0.4169 -0.5083  0.0929
 6866SOL     OW32059   0.574   2.273   1.921 -0.3062  0.2558  0.0817
 6866SOL    HW132060   0.645   2.222   1.882 -0.1062  0.3599  0.3116
 6866SOL    HW232061   0.511   2.262   1.850  0.0584 -1.5627  0.0341
 6867SOL     OW32062   1.847   1.332   3.298 -0.3420  0.1612  0.1347
 6867SOL    HW132063   1.755   1.338   3.324 -0.7166 -2.1019 -0.6979
 6867SOL    HW232064   1.829   1.351   3.206  1.4357 -2.7262 -0.8083
 6868SOL     OW32065   0.587   3.886   7.699 -0.4304 -0.0493  0.4604
 6868SOL    HW132066   0.615   3.799   7.727 -1.5923 -0.4450  0.3977
 6868SOL    HW232067   0.507   3.909   7.748 -0.7186 -0.3404  0.1235
 6869SOL     OW32068   3.479   1.937  11.046  0.2338  0.4904 -0.2457
 6869SOL    HW132069   3.392   1.936  11.007  0.5931  0.8349 -1.0388
 6869SOL    HW232070   3.531   1.911  10.970  0.5595  1.6642 -0.4232
 6870SOL     OW32071   0.176   0.785  10.075 -0.1878  0.4482  0.3624
 6870SOL    HW132072   0.110   0.846  10.108  1.6923  1.8314  1.5623
 6870SOL    HW232073   0.118   0.709  10.064 -0.7028  0.7586  0.9257
 6871SOL     OW32074   0.351   1.174   3.244  0.0644 -0.1942  0.3237
 6871SOL    HW132075   0.441   1.188   3.275 -0.5285  2.5456  0.8203
 6871SOL    HW232076   0.368   1.121   3.166 -1.5741  0.3007 -0.3677
 6872SOL     OW32077   3.169   2.708   9.086 -0.0061 -0.2631  0.2700
 6872SOL    HW132078   3.244   2.690   9.141  1.0220  1.4312 -0.5677
 6872SOL    HW232079   3.107   2.690   9.156  1.1503  1.8267  1.8182
 6873SOL     OW32080   2.986   2.592   3.819  0.8286 -0.2705  0.0076
 6873SOL    HW132081   3.044   2.662   3.788  1.8935  0.3874  3.5257
 6873SOL    HW232082   2.999   2.597   3.913  1.5062 -1.1302 -0.0410
 6874SOL     OW32083   3.070   4.030   8.225  0.4209  0.1039 -0.2150
 6874SOL    HW132084   3.136   4.083   8.270  0.0414 -0.2083  0.7003
 6874SOL    HW232085   3.096   3.944   8.256 -0.9377 -0.9268 -1.8960
 6875SOL     OW32086   2.551   1.076   7.840  0.2322  0.2764  0.0463
 6875SOL    HW132087   2.512   1.163   7.843  1.4230  0.7611  1.5689
 6875SOL    HW232088   2.495   1.034   7.906 -0.3585  0.8522 -0.0877
 6876SOL     OW32089   3.178   2.126   9.026 -0.3130 -0.5937  0.0691
 6876SOL    HW132090   3.163   2.081   9.109 -0.2238 -0.6638  0.0466
 6876SOL    HW232091   3.222   2.057   8.976 -1.1384 -0.2712 -1.1064
 6877SOL     OW32092   0.621   2.275   1.125  0.2303 -0.0692 -0.0806
 6877SOL    HW132093   0.711   2.306   1.122  0.6356 -1.2817 -0.3134
 6877SOL    HW232094   0.573   2.358   1.128  0.0239 -0.2456  1.8143
 6878SOL     OW32095   3.929   4.228   5.325  0.3755 -0.3248  0.6704
 6878SOL    HW132096   4.023   4.235   5.345 -0.0998 -0.1189  2.8745
 6878SOL    HW232097   3.894   4.298   5.380 -0.3624 -1.2546  1.3864
 6879SOL     OW32098   3.457   0.031  11.653  0.0588 -0.7934  0.2305
 6879SOL    HW132099   3.433   0.037  11.745  1.3358 -0.4974  0.5366
 6879SOL    HW232100   3.372   0.043  11.611 -0.6155  0.1279  1.8974
 6880SOL     OW32101   1.821   2.664  15.152  0.4943 -0.5035 -0.0761
 6880SOL    HW132102   1.793   2.751  15.123  1.0347 -0.0119  0.8839
 6880SOL    HW232103   1.785   2.605  15.086  0.2706  0.4161 -0.7908
 6881SOL     OW32104   1.657   4.696   5.680 -0.0907 -0.0646 -0.4667
 6881SOL    HW132105   1.658   0.057   5.729 -1.9266 -0.8215  0.8044
 6881SOL    HW232106   1.734   4.714   5.625 -0.4294  0.1399 -0.8751
 6882SOL     OW32107   3.065   2.972   6.575 -0.1126  0.4873 -0.2555
 6882SOL    HW132108   3.061   3.052   6.627  0.5169  0.3198  0.0488
 6882SOL    HW232109   3.070   2.915   6.651 -3.4250  3.3959  2.1179
 6883SOL     OW32110   1.813   2.562   3.704 -0.3544  0.0435 -0.4001
 6883SOL    HW132111   1.732   2.577   3.655 -0.2483 -0.0522 -0.6030
 6883SOL    HW232112   1.764   2.553   3.786  0.6670 -0.3669  0.1632
 6884SOL     OW32113   0.048   3.871  10.632 -0.2266  0.0456 -0.2019
 6884SOL    HW132114   4.703   3.939  10.645  0.5928  1.0504 -1.2611
 6884SOL    HW232115   0.008   3.817  10.564 -0.4354 -2.5224  1.9800
 6885SOL     OW32116   1.385   3.089   1.530  0.2533 -0.2816 -0.2477
 6885SOL    HW132117   1.464   3.080   1.477  0.9108  1.7449  0.3916
 6885SOL    HW232118   1.322   3.084   1.458 -1.5387  1.8711  1.1636
 6886SOL     OW32119   4.103   4.459  11.157  0.0377 -0.3809 -0.1060
 6886SOL    HW132120   4.054   4.541  11.164 -1.8509 -1.4387 -0.8674
 6886SOL    HW232121   4.048   4.417  11.091 -0.4741 -0.0548  0.1086
 6887SOL     OW32122   2.529   1.841   8.483 -0.9798 -0.4138 -0.2342
 6887SOL    HW132123   2.559   1.783   8.414  1.4190  0.0207  0.4695
 6887SOL    HW232124   2.484   1.909   8.434  2.0530  1.2557 -0.6616
 6888SOL     OW32125   4.537   2.326  10.493  0.0254 -0.2161  0.1361
 6888SOL    HW132126   4.579   2.255  10.540  1.1376 -1.0905 -2.2078
 6888SOL    HW232127   4.575   2.395  10.549  0.2123 -0.1053 -0.1252
 6889SOL     OW32128   1.110   1.473  12.446  0.1984  0.4534 -0.0780
 6889SOL    HW132129   1.174   1.493  12.515 -1.1458  1.8117  0.7794
 6889SOL    HW232130   1.174   1.475  12.374 -0.4421 -1.1999 -0.6778
 6890SOL     OW32131   0.437   3.418   9.363 -0.4315  0.0793 -0.0341
 6890SOL    HW132132   0.383   3.387   9.436  3.1037  1.4854  3.1590
 6890SOL    HW232133   0.373   3.477   9.325  0.1503 -0.2113 -1.4768
 6891SOL     OW32134   2.455   4.426   4.666  0.2623 -0.1278 -0.0815
 6891SOL    HW132135   2.361   4.437   4.684 -0.0920 -2.8661 -0.2330
 6891SOL    HW232136   2.489   4.482   4.736 -3.5243  0.8521  1.0164
 6892SOL     OW32137   4.024   0.327   7.425 -0.6471  0.5258  0.3082
 6892SOL    HW132138   4.065   0.261   7.480  1.0884  0.0552 -1.6002
 6892SOL    HW232139   4.012   0.401   7.485  2.3449  1.5828 -0.4033
 6893SOL     OW32140   4.476   2.671  13.274 -0.0536  0.2747 -0.1425
 6893SOL    HW132141   4.478   2.763  13.247 -0.6119  0.3572  0.0824
 6893SOL    HW232142   4.478   2.618  13.195  3.4344  0.6348 -0.2984
 6894SOL     OW32143   1.534   4.130  14.927  0.7326  0.0187  0.3022
 6894SOL    HW132144   1.482   4.202  14.891 -1.8820 -1.9139  0.1793
 6894SOL    HW232145   1.527   4.057  14.866  1.1268  0.1988  0.0453
 6895SOL     OW32146   3.061   3.393   8.140  0.8921  0.1792 -0.6646
 6895SOL    HW132147   3.058   3.462   8.207 -1.9618 -1.4837  0.9470
 6895SOL    HW232148   3.148   3.403   8.103  0.6561  0.3593 -1.1775
 6896SOL     OW32149   0.668   0.515  16.537  0.3347 -0.1130  0.4625
 6896SOL    HW132150   0.661   0.555  16.624 -0.9440 -0.8616  0.7152
 6896SOL    HW232151   0.702   0.429  16.561 -1.0169 -0.6078  0.6106
 6897SOL     OW32152   1.172   3.969   6.842  0.4983  0.0960  0.0130
 6897SOL    HW132153   1.176   3.966   6.937 -2.1132  3.8763  0.2311
 6897SOL    HW232154   1.168   4.065   6.836 -0.2787  0.1467  1.3229
 6898SOL     OW32155   3.928   3.760   6.106  0.0613 -0.3132  0.4204
 6898SOL    HW132156   3.955   3.671   6.084  0.8212  0.5614 -2.1219
 6898SOL    HW232157   3.967   3.752   6.193 -0.6051 -0.1971  0.7292
 6899SOL     OW32158   2.293   0.228   6.677 -0.8009  0.2002  0.1996
 6899SOL    HW132159   2.329   0.246   6.591  1.9904 -3.9816  0.4671
 6899SOL    HW232160   2.352   0.285   6.726 -1.9013  1.8628 -0.4505
 6900SOL     OW32161   0.586   2.425   0.790 -0.3126  0.2176 -0.3506
 6900SOL    HW132162   0.619   2.336   0.783  0.6542  0.8433 -3.5564
 6900SOL    HW232163   0.585   2.456   0.700 -1.0151 -2.6201 -1.3062
 6901SOL     OW32164   2.872   1.138   6.772 -0.0128  0.3522 -0.0790
 6901SOL    HW132165   2.815   1.061   6.761 -1.2201  1.1880  0.3024
 6901SOL    HW232166   2.821   1.164   6.849 -0.3580 -0.5759  0.0051
 6902SOL     OW32167   2.392   4.024  12.557 -0.7906  0.2281  0.2110
 6902SOL    HW132168   2.413   4.060  12.471  0.7466 -0.4132  0.3244
 6902SOL    HW232169   2.388   3.933  12.529  2.2445 -0.6069  2.5195
 6903SOL     OW32170   3.562   3.410   1.538  0.0316  0.0639 -0.0962
 6903SOL    HW132171   3.540   3.485   1.592 -0.7805 -1.3205  1.4944
 6903SOL    HW232172   3.657   3.402   1.540  0.1148  0.8664 -0.5590
 6904SOL     OW32173   3.974   3.437   3.306  0.0555  0.3338 -0.1391
 6904SOL    HW132174   3.903   3.422   3.368  0.0021 -2.4357 -0.8905
 6904SOL    HW232175   3.923   3.437   3.225  3.3260  0.1031 -2.2112
 6905SOL     OW32176   3.847   4.457   7.693 -0.0467  0.2385 -0.2587
 6905SOL    HW132177   3.852   4.397   7.767 -2.6127  0.7710  0.3442
 6905SOL    HW232178   3.942   4.455   7.684 -0.0963 -0.3037 -0.6315
 6906SOL     OW32179   1.455   0.223   8.983  0.1579  0.1876  0.1278
 6906SOL    HW132180   1.508   0.230   8.904  2.1653 -1.1006  1.3600
 6906SOL    HW232181   1.529   0.227   9.045  0.3865 -0.6230 -0.0894
 6907SOL     OW32182   3.010   0.045   8.594  0.4738  0.7005 -0.0290
 6907SOL    HW132183   3.098   0.081   8.608  1.7580 -1.6767 -1.7818
 6907SOL    HW232184   2.962   0.101   8.655  2.7207  1.0355  1.4359
 6908SOL     OW32185   3.828   1.125   7.005 -0.4882  0.2446 -0.6790
 6908SOL    HW132186   3.920   1.116   7.032 -0.1812  0.1667 -1.7389
 6908SOL    HW232187   3.790   1.191   7.062 -1.4726  0.2462 -1.3429
 6909SOL     OW32188   3.563   4.607  12.286  0.1453  0.6963 -0.9007
 6909SOL    HW132189   3.485   4.582  12.237  0.1986 -0.8274 -0.2305
 6909SOL    HW232190   3.596   4.517  12.288 -2.2131 -0.1299  0.7164
 6910SOL     OW32191   3.984   4.664   8.336 -0.8416 -0.4451 -0.3105
 6910SOL    HW132192   3.895   4.651   8.368 -0.7561 -1.5570 -0.5328
 6910SOL    HW232193   4.024   0.008   8.394  0.2317 -0.7711 -0.6923
 6911SOL     OW32194   4.482   4.612   4.921  0.5962  0.0608  0.0765
 6911SOL    HW132195   4.477   4.675   4.992  1.0843  1.0443 -0.7654
 6911SOL    HW232196   4.504   4.678   4.855 -1.4754 -1.1757 -1.8758
 6912SOL     OW32197   1.774   4.040   0.757  0.4057  0.0762  0.3865
 6912SOL    HW132198   1.748   4.117   0.705  2.3930  0.9698  0.7146
 6912SOL    HW232199   1.865   4.060   0.778  0.8539 -1.5216 -0.0577
 6913SOL     OW32200   0.736   3.644   6.097 -0.2267  0.1993 -0.6977
 6913SOL    HW132201   0.789   3.691   6.161 -1.2368  1.1390 -0.5425
 6913SOL    HW232202   0.786   3.564   6.079 -0.6433 -0.5892  1.7156
 6914SOL     OW32203   0.219   3.618  12.142  0.8912 -0.2388 -0.1235
 6914SOL    HW132204   0.185   3.706  12.156 -0.6505 -0.9622  0.6802
 6914SOL    HW232205   0.175   3.566  12.210  1.3580  1.5359  1.5386
 6915SOL     OW32206   3.128   3.753   2.335  0.1878  0.1050 -0.1196
 6915SOL    HW132207   3.130   3.838   2.379 -0.8272 -0.5270  1.1235
 6915SOL    HW232208   3.071   3.772   2.261  0.2859  0.1589 -0.1811
 6916SOL     OW32209   3.196   0.849   3.533  0.2491 -0.7726  0.0271
 6916SOL    HW132210   3.244   0.927   3.563 -0.0773 -1.0234  1.1995
 6916SOL    HW232211   3.225   0.794   3.605  1.7348  1.2405  0.9853
 6917SOL     OW32212   4.017   2.748   4.308  0.1884  0.4299 -0.2834
 6917SOL    HW132213   3.994   2.780   4.221 -1.4995  1.3907  0.5220
 6917SOL    HW232214   3.938   2.715   4.351  1.1002  0.2164  1.2522
 6918SOL     OW32215   0.481   2.884   9.584  0.8866 -0.5439  0.4945
 6918SOL    HW132216   0.464   2.934   9.505  0.5796  1.3539  1.7615
 6918SOL    HW232217   0.425   2.932   9.646  1.7632 -0.1504  0.9705
 6919SOL     OW32218   3.998   3.601   6.829 -0.4730 -0.0931  1.1668
 6919SOL    HW132219   3.934   3.658   6.787 -1.2956 -1.3457  0.6932
 6919SOL    HW232220   4.054   3.671   6.862 -0.0058  0.6842 -1.2880
 6920SOL     OW32221   2.497   4.518   3.595 -0.3631  0.1735  0.5928
 6920SOL    HW132222   2.536   4.434   3.571 -1.3793  0.2744 -1.3982
 6920SOL    HW232223   2.568   4.561   3.643 -0.0759 -0.6254  0.8832
 6921SOL     OW32224   3.532   0.314  14.245  0.1022 -0.3277 -0.2906
 6921SOL    HW132225   3.462   0.370  14.212  0.3507 -0.9925 -1.9434
 6921SOL    HW232226   3.586   0.390  14.263 -2.3498  1.3453 -0.0068
 6922SOL     OW32227   3.858   1.093   7.429 -0.4594  0.6369 -0.4957
 6922SOL    HW132228   3.887   1.079   7.519 -0.2021  2.6692 -0.2587
 6922SOL    HW232229   3.819   1.179   7.447 -1.4203  0.0232  0.3302
 6923SOL     OW32230   1.725   0.609   6.774 -0.8804 -0.4689  0.2678
 6923SOL    HW132231   1.790   0.553   6.816  0.2405  0.1175 -0.6819
 6923SOL    HW232232   1.739   0.616   6.679  0.0406 -1.2712  0.3436
 6924SOL     OW32233   0.798   1.061   4.921  0.3756 -0.4709  0.5722
 6924SOL    HW132234   0.834   1.074   5.008 -1.0266  2.6230  0.6971
 6924SOL    HW232235   0.720   1.113   4.902 -0.4937 -0.7181  3.5953
 6925SOL     OW32236   2.826   4.691  15.679  0.0167  0.7365  1.0037
 6925SOL    HW132237   2.737   4.703  15.644  0.3892 -0.4339 -0.3824
 6925SOL    HW232238   2.837   0.048  15.734 -2.0729  1.2742  0.6808
 6926SOL     OW32239   0.480   0.140   9.404  0.3061  0.0877  0.3660
 6926SOL    HW132240   0.539   0.206   9.438 -0.9539  1.3312  0.1436
 6926SOL    HW232241   0.536   0.122   9.329 -1.7722 -1.6056 -0.8150
 6927SOL     OW32242   2.288   2.708   1.892  0.1292  0.4998 -0.3449
 6927SOL    HW132243   2.317   2.647   1.824 -1.0495 -0.0769 -0.3318
 6927SOL    HW232244   2.198   2.675   1.889  0.2997  0.1269 -1.3388
 6928SOL     OW32245   3.057   1.673  13.461  0.7518 -0.7598 -0.4294
 6928SOL    HW132246   3.101   1.757  13.446 -2.0006  0.5913 -0.7667
 6928SOL    HW232247   2.967   1.701  13.474  0.6583 -1.1043 -0.3458
 6929SOL     OW32248   4.576   3.921   1.942  0.0383 -0.2901 -0.6002
 6929SOL    HW132249   4.616   3.835   1.945  0.8152  0.0536 -1.0332
 6929SOL    HW232250   4.545   3.928   2.032  3.1941  1.1797  0.3692
 6930SOL     OW32251   2.599   4.269   3.554 -0.3752 -0.0684 -0.3332
 6930SOL    HW132252   2.683   4.223   3.544 -0.2586 -0.0032  0.3098
 6930SOL    HW232253   2.528   4.206   3.545  0.2601 -0.8968  0.4073
 6931SOL     OW32254   3.186   2.147   1.062 -0.4047  0.5078  0.5474
 6931SOL    HW132255   3.251   2.078   1.064 -1.3871 -0.4772 -1.1063
 6931SOL    HW232256   3.177   2.173   0.970  3.3399 -0.3244 -0.0451
 6932SOL     OW32257   3.708   2.517   9.603  0.3319  0.0693 -0.0666
 6932SOL    HW132258   3.698   2.508   9.508 -0.2970 -0.5457  0.0581
 6932SOL    HW232259   3.619   2.537   9.633  0.7009  2.3681 -0.4668
 6933SOL     OW32260   0.540   1.109   2.022  0.1506 -0.3452  0.4335
 6933SOL    HW132261   0.630   1.077   2.007  0.1922  1.1677 -2.6727
 6933SOL    HW232262   0.486   1.085   1.946  0.4879  0.2323  0.0047
 6934SOL     OW32263   1.210   3.457   3.404  0.4489 -0.1855 -0.2047
 6934SOL    HW132264   1.190   3.411   3.323 -0.2243 -0.3092  0.0305
 6934SOL    HW232265   1.231   3.381   3.458 -2.5177  0.9184  2.5824
 6935SOL     OW32266   1.988   2.748   7.121  0.0907  0.3164 -0.3602
 6935SOL    HW132267   1.926   2.814   7.149  0.2674 -0.1624  1.1671
 6935SOL    HW232268   1.944   2.671   7.157  0.5034  1.7943  3.2110
 6936SOL     OW32269   1.427   4.248   2.642  0.8758 -0.1427  0.3434
 6936SOL    HW132270   1.415   4.161   2.604 -2.2842 -0.3701  1.8754
 6936SOL    HW232271   1.356   4.242   2.706  0.0492  0.9155 -0.4789
 6937SOL     OW32272   2.994   2.520  16.776 -0.1399  0.2043 -0.2831
 6937SOL    HW132273   3.072   2.542  16.724  1.1182 -3.7456 -0.0166
 6937SOL    HW232274   2.920   2.542  16.719 -0.0872  0.9450 -0.0732
 6938SOL     OW32275   2.577   4.404   8.993 -0.0840  0.1670 -0.5963
 6938SOL    HW132276   2.589   4.485   8.945 -0.7905  1.2565  1.0686
 6938SOL    HW232277   2.592   4.438   9.081  0.1033 -0.1349 -0.5117
 6939SOL     OW32278   3.790   1.048   0.968  0.1590  0.3656 -0.2168
 6939SOL    HW132279   3.794   1.143   0.970  0.7345  0.3405 -0.3423
 6939SOL    HW232280   3.866   1.027   0.913 -0.0969 -0.7861 -0.1432
 6940SOL     OW32281   2.323   0.516   4.362 -0.0277 -0.2770 -0.0758
 6940SOL    HW132282   2.232   0.527   4.389 -0.5458 -0.4136 -1.7709
 6940SOL    HW232283   2.307   0.555   4.276 -0.2404  2.1582  1.0440
 6941SOL     OW32284   1.314   1.610   8.072 -0.2208 -0.9247 -0.3691
 6941SOL    HW132285   1.317   1.550   8.146  0.8064  0.3024  0.5823
 6941SOL    HW232286   1.257   1.557   8.017 -1.2071  0.7015 -0.9263
 6942SOL     OW32287   0.875   4.496   4.090  0.3548 -0.5197  0.1519
 6942SOL    HW132288   0.786   4.505   4.124 -0.8001 -2.5511 -2.3310
 6942SOL    HW232289   0.884   4.401   4.100  0.4534 -0.5745 -0.4884
 6943SOL     OW32290   2.791   3.080  10.032 -0.2161  0.8649 -0.4560
 6943SOL    HW132291   2.775   2.999   9.983  0.0918 -0.7601  2.1707
 6943SOL    HW232292   2.709   3.093  10.078 -0.1748 -0.6202  0.0207
 6944SOL     OW32293   3.425   3.157   0.825 -0.5600 -0.3295  0.5206
 6944SOL    HW132294   3.446   3.249   0.812 -0.9395 -0.2576  0.3986
 6944SOL    HW232295   3.330   3.160   0.832 -0.5820  1.4345 -0.5747
 6945SOL     OW32296   0.226   3.828   8.754 -0.2599 -0.0928 -0.0041
 6945SOL    HW132297   0.305   3.840   8.806  0.4822 -1.7817 -0.7504
 6945SOL    HW232298   0.215   3.733   8.757 -0.7082 -0.0584 -0.6682
 6946SOL     OW32299   1.184   1.741   4.450  0.1785  0.4074  0.4612
 6946SOL    HW132300   1.217   1.794   4.523  0.4819  1.6099 -0.5435
 6946SOL    HW232301   1.117   1.805   4.426 -1.4555 -1.4861 -0.0185
 6947SOL     OW32302   2.878   3.923  15.138 -0.0289 -0.0254  0.4234
 6947SOL    HW132303   2.866   4.016  15.119  0.3199  0.1261  0.9421
 6947SOL    HW232304   2.971   3.924  15.113  0.2148  1.3148  1.3622
 6948SOL     OW32305   2.763   2.732   6.033  0.0436  0.2984 -0.0663
 6948SOL    HW132306   2.736   2.671   5.965  2.1160 -0.4625 -0.2092
 6948SOL    HW232307   2.844   2.765   5.994  0.8837 -0.1797  1.2633
 6949SOL     OW32308   3.423   3.111   6.883 -0.0499 -0.0674  0.3148
 6949SOL    HW132309   3.386   3.050   6.819  1.0480  0.9242 -1.2721
 6949SOL    HW232310   3.465   3.057   6.951 -3.1181 -1.1761  1.3471
 6950SOL     OW32311   2.086   1.742   9.444  0.4157 -0.0149 -0.3322
 6950SOL    HW132312   2.138   1.663   9.428  0.9984  0.1794  0.5761
 6950SOL    HW232313   2.126   1.797   9.378  2.1194 -1.0053 -0.1182
 6951SOL     OW32314   4.330   0.023   8.859 -0.2793 -0.3661  0.4743
 6951SOL    HW132315   4.272   0.000   8.931  1.7927 -0.9582  1.9611
 6951SOL    HW232316   4.277   0.078   8.801  0.1109  1.4334  1.8210
 6952SOL     OW32317   0.236   3.630   3.294  0.0987  0.5996  0.5712
 6952SOL    HW132318   0.288   3.623   3.214  1.3623 -0.9151  1.5246
 6952SOL    HW232319   0.167   3.565   3.283 -0.4028  1.6775 -2.9085
 6953SOL     OW32320   3.163   0.728  16.320 -0.4193  0.6704  0.2627
 6953SOL    HW132321   3.167   0.811  16.273 -2.2989 -0.3608 -1.7264
 6953SOL    HW232322   3.111   0.746  16.398  0.6757  1.5281  0.7863
 6954SOL     OW32323   2.618   3.213  13.279 -0.0908  0.2647 -0.0008
 6954SOL    HW132324   2.663   3.296  13.263 -2.7575  1.5406 -0.8626
 6954SOL    HW232325   2.553   3.231  13.211 -1.9253 -0.9411  1.4456
 6955SOL     OW32326   4.531   4.152   1.717 -0.2496 -0.1111 -0.0700
 6955SOL    HW132327   4.626   4.150   1.700 -0.2420  1.0293 -0.2077
 6955SOL    HW232328   4.497   4.075   1.671 -2.6094  0.0351  1.4709
 6956SOL     OW32329   4.364   3.830   6.086 -0.1759  0.2183 -0.6226
 6956SOL    HW132330   4.458   3.822   6.071 -0.3993  0.0878 -1.9484
 6956SOL    HW232331   4.331   3.870   6.006 -2.5227  0.8034  0.6599
 6957SOL     OW32332   2.448   0.064   6.279 -0.1057  0.1742 -0.4260
 6957SOL    HW132333   2.455   0.155   6.309  0.6363 -0.3051  0.8532
 6957SOL    HW232334   2.540   0.038   6.275 -0.1308 -0.3634  2.2692
 6958SOL     OW32335   0.439   1.722  16.886 -0.0567 -0.0444 -0.1811
 6958SOL    HW132336   0.384   1.796  16.860 -1.6647 -2.2375 -3.0393
 6958SOL    HW232337   0.384   1.646  16.869  0.1396 -0.2582  0.1492
 6959SOL     OW32338   3.563   0.397   6.685  0.5865 -0.4920 -0.3494
 6959SOL    HW132339   3.575   0.311   6.723  0.4935 -0.6602 -0.7027
 6959SOL    HW232340   3.650   0.436   6.696  1.3616 -2.0324 -1.0964
 6960SOL     OW32341   3.434   4.149   2.656 -0.1532  0.5600 -0.0215
 6960SOL    HW132342   3.445   4.092   2.580 -1.0691 -0.6957  0.7986
 6960SOL    HW232343   3.470   4.094   2.725  0.1981  0.7214 -0.0734
 6961SOL     OW32344   4.498   3.901   9.821 -0.3178 -0.2847 -0.6917
 6961SOL    HW132345   4.427   3.839   9.806 -0.3694 -0.6642  1.0173
 6961SOL    HW232346   4.549   3.901   9.741  1.5154  0.8699  0.4756
 6962SOL     OW32347   3.197   1.843  16.178  0.2146  0.2476  0.3599
 6962SOL    HW132348   3.120   1.820  16.230  0.1322  1.8377  0.9209
 6962SOL    HW232349   3.234   1.759  16.149 -1.2116  0.4649 -2.0768
 6963SOL     OW32350   0.446   4.189   9.714  0.5173  0.2819  0.0909
 6963SOL    HW132351   0.503   4.244   9.662 -0.6595  1.4966  0.0643
 6963SOL    HW232352   0.402   4.136   9.648  0.5882  1.5572 -0.9615
 6964SOL     OW32353   1.607   0.250   8.752 -0.3993  0.0769 -0.5789
 6964SOL    HW132354   1.688   0.202   8.772 -0.7012 -0.6470 -1.0700
 6964SOL    HW232355   1.602   0.238   8.657  0.8972  0.4820 -0.7047
 6965SOL     OW32356   0.435   2.170  17.101 -0.0373 -0.0087 -0.1817
 6965SOL    HW132357   0.427   2.219  17.183 -0.1998  2.0344 -1.4253
 6965SOL    HW232358   0.393   2.232  17.042 -1.9052 -1.3949 -0.3079
 6966SOL     OW32359   1.780   1.501  16.788  0.6305  0.2163  0.9300
 6966SOL    HW132360   1.768   1.483  16.695  0.1629  1.3505  0.7638
 6966SOL    HW232361   1.777   1.597  16.785  4.1801  0.3424  1.2700
 6967SOL     OW32362   0.226   0.086   9.065  0.0936 -0.1180 -0.0127
 6967SOL    HW132363   0.231   0.163   9.121  1.7421  0.0671 -0.4037
 6967SOL    HW232364   0.271   0.021   9.119  0.0642  1.6439  2.1039
 6968SOL     OW32365   2.366   3.309   4.538  0.7456 -0.1398  0.7321
 6968SOL    HW132366   2.369   3.323   4.633  1.1386  1.2126  0.5131
 6968SOL    HW232367   2.444   3.256   4.520 -1.2488 -2.4143 -1.1197
 6969SOL     OW32368   0.252   0.168   3.877  0.3597  0.1487 -0.5196
 6969SOL    HW132369   0.335   0.213   3.858  0.1375  0.4784 -0.7102
 6969SOL    HW232370   0.276   0.077   3.862  0.1923  0.2229 -1.2703
 6970SOL     OW32371   0.140   4.117   5.536 -0.7406  0.0186 -0.1349
 6970SOL    HW132372   0.218   4.121   5.482 -0.6622 -0.0240 -0.0235
 6970SOL    HW232373   0.103   4.037   5.499  0.7558  0.0073 -1.5627
 6971SOL     OW32374   2.772   1.251  15.077 -0.1436  0.4485 -0.1035
 6971SOL    HW132375   2.851   1.297  15.050 -0.0216 -0.7366 -1.7353
 6971SOL    HW232376   2.811   1.177  15.124  0.6124  1.6378  1.1450
 6972SOL     OW32377   2.607   1.621   1.954 -0.5605 -0.3041 -0.5452
 6972SOL    HW132378   2.590   1.536   1.995  0.6583  0.0767  0.7332
 6972SOL    HW232379   2.666   1.596   1.884  1.2409  1.6041  0.3061
 6973SOL     OW32380   0.298   4.690   4.575 -0.0050 -0.3784 -0.7328
 6973SOL    HW132381   0.262   0.051   4.608 -0.5833 -0.4851 -1.0951
 6973SOL    HW232382   0.226   4.628   4.563  2.0186 -2.4760 -1.9632
 6974SOL     OW32383   3.567   1.154   2.710  0.0704  0.3124 -0.1879
 6974SOL    HW132384   3.573   1.081   2.648  1.8101 -0.3549  0.7645
 6974SOL    HW232385   3.496   1.117   2.763  0.3327  2.3833  1.5926
 6975SOL     OW32386   0.520   1.928   4.777  0.2017  0.4460 -0.2904
 6975SOL    HW132387   0.476   1.967   4.853  0.1809 -0.5856  0.2365
 6975SOL    HW232388   0.548   2.011   4.739 -0.0724  1.1496  1.0239
 6976SOL     OW32389   1.211   0.696  14.154  0.1367  0.2611  0.3753
 6976SOL    HW132390   1.178   0.651  14.232  2.3244  0.4872  1.4395
 6976SOL    HW232391   1.303   0.670  14.168 -0.9271 -2.5247  2.2192
 6977SOL     OW32392   3.639   2.523   2.684  0.5667  0.2282 -0.1731
 6977SOL    HW132393   3.599   2.454   2.630  1.3929 -1.6954  1.6475
 6977SOL    HW232394   3.729   2.490   2.679  0.8298  0.5042  2.4083
 6978SOL     OW32395   2.146   1.025   1.742  0.4583 -0.5997 -0.4494
 6978SOL    HW132396   2.175   0.957   1.681 -0.9988 -1.6100 -0.0196
 6978SOL    HW232397   2.227   1.038   1.791  0.2092 -0.2153 -0.1350
 6979SOL     OW32398   1.772   3.090   3.648  0.1018  0.4355  0.3206
 6979SOL    HW132399   1.803   3.158   3.708  2.1040  0.4408 -0.7192
 6979SOL    HW232400   1.857   3.061   3.615  0.4672  1.4545  0.3613
 6980SOL     OW32401   4.470   4.010   3.436 -0.0415 -0.2062  0.1286
 6980SOL    HW132402   4.476   3.915   3.447 -0.2199  0.0053  1.9940
 6980SOL    HW232403   4.374   4.011   3.445  0.1338  0.1294  1.8926
 6981SOL     OW32404   3.662   3.157   8.553  0.3775  0.3249  0.8927
 6981SOL    HW132405   3.642   3.092   8.620 -0.9025 -0.6460 -0.4288
 6981SOL    HW232406   3.744   3.192   8.589 -0.3191  0.6725  2.1481
 6982SOL     OW32407   4.282   4.107   3.137  0.3530  0.5170  0.2108
 6982SOL    HW132408   4.288   4.067   3.050 -1.9421  1.6664 -0.4780
 6982SOL    HW232409   4.290   4.027   3.190 -3.2412 -1.3760 -2.0847
 6983SOL     OW32410   0.300   1.266   2.652 -0.0278 -0.3753 -0.3177
 6983SOL    HW132411   0.273   1.238   2.740 -0.5452  0.9747 -0.0417
 6983SOL    HW232412   0.286   1.359   2.666 -3.1205 -1.2901  2.6617
 6984SOL     OW32413   0.319   4.210   9.044 -0.4220 -0.3401  0.2795
 6984SOL    HW132414   0.414   4.208   9.029 -0.3877  2.8947  0.2350
 6984SOL    HW232415   0.286   4.223   8.956  0.7593  1.7743  0.1655
 6985SOL     OW32416   2.182   4.479  16.359 -0.2471  0.2983 -0.1974
 6985SOL    HW132417   2.234   4.404  16.387 -0.7254  0.4585  1.1389
 6985SOL    HW232418   2.098   4.460  16.400 -0.5106  0.3982 -0.6949
 6986SOL     OW32419   0.131   0.195  13.754 -1.1902 -0.2374  0.2863
 6986SOL    HW132420   0.084   0.232  13.829 -0.0044  1.3449  0.2420
 6986SOL    HW232421   0.133   0.274  13.700 -0.5110  0.0551  0.7410
 6987SOL     OW32422   0.378   0.168   9.696  0.0669 -0.2519  0.4350
 6987SOL    HW132423   0.343   0.148   9.783  0.1048  1.2240  0.7809
 6987SOL    HW232424   0.418   0.255   9.695 -1.0027  0.2144 -1.0661
 6988SOL     OW32425   0.142   3.995   4.437 -0.2115  0.2219 -0.0281
 6988SOL    HW132426   0.167   3.950   4.518  0.9601  0.1023 -0.4469
 6988SOL    HW232427   0.159   3.928   4.371  1.3693 -1.5200  2.1254
 6989SOL     OW32428   4.203   3.370  17.534  0.5126  0.3315  0.6348
 6989SOL    HW132429   4.237   3.291  17.492 -1.4176  0.1678 -0.6750
 6989SOL    HW232430   4.242   3.441  17.482  0.5407 -2.1609 -2.7506
 6990SOL     OW32431   2.197   1.916   6.655  0.7236 -0.8457 -0.5247
 6990SOL    HW132432   2.281   1.936   6.696  0.2021 -0.4427  0.3373
 6990SOL    HW232433   2.169   1.847   6.715 -2.6740  0.3993 -0.6464
 6991SOL     OW32434   3.383   3.855   3.268 -0.9556  0.0619  0.1079
 6991SOL    HW132435   3.395   3.761   3.286  0.3686  0.1149 -0.4499
 6991SOL    HW232436   3.337   3.849   3.184 -0.7334 -0.5016  0.0214
 6992SOL     OW32437   2.572   1.029   5.844 -0.5083 -0.6004  0.0902
 6992SOL    HW132438   2.579   1.089   5.918  0.9110 -2.6586  1.6168
 6992SOL    HW232439   2.508   1.071   5.787  2.5566  1.5517 -1.7679
 6993SOL     OW32440   0.450   0.456   5.037 -0.2117 -0.4497 -0.0753
 6993SOL    HW132441   0.381   0.441   5.103 -2.9126 -0.6939 -2.9305
 6993SOL    HW232442   0.394   0.418   4.969  0.5385 -0.3913 -0.7172
 6994SOL     OW32443   3.954   1.022   9.808  0.4538 -0.1266 -0.3083
 6994SOL    HW132444   3.867   1.001   9.842  1.0776  1.9162  2.5773
 6994SOL    HW232445   3.981   0.934   9.781  0.2411 -0.0901 -0.6365
 6995SOL     OW32446   2.775   1.558   5.024 -0.2342  0.0092  0.1322
 6995SOL    HW132447   2.814   1.641   5.052 -0.1297 -0.7839  2.3801
 6995SOL    HW232448   2.819   1.514   5.097  1.7252  0.7783 -0.5806
 6996SOL     OW32449   2.541   1.071   3.071 -0.3974 -0.2838 -0.0343
 6996SOL    HW132450   2.544   1.032   2.984  0.6342  0.0529 -0.1487
 6996SOL    HW232451   2.513   0.996   3.123  2.5468 -2.0402 -0.9762
 6997SOL     OW32452   4.028   3.389   2.271 -0.1893  0.2833 -0.0658
 6997SOL    HW132453   4.030   3.420   2.180 -0.6517  1.2175  0.2485
 6997SOL    HW232454   4.114   3.346   2.272 -1.5219 -2.3435  0.0251
 6998SOL     OW32455   0.286   1.764   5.562 -0.5183  0.3153  0.1107
 6998SOL    HW132456   0.219   1.735   5.623  0.2928 -0.0316  0.8441
 6998SOL    HW232457   0.245   1.849   5.549 -0.4768  0.6091  1.8103
 6999SOL     OW32458   1.625   3.271   7.731 -0.0257 -0.3121  0.3765
 6999SOL    HW132459   1.695   3.330   7.704 -1.7904  1.7783  0.3245
 6999SOL    HW232460   1.552   3.310   7.683  2.5221  2.1486 -1.5156
 7000SOL     OW32461   3.028   0.179   1.264 -0.0157  0.2596  0.3085
 7000SOL    HW132462   3.017   0.109   1.199  0.1270  0.7154 -0.2047
 7000SOL    HW232463   3.122   0.193   1.258 -0.3931  2.7461  0.4289
 7001SOL     OW32464   3.209   0.385   2.099  0.7737  0.1187  0.5760
 7001SOL    HW132465   3.200   0.294   2.071  1.5723  0.1268  0.2889
 7001SOL    HW232466   3.126   0.424   2.074 -0.3803 -1.7699  1.4862
 7002SOL     OW32467   1.374   0.685  14.474 -0.6119  0.2615  0.1170
 7002SOL    HW132468   1.284   0.676  14.443 -0.3914  0.1116 -0.4735
 7002SOL    HW232469   1.367   0.652  14.564  0.7613  0.1462  0.1841
 7003SOL     OW32470   2.642   3.980   6.060  0.6336 -0.0402 -0.4577
 7003SOL    HW132471   2.625   3.887   6.040  1.0905 -0.2659  0.1983
 7003SOL    HW232472   2.708   3.965   6.127 -0.6781  1.2885  1.1156
 7004SOL     OW32473   1.690   3.092  14.453  0.3440 -0.4764  0.0680
 7004SOL    HW132474   1.755   3.162  14.467  0.5436 -0.6027 -0.2377
 7004SOL    HW232475   1.735   3.010  14.475 -0.1289 -0.9970 -0.9352
 7005SOL     OW32476   3.187   1.078   4.649 -0.2027 -0.0858 -0.3694
 7005SOL    HW132477   3.134   1.154   4.672 -0.7173 -0.6724  0.3724
 7005SOL    HW232478   3.107   1.030   4.625 -0.6655  0.9328 -0.8621
 7006SOL     OW32479   2.903   0.299   3.125 -0.0939  0.6524  0.0600
 7006SOL    HW132480   2.946   0.247   3.194  0.4696  1.9665  0.6890
 7006SOL    HW232481   2.984   0.331   3.086  1.5443 -1.3301  1.8216
 7007SOL     OW32482   2.731   3.780   4.519 -0.1889  0.2258 -0.2164
 7007SOL    HW132483   2.806   3.825   4.557 -0.3031 -0.3576  0.7006
 7007SOL    HW232484   2.693   3.847   4.462  0.2780 -0.3582 -1.2082
 7008SOL     OW32485   0.758   3.238   2.264  0.3913 -0.3242 -0.2195
 7008SOL    HW132486   0.664   3.231   2.252  0.5752 -1.4048 -1.0948
 7008SOL    HW232487   0.762   3.272   2.353 -1.1456 -0.6788 -0.0306
 7009SOL     OW32488   3.445   1.004   7.053  0.1257 -0.0501 -0.2558
 7009SOL    HW132489   3.498   1.025   7.131 -2.7065 -1.2936  2.0026
 7009SOL    HW232490   3.381   0.951   7.101 -0.0486  0.0249 -0.4113
 7010SOL     OW32491   3.952   4.019   6.050 -0.1484  0.2542  0.0478
 7010SOL    HW132492   3.924   3.928   6.053 -2.1942  0.9043  0.6745
 7010SOL    HW232493   3.872   4.057   6.087 -0.1396  0.4294 -0.1124
 7011SOL     OW32494   1.497   0.683   6.479  0.4099  0.1742 -0.5014
 7011SOL    HW132495   1.500   0.692   6.384 -0.2130 -1.5742 -0.6788
 7011SOL    HW232496   1.410   0.646   6.487  0.9458 -1.1864 -1.0228
 7012SOL     OW32497   2.474   2.531   4.182 -0.0171  0.3874 -0.4182
 7012SOL    HW132498   2.526   2.608   4.206 -0.5152  0.7843 -0.5989
 7012SOL    HW232499   2.412   2.536   4.255 -0.4792  1.4565 -0.8747
 7013SOL     OW32500   1.363   0.562   1.951 -0.1599  0.8450 -0.2347
 7013SOL    HW132501   1.317   0.532   2.030  0.3433  0.3994 -0.1163
 7013SOL    HW232502   1.444   0.512   1.950 -0.6964  0.0029 -1.2149
 7014SOL     OW32503   3.245   3.610   9.519 -0.3472  0.3052 -0.3232
 7014SOL    HW132504   3.260   3.587   9.610  0.5789 -0.3967 -0.6603
 7014SOL    HW232505   3.179   3.546   9.491 -0.4077  0.1588  0.1598
 7015SOL     OW32506   3.857   0.884   2.722 -0.1753  0.0419  0.0948
 7015SOL    HW132507   3.912   0.902   2.645 -2.2411 -0.8833 -1.6056
 7015SOL    HW232508   3.842   0.968   2.766 -0.5145  1.0177 -1.8548
 7016SOL     OW32509   2.796   1.480   2.213  0.1125  0.0941  0.0628
 7016SOL    HW132510   2.844   1.460   2.294  1.5991  0.4206 -0.7373
 7016SOL    HW232511   2.837   1.559   2.177 -0.3389  0.8321  1.1471
 7017SOL     OW32512   0.915   0.838   7.802  0.5430 -0.6086 -0.4446
 7017SOL    HW132513   0.902   0.916   7.748  1.4481 -1.7828 -2.3570
 7017SOL    HW232514   0.832   0.793   7.788  0.1173  0.1605 -0.4180
 7018SOL     OW32515   0.680   1.782   9.126  0.2316 -0.2172  0.2271
 7018SOL    HW132516   0.608   1.844   9.119  0.0197 -0.4431  0.4197
 7018SOL    HW232517   0.723   1.824   9.052 -1.1313 -1.0344 -1.0232
 7019SOL     OW32518   0.821   2.178  14.815  0.4419  0.7300  0.4717
 7019SOL    HW132519   0.740   2.138  14.783  0.2005  1.3190  0.3339
 7019SOL    HW232520   0.786   2.259  14.852  0.3680  0.3424  1.2600
 7020SOL     OW32521   4.005   4.199   9.398  0.1585 -0.5786 -0.7833
 7020SOL    HW132522   4.086   4.193   9.448 -0.2567  1.4303  0.1054
 7020SOL    HW232523   4.025   4.125   9.339  0.9902  0.4103 -1.7426
 7021SOL     OW32524   0.555   4.547   9.433 -0.0508  0.1034  1.1428
 7021SOL    HW132525   0.603   4.501   9.365 -0.2146 -0.8164  1.6479
 7021SOL    HW232526   0.616   4.541   9.507  2.1027  0.2974 -0.6212
 7022SOL     OW32527   3.969   1.627   6.084 -0.5796 -0.2864  0.2295
 7022SOL    HW132528   4.013   1.625   6.169  1.6155  2.0588 -0.8739
 7022SOL    HW232529   3.881   1.663   6.092 -1.1013 -1.2517 -1.1313
 7023SOL     OW32530   2.444   4.316  13.747  0.0629 -0.5612  0.4894
 7023SOL    HW132531   2.444   4.288  13.839 -0.4172  0.4834  0.8029
 7023SOL    HW232532   2.530   4.287  13.717  0.1259 -2.0793  2.1232
 7024SOL     OW32533   3.903   0.557   3.329  0.2697  0.2090 -0.5352
 7024SOL    HW132534   3.869   0.596   3.248  0.3979 -0.3628 -0.8593
 7024SOL    HW232535   3.898   0.466   3.302  0.9323  0.0053  0.0306
 7025SOL     OW32536   4.377   1.373   2.058 -0.2196  0.5531 -0.1956
 7025SOL    HW132537   4.314   1.355   1.989 -0.5004 -1.4203  0.5838
 7025SOL    HW232538   4.408   1.284   2.073  1.7227  0.9748 -1.6672
 7026SOL     OW32539   1.430   3.738  11.654 -0.5835 -0.4207  0.0260
 7026SOL    HW132540   1.517   3.735  11.614 -0.6391  1.5086 -0.2586
 7026SOL    HW232541   1.392   3.815  11.611  2.2312  0.7013 -0.4635
 7027SOL     OW32542   3.961   4.383  10.948  0.3280  0.1300  0.5793
 7027SOL    HW132543   3.963   4.291  10.974 -2.0366 -0.7957 -2.5219
 7027SOL    HW232544   3.996   4.380  10.859 -0.2479 -0.4061  0.3752
 7028SOL     OW32545   3.962   4.433   2.630 -0.2308  0.0746 -0.1048
 7028SOL    HW132546   4.042   4.477   2.659  0.0741 -0.6859  0.1975
 7028SOL    HW232547   3.960   4.444   2.535  1.7339  1.8561  0.0627
 7029SOL     OW32548   4.255   3.747   9.895  0.0241  0.0385 -0.3085
 7029SOL    HW132549   4.279   3.738   9.987  1.0480  0.5599 -0.5273
 7029SOL    HW232550   4.191   3.676   9.884  0.2072  0.0470 -1.4115
 7030SOL     OW32551   4.676   0.341   1.035  0.1436  0.3811 -0.6455
 7030SOL    HW132552   4.705   0.432   1.029 -1.7587  0.9716 -0.8538
 7030SOL    HW232553   0.004   0.311   1.111  1.8804  0.0798 -1.8951
 7031SOL     OW32554   3.909   3.871   5.650 -0.4863 -0.0048 -0.1004
 7031SOL    HW132555   3.848   3.904   5.716  1.0253  1.5196  0.5503
 7031SOL    HW232556   3.867   3.898   5.568  0.2828  0.6441 -0.2843
 7032SOL     OW32557   4.520   2.275   6.389 -0.5085  0.7821 -0.2671
 7032SOL    HW132558   4.440   2.230   6.360  0.1292 -0.4515 -0.0983
 7032SOL    HW232559   4.497   2.302   6.478 -1.0904  1.5765 -0.6496
 7033SOL     OW32560   1.711   1.347   7.759  0.5217 -0.0805  0.2756
 7033SOL    HW132561   1.697   1.299   7.677  0.1682 -0.5571  0.6173
 7033SOL    HW232562   1.677   1.276   7.813 -1.4495  0.9081  0.3381
 7034SOL     OW32563   0.893   0.242   3.520 -0.0808  0.2468  0.0322
 7034SOL    HW132564   0.889   0.298   3.598  0.5468  1.3540 -0.7233
 7034SOL    HW232565   0.986   0.220   3.518  0.0995  1.1129 -1.2767
 7035SOL     OW32566   3.514   1.452   7.795  0.1001  0.0942  0.4546
 7035SOL    HW132567   3.448   1.469   7.862 -2.5326  0.3363 -2.1554
 7035SOL    HW232568   3.595   1.479   7.837  1.3548 -0.2828 -1.7066
 7036SOL     OW32569   2.914   4.078  15.808  0.2545  0.4158 -0.1065
 7036SOL    HW132570   3.006   4.103  15.800  1.0683 -2.4883  0.4276
 7036SOL    HW232571   2.909   3.984  15.826  1.4759  0.4466  0.3837
 7037SOL     OW32572   4.113   1.089   3.444 -0.3391  0.3226 -0.8094
 7037SOL    HW132573   4.142   0.998   3.455 -2.6684 -0.4270 -0.6947
 7037SOL    HW232574   4.054   1.102   3.519 -0.0805  0.9071 -0.7081
 7038SOL     OW32575   1.533   0.331  11.173  0.1444  0.2714  0.3733
 7038SOL    HW132576   1.613   0.309  11.221 -0.2000 -1.7875 -0.0024
 7038SOL    HW232577   1.471   0.274  11.220  1.3533  0.1667  1.8167
 7039SOL     OW32578   2.878   1.065   6.242  0.2015  0.0650 -0.5342
 7039SOL    HW132579   2.964   1.032   6.269  0.1410 -0.6145 -1.2050
 7039SOL    HW232580   2.887   1.084   6.149 -0.0030  0.1257 -0.5415
 7040SOL     OW32581   1.179   3.786   1.954  0.3983  0.5737  0.2877
 7040SOL    HW132582   1.272   3.803   1.971  0.4169  0.4532  0.3042
 7040SOL    HW232583   1.174   3.855   1.888 -0.3233  1.1300  0.9346
 7041SOL     OW32584   3.587   4.435   4.598 -0.3540  0.0401 -0.3964
 7041SOL    HW132585   3.667   4.479   4.568  0.0990  0.4546  1.4407
 7041SOL    HW232586   3.605   4.447   4.691 -2.3918  1.2365 -0.1616
 7042SOL     OW32587   4.546   4.149   5.998 -0.2509 -1.0955 -0.2459
 7042SOL    HW132588   4.521   4.169   6.088  2.1645  2.3331 -0.3575
 7042SOL    HW232589   4.597   4.228   5.985 -0.4637 -1.0051 -0.5306
 7043SOL     OW32590   0.424   2.120   7.080  0.4361  0.4501 -0.5750
 7043SOL    HW132591   0.478   2.143   7.156 -1.4425 -1.9087  1.4770
 7043SOL    HW232592   0.333   2.134   7.105  0.1375 -3.0763  0.3575
 7044SOL     OW32593   4.632   0.206   6.113 -0.4004 -0.0966 -0.6030
 7044SOL    HW132594   4.543   0.225   6.141  0.4752  4.4529 -0.8322
 7044SOL    HW232595   4.670   0.190   6.200  1.6929  0.4390 -1.4221
 7045SOL     OW32596   1.637   2.340   5.640  0.3630  0.6558  0.3409
 7045SOL    HW132597   1.573   2.341   5.711 -1.0972  0.6342 -0.9730
 7045SOL    HW232598   1.707   2.390   5.681  3.0142 -2.9936  0.2488
 7046SOL     OW32599   3.098   1.923   8.305 -0.2904  0.4193 -0.3854
 7046SOL    HW132600   3.042   2.000   8.315 -0.5972  0.4967 -2.6487
 7046SOL    HW232601   3.057   1.849   8.350  0.5011  0.2230  0.0071
 7047SOL     OW32602   3.475   4.473   6.052  0.4242 -0.1437 -0.4995
 7047SOL    HW132603   3.411   4.531   6.093  2.2305  0.4851  1.4180
 7047SOL    HW232604   3.442   4.486   5.963 -0.9472 -2.2831 -0.3242
 7048SOL     OW32605   0.755   3.726  16.199  0.3570  0.2805 -0.2615
 7048SOL    HW132606   0.691   3.784  16.241 -0.3628 -0.0355 -0.9225
 7048SOL    HW232607   0.817   3.790  16.164 -0.4841  0.5947 -1.1923
 7049SOL     OW32608   0.711   3.188   8.137 -0.5547  0.3793 -0.1382
 7049SOL    HW132609   0.707   3.150   8.225  0.9693 -0.9186 -0.6281
 7049SOL    HW232610   0.629   3.236   8.132 -0.3802  0.7370  0.4256
 7050SOL     OW32611   1.563   2.440   6.849  0.2817 -0.8532  0.4385
 7050SOL    HW132612   1.475   2.435   6.812  0.0653 -0.5465  0.9144
 7050SOL    HW232613   1.539   2.424   6.940  0.8871 -0.9504  0.5817
 7051SOL     OW32614   2.357   1.723   3.307  0.1611 -0.0092  0.5984
 7051SOL    HW132615   2.301   1.767   3.371 -0.8604  1.4331 -1.2860
 7051SOL    HW232616   2.349   1.630   3.331  2.4016  0.0351  1.4886
 7052SOL     OW32617   0.741   1.229   2.785  0.5823 -0.3099  0.0224
 7052SOL    HW132618   0.759   1.196   2.873 -1.4236  2.2102  1.3625
 7052SOL    HW232619   0.732   1.324   2.798 -1.0895 -0.4709 -0.0383
 7053SOL     OW32620   3.930   0.356   8.994  0.2521 -0.1627 -0.1302
 7053SOL    HW132621   3.981   0.275   8.999  2.4444  1.2914  1.1470
 7053SOL    HW232622   3.893   0.363   9.082  3.1409 -0.0099  1.0589
 7054SOL     OW32623   2.432   1.351  13.247  0.0896 -0.4314  0.6770
 7054SOL    HW132624   2.502   1.416  13.254  0.8750 -1.0942 -1.1987
 7054SOL    HW232625   2.367   1.410  13.208 -0.2481 -1.7822 -0.8011
 7055SOL     OW32626   3.361   1.604  16.527  0.8117  0.1648  0.0205
 7055SOL    HW132627   3.409   1.679  16.492  0.5999  0.1106 -0.3852
 7055SOL    HW232628   3.416   1.534  16.492 -0.5310  0.8478 -3.4925
 7056SOL     OW32629   2.436   4.418   7.931 -0.4438 -0.4395 -0.4572
 7056SOL    HW132630   2.530   4.403   7.925 -0.4048 -0.2890 -0.2406
 7056SOL    HW232631   2.404   4.345   7.984 -1.5949  1.6852  1.8048
 7057SOL     OW32632   4.324   4.317   3.363 -0.0762  0.1706  0.6741
 7057SOL    HW132633   4.327   4.233   3.317 -0.8560  0.4894  0.0321
 7057SOL    HW232634   4.254   4.304   3.427 -2.1223  0.8127 -1.3939
 7058SOL     OW32635   2.341   1.937  16.546 -0.3046  0.4597  0.0829
 7058SOL    HW132636   2.356   1.938  16.640 -1.1503 -0.0094  0.2256
 7058SOL    HW232637   2.427   1.948  16.505 -0.6711  2.2721 -0.2067
 7059SOL     OW32638   4.552   4.499  14.301  0.4466  0.3223 -0.3072
 7059SOL    HW132639   4.482   4.564  14.299 -0.8045 -1.0478 -0.8852
 7059SOL    HW232640   4.567   4.493  14.207  0.7208 -0.0720 -0.2410
 7060SOL     OW32641   1.894   2.953  12.932 -0.4263  0.4021  0.3413
 7060SOL    HW132642   1.979   2.989  12.908 -0.0730 -0.2782  0.5917
 7060SOL    HW232643   1.836   3.022  12.899 -1.8954 -0.6063  0.8501
 7061SOL     OW32644   2.120   2.396  15.718 -0.2401 -0.3989  0.4524
 7061SOL    HW132645   2.105   2.334  15.647  5.0532  1.1186 -1.9782
 7061SOL    HW232646   2.110   2.481  15.674 -0.1373 -1.0681 -0.8556
 7062SOL     OW32647   2.281   3.571   2.685 -0.2348 -0.5715 -0.2076
 7062SOL    HW132648   2.339   3.551   2.611  1.8209  2.9280  0.4399
 7062SOL    HW232649   2.276   3.667   2.686 -2.9348 -0.6784 -1.8450
 7063SOL     OW32650   2.781   3.392   3.867  0.3734 -0.1339  0.5209
 7063SOL    HW132651   2.794   3.420   3.958 -1.8316 -0.6310  0.9912
 7063SOL    HW232652   2.870   3.392   3.832  0.2018 -2.2343  0.1326
 7064SOL     OW32653   0.418   2.819   0.553 -0.4623  0.0504 -0.2388
 7064SOL    HW132654   0.406   2.818   0.648 -0.9103 -1.0441 -0.3120
 7064SOL    HW232655   0.353   2.885   0.530 -2.1604 -1.6872 -0.3533
 7065SOL     OW32656   4.073   4.238   7.031 -0.6656  0.3071  0.3713
 7065SOL    HW132657   4.011   4.304   7.062  0.3690  1.8267 -0.8071
 7065SOL    HW232658   4.157   4.271   7.060 -1.0523  1.1519  0.5206
 7066SOL     OW32659   0.629   4.068   4.157 -0.1991  0.3942  0.0441
 7066SOL    HW132660   0.644   4.114   4.239 -1.0337  0.2141  0.2917
 7066SOL    HW232661   0.700   4.004   4.161 -0.9684 -0.4219  0.5442
 7067SOL     OW32662   2.488   2.820  13.905 -0.2656  0.1704  0.0843
 7067SOL    HW132663   2.476   2.818  13.810  0.7700 -2.2984 -0.0013
 7067SOL    HW232664   2.454   2.740  13.945 -0.3542 -0.9446 -2.2119
 7068SOL     OW32665   2.198   2.780   7.908 -0.3132 -0.1816 -0.8993
 7068SOL    HW132666   2.283   2.810   7.878  0.3449 -1.5948 -0.4455
 7068SOL    HW232667   2.139   2.848   7.876 -0.6175  0.2315  0.5468
 7069SOL     OW32668   1.341   1.205   6.231  0.3520 -0.1072  0.1950
 7069SOL    HW132669   1.422   1.244   6.198  1.5218 -1.5292  1.4494
 7069SOL    HW232670   1.315   1.164   6.148 -2.6528  0.4784  0.8388
 7070SOL     OW32671   1.100   1.337   3.967  0.3441  0.6250 -0.0960
 7070SOL    HW132672   1.056   1.264   4.010  0.1696  1.1895  0.6992
 7070SOL    HW232673   1.073   1.419   4.009  0.1641  0.9955 -0.9308
 7071SOL     OW32674   1.934   1.673   0.002 -0.6034 -0.1950  0.0487
 7071SOL    HW132675   1.874   1.668   0.076 -1.7017 -0.6800 -0.8830
 7071SOL    HW232676   1.999   1.619   0.047  0.5067 -0.9439 -2.4576
 7072SOL     OW32677   1.858   4.052   3.178 -0.1363  0.1454  1.4701
 7072SOL    HW132678   1.769   4.085   3.174  0.4382  1.0094 -3.6287
 7072SOL    HW232679   1.869   4.005   3.095  2.2442 -0.1374  1.9419
 7073SOL     OW32680   3.739   1.396   8.519  0.5510  0.2328  0.7573
 7073SOL    HW132681   3.763   1.346   8.441 -0.9675  1.2555 -0.3758
 7073SOL    HW232682   3.829   1.423   8.532  1.8619 -1.5991 -4.3801
 7074SOL     OW32683   0.950   2.586   7.593  0.0574  0.4948 -0.2112
 7074SOL    HW132684   1.016   2.633   7.645 -0.4642  0.5978  0.3528
 7074SOL    HW232685   0.875   2.641   7.615 -2.3992 -3.0662  0.2019
 7075SOL     OW32686   2.818   4.049  10.714  0.0605 -0.0111 -0.2579
 7075SOL    HW132687   2.912   4.059  10.726  0.5106 -0.9420 -2.9276
 7075SOL    HW232688   2.802   4.143  10.711  0.0155  0.0592  1.9265
 7076SOL     OW32689   3.722   1.468   3.073  0.1218 -0.8957 -0.5074
 7076SOL    HW132690   3.807   1.506   3.049 -0.4853  1.5971  1.2874
 7076SOL    HW232691   3.754   1.384   3.042 -2.9755 -1.7093 -1.4714
 7077SOL     OW32692   3.649   4.631   2.374  0.0649  0.6582 -0.5016
 7077SOL    HW132693   3.677   4.632   2.466 -1.4306  0.0559 -0.0501
 7077SOL    HW232694   3.602   4.548   2.378  2.1357 -0.5364 -0.7113
 7078SOL     OW32695   1.009   4.685   0.264 -0.3077  0.6202 -0.3836
 7078SOL    HW132696   1.037   4.637   0.342 -1.7776 -0.0774 -0.2679
 7078SOL    HW232697   1.087   0.016   0.248 -0.7861  1.2179 -0.7692
 7079SOL     OW32698   0.314   2.516   2.094 -0.2827  0.0396 -0.4963
 7079SOL    HW132699   0.326   2.423   2.113  0.3378  0.0902 -0.6526
 7079SOL    HW232700   0.236   2.540   2.144  1.3313  1.5819  1.2574
 7080SOL     OW32701   4.136   1.241  15.779  0.3364 -0.0815 -0.0118
 7080SOL    HW132702   4.150   1.179  15.851  0.5102  2.4043  2.1150
 7080SOL    HW232703   4.080   1.308  15.818 -2.6334 -3.3407  1.2369
 7081SOL     OW32704   4.583   4.276   7.623  0.5010 -0.1107 -0.1735
 7081SOL    HW132705   4.548   4.293   7.710  1.1906 -0.9194  0.2608
 7081SOL    HW232706   4.565   4.361   7.583 -1.3749 -0.6076 -0.3898
 7082SOL     OW32707   3.692   3.092   1.771  0.8144 -0.0609 -0.0389
 7082SOL    HW132708   3.664   3.077   1.680  0.0201 -0.9907  0.3658
 7082SOL    HW232709   3.780   3.130   1.768  0.8219  0.1190  2.7778
 7083SOL     OW32710   2.856   1.496  14.801  0.3268 -0.2656  0.2848
 7083SOL    HW132711   2.879   1.412  14.841  2.0816  0.7817  1.4588
 7083SOL    HW232712   2.924   1.511  14.735  1.1080 -1.2510  0.8559
 7084SOL     OW32713   1.853   2.579  11.764  0.3268 -0.1804 -0.0165
 7084SOL    HW132714   1.813   2.495  11.788  2.9531 -0.7440  2.3229
 7084SOL    HW232715   1.885   2.577  11.673  2.4843  2.4794  0.6952
 7085SOL     OW32716   1.125   3.209  10.702  0.1571  0.1410 -0.0699
 7085SOL    HW132717   1.064   3.137  10.689 -0.0195  0.0932  0.9778
 7085SOL    HW232718   1.064   3.283  10.708 -2.7032 -2.1931 -0.4961
 7086SOL     OW32719   3.151   2.569  12.409  0.1375  0.2153  0.1868
 7086SOL    HW132720   3.184   2.493  12.361  0.1253  0.4551 -0.1949
 7086SOL    HW232721   3.067   2.586  12.368  0.6635 -0.0674 -1.0032
 7087SOL     OW32722   1.785   0.054   3.491 -0.2540 -0.1274 -0.6397
 7087SOL    HW132723   1.864   0.004   3.473  0.4071  0.6068  0.2129
 7087SOL    HW232724   1.729   0.020   3.421  0.1355  0.0742 -1.0477
 7088SOL     OW32725   2.089   0.371   7.103  0.0760 -0.5580  0.0450
 7088SOL    HW132726   2.080   0.325   7.020 -1.2784  0.4202 -0.3575
 7088SOL    HW232727   2.152   0.317   7.150  0.9384 -0.8446 -1.4541
 7089SOL     OW32728   0.388   0.521  16.027  0.2543 -0.1787 -0.3437
 7089SOL    HW132729   0.317   0.463  16.000  1.3246 -0.7322 -1.9464
 7089SOL    HW232730   0.448   0.498  15.956 -0.2555  0.2302 -0.9089
 7090SOL     OW32731   3.286   4.570  17.280 -0.1340 -0.0536 -0.4220
 7090SOL    HW132732   3.291   4.511  17.205  3.7186 -0.3046  0.0454
 7090SOL    HW232733   3.343   4.642  17.251 -2.4211  1.3151 -1.5003
 7091SOL     OW32734   2.464   3.710   2.881  0.0992  0.3665  0.4965
 7091SOL    HW132735   2.440   3.721   2.790  1.3066  4.3516  0.6688
 7091SOL    HW232736   2.537   3.648   2.876 -0.5746 -0.4480  0.7736
 7092SOL     OW32737   1.158   2.255   6.630 -0.4712  0.1097 -0.5725
 7092SOL    HW132738   1.223   2.231   6.564  0.0601  0.7314 -0.2763
 7092SOL    HW232739   1.092   2.195   6.594 -0.0280 -0.5439 -0.2928
 7093SOL     OW32740   2.457   3.527   7.671 -0.7956 -0.3182  0.1625
 7093SOL    HW132741   2.481   3.618   7.690 -0.5273  0.0994 -2.1333
 7093SOL    HW232742   2.485   3.525   7.580 -2.4662  1.2170 -0.4022
 7094SOL     OW32743   1.080   0.866  13.682  0.2923  0.1894 -0.2134
 7094SOL    HW132744   1.119   0.813  13.751  0.6811  1.9731  0.9264
 7094SOL    HW232745   1.086   0.806  13.607 -0.7238  0.2980 -0.3886
 7095SOL     OW32746   4.665   0.561   2.919  0.0178  0.0714  0.3673
 7095SOL    HW132747   4.641   0.582   3.010 -1.2928  0.8775 -0.1630
 7095SOL    HW232748   0.007   0.490   2.932 -0.9198 -0.7823  0.2219
 7096SOL     OW32749   2.179   0.554  13.629 -0.6934 -0.3856 -0.8132
 7096SOL    HW132750   2.199   0.493  13.700 -2.0808  1.0672  0.8196
 7096SOL    HW232751   2.183   0.494  13.555 -0.9649  0.9735 -1.9272
 7097SOL     OW32752   0.713   3.936  12.920  0.5055  0.0991 -0.0283
 7097SOL    HW132753   0.740   3.970  13.005 -1.8975  1.6782  0.0824
 7097SOL    HW232754   0.714   3.841  12.929 -0.4172  0.2314  1.2874
 7098SOL     OW32755   2.074   4.690   3.567  0.1690  0.2733 -0.4835
 7098SOL    HW132756   2.055   0.058   3.597  1.7364  0.8464 -1.1598
 7098SOL    HW232757   2.001   4.635   3.594  2.6207 -1.9243  1.6968
 7099SOL     OW32758   3.459   3.429   5.803 -0.5622  0.6980  0.5776
 7099SOL    HW132759   3.426   3.397   5.886 -1.9825 -1.0808 -0.6746
 7099SOL    HW232760   3.508   3.350   5.781 -0.9159  0.1622  1.7316
 7100SOL     OW32761   2.273   4.277  14.483  0.1610  0.1268  0.3444
 7100SOL    HW132762   2.329   4.229  14.544  0.9737 -0.1802 -0.6328
 7100SOL    HW232763   2.206   4.317  14.537 -2.2670 -0.6913 -2.0235
 7101SOL     OW32764   1.028   4.124  11.652  0.0133 -0.1931 -0.0810
 7101SOL    HW132765   1.051   4.041  11.611  1.3379 -0.5268  1.3299
 7101SOL    HW232766   1.105   4.138  11.707 -0.8414 -2.4352  1.7026
 7102SOL     OW32767   1.901   3.835   4.976 -0.3467 -0.4606 -0.4671
 7102SOL    HW132768   1.858   3.889   5.042  0.5258  0.4134 -0.6119
 7102SOL    HW232769   1.855   3.850   4.894  2.2221 -0.8899 -2.0039
 7103SOL     OW32770   0.891   4.338   2.930  0.6656 -0.5410 -0.5378
 7103SOL    HW132771   0.800   4.317   2.908  0.1674 -1.5127  2.3747
 7103SOL    HW232772   0.929   4.348   2.843 -1.6270  0.1276 -1.4510
 7104SOL     OW32773   4.538   1.921   6.968  0.4239 -0.5408  0.5127
 7104SOL    HW132774   4.528   1.856   7.037  0.8476 -0.0136  1.0747
 7104SOL    HW232775   4.447   1.943   6.948  0.7454  0.6561  0.3833
 7105SOL     OW32776   4.454   0.873   0.298  0.7059  0.2625 -0.4891
 7105SOL    HW132777   4.515   0.941   0.326  0.2030  0.3637  0.3849
 7105SOL    HW232778   4.507   0.803   0.261  0.6838 -0.0943  0.1620
 7106SOL     OW32779   0.964   0.745   9.929  0.1075  0.0014  0.0522
 7106SOL    HW132780   1.045   0.713   9.969  0.3516 -0.3091 -0.6838
 7106SOL    HW232781   1.001   0.831   9.905  1.7189 -1.6178 -3.3705
 7107SOL     OW32782   4.322   1.799   3.070  0.9011 -0.2189  0.2141
 7107SOL    HW132783   4.232   1.808   3.100  0.8234 -2.1000  0.5579
 7107SOL    HW232784   4.368   1.790   3.153  0.8084  0.4780  0.3412
 7108SOL     OW32785   1.822   0.558   7.958 -0.0402  0.8131  0.0685
 7108SOL    HW132786   1.903   0.562   7.907 -0.6911  1.6482 -0.9028
 7108SOL    HW232787   1.775   0.631   7.918  1.4532  2.6279  1.6125
 7109SOL     OW32788   4.174   3.781   8.763  0.3509  0.0999  0.3312
 7109SOL    HW132789   4.232   3.827   8.823  2.6384  0.6423 -2.2765
 7109SOL    HW232790   4.168   3.697   8.808  2.4717 -0.3106 -0.1678
 7110SOL     OW32791   1.623   3.694   8.601 -0.7598 -0.0327 -0.0989
 7110SOL    HW132792   1.692   3.651   8.551 -2.1005 -0.9964 -1.1084
 7110SOL    HW232793   1.664   3.779   8.617 -1.0906  0.1844 -0.4031
 7111SOL     OW32794   2.473   4.081   2.288 -0.5306 -0.9428  0.1894
 7111SOL    HW132795   2.447   3.989   2.296  1.8058 -1.5751  0.6122
 7111SOL    HW232796   2.559   4.086   2.331 -0.3093 -0.8665 -0.2673
 7112SOL     OW32797   3.733   1.099   1.907  0.2906  0.1065 -0.1910
 7112SOL    HW132798   3.736   1.181   1.857  2.6241  1.2903  1.8966
 7112SOL    HW232799   3.644   1.096   1.940  1.3181  1.3689  2.6717
 7113SOL     OW32800   3.299   1.546  14.496 -0.0736  0.2165 -0.4086
 7113SOL    HW132801   3.357   1.472  14.513  0.9877  0.8115 -1.4415
 7113SOL    HW232802   3.236   1.496  14.443  1.7933  0.1063 -2.5247
 7114SOL     OW32803   2.166   1.078  13.315 -0.0126 -0.6179 -0.2239
 7114SOL    HW132804   2.087   1.030  13.339  0.3426 -0.3856  1.4375
 7114SOL    HW232805   2.167   1.165  13.355  1.1890 -0.7578  0.0580
 7115SOL     OW32806   2.692   0.094  13.564 -0.2659 -0.0582 -0.2079
 7115SOL    HW132807   2.761   0.046  13.518  1.0211 -0.6216  2.2949
 7115SOL    HW232808   2.658   0.015  13.607  2.8781 -1.5738 -0.5179
 7116SOL     OW32809   1.139   1.354   6.369  0.3660  0.4379 -0.3340
 7116SOL    HW132810   1.146   1.321   6.459 -1.9977  2.2543  0.5138
 7116SOL    HW232811   1.201   1.299   6.320  0.3526  0.7818 -0.7336
 7117SOL     OW32812   4.032   1.488  15.802  0.0838 -0.5745  0.3935
 7117SOL    HW132813   4.032   1.511  15.895 -2.8017  0.8178  0.0671
 7117SOL    HW232814   4.106   1.538  15.767 -0.5544 -0.6606 -1.0844
 7118SOL     OW32815   3.093   2.438   0.056 -0.3942 -0.4273 -0.3906
 7118SOL    HW132816   3.185   2.417   0.075 -0.1258  0.3617 -0.8172
 7118SOL    HW232817   3.111   2.517   0.005 -1.0775  0.7690  1.1891
 7119SOL     OW32818   4.013   3.307   9.596  0.0714  0.0268 -0.2640
 7119SOL    HW132819   4.108   3.293   9.595  0.2248  1.0215 -0.0700
 7119SOL    HW232820   3.984   3.308   9.687 -1.3163  2.4164 -0.7326
 7120SOL     OW32821   2.112   3.066   6.460  0.2818 -0.2927 -0.1448
 7120SOL    HW132822   2.125   2.985   6.509  0.7899 -0.3210 -0.3328
 7120SOL    HW232823   2.158   3.051   6.378 -1.1189 -0.6964 -0.8679
 7121SOL     OW32824   1.506   4.040   7.798  0.1175 -0.7929 -0.0892
 7121SOL    HW132825   1.426   3.999   7.833  1.0915 -3.2613 -0.7384
 7121SOL    HW232826   1.496   4.133   7.815  1.8731 -0.7675  0.7747
 7122SOL     OW32827   2.657   3.791   6.876  0.1324 -0.4012  0.1335
 7122SOL    HW132828   2.588   3.788   6.810 -1.0520 -1.5635  1.4126
 7122SOL    HW232829   2.677   3.697   6.884  2.3722  0.0248 -0.5503
 7123SOL     OW32830   1.384   0.155   5.403  0.4770 -0.1243  0.2688
 7123SOL    HW132831   1.428   0.218   5.346 -0.9416 -1.0701 -1.8328
 7123SOL    HW232832   1.301   0.198   5.422 -0.0092 -1.0501  0.2196
 7124SOL     OW32833   2.949   1.690   7.603 -0.0542 -0.2555 -0.3144
 7124SOL    HW132834   2.962   1.746   7.680  1.9906  0.6323 -1.3027
 7124SOL    HW232835   3.009   1.729   7.540  1.0566 -0.5725  0.5407
 7125SOL     OW32836   0.048   3.465   3.802 -0.2470 -0.0271  0.0915
 7125SOL    HW132837   0.007   3.488   3.719 -0.9205 -0.2760  0.3511
 7125SOL    HW232838   0.028   3.544   3.851  0.9371 -0.7655  1.7747
 7126SOL     OW32839   1.221   1.664   5.858  0.2538 -0.3084  0.0024
 7126SOL    HW132840   1.175   1.609   5.922 -0.1851 -0.4853 -0.4631
 7126SOL    HW232841   1.251   1.598   5.795  1.9377  0.2541  0.2378
 7127SOL     OW32842   4.065   3.160   8.388  0.0192  0.1387  0.3351
 7127SOL    HW132843   4.043   3.080   8.435 -2.2294  0.1832 -0.6320
 7127SOL    HW232844   4.046   3.224   8.457  0.0280 -0.1801  0.6324
 7128SOL     OW32845   4.086   3.548   6.081  0.1393 -0.1239  0.3405
 7128SOL    HW132846   4.097   3.487   6.155 -2.8695 -2.0365 -0.7737
 7128SOL    HW232847   4.106   3.488   6.009 -0.3937  0.9968 -0.7359
 7129SOL     OW32848   0.470   2.857   4.499  0.0008 -0.0493 -0.5690
 7129SOL    HW132849   0.461   2.952   4.504 -0.3972 -0.0720 -0.8265
 7129SOL    HW232850   0.532   2.842   4.428 -0.1415 -0.3075 -0.6372
 7130SOL     OW32851   0.700   2.828   3.616 -0.5643  0.2106  0.4765
 7130SOL    HW132852   0.615   2.788   3.596 -0.8659  1.1402 -0.1037
 7130SOL    HW232853   0.745   2.819   3.532  1.0757  1.3512  1.2379
 7131SOL     OW32854   1.140   0.709  11.025 -0.2908 -0.1940 -0.3467
 7131SOL    HW132855   1.189   0.654  11.086 -0.2770  1.7467  1.3979
 7131SOL    HW232856   1.167   0.797  11.051 -2.0034  1.2633 -3.5451
 7132SOL     OW32857   1.918   3.992  14.789  0.4539 -0.4053 -0.2509
 7132SOL    HW132858   1.850   3.956  14.845  1.2837  0.6438  1.4460
 7132SOL    HW232859   1.934   3.911  14.740  1.0229  0.1465 -0.9907
 7133SOL     OW32860   4.572   2.120   4.430  0.1439 -0.2975 -0.6206
 7133SOL    HW132861   4.502   2.182   4.413  0.4364  0.4267  0.8446
 7133SOL    HW232862   4.539   2.037   4.394 -0.1221 -0.3023 -0.3639
 7134SOL     OW32863   1.970   0.887   9.707 -0.2140 -0.0480  0.1464
 7134SOL    HW132864   2.047   0.875   9.763 -0.3424  2.7394  0.9044
 7134SOL    HW232865   1.930   0.971   9.730  1.2319  1.2705 -2.2519
 7135SOL     OW32866   1.272   0.242   7.492  0.8228  0.1350 -0.0781
 7135SOL    HW132867   1.191   0.292   7.481  0.0847 -0.8597  0.8102
 7135SOL    HW232868   1.238   0.153   7.484 -0.1720  0.2576  2.8319
 7136SOL     OW32869   4.335   1.310  17.208  0.4506  0.0273 -0.2219
 7136SOL    HW132870   4.338   1.330  17.115  3.7256 -0.0686 -0.1303
 7136SOL    HW232871   4.346   1.215  17.217  2.9447  0.4683  1.4933
 7137SOL     OW32872   3.392   2.240  15.451 -0.0446 -0.3369 -0.3034
 7137SOL    HW132873   3.419   2.174  15.387 -1.9546  0.1377 -1.5969
 7137SOL    HW232874   3.386   2.315  15.392 -0.5890 -0.2703 -0.1644
 7138SOL     OW32875   0.299   2.484   7.577 -0.2002 -0.8208 -0.3956
 7138SOL    HW132876   0.206   2.505   7.590 -0.4221 -1.3102 -1.1378
 7138SOL    HW232877   0.340   2.540   7.643 -1.4881 -1.7331  1.1807
 7139SOL     OW32878   3.571   3.973   4.069  0.1227 -0.3723 -0.0493
 7139SOL    HW132879   3.621   3.992   3.989  0.0350 -0.1706 -0.0553
 7139SOL    HW232880   3.624   4.025   4.129 -1.5113  0.5772  0.5626
 7140SOL     OW32881   2.412   0.759   8.321 -0.6993 -0.2485  0.1696
 7140SOL    HW132882   2.502   0.779   8.293 -1.2936 -0.6842 -1.9878
 7140SOL    HW232883   2.423   0.675   8.365 -0.9263 -1.2230 -1.6432
 7141SOL     OW32884   4.142   3.289   0.858  0.0062 -0.4051 -0.1190
 7141SOL    HW132885   4.165   3.359   0.798 -0.5318 -0.5570 -0.5037
 7141SOL    HW232886   4.157   3.335   0.940 -2.6400 -1.0247  0.6924
 7142SOL     OW32887   3.707   4.102   5.709  0.5844 -0.1581  0.2319
 7142SOL    HW132888   3.631   4.100   5.767  0.2961 -0.4005 -0.1499
 7142SOL    HW232889   3.739   4.191   5.722 -0.6295  0.4282 -0.9000
 7143SOL     OW32890   1.756   2.350  14.586  0.0742 -0.4077  0.9681
 7143SOL    HW132891   1.787   2.440  14.583  0.9485 -0.7214  0.6191
 7143SOL    HW232892   1.801   2.328  14.505  1.0319 -1.4190  1.7774
 7144SOL     OW32893   4.435   1.703   7.423 -0.0851 -0.2390  0.0401
 7144SOL    HW132894   4.502   1.669   7.483 -0.5740  0.7101  1.1120
 7144SOL    HW232895   4.411   1.624   7.375  0.9831  0.5754 -1.8340
 7145SOL     OW32896   4.627   2.035   4.123 -0.2267 -0.3869 -0.3232
 7145SOL    HW132897   4.660   2.059   4.037  1.1302  0.0788  0.3292
 7145SOL    HW232898   4.634   1.940   4.132 -0.0022 -0.2313  1.1579
 7146SOL     OW32899   0.942   0.791  10.857 -0.2859 -0.8292 -0.0704
 7146SOL    HW132900   0.993   0.848  10.799 -1.1114 -0.0372 -0.0225
 7146SOL    HW232901   0.997   0.791  10.935 -0.5481  0.3143  0.1180
 7147SOL     OW32902   1.553   3.631   2.873  0.9867  0.5839 -0.2467
 7147SOL    HW132903   1.604   3.564   2.918 -0.9620  0.4037  1.6484
 7147SOL    HW232904   1.600   3.710   2.899 -0.0984  1.4545 -0.9097
 7148SOL     OW32905   1.942   3.619   0.717 -0.2483  0.1484 -0.3457
 7148SOL    HW132906   2.033   3.617   0.686  0.8908 -2.2624  2.9781
 7148SOL    HW232907   1.943   3.678   0.792 -0.4877 -0.2651 -0.0146
 7149SOL     OW32908   0.239   1.960  14.263  0.0510  0.1402 -0.0007
 7149SOL    HW132909   0.198   1.938  14.347  0.5944  0.3935  0.3337
 7149SOL    HW232910   0.185   2.035  14.238  0.0121 -0.2593 -1.0795
 7150SOL     OW32911   3.449   2.943  14.101  0.0016  0.2357  0.0693
 7150SOL    HW132912   3.390   2.951  14.176  2.2314 -0.3571  1.8934
 7150SOL    HW232913   3.527   2.997  14.116 -0.9759  1.6004  0.2725
 7151SOL     OW32914   2.066   1.876   8.997  0.0232  0.2430 -0.4834
 7151SOL    HW132915   2.048   1.786   9.024  3.7787 -0.5123 -0.4511
 7151SOL    HW232916   2.058   1.863   8.902 -0.3888  0.7594 -0.5233
 7152SOL     OW32917   2.742   2.764  15.398 -0.1110  0.1771 -0.0212
 7152SOL    HW132918   2.690   2.803  15.327 -0.9328 -2.7595 -1.0436
 7152SOL    HW232919   2.826   2.809  15.393 -0.4694  0.8725  0.3725
 7153SOL     OW32920   2.209   0.852   9.793 -0.9298 -0.4339 -0.6705
 7153SOL    HW132921   2.269   0.825   9.724  0.8307  1.8330 -0.0421
 7153SOL    HW232922   2.276   0.885   9.853 -1.2980  2.2087 -1.7110
 7154SOL     OW32923   0.303   2.784   1.509 -0.4739 -0.0778 -0.3570
 7154SOL    HW132924   0.320   2.716   1.573  1.6821  0.2670 -0.5722
 7154SOL    HW232925   0.280   2.729   1.435  1.6751 -0.7253 -0.5512
 7155SOL     OW32926   3.318   3.499  17.195 -0.2950 -0.1515  0.1509
 7155SOL    HW132927   3.274   3.540  17.269  2.3463  0.3166  1.4956
 7155SOL    HW232928   3.400   3.474  17.237 -0.0802  1.3199  0.6282
 7156SOL     OW32929   3.315   2.313   3.217 -0.4131  0.0592  0.0587
 7156SOL    HW132930   3.247   2.356   3.267  0.3382  1.5363 -0.1860
 7156SOL    HW232931   3.276   2.326   3.130 -1.6663  3.2753  1.1012
 7157SOL     OW32932   1.742   2.324   5.368 -0.1539 -0.5136 -0.0396
 7157SOL    HW132933   1.710   2.302   5.456 -0.2577  1.7354  0.4727
 7157SOL    HW232934   1.734   2.253   5.303 -0.3260 -0.4306 -0.1107
 7158SOL     OW32935   2.370   3.805   2.269  0.1101 -0.4754 -0.2076
 7158SOL    HW132936   2.295   3.792   2.326 -0.5365 -1.8386 -1.3815
 7158SOL    HW232937   2.437   3.747   2.305  0.5890  0.4150  0.3453
 7159SOL     OW32938   1.479   4.658   4.519 -0.0551 -0.2335 -0.4030
 7159SOL    HW132939   1.507   4.607   4.595 -3.2076 -1.1057  0.1688
 7159SOL    HW232940   1.397   4.696   4.551  2.3081  2.1372  2.9098
 7160SOL     OW32941   0.738   2.964   4.686 -0.0981 -0.9264  0.0191
 7160SOL    HW132942   0.728   2.911   4.606  0.5878 -0.5184 -0.3350
 7160SOL    HW232943   0.750   3.054   4.658 -1.2087 -1.2835 -1.6436
 7161SOL     OW32944   2.093   0.923  14.949  0.6710  0.8247 -0.1200
 7161SOL    HW132945   2.108   0.829  14.955 -3.8708  0.2475  2.6407
 7161SOL    HW232946   2.173   0.949  14.995  0.4987  0.4640  0.3851
 7162SOL     OW32947   4.358   3.976  15.518 -0.0133  0.0140 -0.0049
 7162SOL    HW132948   4.351   4.071  15.505  2.3730  0.0135 -1.4761
 7162SOL    HW232949   4.278   3.936  15.486 -0.3470  0.6711  0.0038
 7163SOL     OW32950   2.198   4.155   9.015 -0.0603  0.0833 -0.4701
 7163SOL    HW132951   2.278   4.167   8.964  0.3192  0.6819  0.2674
 7163SOL    HW232952   2.137   4.195   8.954 -1.9589 -2.3354 -0.1613
 7164SOL     OW32953   3.998   0.809  11.184 -0.2825 -0.0260 -0.3819
 7164SOL    HW132954   4.092   0.813  11.204  0.0372  1.1821 -2.1623
 7164SOL    HW232955   3.971   0.898  11.206 -1.2146  0.2285 -2.5478
 7165SOL     OW32956   4.672   2.954   9.081 -0.7139  0.2076 -0.0350
 7165SOL    HW132957   4.648   2.868   9.047 -1.4838  0.8984 -1.2405
 7165SOL    HW232958   0.002   2.930   9.159  1.1402  0.0650 -1.3136
 7166SOL     OW32959   1.071   1.403   0.856 -0.4407 -0.6161  0.3322
 7166SOL    HW132960   1.001   1.343   0.883  1.1633 -2.1276  1.0862
 7166SOL    HW232961   1.066   1.381   0.762 -0.2359  1.2549 -0.1025
 7167SOL     OW32962   3.500   0.125   5.878  0.3974  0.4888 -0.4345
 7167SOL    HW132963   3.571   0.089   5.932  0.1260  1.1399  0.3538
 7167SOL    HW232964   3.425   0.113   5.936  0.8174 -0.7658 -0.1551
 7168SOL     OW32965   4.299   2.823   3.483 -0.3330 -0.3786 -0.0630
 7168SOL    HW132966   4.233   2.761   3.514 -0.1903  0.0669  1.1411
 7168SOL    HW232967   4.377   2.774   3.459  0.9942  0.9769  1.4276
 7169SOL     OW32968   4.639   2.646  12.327  0.6153 -0.0779  0.1374
 7169SOL    HW132969   4.623   2.649  12.233 -1.8736 -0.4118  0.5299
 7169SOL    HW232970   4.552   2.678  12.354  1.2812  1.5248  0.4014
 7170SOL     OW32971   2.279   2.462   0.290 -0.5386  0.4604 -0.0758
 7170SOL    HW132972   2.337   2.424   0.224 -1.4278 -1.1901  0.0819
 7170SOL    HW232973   2.266   2.391   0.353  1.6787 -2.2880 -2.6790
 7171SOL     OW32974   2.121   0.425   7.482 -0.0003 -0.2879  0.7628
 7171SOL    HW132975   2.124   0.341   7.527  1.1495 -0.4379  0.3901
 7171SOL    HW232976   2.035   0.422   7.440  0.8742  0.1385 -1.0400
 7172SOL     OW32977   1.489   1.835   4.556 -0.0691  0.2170  0.0910
 7172SOL    HW132978   1.455   1.923   4.573 -0.8650  0.0242 -0.5190
 7172SOL    HW232979   1.451   1.814   4.471  0.2106 -0.0053  0.0198
 7173SOL     OW32980   4.092   1.761   7.083 -0.0335  0.4744  0.0049
 7173SOL    HW132981   4.130   1.825   7.142 -1.4158  1.6358 -0.3525
 7173SOL    HW232982   4.019   1.726   7.134  0.9115  0.2910  1.2195
 7174SOL     OW32983   0.192   3.186   4.196  0.1724 -0.6132 -0.3289
 7174SOL    HW132984   0.171   3.204   4.104 -1.5962 -0.2465  0.1529
 7174SOL    HW232985   0.259   3.254   4.206 -0.5622  0.2869 -1.4951
 7175SOL     OW32986   3.663   3.970   8.409 -0.6545  0.1142  0.0198
 7175SOL    HW132987   3.608   4.036   8.450  2.5508  1.2318  2.5392
 7175SOL    HW232988   3.618   3.964   8.325  0.9830 -0.7948 -0.7964
 7176SOL     OW32989   3.061   2.458  10.044  0.6320 -0.0770 -0.5758
 7176SOL    HW132990   2.981   2.481  10.091  1.0087  0.8974 -0.3997
 7176SOL    HW232991   3.116   2.426  10.116  0.9351 -1.7854 -1.5791
 7177SOL     OW32992   2.251   2.911  17.457  0.7136  0.6271 -0.2787
 7177SOL    HW132993   2.273   2.911  17.364 -5.2664 -2.6695 -1.7242
 7177SOL    HW232994   2.326   2.960  17.490  1.4506 -2.1369  2.1832
 7178SOL     OW32995   0.955   0.408   0.672 -0.1532  0.0362  0.2553
 7178SOL    HW132996   1.013   0.473   0.712 -1.7029  0.6708  1.4384
 7178SOL    HW232997   1.018   0.368   0.612 -0.2206 -1.2720  1.0633
 7179SOL     OW32998   0.500   1.297   6.755 -0.2496  0.2978 -0.2509
 7179SOL    HW132999   0.552   1.258   6.825 -1.4853  0.6452  0.8624
 7179SOL    HW233000   0.449   1.226   6.717  0.9700 -0.3291 -0.7098
 7180SOL     OW33001   2.138   2.954  15.183 -0.4567 -0.0718 -0.0321
 7180SOL    HW133002   2.119   3.045  15.159  0.8296  0.6689  1.8184
 7180SOL    HW233003   2.172   2.977  15.269  0.6630 -0.9796 -0.2411
 7181SOL     OW33004   1.466   0.890  14.059  0.1708 -0.3305 -0.1195
 7181SOL    HW133005   1.506   0.933  14.134 -1.0905 -1.2425  1.0823
 7181SOL    HW233006   1.546   0.852  14.023  0.0618 -0.2353 -0.4636
 7182SOL     OW33007   1.327   1.155  11.221  0.4683  0.2385 -0.2338
 7182SOL    HW133008   1.278   1.153  11.138 -0.8473 -0.8617  0.5753
 7182SOL    HW233009   1.275   1.107  11.285  0.4284 -0.5438 -0.8546
 7183SOL     OW33010   0.283   1.867   3.993  0.0486  1.3946 -0.1135
 7183SOL    HW133011   0.248   1.956   3.984  0.0870  1.1943 -2.3191
 7183SOL    HW233012   0.349   1.868   3.923 -0.3400 -0.2084 -0.4860
 7184SOL     OW33013   0.693   3.150   5.073  0.0216 -0.1111  0.3657
 7184SOL    HW133014   0.757   3.079   5.081 -0.3549 -0.6607 -1.4424
 7184SOL    HW233015   0.728   3.221   5.128 -2.2857  0.1832  1.4422
 7185SOL     OW33016   1.601   0.948  11.545 -0.0659 -0.6271  0.1230
 7185SOL    HW133017   1.523   1.001  11.566 -0.9074 -1.4020 -1.0695
 7185SOL    HW233018   1.675   0.986  11.592  0.1357  0.1166 -0.7774
 7186SOL     OW33019   3.139   1.283  14.684  0.0457 -0.2168  0.6194
 7186SOL    HW133020   3.157   1.350  14.750 -0.8285  1.2189 -0.5883
 7186SOL    HW233021   3.138   1.329  14.600  0.6562  0.7749  1.1585
 7187SOL     OW33022   1.839   1.187   3.049 -0.2497 -0.0102  0.1273
 7187SOL    HW133023   1.845   1.126   2.975  0.0970 -0.5312  0.5829
 7187SOL    HW233024   1.752   1.165   3.081  0.1988  0.3474  1.5771
 7188SOL     OW33025   2.423   1.030  13.280 -0.6779 -0.3964  0.0517
 7188SOL    HW133026   2.447   1.113  13.241  1.1052 -1.8001 -1.8290
 7188SOL    HW233027   2.328   1.036  13.287 -0.4852  3.4412 -0.9817
 7189SOL     OW33028   1.850   2.437   1.599 -0.2743 -0.2877  0.1069
 7189SOL    HW133029   1.764   2.459   1.563 -1.1751 -2.2192  1.1181
 7189SOL    HW233030   1.901   2.510   1.563  1.2401 -0.5105  1.7999
 7190SOL     OW33031   4.298   1.256   2.938 -0.6918 -0.0902 -0.1270
 7190SOL    HW133032   4.328   1.347   2.938 -0.4513 -0.1811 -2.1858
 7190SOL    HW233033   4.353   1.223   3.009 -2.1855 -0.2110  0.9867
 7191SOL     OW33034   1.753   2.725   2.667  0.3331  0.1118 -0.5967
 7191SOL    HW133035   1.825   2.688   2.616  1.9418  0.5798  1.3131
 7191SOL    HW233036   1.778   2.817   2.675  0.4378 -0.2041  2.9737
 7192SOL     OW33037   1.117   0.823   5.906  0.4454 -0.3190 -0.2383
 7192SOL    HW133038   1.165   0.773   5.840 -0.4389 -1.7600  0.1872
 7192SOL    HW233039   1.026   0.800   5.885  0.2232  1.7926 -1.5517
 7193SOL     OW33040   2.296   1.988   8.364 -0.1959  0.0814 -0.4159
 7193SOL    HW133041   2.321   1.978   8.272  2.0801  0.8074  0.1142
 7193SOL    HW233042   2.283   2.083   8.362  0.9111  0.2855  1.6713
 7194SOL     OW33043   2.286   2.610   4.360 -0.1600 -0.1741  0.6013
 7194SOL    HW133044   2.210   2.631   4.307  0.7258  1.6218  0.0640
 7194SOL    HW233045   2.265   2.637   4.449  2.0338  2.9791  0.1626
 7195SOL     OW33046   1.409   2.186   6.122  0.1514 -0.3457 -0.2891
 7195SOL    HW133047   1.456   2.110   6.089  1.1570  0.7264 -1.3296
 7195SOL    HW233048   1.319   2.163   6.100 -0.1556 -0.4666  1.1260
 7196SOL     OW33049   2.434   3.837   1.205  0.5005  0.5678 -0.4345
 7196SOL    HW133050   2.489   3.808   1.278  0.0585  2.5776  0.6934
 7196SOL    HW233051   2.441   3.932   1.216  2.2107  0.3815  0.1350
 7197SOL     OW33052   2.978   0.354   0.745 -0.0932  0.1515 -0.3570
 7197SOL    HW133053   2.912   0.407   0.700 -0.7498  0.7385  1.2675
 7197SOL    HW233054   2.935   0.311   0.819  0.6345 -1.6730 -1.0094
 7198SOL     OW33055   3.460   0.258   7.426 -0.0068 -0.2792  0.1319
 7198SOL    HW133056   3.412   0.205   7.363  0.8659  0.4656 -1.1506
 7198SOL    HW233057   3.387   0.305   7.467  0.6319 -0.1067  1.0895
 7199SOL     OW33058   0.844   2.594   2.973 -0.1323  0.4255  0.1894
 7199SOL    HW133059   0.895   2.675   2.980 -0.4797  0.7766 -1.2851
 7199SOL    HW233060   0.917   2.535   2.954  1.0025  2.1579 -0.8964
 7200SOL     OW33061   3.477   3.051   3.834  0.5149  0.0318  0.6037
 7200SOL    HW133062   3.439   2.980   3.885 -0.9192  0.1996 -0.2266
 7200SOL    HW233063   3.454   3.128   3.886  1.1312  1.2236 -0.8887
 7201SOL     OW33064   2.607   2.362   4.473 -0.0007  0.7903  0.2806
 7201SOL    HW133065   2.646   2.331   4.392 -0.2567 -2.9831  1.6257
 7201SOL    HW233066   2.582   2.278   4.511  1.5207  0.7337  1.1521
 7202SOL     OW33067   2.603   2.246   4.035  1.0252 -0.2196  0.5232
 7202SOL    HW133068   2.652   2.317   3.993 -1.9906  1.0865 -0.7687
 7202SOL    HW233069   2.516   2.246   3.995  0.5579  3.1855  1.5447
 7203SOL     OW33070   4.005   3.139   6.097 -0.2481  0.0503 -0.2369
 7203SOL    HW133071   3.983   3.095   6.178  0.3606 -0.0781 -0.1435
 7203SOL    HW233072   4.000   3.063   6.040 -1.2688  0.2640 -0.4378
 7204SOL     OW33073   3.229   1.402   2.350 -0.1949 -0.5406 -0.0659
 7204SOL    HW133074   3.188   1.378   2.267 -0.7073 -1.2464  0.3957
 7204SOL    HW233075   3.258   1.318   2.384  1.0507  0.5801  1.6621
 7205SOL     OW33076   0.227   0.908   3.411 -0.8292  0.2479  0.2512
 7205SOL    HW133077   0.319   0.926   3.395 -0.2930 -2.0680  0.6972
 7205SOL    HW233078   0.224   0.964   3.488 -1.9483 -1.1709  1.2480
 7206SOL     OW33079   2.626   2.826   0.196  0.1033 -0.5601 -0.4216
 7206SOL    HW133080   2.587   2.786   0.119  1.3133 -1.6508 -0.4645
 7206SOL    HW233081   2.595   2.778   0.273  1.0752  1.6898  1.3841
 7207SOL     OW33082   4.335   1.546   2.943  0.1762  0.2351 -0.0646
 7207SOL    HW133083   4.342   1.640   2.959  0.3136 -0.1806  2.4091
 7207SOL    HW233084   4.266   1.547   2.877 -0.9317  1.0571  1.1099
 7208SOL     OW33085   1.037   0.238   6.845  0.2606  0.6252  0.5525
 7208SOL    HW133086   1.013   0.253   6.753  1.2640  0.4139  0.2497
 7208SOL    HW233087   1.053   0.143   6.842 -1.4025  0.3238  1.3631
 7209SOL     OW33088   2.804   0.448   7.801  0.6944 -0.0776 -0.1377
 7209SOL    HW133089   2.795   0.520   7.862 -0.9052 -1.0768  0.7877
 7209SOL    HW233090   2.893   0.463   7.768  0.7537 -0.3755 -0.1192
 7210SOL     OW33091   4.564   0.437   0.061  0.3446  0.2358 -0.3962
 7210SOL    HW133092   4.514   0.363   0.097  1.2129 -0.6056 -0.9199
 7210SOL    HW233093   4.649   0.395   0.048  0.4307 -0.2691  1.8661
 7211SOL     OW33094   2.046   1.362   3.983  0.5975 -0.0223 -0.2535
 7211SOL    HW133095   2.009   1.336   3.899 -3.3096  1.7945  0.8984
 7211SOL    HW233096   1.984   1.430   4.012  2.2169  1.0749  0.6422
 7212SOL     OW33097   2.019   2.849   2.792 -0.2117 -0.5879 -0.5843
 7212SOL    HW133098   1.953   2.905   2.751  2.3665  1.5398 -1.7742
 7212SOL    HW233099   1.973   2.779   2.840  0.7180  0.7903  2.2934
 7213SOL     OW33100   4.516   3.733   6.347  0.0449 -0.3112 -0.0466
 7213SOL    HW133101   4.599   3.768   6.380 -0.8500  0.4002  1.4728
 7213SOL    HW233102   4.483   3.803   6.292  0.1806 -0.2323 -0.0281
 7214SOL     OW33103   3.686   1.256   0.736  0.7664  0.4759  0.2067
 7214SOL    HW133104   3.766   1.302   0.760  0.5659  1.3282 -0.7759
 7214SOL    HW233105   3.729   1.187   0.685 -0.0001  2.2550 -2.8642
 7215SOL     OW33106   4.205   0.699  10.858 -0.0612  0.3774  0.5690
 7215SOL    HW133107   4.231   0.653  10.779  1.2082  0.3135  1.0288
 7215SOL    HW233108   4.207   0.789  10.826 -0.6871 -0.6046 -2.1807
 7216SOL     OW33109   1.609   1.122  13.278 -0.5282 -0.2552 -0.1929
 7216SOL    HW133110   1.570   1.124  13.191 -0.0104  2.2691 -0.3726
 7216SOL    HW233111   1.600   1.214  13.303  0.9834 -0.5055  1.2834
 7217SOL     OW33112   2.639   3.912   9.042  0.5824  0.0710  0.2827
 7217SOL    HW133113   2.595   3.858   8.977 -0.9945 -0.1768  1.5619
 7217SOL    HW233114   2.569   3.951   9.094  1.2334  0.6715  0.7179
 7218SOL     OW33115   3.505   3.693   9.563 -0.1124 -0.2319  0.2697
 7218SOL    HW133116   3.410   3.700   9.563 -0.0939  0.0137  0.5960
 7218SOL    HW233117   3.542   3.739   9.488  1.3534 -0.7668  0.6653
 7219SOL     OW33118   4.643   4.700   3.842  0.0264  1.0150 -0.3230
 7219SOL    HW133119   4.657   0.069   3.871  1.1470  0.2682  1.4520
 7219SOL    HW233120   4.693   4.704   3.760  1.1625 -0.1184  0.3064
 7220SOL     OW33121   3.725   4.253   7.980  0.0893 -0.3921 -0.3825
 7220SOL    HW133122   3.659   4.183   7.979  0.8531 -1.1042 -1.6231
 7220SOL    HW233123   3.774   4.227   7.901 -0.8962 -1.5964 -0.6062
 7221SOL     OW33124   2.543   1.556   8.001 -0.3606  0.4680  0.7143
 7221SOL    HW133125   2.487   1.574   8.077 -1.3199  1.1011 -0.1535
 7221SOL    HW233126   2.629   1.585   8.030  0.7170 -0.9539 -1.0890
 7222SOL     OW33127   4.417   1.451   9.282 -0.1563  0.6142 -0.3193
 7222SOL    HW133128   4.417   1.538   9.242  0.6824  0.8140  0.1170
 7222SOL    HW233129   4.511   1.443   9.301 -0.2023  1.4892  0.2762
 7223SOL     OW33130   2.366   3.006  16.523 -0.1849 -0.1450 -0.1925
 7223SOL    HW133131   2.349   2.952  16.601 -0.6486 -1.0857 -0.9483
 7223SOL    HW233132   2.336   2.953  16.449 -0.8071 -0.6145  0.3901
 7224SOL     OW33133   2.548   0.947   6.250 -0.0083  0.3078  0.5442
 7224SOL    HW133134   2.459   0.915   6.264 -0.2797  0.5157 -0.6869
 7224SOL    HW233135   2.594   0.866   6.230 -0.0647 -0.3036  2.8633
 7225SOL     OW33136   2.677   1.216   1.505 -0.2792  0.1312 -0.0435
 7225SOL    HW133137   2.712   1.303   1.522  0.2284 -0.1806  0.4878
 7225SOL    HW233138   2.757   1.164   1.506 -0.4845 -0.2149 -1.0585
 7226SOL     OW33139   1.161   0.363   3.347  0.0862 -0.2273 -0.4388
 7226SOL    HW133140   1.198   0.449   3.370  0.6144 -0.8032  0.8556
 7226SOL    HW233141   1.232   0.303   3.370 -0.4103 -0.1049  1.4358
 7227SOL     OW33142   0.433   1.935   2.267  0.3786 -0.5178 -0.8097
 7227SOL    HW133143   0.488   2.002   2.225  0.2940  0.5850  0.8295
 7227SOL    HW233144   0.492   1.893   2.330  1.6129  0.3868 -1.3457
 7228SOL     OW33145   4.266   0.001   8.569 -0.2491 -0.1794  0.5421
 7228SOL    HW133146   4.200   0.058   8.609 -0.6522 -0.3747  0.1625
 7228SOL    HW233147   4.198   4.663   8.534  0.3325  0.4958 -1.7169
 7229SOL     OW33148   0.450   4.047   4.761  0.6033  0.3990 -0.3461
 7229SOL    HW133149   0.436   4.045   4.856 -0.2507  2.1820 -0.4289
 7229SOL    HW233150   0.545   4.046   4.761  0.5910 -0.5201 -0.7281
 7230SOL     OW33151   1.208   0.873   8.216 -0.5456 -0.2471 -0.2193
 7230SOL    HW133152   1.150   0.831   8.152 -0.1914 -2.1074  0.6584
 7230SOL    HW233153   1.265   0.914   8.151 -1.5761  0.1569 -0.8769
 7231SOL     OW33154   0.723   4.263   3.967 -0.1589 -0.2244  0.5304
 7231SOL    HW133155   0.689   4.323   4.033  0.1505 -1.6371  1.9575
 7231SOL    HW233156   0.685   4.180   3.996  0.6017 -0.4916  0.7523
 7232SOL     OW33157   4.631   1.004   5.156  0.0400 -0.1401 -0.4091
 7232SOL    HW133158   4.719   1.042   5.158 -1.1269  2.5417  0.2380
 7232SOL    HW233159   4.659   0.912   5.150 -2.8969 -1.1938  2.0482
 7233SOL     OW33160   2.881   4.605   9.043 -0.1966 -0.0308  0.5644
 7233SOL    HW133161   2.918   4.651   9.118 -0.5355 -1.2103  1.4647
 7233SOL    HW233162   2.820   4.668   9.005  1.0318 -1.1448 -3.2909
 7234SOL     OW33163   1.229   3.471   6.171  0.3905  0.4249  0.3766
 7234SOL    HW133164   1.206   3.561   6.148 -0.9625 -0.5098 -2.0451
 7234SOL    HW233165   1.285   3.448   6.097 -0.0068  1.0727 -0.1273
 7235SOL     OW33166   0.612   1.797   3.476  0.3132  0.7296  0.3493
 7235SOL    HW133167   0.545   1.788   3.408  0.5342  1.0723  0.0879
 7235SOL    HW233168   0.615   1.707   3.510  0.5359  0.3457 -0.6967
 7236SOL     OW33169   1.499   2.156   8.064  0.2656  0.4560 -0.2188
 7236SOL    HW133170   1.532   2.151   8.154 -1.7324 -0.2987  0.4550
 7236SOL    HW233171   1.475   2.066   8.043  2.0214 -0.6832  2.7412
 7237SOL     OW33172   2.618   2.860   5.724  0.2114 -0.0001  0.2098
 7237SOL    HW133173   2.711   2.870   5.701  0.3168 -1.6544 -0.0742
 7237SOL    HW233174   2.611   2.765   5.720 -2.5909  0.2774 -1.0935
 7238SOL     OW33175   1.177   4.215   2.789 -0.0135  0.1345  0.0612
 7238SOL    HW133176   1.095   4.200   2.742  0.7055 -0.0938 -1.1037
 7238SOL    HW233177   1.179   4.310   2.797  0.6285  0.2253 -1.2229
 7239SOL     OW33178   4.234   0.478   2.767 -0.2941 -0.0121 -0.6622
 7239SOL    HW133179   4.262   0.484   2.676 -1.3811  1.8302 -0.8739
 7239SOL    HW233180   4.184   0.559   2.771 -0.1930 -0.0844  2.3665
 7240SOL     OW33181   4.549   0.996  16.366 -0.1242 -0.2926 -0.3055
 7240SOL    HW133182   4.466   0.949  16.375  0.4819 -0.9334  1.9169
 7240SOL    HW233183   4.605   0.920  16.380  0.3273  0.0670 -0.1681
 7241SOL     OW33184   0.887   2.130   6.869 -0.0800 -0.3403 -0.1609
 7241SOL    HW133185   0.827   2.089   6.806 -1.4047  0.2046  0.7282
 7241SOL    HW233186   0.827   2.121   6.943 -0.0004  0.1269 -0.0396
 7242SOL     OW33187   4.537   3.312   5.244  0.5109 -0.2469 -0.0095
 7242SOL    HW133188   4.588   3.244   5.200 -0.0984 -1.1901  0.7406
 7242SOL    HW233189   4.485   3.263   5.308 -0.4701  0.2785 -0.4069
 7243SOL     OW33190   2.160   0.888   5.786  0.2934 -0.2361  0.0842
 7243SOL    HW133191   2.241   0.867   5.740  1.8555  2.7401  1.4751
 7243SOL    HW233192   2.179   0.864   5.877 -1.1474  0.0588  0.4603
 7244SOL     OW33193   1.317   2.128   6.878 -0.1652  0.2904  0.0423
 7244SOL    HW133194   1.395   2.176   6.906 -0.3202  0.9396 -0.6267
 7244SOL    HW233195   1.281   2.187   6.812 -0.2212 -0.7165 -0.8320
 7245SOL     OW33196   0.339   0.718   0.830 -0.6438 -0.4412 -0.0445
 7245SOL    HW133197   0.398   0.647   0.855  1.2143  1.5462  1.2432
 7245SOL    HW233198   0.376   0.728   0.742 -3.2950  1.2482 -0.9784
 7246SOL     OW33199   2.466   4.701   3.837 -0.0512  0.3569 -0.0319
 7246SOL    HW133200   2.549   4.664   3.807  0.7565  2.2263 -0.1403
 7246SOL    HW233201   2.488   0.044   3.905  0.0413  0.2827  0.0073
 7247SOL     OW33202   1.004   0.417   7.481  0.5006  0.0808 -0.1948
 7247SOL    HW133203   1.025   0.487   7.419  1.5085 -0.8975 -0.9481
 7247SOL    HW233204   0.984   0.473   7.557 -2.0767 -1.2978  0.1318
 7248SOL     OW33205   1.865   2.770  11.990  0.2388  0.3272 -0.6074
 7248SOL    HW133206   1.952   2.745  12.024 -0.5324  0.4896  1.5024
 7248SOL    HW233207   1.844   2.692  11.939  1.1618 -0.0065 -0.4860
 7249SOL     OW33208   4.233   0.394  11.853  0.1686  0.1165 -0.3276
 7249SOL    HW133209   4.209   0.465  11.793  1.7212 -0.6406 -1.8532
 7249SOL    HW233210   4.325   0.408  11.874 -0.0037  1.2836 -0.3318
 7250SOL     OW33211   1.719   3.220   5.632  0.1521 -0.4396 -0.3053
 7250SOL    HW133212   1.733   3.136   5.587  0.0428 -0.1415 -0.8980
 7250SOL    HW233213   1.788   3.268   5.585 -0.4907  0.8542  0.0990
 7251SOL     OW33214   3.875   4.345   8.442 -0.3000 -0.2901  0.3420
 7251SOL    HW133215   3.823   4.426   8.441  0.8768  0.5050  2.3853
 7251SOL    HW233216   3.852   4.308   8.527  0.1181  0.8113  0.9380
 7252SOL     OW33217   3.823   0.861   2.010 -0.4916  0.0137  0.2228
 7252SOL    HW133218   3.805   0.952   1.984  2.4044  0.3579 -0.4917
 7252SOL    HW233219   3.792   0.823   1.928  4.5935  0.0420 -1.6554
 7253SOL     OW33220   3.924   1.092   7.687  0.2925 -0.5771  0.1552
 7253SOL    HW133221   3.932   1.176   7.732 -0.7348  1.1560 -2.8648
 7253SOL    HW233222   3.854   1.049   7.737  1.6949 -1.7541  1.0832
 7254SOL     OW33223   1.840   3.000   2.656 -0.2839 -0.1120 -0.0202
 7254SOL    HW133224   1.846   2.980   2.562  0.0321  1.5233 -0.3454
 7254SOL    HW233225   1.867   3.091   2.667 -0.5346  0.0171 -0.4525
 7255SOL     OW33226   4.478   0.818   5.959 -0.7468  0.0000  0.9736
 7255SOL    HW133227   4.448   0.885   5.897 -0.1466 -2.3126 -1.8078
 7255SOL    HW233228   4.498   0.875   6.033  0.9624  0.3707  0.2166
 7256SOL     OW33229   1.452   3.017   4.568  0.2909  0.4654  0.1033
 7256SOL    HW133230   1.358   3.009   4.584  0.3611  1.2772  0.9464
 7256SOL    HW233231   1.480   3.040   4.657 -2.3804 -0.2420  1.1164
 7257SOL     OW33232   2.405   1.111  11.299 -0.1361 -0.0114 -0.6889
 7257SOL    HW133233   2.490   1.150  11.278  1.2254 -1.3143  2.3986
 7257SOL    HW233234   2.416   1.081  11.389 -2.4379  3.6191  0.8212
 7258SOL     OW33235   1.788   0.723   3.749 -0.2862 -0.4115 -0.4470
 7258SOL    HW133236   1.729   0.648   3.761 -3.1789  2.1010  1.1531
 7258SOL    HW233237   1.859   0.676   3.793  0.0470  0.8198  0.3332
 7259SOL     OW33238   2.255   4.219   7.298  0.4121 -0.4047 -0.2296
 7259SOL    HW133239   2.259   4.299   7.246  2.0711 -0.1784  0.2483
 7259SOL    HW233240   2.227   4.265   7.377 -1.0267 -0.1557 -0.8824
 7260SOL     OW33241   2.048   2.819   4.772  0.1949 -0.3360 -0.3852
 7260SOL    HW133242   2.128   2.872   4.774  0.4612 -0.7511 -0.0053
 7260SOL    HW233243   2.079   2.752   4.833  1.4051  0.9343  0.3836
 7261SOL     OW33244   3.157   2.105   8.683  0.8810 -0.4403  0.2767
 7261SOL    HW133245   3.119   2.098   8.595  0.7434 -1.4307  0.4167
 7261SOL    HW233246   3.129   2.186   8.724 -1.5297 -0.1251 -1.9893
 7262SOL     OW33247   3.471   2.320  11.351 -0.2511  0.2934  0.6839
 7262SOL    HW133248   3.424   2.245  11.388  2.2883 -1.6501 -0.0428
 7262SOL    HW233249   3.484   2.305  11.257  0.4950  0.1229  0.8184
 7263SOL     OW33250   1.719   1.559  10.323  0.2365 -0.6183  0.6192
 7263SOL    HW133251   1.634   1.528  10.293 -0.0213  1.4304 -0.7183
 7263SOL    HW233252   1.695   1.645  10.357 -2.0096 -0.4070 -1.5606
 7264SOL     OW33253   4.379   0.143   4.642 -0.2512 -0.4457  0.2986
 7264SOL    HW133254   4.309   0.199   4.678  0.5953  0.8334 -0.0316
 7264SOL    HW233255   4.409   0.189   4.564  0.2547 -2.1372 -0.4947
 7265SOL     OW33256   0.935   2.996   7.829 -0.0268  0.1694 -1.1141
 7265SOL    HW133257   0.932   2.906   7.862 -0.9127  1.2496  1.7650
 7265SOL    HW233258   1.028   3.004   7.808 -0.1138 -1.1530 -2.0295
 7266SOL     OW33259   2.360   2.298   3.866 -0.3547 -0.0807  0.5312
 7266SOL    HW133260   2.431   2.272   3.807  1.4160  1.0578  2.1796
 7266SOL    HW233261   2.338   2.373   3.810  1.9194  0.8490  0.8943
 7267SOL     OW33262   1.549   4.140   5.362  0.2540  0.3512  0.3260
 7267SOL    HW133263   1.560   4.195   5.439 -3.0655 -1.8184  2.3235
 7267SOL    HW233264   1.579   4.055   5.394 -0.6396  0.0046  0.2218
 7268SOL     OW33265   3.521   4.577   5.115  0.1427  0.0780  0.1478
 7268SOL    HW133266   3.518   4.669   5.139  0.1723  0.0934  0.0935
 7268SOL    HW233267   3.449   4.544   5.168  1.1604 -0.6226  1.0795
 7269SOL     OW33268   1.564   3.192  11.620 -0.1603 -0.2443  0.3371
 7269SOL    HW133269   1.629   3.245  11.664 -1.9909  2.7116 -0.5342
 7269SOL    HW233270   1.509   3.169  11.695  0.0638 -1.5908  0.0928
 7270SOL     OW33271   1.878   4.476   1.914  0.8494 -0.1023  0.5520
 7270SOL    HW133272   1.858   4.485   2.007  1.4627  1.7983  0.5072
 7270SOL    HW233273   1.958   4.424   1.923  2.7223  3.4339  4.3874
 7271SOL     OW33274   1.965   0.131  15.328 -0.1841  0.1147 -0.1775
 7271SOL    HW133275   2.002   0.189  15.394 -0.5747  0.8607 -0.6196
 7271SOL    HW233276   1.873   0.149  15.346 -0.2142  1.9620 -2.2140
 7272SOL     OW33277   2.824   3.659  10.373  0.0687 -0.0654 -0.3420
 7272SOL    HW133278   2.870   3.727  10.324 -0.5538  1.2032  0.8595
 7272SOL    HW233279   2.761   3.714  10.420 -1.3446 -1.7169 -0.2964
 7273SOL     OW33280   3.095   0.415   7.814  0.5891 -0.6773 -0.1337
 7273SOL    HW133281   3.186   0.437   7.835  1.0401 -3.1323  0.5375
 7273SOL    HW233282   3.092   0.327   7.852  0.3035 -0.2297  0.8612
 7274SOL     OW33283   2.025   0.459  12.913  0.1859 -0.0395  0.3093
 7274SOL    HW133284   2.106   0.410  12.900 -0.0778  0.6966 -3.9964
 7274SOL    HW233285   2.024   0.498  12.826 -1.2408  1.2248  0.8836
 7275SOL     OW33286   4.296   0.071  17.173 -0.3641  0.0996 -0.1824
 7275SOL    HW133287   4.218   0.091  17.225  0.5153 -1.3295  1.6820
 7275SOL    HW233288   4.372   0.071  17.232 -2.0271  0.3048  1.9408
 7276SOL     OW33289   1.579   1.324   1.891  0.8521  0.5437  1.2991
 7276SOL    HW133290   1.594   1.263   1.818  2.4182  1.8111  0.5603
 7276SOL    HW233291   1.496   1.287   1.919  2.2074 -1.5345  2.5600
 7277SOL     OW33292   3.457   2.982  17.329 -0.4111 -0.5245 -0.0440
 7277SOL    HW133293   3.416   2.929  17.260 -0.1384 -0.8483  0.0442
 7277SOL    HW233294   3.428   3.072  17.312  0.5033 -0.5530 -1.7603
 7278SOL     OW33295   2.719   0.691   6.992  0.4518  0.4033 -0.5305
 7278SOL    HW133296   2.723   0.620   7.055  0.6773 -1.0192 -2.1573
 7278SOL    HW233297   2.739   0.645   6.910 -2.0031 -1.6292  0.0041
 7279SOL     OW33298   1.076   4.414   4.405 -0.2728 -0.1258  0.6275
 7279SOL    HW133299   1.152   4.358   4.396 -0.5935 -0.0915 -2.2544
 7279SOL    HW233300   1.105   4.502   4.431 -0.0852  0.2486 -0.8865
 7280SOL     OW33301   3.619   3.591   3.582 -0.3183 -0.4562  0.3011
 7280SOL    HW133302   3.530   3.622   3.568 -0.6320 -1.0789  0.8903
 7280SOL    HW233303   3.609   3.579   3.676  0.4917 -4.3947 -0.0976
 7281SOL     OW33304   2.501   2.204   9.882 -0.4172  0.0677 -0.4243
 7281SOL    HW133305   2.420   2.227   9.927  0.1584 -0.0152  0.6674
 7281SOL    HW233306   2.487   2.247   9.798 -1.0771  0.7824  0.0528
 7282SOL     OW33307   4.683   2.143  11.905  0.0735  0.7300  0.1142
 7282SOL    HW133308   4.590   2.121  11.909  0.0896  0.8098  0.9602
 7282SOL    HW233309   0.005   2.076  11.957 -1.0241  0.2278  0.3833
 7283SOL     OW33310   1.039   3.882  12.143 -0.3163  0.5599  0.0931
 7283SOL    HW133311   1.079   3.890  12.057 -0.7409  0.6599 -0.0985
 7283SOL    HW233312   0.950   3.863  12.112 -0.1756 -0.1809  0.1548
 7284SOL     OW33313   3.533   3.536   8.653  0.2079 -0.1594  0.4830
 7284SOL    HW133314   3.582   3.529   8.735  3.0991  0.5677 -1.1982
 7284SOL    HW233315   3.574   3.618   8.625  2.0847 -0.7454  1.5056
 7285SOL     OW33316   3.798   0.585  11.403  0.1211 -0.0866  0.0278
 7285SOL    HW133317   3.775   0.592  11.311 -4.0432  0.4537  1.1184
 7285SOL    HW233318   3.713   0.565  11.443  0.0312  1.3349  0.5470
 7286SOL     OW33319   1.029   3.613   1.674  0.1358 -0.0897 -0.0263
 7286SOL    HW133320   1.064   3.570   1.752  0.7691  1.1743  0.3782
 7286SOL    HW233321   1.008   3.538   1.619 -1.2457  1.0336 -1.0522
 7287SOL     OW33322   3.061   2.861  16.581 -0.5885  0.0608  0.2044
 7287SOL    HW133323   2.985   2.893  16.533 -0.6453 -1.6441 -0.8262
 7287SOL    HW233324   3.098   2.797  16.520 -0.4972 -2.1052  2.5013
 7288SOL     OW33325   3.740   4.305  15.820  0.0480  0.3211 -0.1277
 7288SOL    HW133326   3.806   4.257  15.771  2.3689  1.3709  1.9695
 7288SOL    HW233327   3.777   4.305  15.908 -0.2674  1.6492  0.0087
 7289SOL     OW33328   1.951   4.140   9.922  0.1777  0.1480 -0.4423
 7289SOL    HW133329   2.032   4.190   9.931  0.5305 -0.6392  0.7640
 7289SOL    HW233330   1.933   4.137   9.829  0.3197  2.0697 -0.5316
 7290SOL     OW33331   3.528   3.723   7.197 -0.0433 -0.3530  0.1960
 7290SOL    HW133332   3.476   3.650   7.163 -1.6508 -0.2517  2.4473
 7290SOL    HW233333   3.519   3.783   7.123 -0.5596 -0.8945 -0.1790
 7291SOL     OW33334   1.761   0.904   4.960  0.0971  0.8809 -0.3670
 7291SOL    HW133335   1.745   0.901   5.055 -1.8386 -0.3328 -0.7283
 7291SOL    HW233336   1.744   0.992   4.928 -4.7371  0.3550  0.6777
 7292SOL     OW33337   0.030   2.125   9.803  0.1040  0.1252  0.1984
 7292SOL    HW133338   4.662   2.090   9.791 -0.2794  1.3110 -0.3905
 7292SOL    HW233339   0.025   2.217   9.779  1.0131 -0.5517 -2.5905
 7293SOL     OW33340   2.012   0.540   6.797  0.1388 -0.4861 -0.5193
 7293SOL    HW133341   2.076   0.559   6.866  0.0843  1.6938 -1.0924
 7293SOL    HW233342   2.025   0.612   6.736  0.3006  2.2701  2.7264
 7294SOL     OW33343   2.781   0.201   3.474 -0.2685  0.2464 -0.5997
 7294SOL    HW133344   2.852   0.149   3.511  2.1813  2.6943 -1.9011
 7294SOL    HW233345   2.775   0.272   3.538  1.5805 -0.1289 -0.0177
 7295SOL     OW33346   2.468   1.082   0.867 -0.5507 -0.3749 -0.4834
 7295SOL    HW133347   2.518   1.154   0.828  1.7174 -1.1064  1.0546
 7295SOL    HW233348   2.527   1.011   0.840 -1.3379 -1.3105  0.2417
 7296SOL     OW33349   1.534   2.855   4.341 -0.3442  0.1825  0.1318
 7296SOL    HW133350   1.551   2.914   4.266 -0.6684  0.9484  0.6636
 7296SOL    HW233351   1.534   2.910   4.419  0.3928  0.1895  0.1335
 7297SOL     OW33352   4.338   1.522  17.634 -0.5670  0.2785  0.3797
 7297SOL    HW133353   4.401   1.473   0.000 -1.9634 -0.1149  1.7227
 7297SOL    HW233354   4.314   1.451  17.575  2.6157  1.0280 -1.8108
 7298SOL     OW33355   2.175   0.493   1.871  0.4425 -0.4757  0.1594
 7298SOL    HW133356   2.179   0.545   1.791  0.9967 -1.2302 -0.2986
 7298SOL    HW233357   2.186   0.560   1.939 -0.6636 -0.4913  0.3645
 7299SOL     OW33358   4.281   4.272   1.682  0.7898 -0.0661 -0.0107
 7299SOL    HW133359   4.226   4.218   1.739  1.6667 -2.3079 -1.2869
 7299SOL    HW233360   4.357   4.290   1.736  0.9053 -0.4204 -0.0540
 7300SOL     OW33361   0.180   2.078  16.007  0.3710  0.4453  0.0385
 7300SOL    HW133362   0.206   1.990  16.033 -0.4448  0.1488 -0.1480
 7300SOL    HW233363   0.265   2.110  15.978  0.8885 -0.0781  0.9562
 7301SOL     OW33364   1.845   4.100   6.392  0.1277  0.3658 -0.2790
 7301SOL    HW133365   1.852   4.025   6.334  0.4389 -0.7020  1.1392
 7301SOL    HW233366   1.922   4.091   6.449 -0.9906 -0.1828  1.1638
 7302SOL     OW33367   2.444   2.118   2.941 -0.1187  0.1954 -0.2087
 7302SOL    HW133368   2.349   2.114   2.953 -0.1069  1.9812  0.3758
 7302SOL    HW233369   2.460   2.059   2.867  2.3352  0.7151 -0.0814
 7303SOL     OW33370   0.626   3.509  13.509  0.1233 -0.2681 -0.0298
 7303SOL    HW133371   0.541   3.488  13.548 -0.9831  4.4318  0.1688
 7303SOL    HW233372   0.603   3.541  13.421  2.4538  0.4981 -0.3673
 7304SOL     OW33373   4.385   0.335  17.048 -0.1331  0.7189  0.3964
 7304SOL    HW133374   4.378   0.240  17.063  0.1200  0.4025 -1.4937
 7304SOL    HW233375   4.440   0.351  17.125 -1.1293  1.1604  1.0151
 7305SOL     OW33376   4.240   3.331  10.680  0.2835 -0.1084  0.3631
 7305SOL    HW133377   4.264   3.246  10.642 -1.5674 -0.5661  0.2043
 7305SOL    HW233378   4.291   3.384  10.619  0.4265  0.6308  1.1304
 7306SOL     OW33379   2.320   0.241   7.221 -0.0552  0.4960 -0.3100
 7306SOL    HW133380   2.395   0.198   7.262 -0.4734  1.2731  1.2531
 7306SOL    HW233381   2.359   0.240   7.134  0.8177  2.1550  0.0721
 7307SOL     OW33382   4.087   2.722  15.647  0.4954  0.0590  1.3112
 7307SOL    HW133383   4.174   2.739  15.684  0.0025  0.1465  2.4296
 7307SOL    HW233384   4.095   2.626  15.643  2.6749  0.1788  2.4433
 7308SOL     OW33385   1.382   2.338  12.366 -0.4511  0.4230 -0.2698
 7308SOL    HW133386   1.326   2.298  12.300 -1.2112  0.3391  0.4206
 7308SOL    HW233387   1.318   2.360  12.434  0.5277  0.6601  0.5805
 7309SOL     OW33388   2.622   1.388   3.465 -0.0116 -0.0810  0.2104
 7309SOL    HW133389   2.567   1.447   3.414 -1.1431  0.2927  1.8644
 7309SOL    HW233390   2.581   1.304   3.443  0.5091 -0.7045  1.6500
 7310SOL     OW33391   1.590   0.432  12.019  0.0866  0.1132  0.3104
 7310SOL    HW133392   1.635   0.403  12.099  0.0869  0.1608  0.3272
 7310SOL    HW233393   1.603   0.527  12.013 -0.6347  0.1785 -0.1190
 7311SOL     OW33394   4.390   3.174   9.435 -0.0876 -0.4868 -0.1821
 7311SOL    HW133395   4.365   3.131   9.353  2.4166  0.9672 -1.7077
 7311SOL    HW233396   4.413   3.263   9.409 -0.3531 -0.7376 -1.2725
 7312SOL     OW33397   4.657   2.716   7.779  0.4641  0.1682 -0.0986
 7312SOL    HW133398   4.564   2.726   7.756  0.5827  1.1706 -0.1491
 7312SOL    HW233399   4.656   2.709   7.874  1.5635 -1.7348 -0.2404
 7313SOL     OW33400   0.227   4.338   8.476  0.1108  0.2801  0.1674
 7313SOL    HW133401   0.199   4.248   8.493 -0.4943  0.4081 -0.1333
 7313SOL    HW233402   0.151   4.371   8.428  2.4122  1.9480 -2.3076
 7314SOL     OW33403   0.779   0.221   1.829  0.0548 -0.3365 -0.2768
 7314SOL    HW133404   0.721   0.210   1.904 -1.4599 -0.5386 -1.4485
 7314SOL    HW233405   0.813   0.132   1.821  0.8590  0.1198 -1.9812
 7315SOL     OW33406   2.469   0.453   7.062 -0.2836  0.0015 -0.2776
 7315SOL    HW133407   2.555   0.489   7.084 -0.0460 -0.7122 -0.0240
 7315SOL    HW233408   2.485   0.399   6.985  2.2657 -0.1847  0.3798
 7316SOL     OW33409   2.482   3.192   4.820  0.1483  0.2334 -0.0803
 7316SOL    HW133410   2.562   3.244   4.824  1.0625 -1.3388  2.0002
 7316SOL    HW233411   2.446   3.215   4.906 -1.2762  2.4937 -1.2770
 7317SOL     OW33412   3.480   3.331   1.775 -0.6124  0.4642  0.2718
 7317SOL    HW133413   3.514   3.317   1.686  1.2403 -0.1266  1.0579
 7317SOL    HW233414   3.481   3.249   1.823  0.9422 -0.4194 -1.2599
 7318SOL     OW33415   0.496   4.246   8.228  0.0913  0.8359  0.1015
 7318SOL    HW133416   0.401   4.239   8.227  0.3846 -2.9591 -1.3334
 7318SOL    HW233417   0.514   4.153   8.244 -1.5604  0.9267  2.4621
 7319SOL     OW33418   3.989   3.406  17.126  0.4218 -0.2605 -0.1040
 7319SOL    HW133419   3.974   3.322  17.171 -0.9843 -0.2598 -0.5808
 7319SOL    HW233420   3.904   3.444  17.148  1.0150  0.4251  1.0122
 7320SOL     OW33421   3.526   2.543   7.808  0.0901  0.8689  0.2690
 7320SOL    HW133422   3.545   2.546   7.901 -1.0285  1.6692  0.4813
 7320SOL    HW233423   3.430   2.546   7.809  0.0530  0.0637 -0.8097
 7321SOL     OW33424   0.986   0.221   8.493  0.3925 -0.2313 -0.2067
 7321SOL    HW133425   1.045   0.262   8.557 -0.5613  0.3055  0.3273
 7321SOL    HW233426   0.902   0.247   8.530  0.6700  1.5256 -0.7797
 7322SOL     OW33427   3.794   4.715   6.956  0.1382 -0.1814  0.0181
 7322SOL    HW133428   3.828   4.664   6.883  1.2342 -1.8127  1.6889
 7322SOL    HW233429   3.715   4.664   6.975 -0.2422  0.2248 -0.4600
 7323SOL     OW33430   0.843   3.443   5.909  0.4851 -0.2240  0.1184
 7323SOL    HW133431   0.755   3.459   5.875  0.0681  0.3873  1.4787
 7323SOL    HW233432   0.888   3.519   5.872 -0.3536  0.3955  0.3621
 7324SOL     OW33433   1.556   1.505  14.708 -0.3275 -0.6155  0.1941
 7324SOL    HW133434   1.571   1.411  14.705  5.2968  0.3246 -2.4299
 7324SOL    HW233435   1.482   1.519  14.648 -0.7294 -0.4568  0.7286
 7325SOL     OW33436   1.041   3.528   2.461  0.5954 -0.9380  0.9527
 7325SOL    HW133437   0.950   3.557   2.451  1.3701  1.4066  0.7023
 7325SOL    HW233438   1.060   3.584   2.536 -0.9870 -2.0674  2.1868
 7326SOL     OW33439   0.711   3.576   8.007 -0.3669  0.0214 -0.2141
 7326SOL    HW133440   0.707   3.527   7.925  0.3422 -0.7366  0.2079
 7326SOL    HW233441   0.743   3.508   8.065  0.9469 -0.5679 -1.6618
 7327SOL     OW33442   4.338   3.527   8.171 -0.4709 -0.4101 -0.7677
 7327SOL    HW133443   4.346   3.611   8.216  0.7043 -0.3851 -1.0250
 7327SOL    HW233444   4.246   3.522   8.145 -0.5988 -1.9920 -0.0114
 7328SOL     OW33445   3.163   3.509   1.023 -0.0033  0.6369 -0.1729
 7328SOL    HW133446   3.145   3.420   0.991 -1.1642  0.5413  0.7368
 7328SOL    HW233447   3.091   3.553   0.978  1.3742  0.8196 -2.2216
 7329SOL     OW33448   0.907   4.204   4.851 -0.2122 -0.2195 -0.0444
 7329SOL    HW133449   0.947   4.127   4.892  0.6871 -0.3398 -1.1327
 7329SOL    HW233450   0.989   4.253   4.862 -0.7508  0.5720  0.4658
 7330SOL     OW33451   0.386   3.943   7.504  0.4351  0.0766 -0.4205
 7330SOL    HW133452   0.477   3.949   7.532  1.1786 -0.5919 -2.6685
 7330SOL    HW233453   0.392   3.875   7.437 -2.6063 -0.5354 -0.0735
 7331SOL     OW33454   1.451   2.761   4.028 -0.2964  0.1143 -0.1386
 7331SOL    HW133455   1.543   2.788   4.026 -0.0343 -0.9457 -3.5220
 7331SOL    HW233456   1.405   2.839   4.058  0.1868  0.5860 -0.6041
 7332SOL     OW33457   1.601   1.963  10.585 -0.1195  0.5845 -0.2369
 7332SOL    HW133458   1.631   1.928  10.501 -0.4741  1.3181 -0.6706
 7332SOL    HW233459   1.534   1.898  10.606 -0.8210  1.4001  0.0315
 7333SOL     OW33460   2.235   2.273  13.501 -0.1570  0.4813 -0.2451
 7333SOL    HW133461   2.144   2.285  13.529 -0.2113  2.1885 -1.1570
 7333SOL    HW233462   2.274   2.352  13.537  0.4543 -0.9030  2.1329
 7334SOL     OW33463   1.893   2.343  17.672 -0.2092  0.3617  0.2264
 7334SOL    HW133464   1.874   2.329   0.079  0.5752 -0.9022  0.2030
 7334SOL    HW233465   1.965   2.406  17.679 -0.4976  0.6884  0.2694
 7335SOL     OW33466   2.599   0.425   9.264 -0.1239 -0.0176  0.1138
 7335SOL    HW133467   2.622   0.333   9.275  0.1678  0.3416  2.5401
 7335SOL    HW233468   2.667   0.468   9.212 -1.7098  3.5207  0.9344
 7336SOL     OW33469   1.513   0.663   6.208 -0.2568 -0.1305 -0.6819
 7336SOL    HW133470   1.493   0.757   6.203  1.8780  0.3525 -0.1865
 7336SOL    HW233471   1.588   0.656   6.149  0.5691  1.2292  0.1854
 7337SOL     OW33472   1.664   1.346   8.577  0.1038  0.3163 -0.7146
 7337SOL    HW133473   1.639   1.254   8.587  0.3188 -0.0216 -3.2390
 7337SOL    HW233474   1.748   1.338   8.532  0.3083 -0.6182 -0.1665
 7338SOL     OW33475   2.062   3.465   2.856 -0.0239 -0.8129  0.0139
 7338SOL    HW133476   2.082   3.479   2.949 -0.3107 -0.7552  0.0670
 7338SOL    HW233477   2.152   3.474   2.825 -0.2376  0.7408 -0.1617
 7339SOL     OW33478   1.553   3.661   6.613 -0.5932 -0.1011 -0.2727
 7339SOL    HW133479   1.496   3.584   6.605  1.6256 -1.4274 -3.1645
 7339SOL    HW233480   1.527   3.705   6.533 -0.9729 -0.1634 -0.1854
 7340SOL     OW33481   4.132   3.748  12.615 -0.1328  0.8935 -0.1008
 7340SOL    HW133482   4.187   3.676  12.584 -0.4998  0.7011 -0.3034
 7340SOL    HW233483   4.045   3.709  12.622  0.8401 -1.5060 -1.5184
 7341SOL     OW33484   0.479   2.369   1.534 -0.6190 -0.1914  0.4007
 7341SOL    HW133485   0.565   2.410   1.550  0.2776 -1.9203  0.0031
 7341SOL    HW233486   0.469   2.404   1.446 -0.4181  0.0342  0.4655
 7342SOL     OW33487   0.455   1.597   5.444 -0.2723 -0.1081 -0.3159
 7342SOL    HW133488   0.406   1.666   5.489  0.6389  1.2431 -1.3976
 7342SOL    HW233489   0.395   1.523   5.450 -0.8218  0.3517 -0.1683
 7343SOL     OW33490   0.227   3.057   7.490 -0.1582  0.0551 -0.2906
 7343SOL    HW133491   0.132   3.068   7.487  0.2570  3.9279  0.4098
 7343SOL    HW233492   0.254   3.149   7.487  1.8225 -0.5242 -0.2783
 7344SOL     OW33493   0.369   3.883   5.667  0.2911 -0.2597 -0.2296
 7344SOL    HW133494   0.453   3.836   5.670 -0.9841 -2.3732  2.4102
 7344SOL    HW233495   0.314   3.806   5.650 -0.2438  0.2372 -0.7259
 7345SOL     OW33496   3.704   3.563   5.789 -0.3892  0.3199  0.2353
 7345SOL    HW133497   3.747   3.478   5.781 -0.2192  0.3115  1.2125
 7345SOL    HW233498   3.612   3.537   5.794 -0.4602  0.5057 -0.1167
 7346SOL     OW33499   1.057   1.571   3.179 -0.1534 -0.3779  0.3824
 7346SOL    HW133500   1.098   1.636   3.237  0.6676 -1.6054  1.1989
 7346SOL    HW233501   1.070   1.494   3.234  1.5999  0.1092  0.6662
 7347SOL     OW33502   2.186   3.576  17.138 -0.3972  0.1481  0.6600
 7347SOL    HW133503   2.149   3.490  17.155 -0.6960 -0.2263 -1.9217
 7347SOL    HW233504   2.146   3.635  17.203 -0.3761  0.0698  0.7433
 7348SOL     OW33505   2.070   0.923   4.396  0.4376  0.0458 -0.2969
 7348SOL    HW133506   2.044   0.902   4.306 -1.2828  1.2599 -0.0758
 7348SOL    HW233507   2.098   1.015   4.396  2.1951 -0.4803 -0.7201
 7349SOL     OW33508   1.390   1.672   6.095  0.0439  0.5168  0.1134
 7349SOL    HW133509   1.342   1.713   6.167  1.0661  0.2040  0.9608
 7349SOL    HW233510   1.319   1.652   6.034 -0.4077  1.1742  0.4237
 7350SOL     OW33511   2.284   3.687  17.368 -0.6744  0.0657 -0.5610
 7350SOL    HW133512   2.316   3.777  17.376  0.9458 -0.3306 -2.6256
 7350SOL    HW233513   2.243   3.676  17.454  1.1631  3.8638  0.7495
 7351SOL     OW33514   4.578   0.656   3.588 -0.3986  0.3968  0.3592
 7351SOL    HW133515   4.525   0.595   3.537 -1.9307  0.0664  2.3335
 7351SOL    HW233516   4.650   0.662   3.525  1.0355  1.6681  2.1296
 7352SOL     OW33517   1.085   1.805   5.571 -0.3309  0.4718 -0.1253
 7352SOL    HW133518   1.018   1.833   5.508 -0.0211 -2.2687 -1.6487
 7352SOL    HW233519   1.147   1.758   5.514 -0.1151  2.5714 -1.6305
 7353SOL     OW33520   0.492   1.584   9.899  0.1570  0.3451  0.1862
 7353SOL    HW133521   0.456   1.495   9.890  2.0511 -0.3785 -0.1834
 7353SOL    HW233522   0.543   1.599   9.819  1.7977  0.0066  1.1832
 7354SOL     OW33523   1.096   1.665   2.478  0.0139 -0.1046  0.0551
 7354SOL    HW133524   1.158   1.649   2.407 -1.2126  1.0981 -1.2855
 7354SOL    HW233525   1.111   1.589   2.534  3.1251  1.6094  1.5617
 7355SOL     OW33526   4.011   4.509   9.859  0.7039 -0.0249 -0.2776
 7355SOL    HW133527   4.020   4.580   9.922  1.9164 -0.7919  0.4119
 7355SOL    HW233528   3.944   4.460   9.906  1.6141 -0.8814  0.1280
 7356SOL     OW33529   4.586   3.094   2.524  0.1966  0.1882  0.2100
 7356SOL    HW133530   4.578   3.022   2.586  1.2353  0.3060  0.4732
 7356SOL    HW233531   4.525   3.057   2.460 -0.6464 -0.9541  1.6747
 7357SOL     OW33532   3.151   2.417   4.447  0.2913  0.1536  0.1849
 7357SOL    HW133533   3.057   2.397   4.447  0.1149  0.9492  1.3695
 7357SOL    HW233534   3.165   2.495   4.501 -0.2780 -0.1553  0.7845
 7358SOL     OW33535   3.102   2.563   7.947 -0.1305  0.2587  0.3993
 7358SOL    HW133536   3.096   2.471   7.973  1.8960  0.1385  0.3987
 7358SOL    HW233537   3.165   2.562   7.875 -1.1309  0.8403 -0.4898
 7359SOL     OW33538   0.063   3.752   1.744 -0.1448 -0.0992  0.0090
 7359SOL    HW133539   0.027   3.783   1.661 -2.6838 -1.6723  0.5503
 7359SOL    HW233540   4.710   3.722   1.796 -0.1981 -0.8365 -0.4986
 7360SOL     OW33541   4.282   3.756   0.453 -0.0599  0.3544 -0.8155
 7360SOL    HW133542   4.290   3.743   0.547  1.3580 -1.5863 -1.1893
 7360SOL    HW233543   4.275   3.851   0.445 -2.6188  0.2395  0.3375
 7361SOL     OW33544   1.180   4.613   1.982  0.4062  0.3224  0.5464
 7361SOL    HW133545   1.245   4.543   1.989  1.3069  1.1579  0.4973
 7361SOL    HW233546   1.183   4.659   2.066  0.2120  2.6240 -0.6994
 7362SOL     OW33547   4.183   3.928   3.335  0.0763 -0.2741  0.1169
 7362SOL    HW133548   4.098   3.907   3.296 -0.0173  1.0690 -0.3959
 7362SOL    HW233549   4.157   3.992   3.401 -1.2216 -0.9676  0.2754
 7363SOL     OW33550   0.861   3.396   4.150  0.8207  0.1340 -0.0320
 7363SOL    HW133551   0.785   3.445   4.116  0.2908 -0.5904  0.0924
 7363SOL    HW233552   0.932   3.460   4.149  2.0667 -1.2463  0.9287
 7364SOL     OW33553   3.539   0.020  13.121 -0.2779  0.4954  0.6852
 7364SOL    HW133554   3.590   0.045  13.045  1.7417  0.5403  2.0592
 7364SOL    HW233555   3.591   0.039  13.199  0.5922  0.3705  0.1309
 7365SOL     OW33556   2.975   0.940   4.566  0.2796 -0.7214  0.2116
 7365SOL    HW133557   2.880   0.931   4.573  0.2570 -0.2099  0.5943
 7365SOL    HW233558   3.003   0.853   4.540 -1.3947 -0.6888 -1.7473
 7366SOL     OW33559   3.080   2.301   0.423  0.1107 -0.3789 -0.2540
 7366SOL    HW133560   3.086   2.396   0.432 -0.4436 -0.4535  0.9144
 7366SOL    HW233561   3.005   2.289   0.366 -0.1818  0.3901 -0.0271
 7367SOL     OW33562   1.007   3.617   7.087  0.2929 -0.4002  0.2118
 7367SOL    HW133563   0.957   3.692   7.054 -1.4711 -1.7345 -0.1554
 7367SOL    HW233564   0.958   3.610   7.168  1.4233 -1.9423  0.7702
 7368SOL     OW33565   2.822   3.712   2.713  0.4233 -0.3610  0.5518
 7368SOL    HW133566   2.768   3.636   2.735 -0.3312 -0.5219 -1.8987
 7368SOL    HW233567   2.763   3.769   2.665  0.6639  0.5740  1.3758
 7369SOL     OW33568   4.259   2.263   8.985 -0.0407  0.1580 -0.4202
 7369SOL    HW133569   4.343   2.308   8.990 -0.6899  1.1714  1.3112
 7369SOL    HW233570   4.209   2.342   8.968  1.6427  1.6865  1.7171
 7370SOL     OW33571   2.239   3.089   4.095 -0.3371  0.3533 -0.1132
 7370SOL    HW133572   2.279   3.151   4.034 -0.0821  0.0522 -0.2511
 7370SOL    HW233573   2.248   3.012   4.039  2.7574  1.3443 -1.0106
 7371SOL     OW33574   1.142   1.544   6.094  0.7952 -0.5167  0.4534
 7371SOL    HW133575   1.143   1.453   6.124 -2.9303 -0.4747  0.6700
 7371SOL    HW233576   1.093   1.587   6.165 -0.8817 -1.4075 -0.1796
 7372SOL     OW33577   1.584   1.151  16.158 -0.3976 -0.4614 -0.3495
 7372SOL    HW133578   1.506   1.103  16.188 -1.0390  1.3854  0.9677
 7372SOL    HW233579   1.555   1.186  16.074 -1.8329 -0.5994  0.0758
 7373SOL     OW33580   1.630   0.432   3.314 -0.0249  0.0466  0.0147
 7373SOL    HW133581   1.595   0.444   3.403  1.3812 -2.5266  0.9104
 7373SOL    HW233582   1.614   0.519   3.277 -0.2553  1.1826  2.7887
 7374SOL     OW33583   1.423   2.987   2.997 -0.5165 -0.4793  0.3345
 7374SOL    HW133584   1.423   3.079   2.971 -0.0721 -0.8199 -0.8783
 7374SOL    HW233585   1.510   2.956   2.973 -0.2701  1.0040 -0.6547
 7375SOL     OW33586   3.394   3.758  17.463 -0.6919  0.2991  0.3079
 7375SOL    HW133587   3.302   3.783  17.475 -0.0976  2.1066  1.1607
 7375SOL    HW233588   3.393   3.663  17.459 -3.4177  0.2146  3.2548
 7376SOL     OW33589   3.152   2.920   7.321  0.1446 -0.3882 -0.3888
 7376SOL    HW133590   3.189   2.905   7.234  0.3063 -1.6900 -0.0969
 7376SOL    HW233591   3.171   3.013   7.332  0.9827 -0.7698  1.3364
 7377SOL     OW33592   2.081   0.719   1.730 -0.1250 -0.3045 -0.0512
 7377SOL    HW133593   2.025   0.781   1.682  0.5934  1.2120  1.0869
 7377SOL    HW233594   2.044   0.725   1.818  0.1155  0.1623  0.0212
 7378SOL     OW33595   4.201   0.100  12.455 -0.5394  0.4058  0.4926
 7378SOL    HW133596   4.129   0.122  12.396 -0.0193 -0.2885 -0.3988
 7378SOL    HW233597   4.175   0.144  12.536  1.4867  1.8287  0.3832
 7379SOL     OW33598   3.431   3.414   7.844 -0.1694  0.4739  0.1341
 7379SOL    HW133599   3.436   3.500   7.800  1.3034  0.2276 -0.1522
 7379SOL    HW233600   3.445   3.358   7.768 -0.0449 -0.0180  0.5230
 7380SOL     OW33601   3.954   1.742   5.132 -0.5759 -0.0068  0.0777
 7380SOL    HW133602   4.009   1.735   5.054 -0.1418  0.5580  0.3316
 7380SOL    HW233603   3.866   1.726   5.098 -0.3754  2.3075 -1.4945
 7381SOL     OW33604   1.342   4.604   6.444 -0.5085 -0.1495  0.1176
 7381SOL    HW133605   1.300   4.543   6.383 -1.2374  0.5041 -0.0351
 7381SOL    HW233606   1.414   4.553   6.482  0.4551  2.3153  1.6107
 7382SOL     OW33607   3.174   3.528   0.262  0.1425  0.4661 -0.7244
 7382SOL    HW133608   3.086   3.564   0.272  0.3834  1.0836 -0.8126
 7382SOL    HW233609   3.175   3.526   0.166 -0.3498 -0.3395 -0.7086
 7383SOL     OW33610   4.442   0.761   4.493  0.0187 -0.1427  0.5981
 7383SOL    HW133611   4.388   0.839   4.478 -1.3521 -1.3833 -0.9476
 7383SOL    HW233612   4.497   0.752   4.415 -0.9626  2.3909 -0.3922
 7384SOL     OW33613   1.366   2.523   8.130 -0.4414  0.2125  0.2144
 7384SOL    HW133614   1.356   2.584   8.202  2.1921  0.5896  0.2828
 7384SOL    HW233615   1.429   2.463   8.171  0.8577  0.3325 -1.5799
 7385SOL     OW33616   4.292   2.152   7.497  0.5816 -0.0096  0.1349
 7385SOL    HW133617   4.354   2.079   7.489 -0.6302 -0.9911 -0.2422
 7385SOL    HW233618   4.241   2.126   7.574  0.0455 -0.3485 -0.3313
 7386SOL     OW33619   3.712   3.470   9.165 -0.2681  0.3356 -0.4166
 7386SOL    HW133620   3.698   3.463   9.260 -2.7202 -3.4697 -1.0559
 7386SOL    HW233621   3.804   3.443   9.160 -0.0436  1.1568 -0.5912
 7387SOL     OW33622   3.035   2.433  17.162  0.6531 -0.2879 -0.2527
 7387SOL    HW133623   2.981   2.384  17.099 -1.9069  2.3694 -0.1108
 7387SOL    HW233624   2.963   2.446  17.224  1.3348  2.2851 -0.0193
 7388SOL     OW33625   4.603   4.582   8.361  0.8346  0.2977  0.1514
 7388SOL    HW133626   4.561   4.536   8.434 -0.2841 -0.7122 -1.1135
 7388SOL    HW233627   4.667   4.633   8.410 -0.2923  0.8397  1.0483
 7389SOL     OW33628   4.695   1.299   4.466  0.0811 -0.5067 -0.2538
 7389SOL    HW133629   4.638   1.290   4.390  1.1558  0.0247 -1.1167
 7389SOL    HW233630   4.670   1.221   4.517 -2.1207 -0.7749 -1.7533
 7390SOL     OW33631   2.785   3.990   3.878 -0.1900 -0.1759 -0.3249
 7390SOL    HW133632   2.854   3.947   3.928  0.0811  1.3888  0.6386
 7390SOL    HW233633   2.806   3.956   3.791 -0.7108  1.6990 -1.1746
 7391SOL     OW33634   2.046   2.630   8.193  0.7023 -0.0093  0.5961
 7391SOL    HW133635   1.966   2.598   8.151  0.7732 -0.6699  0.9627
 7391SOL    HW233636   2.087   2.641   8.107 -1.7845  1.5842 -0.3757
 7392SOL     OW33637   0.058   4.236  16.251  0.0484 -0.2379  0.3494
 7392SOL    HW133638   0.052   4.229  16.346 -0.9924 -1.2489  0.2178
 7392SOL    HW233639   4.701   4.290  16.236 -0.8369 -1.9447 -1.3095
 7393SOL     OW33640   2.330   3.728  16.296  0.0452  0.0484 -0.2002
 7393SOL    HW133641   2.296   3.734  16.386  0.1112 -0.1263 -0.1643
 7393SOL    HW233642   2.259   3.683  16.249 -1.1152  2.3910 -0.6821
 7394SOL     OW33643   4.367   3.618   5.591  0.4926 -0.5888 -0.2387
 7394SOL    HW133644   4.280   3.656   5.602  0.4364 -0.9191  0.5119
 7394SOL    HW233645   4.425   3.684   5.628 -0.4653 -0.8799  1.7965
 7395SOL     OW33646   0.794   4.372   8.155  0.0219 -0.4889  0.2118
 7395SOL    HW133647   0.872   4.409   8.195  0.0619 -0.4151  0.0651
 7395SOL    HW233648   0.834   4.288   8.131  0.6746 -0.6856  2.0269
 7396SOL     OW33649   0.516   3.528   3.473 -0.0473  1.0715  0.3556
 7396SOL    HW133650   0.579   3.477   3.422  1.0807  0.4400  2.3858
 7396SOL    HW233651   0.448   3.466   3.498  2.1352 -0.7629  1.8019
 7397SOL     OW33652   0.949   4.205   2.165  0.0799  0.6622  0.1839
 7397SOL    HW133653   0.978   4.273   2.104 -1.2274  0.6830 -0.4084
 7397SOL    HW233654   0.951   4.127   2.109 -1.6080 -0.2204  1.3887
 7398SOL     OW33655   0.529   2.872  12.028 -0.2474  0.4101  0.5314
 7398SOL    HW133656   0.461   2.809  12.007  0.2556  0.2072 -0.4940
 7398SOL    HW233657   0.599   2.839  11.972 -0.0421  1.3850  0.1959
 7399SOL     OW33658   2.615   0.372  10.309  0.3140 -0.3326 -0.2489
 7399SOL    HW133659   2.562   0.383  10.388 -0.3288  1.6080 -0.9562
 7399SOL    HW233660   2.652   0.460  10.301 -1.1463  0.3192  0.1125
 7400SOL     OW33661   0.106   2.024   7.328  0.8865  0.0502 -0.8456
 7400SOL    HW133662   0.096   2.020   7.424  0.6900  0.3364 -0.8505
 7400SOL    HW233663   0.176   1.960   7.331 -0.3145 -1.1636  1.9890
 7401SOL     OW33664   1.386   4.381  11.893  0.1023 -0.0371 -0.0120
 7401SOL    HW133665   1.328   4.452  11.920  0.6924  1.6667 -3.2678
 7401SOL    HW233666   1.472   4.412  11.863 -0.0015  1.5349  1.2710
 7402SOL     OW33667   1.980   4.126   9.625  0.0430 -0.0932 -0.3543
 7402SOL    HW133668   2.076   4.127   9.630 -0.0057 -0.3931  0.6813
 7402SOL    HW233669   1.967   4.031   9.615 -0.6178  0.2209 -2.4998
 7403SOL     OW33670   4.284   1.361  15.112 -0.3711  0.3017  0.1755
 7403SOL    HW133671   4.341   1.397  15.179  0.2971 -0.2103 -0.1193
 7403SOL    HW233672   4.204   1.414  15.115  1.0792  2.5647 -1.1182
 7404SOL     OW33673   0.540   4.377   6.289  0.3197 -0.3594  0.1914
 7404SOL    HW133674   0.493   4.296   6.270 -0.6292  0.2992 -0.3362
 7404SOL    HW233675   0.469   4.440   6.272 -0.3114 -1.1003  0.0705
 7405SOL     OW33676   0.008   3.172   5.121  0.6961 -0.4949 -0.3044
 7405SOL    HW133677   0.087   3.125   5.148  0.8394  0.4809  0.9489
 7405SOL    HW233678   0.057   3.246   5.086 -0.8548  0.7273  0.1367
 7406SOL     OW33679   4.239   2.446  13.121 -0.0099  0.0284 -0.0466
 7406SOL    HW133680   4.217   2.516  13.183  0.0942 -0.9205  1.0757
 7406SOL    HW233681   4.153   2.410  13.101  0.0248 -0.3861  0.5518
 7407SOL     OW33682   3.467   4.114   6.986  0.2860 -0.4480  0.2583
 7407SOL    HW133683   3.475   4.156   7.071 -2.0588  0.1440  0.1916
 7407SOL    HW233684   3.505   4.030   7.009 -0.6178 -1.0872 -0.5592
 7408SOL     OW33685   1.257   2.386   1.364  0.6399 -0.6180  0.0641
 7408SOL    HW133686   1.303   2.370   1.446  3.1269  0.1086 -1.1894
 7408SOL    HW233687   1.272   2.481   1.359 -1.7562 -0.2331  0.1829
 7409SOL     OW33688   0.200   2.798   7.022  0.2147  0.3039 -0.3569
 7409SOL    HW133689   0.228   2.733   6.958  0.0934  1.0374 -1.1463
 7409SOL    HW233690   0.128   2.756   7.070 -0.3521  0.9002 -0.6898
 7410SOL     OW33691   0.159   1.202  14.218  0.1136  0.3816  0.6076
 7410SOL    HW133692   0.078   1.153  14.229  1.7252 -2.0015  1.7515
 7410SOL    HW233693   0.226   1.146  14.256  0.2746 -0.5283 -1.0188
 7411SOL     OW33694   3.462   3.542   0.075 -0.6283 -0.0842  0.3166
 7411SOL    HW133695   3.486   3.466   0.022  1.6675  0.4386  0.6109
 7411SOL    HW233696   3.545   3.585   0.096 -0.6825  0.3877 -0.4183
 7412SOL     OW33697   2.249   1.640  17.116 -0.3461 -0.0091  0.1398
 7412SOL    HW133698   2.225   1.649  17.024  1.5413 -0.2312 -0.3604
 7412SOL    HW233699   2.171   1.589  17.139 -0.6901  0.1091 -0.7703
 7413SOL     OW33700   0.113   1.976   1.877  1.2040  0.0122 -0.1361
 7413SOL    HW133701   0.112   1.909   1.809 -1.9455  1.1833 -1.2516
 7413SOL    HW233702   0.031   2.024   1.868  0.6605 -0.9636 -0.3571
 7414SOL     OW33703   2.932   1.426  17.102 -0.1699 -0.2769  0.4106
 7414SOL    HW133704   3.020   1.394  17.083  0.3679  0.3185  1.9047
 7414SOL    HW233705   2.919   1.511  17.059  0.9631 -0.4497 -0.2788
 7415SOL     OW33706   0.989   0.994   9.168 -0.1983  0.2290 -0.3506
 7415SOL    HW133707   1.079   1.025   9.154  0.7347 -2.3668 -0.2657
 7415SOL    HW233708   0.998   0.924   9.103  0.2783 -0.7398  0.7579
 7416SOL     OW33709   0.227   0.659   3.794 -0.3231  0.0662 -0.0682
 7416SOL    HW133710   0.264   0.604   3.724 -0.7671 -1.1811  0.6731
 7416SOL    HW233711   0.179   0.715   3.733 -2.3104  0.1185  1.5598
 7417SOL     OW33712   0.084   4.269   9.692 -0.3510 -0.1316 -0.3039
 7417SOL    HW133713   0.020   4.293   9.758 -1.0009  0.3759 -1.1103
 7417SOL    HW233714   0.127   4.199   9.741 -2.4763 -2.1807 -1.3439
 7418SOL     OW33715   2.244   1.255   8.269 -0.2170  0.7832  0.0326
 7418SOL    HW133716   2.321   1.289   8.314 -1.6662  1.9742  1.5759
 7418SOL    HW233717   2.233   1.327   8.206 -1.7874  0.0910 -0.4921
 7419SOL     OW33718   4.655   4.538   8.827 -0.3585  0.8841 -0.2364
 7419SOL    HW133719   4.693   4.462   8.871 -1.5105  0.0334 -0.7063
 7419SOL    HW233720   4.604   4.582   8.895  0.8294  1.5852  0.2005
 7420SOL     OW33721   1.206   4.232  10.735  0.3476 -0.2495 -0.3230
 7420SOL    HW133722   1.287   4.218  10.784 -0.7582  0.4297  1.7017
 7420SOL    HW233723   1.167   4.298  10.793 -0.3248 -1.1521  0.2533
 7421SOL     OW33724   1.108   2.545   6.572  0.4746 -0.4386 -0.7717
 7421SOL    HW133725   1.017   2.551   6.544 -0.1278  0.4908  1.3869
 7421SOL    HW233726   1.118   2.450   6.575  2.2439 -0.2706 -1.2504
 7422SOL     OW33727   0.786   4.188   8.617 -0.3212  0.3735  0.3613
 7422SOL    HW133728   0.798   4.101   8.655 -1.2182 -0.8085 -2.0812
 7422SOL    HW233729   0.850   4.190   8.546 -0.2604  1.4159  0.4443
 7423SOL     OW33730   2.896   0.975  10.311  0.1246 -0.0218  0.0815
 7423SOL    HW133731   2.831   0.922  10.357  1.3794  0.3097  2.2384
 7423SOL    HW233732   2.978   0.934  10.340  0.4490 -0.4437 -1.4057
 7424SOL     OW33733   4.345   2.311  11.091  0.2138 -0.2864 -0.4758
 7424SOL    HW133734   4.360   2.353  11.006 -1.3825 -2.1444 -1.6740
 7424SOL    HW233735   4.421   2.352  11.133 -1.4891  0.7380  1.6030
 7425SOL     OW33736   3.501   2.209   5.275 -0.4481 -0.1049 -0.4061
 7425SOL    HW133737   3.524   2.274   5.341  0.0885 -1.8015  1.0811
 7425SOL    HW233738   3.543   2.128   5.306 -1.3233 -0.5294 -0.3285
 7426SOL     OW33739   0.894   1.287   4.593  0.2085  0.1901  0.1692
 7426SOL    HW133740   0.819   1.332   4.631 -0.2007 -1.1895  1.0234
 7426SOL    HW233741   0.951   1.361   4.575 -0.2836  0.1590 -1.5010
 7427SOL     OW33742   3.422   2.574   9.670  0.0709  0.1155  0.3508
 7427SOL    HW133743   3.384   2.511   9.731 -1.3080  0.1757 -0.4478
 7427SOL    HW233744   3.349   2.624   9.634  2.0740  1.8708 -1.2581
 7428SOL     OW33745   1.737   3.052   2.904  0.4214  0.4316  0.1549
 7428SOL    HW133746   1.783   3.136   2.906  0.9522  0.1050  2.0230
 7428SOL    HW233747   1.697   3.049   2.991  0.1382 -2.1458 -0.0540
 7429SOL     OW33748   4.124   0.015  10.835  0.4085  0.2824 -0.2599
 7429SOL    HW133749   4.066   0.089  10.854  0.4846  0.0504  0.8921
 7429SOL    HW233750   4.076   4.684  10.771 -0.6175 -0.0457  0.7688
 7430SOL     OW33751   2.596   1.102   3.938  0.3655  0.7186  0.6569
 7430SOL    HW133752   2.603   1.195   3.917 -2.3592  0.8932  0.5602
 7430SOL    HW233753   2.622   1.098   4.030  2.3882  0.4366  0.0831
 7431SOL     OW33754   1.811   2.156  13.789 -0.2306  0.5706  0.1935
 7431SOL    HW133755   1.835   2.072  13.751 -0.4509  0.2840  0.6920
 7431SOL    HW233756   1.878   2.214  13.753 -0.9534  1.9666  1.0825
 7432SOL     OW33757   3.874   4.195   7.764  0.8051  0.3999 -0.3211
 7432SOL    HW133758   3.867   4.157   7.677 -0.6603 -0.4214  0.1572
 7432SOL    HW233759   3.969   4.204   7.774  0.7030 -0.7630  1.6461
 7433SOL     OW33760   1.121   4.316   8.537  0.1878 -0.2715 -0.1430
 7433SOL    HW133761   1.080   4.398   8.565 -2.0187 -2.6952  3.6543
 7433SOL    HW233762   1.149   4.291   8.625  0.0263 -0.8454 -0.2555
 7434SOL     OW33763   1.495   3.971   2.668 -0.0302 -0.0003  0.1426
 7434SOL    HW133764   1.525   3.898   2.613  0.3517 -1.0411  1.7574
 7434SOL    HW233765   1.580   4.013   2.678  0.0006  0.2261 -0.9944
 7435SOL     OW33766   3.063   0.584   8.772 -0.4352 -0.1566  0.8053
 7435SOL    HW133767   3.150   0.625   8.773  1.5966 -4.4231 -0.3696
 7435SOL    HW233768   3.071   0.517   8.840  0.5695  0.9831  1.8221
 7436SOL     OW33769   1.678   0.513   5.338 -0.0745  0.1445  0.2135
 7436SOL    HW133770   1.612   0.578   5.362 -0.4297  0.4013 -1.4585
 7436SOL    HW233771   1.687   0.472   5.424  0.0320  1.8838  1.0333
 7437SOL     OW33772   3.591   1.098  17.243 -0.5663  0.2949 -0.0746
 7437SOL    HW133773   3.650   1.024  17.259  0.6094  1.2343 -0.0652
 7437SOL    HW233774   3.512   1.047  17.227  1.0369 -2.5742  1.1097
 7438SOL     OW33775   1.871   1.216   1.426 -0.9575 -0.0702 -0.7344
 7438SOL    HW133776   1.842   1.279   1.361 -2.7964 -0.9554 -0.7585
 7438SOL    HW233777   1.902   1.278   1.493 -2.3212 -0.8651  0.6352
 7439SOL     OW33778   2.160   0.667   5.397  0.5229  0.1055 -0.2444
 7439SOL    HW133779   2.106   0.652   5.319  0.5840 -0.5713 -0.1577
 7439SOL    HW233780   2.150   0.760   5.415  0.2040  0.2124 -0.9797
 7440SOL     OW33781   1.299   1.017   1.121 -0.7945 -0.0160  0.4039
 7440SOL    HW133782   1.334   0.942   1.074 -0.6272 -0.6625  1.5393
 7440SOL    HW233783   1.208   0.998   1.146 -0.8869 -1.1371 -0.7713
 7441SOL     OW33784   0.698   0.758   5.152 -0.5133 -0.8665 -0.2153
 7441SOL    HW133785   0.640   0.833   5.165  0.2922 -0.4680  1.1199
 7441SOL    HW233786   0.777   0.790   5.197 -0.0311 -1.3147 -0.7465
 7442SOL     OW33787   1.832   4.165  10.302 -0.7340  0.2028 -0.4577
 7442SOL    HW133788   1.790   4.122  10.227  0.9289 -0.7021 -0.8685
 7442SOL    HW233789   1.843   4.252  10.264 -0.8015  0.4016 -0.0140
 7443SOL     OW33790   1.847   1.727   3.226 -0.7343 -0.6137 -0.2413
 7443SOL    HW133791   1.928   1.675   3.232  0.3691  0.6780 -3.6897
 7443SOL    HW233792   1.812   1.677   3.152  1.4676 -0.4321 -1.4177
 7444SOL     OW33793   2.371   3.783   8.587 -0.0926 -0.0370 -0.4219
 7444SOL    HW133794   2.423   3.860   8.609 -0.6269 -0.1686  1.3632
 7444SOL    HW233795   2.326   3.809   8.507  0.8172 -1.3201 -1.3430
 7445SOL     OW33796   4.702   4.011  14.358 -0.1107  0.1406  0.4954
 7445SOL    HW133797   4.638   4.057  14.412 -0.4597  3.2475 -2.6477
 7445SOL    HW233798   0.051   3.990  14.421 -2.0622 -1.6976  2.0613
 7446SOL     OW33799   0.106   2.730  10.123  0.0236 -0.1273  0.0251
 7446SOL    HW133800   0.065   2.650  10.155 -0.8510 -0.2301 -1.3961
 7446SOL    HW233801   0.049   2.797  10.160  2.0912  1.3396  0.5774
 7447SOL     OW33802   0.205   3.812   2.283 -0.2649 -0.3769 -0.3195
 7447SOL    HW133803   0.257   3.850   2.212 -1.7620 -0.4413 -1.4780
 7447SOL    HW233804   0.276   3.800   2.346  0.6440 -0.2342 -1.3163
 7448SOL     OW33805   3.270   4.363   0.694 -0.5960 -0.1808  0.4445
 7448SOL    HW133806   3.281   4.453   0.665  0.0154  0.9252  4.1225
 7448SOL    HW233807   3.250   4.387   0.785 -0.9584 -1.7317  0.7849
 7449SOL     OW33808   1.270   2.567   9.396  0.0464  0.3877 -0.4879
 7449SOL    HW133809   1.309   2.510   9.463  0.4684 -0.0627 -1.1181
 7449SOL    HW233810   1.346   2.608   9.355  2.1036 -3.0470 -0.1281
 7450SOL     OW33811   0.946   0.775  16.116  0.2246 -0.3360  0.1921
 7450SOL    HW133812   0.977   0.716  16.185 -0.0865  1.5810  1.9907
 7450SOL    HW233813   0.856   0.742  16.109  0.7020 -1.7193  0.5677
 7451SOL     OW33814   0.714   1.435   7.348 -0.1152  0.2116 -0.1082
 7451SOL    HW133815   0.718   1.353   7.397  2.7549  0.5784  0.2963
 7451SOL    HW233816   0.670   1.491   7.412 -0.0354 -1.2840  1.2380
 7452SOL     OW33817   3.409   0.617  10.796  0.4881  0.3279  0.3470
 7452SOL    HW133818   3.348   0.632  10.868 -0.7864  2.8642 -1.2292
 7452SOL    HW233819   3.491   0.650  10.832  1.1987 -1.7290  0.5839
 7453SOL     OW33820   0.478   3.361   2.014  0.0634 -0.2214 -0.1426
 7453SOL    HW133821   0.475   3.312   2.096  1.7459  0.4758  0.3372
 7453SOL    HW233822   0.538   3.307   1.963  1.1168 -0.1261  0.9932
 7454SOL     OW33823   0.188   0.632   7.569 -0.3841  0.0018  0.7093
 7454SOL    HW133824   0.156   0.556   7.520  0.2207 -1.0443  1.9383
 7454SOL    HW233825   0.135   0.630   7.649 -0.4227  2.9785  0.7307
 7455SOL     OW33826   4.605   3.873  15.638 -0.8881  0.0886  0.7839
 7455SOL    HW133827   4.611   3.789  15.593 -1.1041  0.5643 -0.1388
 7455SOL    HW233828   4.544   3.930  15.591  1.5274  0.8243 -1.4915
 7456SOL     OW33829   0.556   1.768  12.566 -0.0126  0.4623  0.3052
 7456SOL    HW133830   0.641   1.811  12.572  1.2091 -1.5641 -2.2945
 7456SOL    HW233831   0.530   1.754  12.657 -0.9519  2.9788  0.4488
 7457SOL     OW33832   4.634   4.353   9.908  0.5205 -0.7691  0.0286
 7457SOL    HW133833   4.578   4.429   9.896  0.1392 -1.1994 -0.9297
 7457SOL    HW233834   4.571   4.282   9.909  0.1940 -0.4594  1.4539
 7458SOL     OW33835   0.555   2.084  16.772 -0.0845  0.3465 -0.0777
 7458SOL    HW133836   0.604   2.054  16.696 -1.6062 -0.8963 -0.5601
 7458SOL    HW233837   0.467   2.058  16.744  0.4487 -1.1379 -0.3620
 7459SOL     OW33838   0.803   1.898   4.105 -0.4763  0.0504  0.4509
 7459SOL    HW133839   0.857   1.957   4.053  0.9357  0.0355  1.9000
 7459SOL    HW233840   0.845   1.901   4.191  3.2837 -2.3546 -1.3108
 7460SOL     OW33841   0.014   3.546  15.122 -0.4808  0.5006 -0.1048
 7460SOL    HW133842   0.005   3.641  15.131 -0.4912  0.4831  0.0562
 7460SOL    HW233843   4.654   3.509  15.086 -0.6323  2.0380 -1.3510
 7461SOL     OW33844   0.590   2.473  14.681 -0.1465  0.7889  0.0051
 7461SOL    HW133845   0.631   2.446  14.763 -2.0017  0.2970  0.7664
 7461SOL    HW233846   0.606   2.567  14.689 -1.8931  1.2391 -1.9330
 7462SOL     OW33847   0.110   4.135   1.673  0.0783  0.5023 -0.3289
 7462SOL    HW133848   0.180   4.181   1.626  0.4262 -0.1644 -0.4693
 7462SOL    HW233849   0.157   4.062   1.714 -0.7712 -0.5224 -1.1662
 7463SOL     OW33850   4.359   3.491   5.987  0.4496  0.3415 -0.4822
 7463SOL    HW133851   4.329   3.572   6.027  0.1695  0.3507 -0.7082
 7463SOL    HW233852   4.305   3.420   6.023  1.3144 -0.9864 -1.7574
 7464SOL     OW33853   0.494   1.736   6.564 -0.0653 -0.2730 -0.2878
 7464SOL    HW133854   0.436   1.677   6.613 -2.9090  2.7543 -0.0774
 7464SOL    HW233855   0.460   1.719   6.476  0.7362  0.7430 -0.7878
 7465SOL     OW33856   0.508   2.674   5.373 -0.3644  0.2499 -0.2631
 7465SOL    HW133857   0.530   2.714   5.289 -0.5195 -0.6399 -0.7297
 7465SOL    HW233858   0.428   2.720   5.397 -0.4047  0.2369 -0.3705
 7466SOL     OW33859   2.922   3.730  11.970 -0.0936 -0.4661 -0.3102
 7466SOL    HW133860   2.950   3.640  11.986  1.7433  0.6291  2.6687
 7466SOL    HW233861   2.955   3.777  12.046 -1.5619  0.3426 -0.1849
 7467SOL     OW33862   3.411   2.344  15.714 -0.2997  0.2992 -0.1387
 7467SOL    HW133863   3.397   2.254  15.745 -0.7153 -0.2761 -1.9613
 7467SOL    HW233864   3.438   2.323  15.625 -0.1547  0.2360 -0.0786
 7468SOL     OW33865   1.194   3.952   4.856 -0.3355 -0.1759  0.5628
 7468SOL    HW133866   1.181   3.986   4.767  2.7884 -0.7261 -0.0938
 7468SOL    HW233867   1.285   3.978   4.864 -0.6381  1.8552 -2.5627
 7469SOL     OW33868   3.380   2.524   4.757  0.1281  0.5927 -0.5228
 7469SOL    HW133869   3.435   2.446   4.750  0.7739  1.1313 -1.3364
 7469SOL    HW233870   3.445   2.588   4.730  0.4966  0.6613  0.5052
 7470SOL     OW33871   0.251   1.176   2.386 -0.1881 -0.2995 -0.3656
 7470SOL    HW133872   0.308   1.182   2.463  1.0855  0.5457 -1.3691
 7470SOL    HW233873   0.251   1.081   2.382  0.3377 -0.4051  2.0404
 7471SOL     OW33874   4.688   1.889   3.044  0.3556 -0.6238  0.2457
 7471SOL    HW133875   4.657   1.849   2.962 -0.5538 -0.4244  0.4949
 7471SOL    HW233876   0.043   1.936   3.011  0.4921 -0.6466  0.5297
 7472SOL     OW33877   4.218   3.465   7.137  0.4536  0.3547  0.3399
 7472SOL    HW133878   4.297   3.428   7.098 -1.2227 -2.1744 -0.6812
 7472SOL    HW233879   4.196   3.543   7.087  0.6951 -1.1358 -2.0977
 7473SOL     OW33880   1.243   1.760   7.303 -0.0271  0.1733 -0.1897
 7473SOL    HW133881   1.276   1.776   7.392 -0.9601 -0.4247  0.2697
 7473SOL    HW233882   1.243   1.848   7.266 -0.2893  0.4274  0.4148
 7474SOL     OW33883   2.385   3.767   4.024 -0.0181  0.6591 -0.3330
 7474SOL    HW133884   2.322   3.815   4.078  2.1260  0.2962  2.5154
 7474SOL    HW233885   2.321   3.749   3.956 -1.6812  0.4777  1.2879
 7475SOL     OW33886   1.810   3.578   4.868 -0.3497 -0.0137  0.2653
 7475SOL    HW133887   1.828   3.672   4.870  3.7805 -0.8540  2.5025
 7475SOL    HW233888   1.833   3.557   4.778  0.4492 -1.9995  0.9320
 7476SOL     OW33889   0.629   2.803  16.549 -0.3107  0.7748 -0.2422
 7476SOL    HW133890   0.637   2.779  16.457  1.7777  1.6677 -0.2906
 7476SOL    HW233891   0.691   2.874  16.564 -0.1495  0.5974 -0.0618
 7477SOL     OW33892   2.971   0.713  16.933 -0.5121  0.4670  0.2780
 7477SOL    HW133893   2.877   0.700  16.945 -0.4389 -0.9315 -0.5679
 7477SOL    HW233894   2.963   0.764  16.852 -3.3346  1.6126  1.2885
 7478SOL     OW33895   0.925   4.301   1.438  0.1387 -0.5608  0.1401
 7478SOL    HW133896   0.830   4.288   1.439 -0.1041  1.0072 -2.4517
 7478SOL    HW233897   0.961   4.221   1.401  0.3396 -0.2411 -0.3652
 7479SOL     OW33898   2.584   2.757  11.991 -0.0406 -0.2360  0.6390
 7479SOL    HW133899   2.557   2.743  12.082  0.9490  0.2223  0.9961
 7479SOL    HW233900   2.497   2.778  11.956 -0.6821 -2.5238  0.8628
 7480SOL     OW33901   1.877   0.207   5.047 -0.2139  0.3822 -0.4365
 7480SOL    HW133902   1.901   0.228   5.137  1.1126 -0.9862 -0.4699
 7480SOL    HW233903   1.954   0.184   4.994 -0.3818  3.1639 -1.8665
 7481SOL     OW33904   2.237   3.524   8.107 -0.1216 -0.4785  0.7386
 7481SOL    HW133905   2.253   3.487   8.020 -3.1188  0.2737 -0.1292
 7481SOL    HW233906   2.325   3.516   8.143 -0.0337  0.1885  0.6700
 7482SOL     OW33907   3.494   2.282   6.724 -0.3239 -0.4944  0.2101
 7482SOL    HW133908   3.546   2.202   6.722  1.3089  0.5088  3.1717
 7482SOL    HW233909   3.405   2.258   6.750 -0.4835 -0.2187 -0.0750
 7483SOL     OW33910   2.643   1.388   3.917  0.3995 -0.0067 -0.6485
 7483SOL    HW133911   2.617   1.477   3.894 -1.0998 -0.5742 -1.1279
 7483SOL    HW233912   2.734   1.397   3.947  0.2048 -0.1102 -0.0207
 7484SOL     OW33913   4.700   3.321   6.701  0.4431  0.1099 -0.3465
 7484SOL    HW133914   4.689   3.227   6.712 -0.3266  0.2936  0.4339
 7484SOL    HW233915   0.027   3.319   6.618  2.4966  0.7762  0.8274
 7485SOL     OW33916   3.393   3.320   8.568 -0.3836  0.2156 -0.2575
 7485SOL    HW133917   3.458   3.256   8.540 -1.7659 -2.1709  2.0328
 7485SOL    HW233918   3.449   3.396   8.585  0.9915 -0.3341 -2.4592
 7486SOL     OW33919   3.435   3.320   0.300  0.1180  0.4863 -0.3792
 7486SOL    HW133920   3.364   3.361   0.251 -1.5641 -0.6373  1.0948
 7486SOL    HW233921   3.388   3.304   0.382  1.1547  2.0723  0.5298
 7487SOL     OW33922   1.324   0.584   1.630  0.2867 -0.1652 -0.5107
 7487SOL    HW133923   1.262   0.582   1.557 -0.5794  1.0146  0.2168
 7487SOL    HW233924   1.359   0.495   1.640 -0.2363 -0.2769  0.3064
 7488SOL     OW33925   2.746   2.314  12.955  0.2240 -0.4768 -0.3244
 7488SOL    HW133926   2.737   2.243  12.890 -2.7660 -1.0828  0.7447
 7488SOL    HW233927   2.662   2.327  12.997  0.2636 -2.2642  0.3078
 7489SOL     OW33928   4.192   0.988  16.382  0.1503  0.3163 -0.0337
 7489SOL    HW133929   4.232   0.959  16.300 -1.1387 -0.7966 -0.2736
 7489SOL    HW233930   4.236   0.923  16.437  2.4518  1.5216 -0.4587
 7490SOL     OW33931   0.240   3.927   0.310  0.3581 -0.5485  0.1996
 7490SOL    HW133932   0.249   3.928   0.215 -0.8103  0.2163  0.1085
 7490SOL    HW233933   0.169   3.866   0.334 -0.2645  0.3343  0.6013
 7491SOL     OW33934   4.430   1.713   9.201  0.7025 -0.1844 -0.1502
 7491SOL    HW133935   4.416   1.771   9.126  4.0341 -0.8884 -1.3317
 7491SOL    HW233936   4.378   1.757   9.267  1.0787 -0.4704  0.3321
 7492SOL     OW33937   0.108   4.655   0.255 -0.1378  0.1380 -0.1183
 7492SOL    HW133938   0.157   4.713   0.314  1.3149 -0.3764 -0.8301
 7492SOL    HW233939   0.170   4.615   0.194  0.6210  0.5378  0.4011
 7493SOL     OW33940   0.767   4.250   3.254  0.1034 -0.4980 -0.1206
 7493SOL    HW133941   0.719   4.277   3.176  0.1218  0.3857  0.1752
 7493SOL    HW233942   0.698   4.230   3.316 -1.3480 -3.9786 -2.8739
 7494SOL     OW33943   0.831   1.632   2.391  0.1746  0.5056 -0.3545
 7494SOL    HW133944   0.834   1.619   2.297 -0.8861 -2.9450  0.0850
 7494SOL    HW233945   0.916   1.671   2.410  0.4601 -0.4104  0.2569
 7495SOL     OW33946   4.476   0.949  15.318  0.0164  0.1557  0.2885
 7495SOL    HW133947   4.389   0.961  15.357 -0.8048  2.6265 -2.3282
 7495SOL    HW233948   4.517   0.878  15.367  0.6951  0.0548 -0.4355
 7496SOL     OW33949   4.655   1.785   1.966 -0.2966  0.4168 -0.0327
 7496SOL    HW133950   4.577   1.804   1.913  0.6118  2.5657 -0.6073
 7496SOL    HW233951   4.706   1.747   1.895 -0.5657 -1.0348  0.5564
 7497SOL     OW33952   2.514   4.104  14.512 -0.2945 -0.2276  0.2376
 7497SOL    HW133953   2.492   4.080  14.422 -5.0842  2.8925  0.5539
 7497SOL    HW233954   2.450   4.046  14.555  0.3312 -0.9914  0.1466
 7498SOL     OW33955   1.093   4.172   5.195  0.3117  0.4262  0.6417
 7498SOL    HW133956   1.162   4.126   5.241  0.3735  0.0864  0.2076
 7498SOL    HW233957   1.076   4.242   5.258 -1.4577 -0.4979  1.2065
 7499SOL     OW33958   2.620   2.127   6.977 -0.0403 -0.0548  0.2535
 7499SOL    HW133959   2.678   2.143   7.052 -1.4739 -0.0212  1.3523
 7499SOL    HW233960   2.537   2.145   7.022  0.0690  0.2543  0.3316
 7500SOL     OW33961   0.186   2.966   0.506 -0.5595  0.6012  0.1099
 7500SOL    HW133962   0.144   3.014   0.435  0.7556  1.6856  0.0581
 7500SOL    HW233963   0.117   2.911   0.543  1.0623 -1.9454 -0.6043
 7501SOL     OW33964   2.766   1.730   5.384  0.1048 -0.2830 -0.1332
 7501SOL    HW133965   2.844   1.679   5.408 -0.0588 -0.4877 -0.0312
 7501SOL    HW233966   2.800   1.771   5.304  2.1854 -0.0193  0.8693
 7502SOL     OW33967   3.643   0.493   6.211 -0.4013 -0.1666  0.3928
 7502SOL    HW133968   3.626   0.398   6.213  1.4502 -0.5496 -1.9080
 7502SOL    HW233969   3.628   0.505   6.117 -1.5325  0.1837  0.6214
 7503SOL     OW33970   1.575   3.859   3.310  0.0025  0.0335 -0.2845
 7503SOL    HW133971   1.506   3.798   3.337  0.8234 -0.7208  0.0944
 7503SOL    HW233972   1.539   3.939   3.348 -2.8106 -0.8013 -1.1989
 7504SOL     OW33973   0.962   2.626   9.567 -0.1107 -0.0140 -0.1393
 7504SOL    HW133974   0.882   2.677   9.550  0.1003  0.6456  0.8705
 7504SOL    HW233975   0.995   2.600   9.481 -0.9676 -3.4011  0.5733
 7505SOL     OW33976   2.790   2.095   6.270 -0.1180 -0.5051 -0.9276
 7505SOL    HW133977   2.843   2.138   6.337 -1.1887 -0.2229 -0.2674
 7505SOL    HW233978   2.743   2.020   6.307 -1.2080 -0.0616 -1.4128
 7506SOL     OW33979   1.849   3.792   3.397 -0.2933 -0.2814 -0.4032
 7506SOL    HW133980   1.865   3.883   3.421  1.6303 -0.1806 -2.0336
 7506SOL    HW233981   1.766   3.802   3.351  0.3642 -0.0914 -1.5647
 7507SOL     OW33982   3.639   2.791   6.114 -0.4086 -0.5148  0.1328
 7507SOL    HW133983   3.583   2.741   6.175  1.2067 -0.3823  1.7309
 7507SOL    HW233984   3.665   2.719   6.057  0.5430 -0.6180  0.6902
 7508SOL     OW33985   2.275   1.217   3.392  0.1262 -0.0760  0.2257
 7508SOL    HW133986   2.360   1.181   3.418  1.4510  0.4366 -3.3414
 7508SOL    HW233987   2.255   1.262   3.473  0.1279 -0.1973  0.2941
 7509SOL     OW33988   0.067   0.327   9.876  0.6008  0.3274  0.2470
 7509SOL    HW133989   4.712   0.360   9.828  0.0030  1.3468  1.9036
 7509SOL    HW233990   0.127   0.388   9.832 -0.1596  0.3164 -0.7937
 7510SOL     OW33991   3.792   1.629   7.629  0.3755  0.3422 -0.0830
 7510SOL    HW133992   3.742   1.679   7.693  1.0364  1.6431 -0.5837
 7510SOL    HW233993   3.754   1.666   7.549 -1.0944  0.6415  0.7674
 7511SOL     OW33994   3.322   0.580   1.084  0.0240  1.0644 -0.0924
 7511SOL    HW133995   3.301   0.626   1.165 -1.8488  2.1621 -1.1827
 7511SOL    HW233996   3.316   0.653   1.022 -0.8785  1.3167  0.2859
 7512SOL     OW33997   2.152   1.080   7.839 -0.4108  0.5160 -0.5293
 7512SOL    HW133998   2.213   1.107   7.908  1.9718  0.8093 -2.7268
 7512SOL    HW233999   2.104   1.011   7.884 -2.3625  2.1310 -0.1496
 7513SOL     OW34000   1.064   4.626   6.565 -0.2988  0.0198  0.2660
 7513SOL    HW134001   1.005   4.698   6.545  0.3404  0.6977  0.8241
 7513SOL    HW234002   1.133   4.636   6.499 -2.2331  0.0811 -1.7672
 7514SOL     OW34003   0.364   3.217  17.330  0.0618 -0.5413  0.3025
 7514SOL    HW134004   0.326   3.266  17.257 -2.5653 -2.1544  0.5884
 7514SOL    HW234005   0.454   3.250  17.317  0.5151 -1.1007  2.0272
 7515SOL     OW34006   0.491   0.615   9.368  0.5130  0.2160 -0.5262
 7515SOL    HW134007   0.415   0.620   9.310 -0.1556  1.7735  0.4753
 7515SOL    HW234008   0.529   0.701   9.385  1.5624 -0.2036 -0.7761
 7516SOL     OW34009   0.596   3.189   7.057  0.7581 -0.1456 -0.4920
 7516SOL    HW134010   0.575   3.273   7.016  1.4679  0.0549 -0.4376
 7516SOL    HW234011   0.550   3.128   6.998 -2.1513 -0.0217  1.6121
 7517SOL     OW34012   2.760   3.227   4.928 -0.2290 -0.6114 -0.2574
 7517SOL    HW134013   2.827   3.184   4.875  2.1159  1.8632  0.6880
 7517SOL    HW234014   2.786   3.181   5.008 -0.4036 -1.5859 -0.7616
 7518SOL     OW34015   1.613   3.943  14.542  0.0334 -0.4680  0.5307
 7518SOL    HW134016   1.642   4.034  14.540  0.1321 -0.5102  0.0436
 7518SOL    HW234017   1.690   3.891  14.518  1.0612 -0.2008  3.2092
 7519SOL     OW34018   4.409   0.705   4.109 -0.0286  0.1698 -0.6804
 7519SOL    HW134019   4.428   0.611   4.118 -0.4860  0.1253 -0.2127
 7519SOL    HW234020   4.322   0.715   4.147  1.0746  1.1199  1.5938
 7520SOL     OW34021   4.108   0.890   7.915 -0.0895  0.0238 -0.0336
 7520SOL    HW134022   4.066   0.955   7.971  1.6825  0.8837  0.3182
 7520SOL    HW234023   4.043   0.822   7.898  1.1383 -1.5590  1.4331
 7521SOL     OW34024   2.208   4.399   8.611 -0.4814 -0.7681 -1.0149
 7521SOL    HW134025   2.161   4.359   8.684  0.8789 -1.0955 -0.3022
 7521SOL    HW234026   2.297   4.406   8.646 -1.8529 -0.6236  2.4351
 7522SOL     OW34027   1.132   0.619   0.027  0.1588  0.9378  0.4687
 7522SOL    HW134028   1.207   0.605   0.084 -0.0440 -1.9940  0.0097
 7522SOL    HW234029   1.061   0.580   0.078 -0.4359  2.1204  0.5590
 7523SOL     OW34030   4.008   3.967   7.232 -0.3211 -0.0557 -0.0203
 7523SOL    HW134031   4.003   4.024   7.155  0.7920 -0.1284 -0.1576
 7523SOL    HW234032   3.938   3.905   7.212 -0.5031 -0.4594  1.8939
 7524SOL     OW34033   0.812   3.228   0.960  0.0225  0.6471 -0.0776
 7524SOL    HW134034   0.759   3.302   0.930 -1.0404 -0.2253 -0.3280
 7524SOL    HW234035   0.893   3.243   0.912  2.1026  0.7922  3.4859
 7525SOL     OW34036   1.306   3.081   7.083 -0.1559  0.2600  0.0770
 7525SOL    HW134037   1.258   3.002   7.059  1.9720 -0.7521 -0.9334
 7525SOL    HW234038   1.353   3.078   7.000 -0.9870 -1.8756 -0.3110
 7526SOL     OW34039   3.855   1.440   1.574  0.6747 -0.2776 -0.0045
 7526SOL    HW134040   3.823   1.357   1.540 -0.1398 -0.1411  0.4394
 7526SOL    HW234041   3.909   1.468   1.500  2.1609 -1.3430  0.6650
 7527SOL     OW34042   2.923   1.816  14.659 -0.0203 -0.7938  0.3379
 7527SOL    HW134043   2.991   1.799  14.724  2.0973  0.7045 -1.5073
 7527SOL    HW234044   2.942   1.736  14.611  0.2515 -0.6271  0.1691
 7528SOL     OW34045   2.450   3.503   6.293  0.4401  0.1572 -0.6908
 7528SOL    HW134046   2.368   3.486   6.247 -0.5294 -1.8456  1.8007
 7528SOL    HW234047   2.443   3.439   6.364 -0.1291 -1.5516 -2.2884
 7529SOL     OW34048   2.079   3.470   3.885 -0.4614 -0.7501  0.2873
 7529SOL    HW134049   2.070   3.471   3.981 -0.8038  0.0214  0.2519
 7529SOL    HW234050   2.118   3.555   3.864 -0.4034 -1.2171 -1.4326
 7530SOL     OW34051   4.607   3.644   1.915  0.3545 -0.2160  0.2519
 7530SOL    HW134052   4.646   3.632   2.002 -1.2582 -1.5391  0.7889
 7530SOL    HW234053   4.534   3.583   1.921 -1.9742  2.4356 -1.7247
 7531SOL     OW34054   3.088   4.113  10.675 -0.1680 -0.3060  0.6886
 7531SOL    HW134055   3.128   4.126  10.589  1.2287  0.3588  1.4361
 7531SOL    HW234056   3.162   4.086  10.730 -0.8518  1.0067  2.2384
 7532SOL     OW34057   4.137   0.740  14.982  0.1244  0.3319 -0.0428
 7532SOL    HW134058   4.153   0.650  14.952 -1.2841  0.1747 -0.2918
 7532SOL    HW234059   4.224   0.780  14.974  1.0780 -1.8344 -0.7030
 7533SOL     OW34060   0.899   2.129   6.154 -0.2597  0.1544  0.0853
 7533SOL    HW134061   0.829   2.151   6.215 -1.5569  0.6770 -1.6281
 7533SOL    HW234062   0.854   2.095   6.077 -1.9492  2.9377 -0.1639
 7534SOL     OW34063   4.470   2.304   6.647  0.5246  0.1254 -0.1929
 7534SOL    HW134064   4.489   2.251   6.725  0.0063  1.3899  0.7982
 7534SOL    HW234065   4.388   2.345   6.674  0.3314  0.6163 -1.5191
 7535SOL     OW34066   4.237   3.765   4.111  0.2070 -0.4159 -0.3645
 7535SOL    HW134067   4.233   3.693   4.173 -0.0824  0.4415  0.6172
 7535SOL    HW234068   4.181   3.741   4.037 -2.9311  0.7198  1.6402
 7536SOL     OW34069   3.066   4.173   7.976 -0.1958  0.4745 -0.4625
 7536SOL    HW134070   3.066   4.092   8.028 -0.1358 -0.5917 -2.1155
 7536SOL    HW234071   3.123   4.156   7.902 -0.8663 -0.0108 -0.8756
 7537SOL     OW34072   3.639   0.373   7.602 -0.2167  0.1947 -0.3348
 7537SOL    HW134073   3.575   0.435   7.638  1.6726  1.8601  0.1462
 7537SOL    HW234074   3.595   0.347   7.521  0.6037  5.0339 -2.2778
 7538SOL     OW34075   0.340   4.347  10.240 -0.0279 -0.0178 -0.1377
 7538SOL    HW134076   0.316   4.364  10.331  0.9082  0.9329 -0.0663
 7538SOL    HW234077   0.309   4.257  10.231  1.3362 -0.4455 -0.6191
 7539SOL     OW34078   2.590   4.639   4.774  0.3110  0.1809 -0.6465
 7539SOL    HW134079   2.560   4.703   4.710 -1.0930 -0.5516 -0.7245
 7539SOL    HW234080   2.571   4.684   4.857  2.4186  0.0953 -0.1187
 7540SOL     OW34081   2.626   2.833   9.898  0.2774  0.6092 -0.0923
 7540SOL    HW134082   2.577   2.753   9.881 -0.5792  0.9456  0.8034
 7540SOL    HW234083   2.630   2.838   9.994  0.2522 -2.0699  0.0516
 7541SOL     OW34084   1.485   2.518   5.490 -0.3757 -0.0302 -1.0038
 7541SOL    HW134085   1.443   2.462   5.425  1.3350  0.4014 -2.4809
 7541SOL    HW234086   1.521   2.449   5.546 -0.1987 -1.2092 -2.5877
 7542SOL     OW34087   1.105   1.239   4.384 -0.5510  0.2162  0.4113
 7542SOL    HW134088   1.089   1.334   4.387  0.0586  0.2899  1.0746
 7542SOL    HW234089   1.080   1.203   4.469 -2.3773  1.4413  0.4036
 7543SOL     OW34090   3.145   0.265  10.388  0.6807 -0.0510 -0.0122
 7543SOL    HW134091   3.051   0.262  10.404  1.0117  1.2299  2.2323
 7543SOL    HW234092   3.146   0.350  10.344  0.5444 -0.7113 -1.2676
 7544SOL     OW34093   2.839   3.222  11.596  0.0281 -0.2706 -0.1597
 7544SOL    HW134094   2.805   3.234  11.507 -1.5892  0.5600  0.5588
 7544SOL    HW234095   2.902   3.294  11.592  1.7723 -1.7890 -0.0085
 7545SOL     OW34096   4.393   3.847  15.235  0.6735 -0.7298 -0.2020
 7545SOL    HW134097   4.401   3.927  15.286 -2.0059 -0.0933 -0.7940
 7545SOL    HW234098   4.313   3.808  15.271  0.7130 -0.3524  0.2926
 7546SOL     OW34099   1.963   2.652   3.018  0.0287 -0.2841 -0.0687
 7546SOL    HW134100   1.984   2.559   3.018  1.7816  0.1135 -1.9818
 7546SOL    HW234101   1.962   2.667   3.113  1.1150  0.4190 -0.1726
 7547SOL     OW34102   1.055   2.942   3.112 -0.2671 -0.6213  0.0264
 7547SOL    HW134103   1.069   3.023   3.063  0.0592 -0.1962  0.8337
 7547SOL    HW234104   0.960   2.930   3.121  0.1830 -3.6114  0.6364
 7548SOL     OW34105   2.126   0.557   5.881 -0.1755  0.4222  0.8846
 7548SOL    HW134106   2.138   0.646   5.913  2.9005  1.5982 -3.5219
 7548SOL    HW234107   2.039   0.558   5.841  1.0971 -1.1742 -1.9444
 7549SOL     OW34108   3.589   3.594  16.491 -0.0970  0.2052  0.5421
 7549SOL    HW134109   3.624   3.642  16.566 -0.8964 -0.1746  1.1700
 7549SOL    HW234110   3.663   3.583  16.432  0.2227  1.1507  0.7716
 7550SOL     OW34111   1.084   0.157   9.479 -0.1925 -0.1682  0.4191
 7550SOL    HW134112   1.172   0.169   9.441 -1.0773 -1.6541 -2.1291
 7550SOL    HW234113   1.028   0.124   9.408  0.9973 -1.0105 -0.1278
 7551SOL     OW34114   3.838   3.331   2.982 -0.1941  0.0435 -0.3650
 7551SOL    HW134115   3.799   3.272   2.918 -0.4069  0.3923 -0.5545
 7551SOL    HW234116   3.868   3.261   3.039 -1.3727 -0.6068 -0.5410
 7552SOL     OW34117   0.133   0.036  12.851  0.5116  0.1024 -0.5395
 7552SOL    HW134118   0.127   0.105  12.784  4.5407 -0.6373 -1.6977
 7552SOL    HW234119   0.155   4.687  12.789  0.0827 -1.2545  0.8544
 7553SOL     OW34120   1.283   4.195   8.206 -0.1483  0.0239  0.2584
 7553SOL    HW134121   1.273   4.119   8.263 -3.4405 -0.2568 -0.6587
 7553SOL    HW234122   1.289   4.269   8.267 -2.8273 -0.3513  0.9693
 7554SOL     OW34123   2.138   2.182   5.038 -0.7122 -0.3036  0.9211
 7554SOL    HW134124   2.074   2.242   5.077  0.0517  1.3813 -0.4310
 7554SOL    HW234125   2.208   2.240   5.011 -0.5747 -0.5784  0.6842
 7555SOL     OW34126   2.809   4.634  13.404  0.1852  0.1300  0.7067
 7555SOL    HW134127   2.754   4.556  13.408 -1.8413  1.4243 -1.8233
 7555SOL    HW234128   2.893   4.598  13.433 -0.5528 -0.4174  2.1692
 7556SOL     OW34129   1.794   4.382   3.036 -0.6257  0.2109  0.1815
 7556SOL    HW134130   1.748   4.385   2.952 -0.1480  1.1108 -0.0488
 7556SOL    HW234131   1.736   4.323   3.084 -1.4788  0.2768 -0.7767
 7557SOL     OW34132   0.133   3.118  11.960  0.5868 -0.0479 -0.3780
 7557SOL    HW134133   0.226   3.097  11.968  0.1338 -2.1616 -0.7597
 7557SOL    HW234134   0.118   3.184  12.028  0.3837 -0.9758  0.4856
 7558SOL     OW34135   4.293   4.548   4.002  0.4214 -0.2173 -0.2620
 7558SOL    HW134136   4.343   4.495   4.064  1.0861  1.4705  0.6582
 7558SOL    HW234137   4.330   4.634   4.021  0.3968 -0.4533  0.8222
 7559SOL     OW34138   1.596   2.417  10.392 -0.2610  0.1270 -0.3693
 7559SOL    HW134139   1.689   2.416  10.418 -0.1736 -0.9459 -0.6905
 7559SOL    HW234140   1.571   2.325  10.402 -0.2039  0.4238  2.5825
 7560SOL     OW34141   0.001   1.563   7.129  0.0992 -0.0650  0.2400
 7560SOL    HW134142   4.648   1.622   7.110  0.2989  0.7955  2.1080
 7560SOL    HW234143   0.037   1.550   7.041 -0.2561 -0.6771  0.1916
 7561SOL     OW34144   4.056   0.908   1.625  0.1921  0.0105  0.0879
 7561SOL    HW134145   4.104   0.973   1.677  0.5797  1.7645 -2.4377
 7561SOL    HW234146   4.120   0.866   1.568  0.7282 -2.2588  2.3915
 7562SOL     OW34147   0.342   4.093   5.334  0.0731 -0.0976 -0.4343
 7562SOL    HW134148   0.424   4.082   5.383  0.1382  1.7181 -0.1354
 7562SOL    HW234149   0.337   4.009   5.289 -0.5899 -1.1113  1.5429
 7563SOL     OW34150   3.701   1.612  16.411 -0.0442  0.4490 -0.0450
 7563SOL    HW134151   3.667   1.524  16.425  1.3268  0.3120  2.3711
 7563SOL    HW234152   3.662   1.635  16.327  0.0161 -0.6666 -0.3759
 7564SOL     OW34153   4.509   1.823   8.762  0.1522 -0.1389 -0.5835
 7564SOL    HW134154   4.527   1.906   8.718  0.9451 -0.1250 -0.2396
 7564SOL    HW234155   4.589   1.772   8.748  0.3240 -0.1148  0.3102
 7565SOL     OW34156   0.948   4.318   2.672  0.4245 -0.2074 -0.3577
 7565SOL    HW134157   0.956   4.302   2.578  0.5792  0.7543 -0.5131
 7565SOL    HW234158   0.859   4.350   2.689 -0.2048 -0.9397 -2.2843
 7566SOL     OW34159   0.024   4.005   8.799  0.2802 -0.3351  0.0894
 7566SOL    HW134160   0.081   3.931   8.780 -0.0267 -0.5791  0.1174
 7566SOL    HW234161   0.005   3.984   8.890 -1.0068  0.2940 -0.0293
 7567SOL     OW34162   3.158   3.186   0.236 -0.4063  0.3375 -0.1139
 7567SOL    HW134163   3.065   3.201   0.224 -1.1048 -2.2253  1.9912
 7567SOL    HW234164   3.176   3.216   0.326  2.4248  0.3330 -0.6703
 7568SOL     OW34165   3.487   0.526   2.764 -0.5459  0.0485 -0.4933
 7568SOL    HW134166   3.496   0.616   2.732  2.4124 -0.8097 -2.0886
 7568SOL    HW234167   3.410   0.501   2.713 -0.3346  1.2012 -1.3889
 7569SOL     OW34168   1.680   0.797   7.825 -0.2101 -0.0707 -0.4237
 7569SOL    HW134169   1.674   0.752   7.741  0.7921 -0.5526 -0.2377
 7569SOL    HW234170   1.592   0.782   7.858 -0.2844  1.0395 -0.1020
 7570SOL     OW34171   0.391   2.930  15.356 -0.2417 -0.3873 -0.8760
 7570SOL    HW134172   0.334   2.998  15.318 -1.8547 -1.4837 -0.3917
 7570SOL    HW234173   0.475   2.939  15.312 -0.1036 -4.0198 -1.3424
 7571SOL     OW34174   1.928   4.656   8.273  0.3405  0.8602  0.4413
 7571SOL    HW134175   2.012   4.627   8.308 -0.2439  0.9198  1.8533
 7571SOL    HW234176   1.933   0.031   8.278  0.3386  0.8766  0.1540
 7572SOL     OW34177   2.796   1.170   1.803 -0.0385  0.3547 -0.2769
 7572SOL    HW134178   2.742   1.093   1.822  2.7980 -1.8804 -1.2723
 7572SOL    HW234179   2.762   1.242   1.856  0.9815  1.3375 -0.9590
 7573SOL     OW34180   2.671   2.197  11.515 -0.2448  0.3279 -0.1865
 7573SOL    HW134181   2.668   2.277  11.567 -1.7333  0.7818 -0.9736
 7573SOL    HW234182   2.750   2.203  11.461  0.4787 -3.4500  0.4257
 7574SOL     OW34183   1.356   0.140   9.373 -0.0424  0.1280  0.1101
 7574SOL    HW134184   1.368   0.079   9.446 -0.3704 -0.0319  0.0336
 7574SOL    HW234185   1.409   0.216   9.396 -0.1736  1.1022 -2.8749
 7575SOL     OW34186   0.337   2.061   2.006  0.2454 -0.7801 -0.6656
 7575SOL    HW134187   0.276   2.024   1.943  1.7458 -2.0393 -1.3855
 7575SOL    HW234188   0.413   2.009   1.979  0.6967 -0.3120 -0.2812
 7576SOL     OW34189   1.468   4.006  11.711  0.3009  0.2894  0.1830
 7576SOL    HW134190   1.522   3.928  11.693  0.0700  0.0941  0.3325
 7576SOL    HW234191   1.506   4.064  11.645  0.8567  0.1201  0.3497
 7577SOL     OW34192   2.686   1.335   2.008  0.0206  0.2227 -1.0339
 7577SOL    HW134193   2.672   1.265   2.071  0.0082  1.3744  0.2558
 7577SOL    HW234194   2.730   1.399   2.064  2.4606 -2.7549  0.3903
 7578SOL     OW34195   2.118   4.481  12.576 -0.4564 -0.1615 -0.7872
 7578SOL    HW134196   2.051   4.427  12.618  0.6214 -0.8861  0.0045
 7578SOL    HW234197   2.131   4.434  12.494 -0.3565 -1.1796 -0.1884
 7579SOL     OW34198   2.614   2.771  16.147 -0.5602  0.3452 -0.2389
 7579SOL    HW134199   2.660   2.765  16.063  0.7633  1.3777  0.3874
 7579SOL    HW234200   2.602   2.681  16.178  1.2159  0.9248  2.2045
 7580SOL     OW34201   4.342   4.239   5.860 -0.0780  0.2144 -0.0268
 7580SOL    HW134202   4.392   4.234   5.942 -0.5331 -0.8522  0.1810
 7580SOL    HW234203   4.411   4.265   5.799  1.6908 -2.1020  0.9898
 7581SOL     OW34204   2.913   2.743  11.352 -1.0232 -0.4781  0.0710
 7581SOL    HW134205   2.868   2.749  11.268  0.0960 -0.7395 -0.5490
 7581SOL    HW234206   2.992   2.694  11.331 -0.5489 -0.0539  0.8290
 7582SOL     OW34207   2.035   1.476  16.873  0.0821 -0.2181 -0.6362
 7582SOL    HW134208   1.955   1.497  16.825  0.3880 -0.0872 -1.0964
 7582SOL    HW234209   2.041   1.381  16.875  1.5619 -0.1103  0.1818
 7583SOL     OW34210   2.168   4.591   9.868  0.4223 -0.2644 -0.4131
 7583SOL    HW134211   2.171   4.500   9.897  2.3326  0.2711  1.0792
 7583SOL    HW234212   2.256   4.628   9.876  0.4189 -0.6143  1.1756
 7584SOL     OW34213   4.343   2.917   7.409 -0.3156 -0.3005  0.0851
 7584SOL    HW134214   4.425   2.879   7.377 -1.2667 -1.8540 -0.5112
 7584SOL    HW234215   4.277   2.860   7.369 -2.0963  1.0506  1.1229
 7585SOL     OW34216   3.581   3.439   8.323  0.2264 -0.2718 -0.4441
 7585SOL    HW134217   3.637   3.391   8.262 -0.5447 -0.1356 -1.2477
 7585SOL    HW234218   3.627   3.444   8.407  1.4950  2.2678 -1.2942
 7586SOL     OW34219   3.439   2.768   8.901 -0.0325  0.2183  0.1803
 7586SOL    HW134220   3.448   2.797   8.991 -0.4384 -1.3048  0.7175
 7586SOL    HW234221   3.346   2.747   8.906  0.3029 -1.2058  0.5199
 7587SOL     OW34222   0.866   0.823   9.374  0.5941  0.0852  0.0399
 7587SOL    HW134223   0.869   0.747   9.317  2.1338 -0.2262  0.5277
 7587SOL    HW234224   0.915   0.877   9.312 -2.3732  0.8300 -1.6659
 7588SOL     OW34225   4.239   0.847  16.152  0.3060  0.3821  0.1100
 7588SOL    HW134226   4.196   0.771  16.190  2.7799  0.0607  2.3073
 7588SOL    HW234227   4.333   0.829  16.158  0.8161  2.5674 -1.2722
 7589SOL     OW34228   2.811   3.304  11.261  0.5238 -0.2888  0.4559
 7589SOL    HW134229   2.889   3.359  11.257 -0.0122  0.3382 -1.4700
 7589SOL    HW234230   2.765   3.365  11.202 -1.6611 -1.0354  1.4025
 7590SOL     OW34231   0.858   4.673   1.746 -0.1962  0.8260 -0.2909
 7590SOL    HW134232   0.945   4.638   1.724  1.7042  3.3231  3.1959
 7590SOL    HW234233   0.820   4.639   1.665  0.7627 -1.7197  0.3228
 7591SOL     OW34234   2.796   2.832   2.950 -0.3035 -0.0373 -0.1444
 7591SOL    HW134235   2.735   2.775   2.904 -0.7422  0.5446 -0.2745
 7591SOL    HW234236   2.842   2.871   2.875  0.0233  0.7809  0.4777
 7592SOL     OW34237   2.733   1.150  10.164  0.2481 -0.0749 -0.1486
 7592SOL    HW134238   2.788   1.071  10.165 -0.4651 -0.5803 -1.2671
 7592SOL    HW234239   2.717   1.154  10.259 -0.8606 -1.4480 -0.2818
 7593SOL     OW34240   3.334   3.097   8.242 -0.5025 -0.2875 -0.5921
 7593SOL    HW134241   3.288   3.015   8.226  0.0182 -0.6733 -0.0815
 7593SOL    HW234242   3.300   3.151   8.170  0.9488 -2.6981 -3.1066
 7594SOL     OW34243   1.367   4.297   1.425  0.2709  0.9985 -0.0474
 7594SOL    HW134244   1.438   4.274   1.366 -0.1261 -0.5654  0.0747
 7594SOL    HW234245   1.302   4.226   1.422  0.4427  0.8957 -1.1538
 7595SOL     OW34246   1.595   4.083   3.086 -0.5024  0.2673  0.2492
 7595SOL    HW134247   1.520   4.103   3.030  0.6075  1.3297 -0.8877
 7595SOL    HW234248   1.555   4.063   3.170 -1.8200  0.4393 -0.3453
 7596SOL     OW34249   1.314   2.853  10.877 -0.0778 -0.0215  0.5784
 7596SOL    HW134250   1.404   2.838  10.905  0.5866 -0.6478 -1.9466
 7596SOL    HW234251   1.269   2.787  10.930 -0.7365  0.5636  0.7487
 7597SOL     OW34252   1.051   0.481   7.097 -0.9766 -0.4116 -0.6353
 7597SOL    HW134253   1.016   0.528   7.021 -1.0503  0.5029 -0.0449
 7597SOL    HW234254   1.056   0.553   7.161  1.3809  0.9743 -2.3692
 7598SOL     OW34255   1.257   3.704   3.970 -0.1674 -0.2492  0.0438
 7598SOL    HW134256   1.275   3.684   3.878  0.3898  1.2980 -0.1729
 7598SOL    HW234257   1.232   3.796   3.961 -0.3419 -0.4000 -1.0699
 7599SOL     OW34258   0.826   2.431  10.442 -0.0627  0.3243  0.3821
 7599SOL    HW134259   0.802   2.374  10.514  0.0340  0.9718  0.9266
 7599SOL    HW234260   0.794   2.516  10.473  0.1670  1.0576 -1.3515
 7600SOL     OW34261   3.919   4.468   6.264  0.1460  0.0803  0.2347
 7600SOL    HW134262   3.905   4.491   6.173  1.0143  0.1829  0.1225
 7600SOL    HW234263   4.013   4.485   6.265  0.3777 -1.1943  0.5692
 7601SOL     OW34264   1.039   4.328  10.521  0.4673 -0.1534  0.0972
 7601SOL    HW134265   0.964   4.338  10.580 -0.6915 -1.4486 -1.1821
 7601SOL    HW234266   1.102   4.281  10.576 -1.9435 -1.0853  2.0587
 7602SOL     OW34267   2.786   0.163   3.787  0.1774  0.1023  0.0282
 7602SOL    HW134268   2.794   0.181   3.880 -1.2432 -1.0482  0.3921
 7602SOL    HW234269   2.876   0.174   3.758 -0.0377 -0.7773 -1.0076
 7603SOL     OW34270   2.891   2.354   0.246  0.3402  0.5836 -0.0918
 7603SOL    HW134271   2.966   2.386   0.196  1.9421 -2.3952  0.4312
 7603SOL    HW234272   2.858   2.438   0.278 -2.6528 -0.0941 -1.3645
 7604SOL     OW34273   1.747   3.835  14.961 -0.2867  0.1274 -0.2279
 7604SOL    HW134274   1.778   3.771  15.025 -2.2811 -0.1157  0.4991
 7604SOL    HW234275   1.657   3.847  14.990 -0.5895 -2.0513 -0.2687
 7605SOL     OW34276   1.348   1.527   3.968  0.0452  0.2480  0.4276
 7605SOL    HW134277   1.269   1.476   3.950 -0.3651  1.0021  0.0850
 7605SOL    HW234278   1.324   1.559   4.055 -1.1035  0.9126 -0.1311
 7606SOL     OW34279   2.409   0.497   3.969 -0.0835 -0.2952 -0.0242
 7606SOL    HW134280   2.337   0.499   4.033  1.5243 -0.4300  1.7953
 7606SOL    HW234281   2.359   0.483   3.888 -2.1828 -2.3115  1.6184
 7607SOL     OW34282   2.064   2.305   7.642 -0.1154 -0.1474  0.5546
 7607SOL    HW134283   1.989   2.254   7.612  0.5313 -0.4358 -0.5837
 7607SOL    HW234284   2.041   2.385   7.595  1.6074 -0.6129 -1.0700
 7608SOL     OW34285   1.846   2.186   1.092  0.1926 -0.2891 -0.4528
 7608SOL    HW134286   1.872   2.218   1.006  1.8999 -1.6056 -0.4316
 7608SOL    HW234287   1.810   2.271   1.118  1.8552  0.3695 -0.2984
 7609SOL     OW34288   3.461   4.521  13.683  0.2318  0.9965  0.2172
 7609SOL    HW134289   3.544   4.544  13.641  1.6109 -0.0766  2.3921
 7609SOL    HW234290   3.466   4.426  13.675  0.4616  1.2252 -2.2737
 7610SOL     OW34291   0.776   2.359  10.137 -0.3580  0.1633  0.0695
 7610SOL    HW134292   0.770   2.389  10.047 -1.6774 -0.2638  0.0121
 7610SOL    HW234293   0.865   2.381  10.163 -1.1165  3.0429  0.2362
 7611SOL     OW34294   4.713   0.780  14.653 -0.6005 -0.9733 -0.0448
 7611SOL    HW134295   0.068   0.733  14.688  0.0587 -1.0323 -1.5473
 7611SOL    HW234296   4.644   0.715  14.638 -0.1065 -1.3591 -0.6691
 7612SOL     OW34297   2.243   2.726   7.458 -0.0008 -0.4123 -0.3541
 7612SOL    HW134298   2.177   2.776   7.505 -1.4555 -1.3292 -1.4098
 7612SOL    HW234299   2.263   2.662   7.527  3.2764  2.4236  1.2876
 7613SOL     OW34300   2.345   2.233  12.681  0.1324 -0.4859 -0.2720
 7613SOL    HW134301   2.340   2.137  12.685 -0.3257 -0.3809  1.4721
 7613SOL    HW234302   2.259   2.257  12.716  0.5875  0.5884  0.1061
 7614SOL     OW34303   3.675   2.080   6.125  0.1724 -0.4147 -0.6172
 7614SOL    HW134304   3.651   1.990   6.100 -1.1935  0.0517 -1.0266
 7614SOL    HW234305   3.657   2.122   6.041 -0.9751 -0.5840 -0.4599
 7615SOL     OW34306   0.851   0.298   4.927  0.6936  0.3242 -0.2661
 7615SOL    HW134307   0.840   0.209   4.960  1.4914 -0.7699 -2.9487
 7615SOL    HW234308   0.936   0.292   4.883  2.7190  1.1786  3.5513
 7616SOL     OW34309   2.629   1.552  14.622 -0.0583 -0.2224 -0.6437
 7616SOL    HW134310   2.575   1.536  14.700  0.7054  1.8878  0.3150
 7616SOL    HW234311   2.716   1.569  14.657 -0.3204  1.1247 -0.6528
 7617SOL     OW34312   0.295   1.451   3.681  0.0518 -0.6093  0.4187
 7617SOL    HW134313   0.272   1.512   3.751  0.0506 -0.0308 -0.0849
 7617SOL    HW234314   0.222   1.388   3.684 -0.7653  0.3392  0.4278
 7618SOL     OW34315   3.859   3.174   6.970 -0.0549  0.1914  0.0605
 7618SOL    HW134316   3.952   3.152   6.959 -0.1270 -1.0450  1.8159
 7618SOL    HW234317   3.881   3.247   7.028  1.0229  0.0112 -0.1171
 7619SOL     OW34318   0.668   3.649   7.084  0.7995 -0.3200 -0.4857
 7619SOL    HW134319   0.672   3.613   7.173  1.4766 -1.3388 -0.9322
 7619SOL    HW234320   0.727   3.724   7.090  0.6686 -0.2292 -0.2938
 7620SOL     OW34321   1.373   2.627   3.355  0.5835  0.5228  0.0133
 7620SOL    HW134322   1.337   2.593   3.273 -1.5633  0.5567  0.9295
 7620SOL    HW234323   1.320   2.706   3.367  0.5136  0.6675 -1.2059
 7621SOL     OW34324   0.198   0.881   5.753  0.8420  0.2559 -0.0608
 7621SOL    HW134325   0.217   0.925   5.670 -0.0042 -2.6966 -1.8283
 7621SOL    HW234326   0.107   0.856   5.738  0.9987  1.1173 -2.5479
 7622SOL     OW34327   1.908   1.769   2.745  0.0142  0.4508  0.5858
 7622SOL    HW134328   1.987   1.820   2.723 -0.5171  0.9227 -0.2284
 7622SOL    HW234329   1.858   1.846   2.770 -1.6272 -0.7179  0.8515
 7623SOL     OW34330   2.369   3.016   7.857 -0.2704  0.3161 -0.0684
 7623SOL    HW134331   2.281   3.054   7.860  0.2685  1.5328  0.2921
 7623SOL    HW234332   2.379   3.005   7.952 -3.5479  1.9251  0.4554
 7624SOL     OW34333   2.122   1.199   2.633  0.2498  0.4055  0.5690
 7624SOL    HW134334   2.163   1.261   2.573 -0.4081 -0.0660 -0.3664
 7624SOL    HW234335   2.028   1.217   2.627  0.1471  0.8230  3.2090
 7625SOL     OW34336   3.695   0.590   2.052  0.2960 -0.2273 -0.0349
 7625SOL    HW134337   3.721   0.680   2.073 -1.6087  0.5805 -1.1539
 7625SOL    HW234338   3.713   0.559   2.141 -1.3510 -2.3759 -0.4563
 7626SOL     OW34339   4.560   0.028   9.020  0.0117 -0.0945  0.0743
 7626SOL    HW134340   4.485   0.036   8.961 -0.9476  1.1058  1.4430
 7626SOL    HW234341   4.619   0.092   8.980 -0.3781 -0.1742 -0.6406
 7627SOL     OW34342   0.273   1.969  16.805  0.0093 -0.9804  0.2290
 7627SOL    HW134343   0.222   1.951  16.726 -0.2772 -2.0032  0.6478
 7627SOL    HW234344   0.230   2.047  16.841  1.5021 -0.5066  0.9866
 7628SOL     OW34345   0.472   3.839   9.292  0.0958 -0.4244 -0.2642
 7628SOL    HW134346   0.395   3.893   9.311  0.3276  0.2508 -1.2454
 7628SOL    HW234347   0.492   3.803   9.379  1.6748 -0.9688 -0.8500
 7629SOL     OW34348   2.962   2.670   7.093 -0.0727  0.0354 -0.5793
 7629SOL    HW134349   3.000   2.757   7.083 -0.1631  0.3876  2.1111
 7629SOL    HW234350   2.963   2.668   7.189  0.5447  0.1952 -0.5874
 7630SOL     OW34351   3.182   2.352   2.903 -0.4089  0.3584  0.2201
 7630SOL    HW134352   3.095   2.383   2.879 -0.8254 -1.3099 -0.3901
 7630SOL    HW234353   3.227   2.405   2.837  1.0590 -0.8306  0.2809
 7631SOL     OW34354   2.858   1.515   0.889 -0.1021  0.3944  0.0226
 7631SOL    HW134355   2.788   1.529   0.825 -0.2767 -0.8928 -0.0618
 7631SOL    HW234356   2.925   1.582   0.876  0.4532 -0.3919 -1.1947
 7632SOL     OW34357   1.555   0.588   7.370  0.3523 -0.3886  0.2573
 7632SOL    HW134358   1.622   0.625   7.428  1.6333 -0.9621 -0.8573
 7632SOL    HW234359   1.579   0.496   7.369 -0.2888 -0.5361 -1.7795
 7633SOL     OW34360   0.162   3.756  13.657  0.1655  0.0671  0.1783
 7633SOL    HW134361   0.162   3.661  13.671 -0.2806 -0.1417 -1.2008
 7633SOL    HW234362   0.088   3.790  13.707  0.3106  1.5167 -0.5915
 7634SOL     OW34363   0.975   4.054   7.939 -0.2143  0.1216  0.6881
 7634SOL    HW134364   0.896   4.073   7.989 -0.3229  0.1375  0.5118
 7634SOL    HW234365   0.936   4.015   7.861 -0.7254  0.6521  0.6788
 7635SOL     OW34366   3.182   2.092   5.588 -0.2407  0.4346 -0.3407
 7635SOL    HW134367   3.183   2.091   5.684  2.2575 -1.2084 -0.3986
 7635SOL    HW234368   3.274   2.074   5.569 -0.3438  1.6163 -1.9889
 7636SOL     OW34369   3.400   0.751   1.507  0.1613 -0.1198 -0.1927
 7636SOL    HW134370   3.367   0.677   1.456 -1.7676  0.5526  0.0683
 7636SOL    HW234371   3.457   0.785   1.438 -0.9593  0.0136 -1.0467
 7637SOL     OW34372   4.703   1.846   4.538 -0.6127 -0.0783  1.0866
 7637SOL    HW134373   0.010   1.756   4.553  1.1822  0.3960  0.7206
 7637SOL    HW234374   4.624   1.845   4.591 -0.7300 -1.7648  0.8774
 7638SOL     OW34375   4.175   2.029   8.843  0.7662  0.2345  0.4329
 7638SOL    HW134376   4.087   2.063   8.859  0.5900  0.3260 -0.7414
 7638SOL    HW234377   4.226   2.108   8.858 -2.0520  1.9476  0.9543
 7639SOL     OW34378   4.373   0.026  13.138 -0.3447  0.5618  0.5585
 7639SOL    HW134379   4.438   0.084  13.098 -1.9744  1.0263 -1.3989
 7639SOL    HW234380   4.296   0.038  13.083  0.7555  2.7226 -0.4947
 7640SOL     OW34381   4.633   4.675   6.907  1.2422  0.8597  0.5515
 7640SOL    HW134382   4.660   4.643   6.993  0.6848  1.6078  1.0058
 7640SOL    HW234383   4.560   4.618   6.882  0.0558  2.5257  0.1875
 7641SOL     OW34384   0.530   0.234   8.619 -0.0533  0.3148 -0.2975
 7641SOL    HW134385   0.488   0.195   8.543  1.6820  1.2805 -1.7399
 7641SOL    HW234386   0.466   0.291   8.661  0.5245  1.6543 -1.2562
 7642SOL     OW34387   0.643   2.972  15.898 -0.0430 -0.7485  0.3158
 7642SOL    HW134388   0.736   2.958  15.917  0.2083  1.4553  0.7133
 7642SOL    HW234389   0.588   2.919  15.956  2.6127 -0.3644  3.1661
 7643SOL     OW34390   2.714   4.068   4.930  0.3245  0.1617  0.3431
 7643SOL    HW134391   2.641   4.125   4.957 -1.1067 -2.6321  2.4415
 7643SOL    HW234392   2.744   4.114   4.852 -1.2291  1.5284  0.5327
 7644SOL     OW34393   0.598   1.295   4.985  0.0946 -0.1432 -0.1126
 7644SOL    HW134394   0.538   1.364   5.015 -1.5260 -1.0633 -1.2996
 7644SOL    HW234395   0.537   1.244   4.933  0.8617  0.1171 -1.2765
 7645SOL     OW34396   1.815   2.935   7.211 -0.0004 -0.3476 -0.2869
 7645SOL    HW134397   1.724   2.945   7.183  0.1493 -1.6646 -1.2701
 7645SOL    HW234398   1.805   2.963   7.302  1.1917  1.1690 -0.6226
 7646SOL     OW34399   3.738   0.079  15.420  0.0615 -0.7189  0.2851
 7646SOL    HW134400   3.678   0.138  15.376 -0.7038 -1.0919  0.8312
 7646SOL    HW234401   3.823   0.108  15.387 -0.8910  2.4986  0.7412
 7647SOL     OW34402   2.829   1.714   9.394  0.7326  0.0844  0.0592
 7647SOL    HW134403   2.737   1.713   9.366  0.5583 -1.7937  0.6709
 7647SOL    HW234404   2.836   1.801   9.434 -0.7643  0.2882 -0.1199
 7648SOL     OW34405   4.352   4.326   6.596  0.2328 -0.3575 -0.6275
 7648SOL    HW134406   4.265   4.312   6.635 -0.2912  1.4893 -1.1534
 7648SOL    HW234407   4.397   4.242   6.605 -1.4992 -1.1193  0.8689
 7649SOL     OW34408   2.071   3.909   6.149  0.0969 -0.0986  0.5213
 7649SOL    HW134409   2.142   3.853   6.119  0.0366  1.4498 -2.5385
 7649SOL    HW234410   2.091   3.927   6.241 -0.5114  0.9155  0.4606
 7650SOL     OW34411   0.397   4.193   6.108  0.1964 -0.1741 -0.4274
 7650SOL    HW134412   0.462   4.129   6.077 -0.0266 -1.9140  2.6799
 7650SOL    HW234413   0.387   4.251   6.032 -1.4902  0.4646  0.2846
 7651SOL     OW34414   0.923   1.339   1.227  0.2676 -0.5560 -0.2335
 7651SOL    HW134415   0.878   1.312   1.147  0.6832 -0.0686 -0.6280
 7651SOL    HW234416   1.012   1.337   1.191  0.2061  0.4633 -0.4430
 7652SOL     OW34417   3.534   4.431  15.704  0.2604 -0.1679 -0.2233
 7652SOL    HW134418   3.595   4.451  15.633  1.3407 -0.4995  0.6214
 7652SOL    HW234419   3.589   4.422  15.781  0.1662  1.3788  0.0271
 7653SOL     OW34420   2.049   2.177   7.317  0.6849 -0.0077  0.2880
 7653SOL    HW134421   1.982   2.177   7.385  0.4245 -1.5685  0.0249
 7653SOL    HW234422   2.099   2.104   7.354 -0.0634 -1.5299 -1.6843
 7654SOL     OW34423   0.907   2.501   5.488  0.4891 -0.3782 -0.4428
 7654SOL    HW134424   1.001   2.484   5.492  0.4170 -0.4746  1.1878
 7654SOL    HW234425   0.905   2.552   5.569 -1.6259 -0.8021 -0.2235
 7655SOL     OW34426   3.220   2.290  10.224 -0.2548  0.2328 -0.0741
 7655SOL    HW134427   3.270   2.227  10.276 -2.0187 -2.8914 -2.1933
 7655SOL    HW234428   3.220   2.361  10.288 -0.3138 -1.1259  1.4391
 7656SOL     OW34429   1.802   2.654   7.555  0.4416  0.9485 -0.8740
 7656SOL    HW134430   1.820   2.631   7.646  0.6094 -0.3287 -1.2288
 7656SOL    HW234431   1.715   2.694   7.557 -0.0237 -0.0403 -1.1408
 7657SOL     OW34432   0.453   3.758  13.773  0.1812 -0.7114  0.5529
 7657SOL    HW134433   0.376   3.726  13.725  0.1450 -0.9125  0.7461
 7657SOL    HW234434   0.407   3.815  13.835  0.7901 -0.1071  0.4426
 7658SOL     OW34435   1.182   0.745   7.067  0.4439 -0.8236 -0.2697
 7658SOL    HW134436   1.267   0.723   7.105  0.6061 -0.2340 -0.2977
 7658SOL    HW234437   1.210   0.796   6.991  1.3016  0.1599  0.7021
 7659SOL     OW34438   3.856   1.302   0.433 -0.2671 -0.4676  0.0267
 7659SOL    HW134439   3.884   1.379   0.483 -2.3222  1.7653 -2.2993
 7659SOL    HW234440   3.843   1.236   0.501  2.4495  0.1284  1.1530
 7660SOL     OW34441   3.062   1.851   7.792  0.2980  0.1328 -0.4312
 7660SOL    HW134442   3.110   1.828   7.871  0.5569  0.5137 -0.4795
 7660SOL    HW234443   2.983   1.880   7.836  0.8959  2.0898 -0.6649
 7661SOL     OW34444   1.156   2.938   3.898  0.4043 -0.1936 -0.3118
 7661SOL    HW134445   1.083   2.880   3.881  1.3490 -0.9754 -1.7130
 7661SOL    HW234446   1.187   2.911   3.985  0.6510 -0.5010 -0.4945
 7662SOL     OW34447   0.385   2.207   1.719  0.1448  0.7141 -0.5024
 7662SOL    HW134448   0.417   2.253   1.642  0.3114  0.3478 -0.6525
 7662SOL    HW234449   0.305   2.167   1.685  0.8069 -1.0720  0.0203
 7663SOL     OW34450   3.867   0.554  16.328  0.4218  0.0201 -0.3191
 7663SOL    HW134451   3.890   0.545  16.421 -0.2949 -0.1672 -0.1569
 7663SOL    HW234452   3.949   0.586  16.290  0.4640 -0.6358 -0.7712
 7664SOL     OW34453   4.607   1.253   1.908 -0.0683  0.1019  0.1943
 7664SOL    HW134454   4.575   1.342   1.926  0.8530  0.3556  0.5649
 7664SOL    HW234455   4.606   1.219   1.997  1.7420 -1.2123 -0.2823
 7665SOL     OW34456   3.231   3.745   4.261  0.1843  0.1064 -0.1570
 7665SOL    HW134457   3.164   3.810   4.281 -1.5611 -0.6960 -3.3531
 7665SOL    HW234458   3.173   3.688   4.211  0.3695  1.3050 -1.7469
 7666SOL     OW34459   3.121   0.779  10.375  0.3061  0.0646 -0.0622
 7666SOL    HW134460   3.150   0.698  10.333 -1.2465 -0.2105 -0.6049
 7666SOL    HW234461   3.168   0.770  10.458  0.4862  2.6576  0.0939
 7667SOL     OW34462   1.307   0.072   5.783  0.5433  0.4144 -0.1531
 7667SOL    HW134463   1.260   0.145   5.743  1.7411  2.1463  1.6031
 7667SOL    HW234464   1.289   0.004   5.719  0.4665  1.5328 -1.3180
 7668SOL     OW34465   2.864   1.168   2.868  0.8382  0.1220 -0.2253
 7668SOL    HW134466   2.830   1.256   2.880  0.4110  0.1577 -1.6917
 7668SOL    HW234467   2.908   1.160   2.953  1.5928 -2.5910 -0.8679
 7669SOL     OW34468   4.630   1.081   0.363 -0.3831 -0.1751  1.0661
 7669SOL    HW134469   4.601   1.170   0.383 -1.3776 -0.6883  1.9137
 7669SOL    HW234470   0.003   1.096   0.374 -0.1895  0.8838 -2.2786
 7670SOL     OW34471   1.995   4.619   3.279  0.4832 -0.1048 -0.1119
 7670SOL    HW134472   2.022   4.609   3.188 -0.0979 -0.6209 -0.2309
 7670SOL    HW234473   2.061   4.670   3.325 -0.4329 -0.6536  1.7985
 7671SOL     OW34474   2.787   3.261   5.705  0.3621  0.0939 -0.0099
 7671SOL    HW134475   2.815   3.219   5.786 -0.5914  1.5934  1.0935
 7671SOL    HW234476   2.773   3.351   5.734  2.8764  0.4732  0.0309
 7672SOL     OW34477   1.923   2.663  16.450 -0.0165  0.0997 -0.0664
 7672SOL    HW134478   2.016   2.640  16.446 -0.2130 -1.1617  2.3151
 7672SOL    HW234479   1.910   2.696  16.539  0.5220  1.3824 -0.4603
 7673SOL     OW34480   0.788   3.984   5.330 -0.0305 -0.6094 -0.3038
 7673SOL    HW134481   0.866   3.981   5.274  1.1544 -1.9950  1.4043
 7673SOL    HW234482   0.778   4.078   5.343 -1.7406 -1.0748  1.7229
 7674SOL     OW34483   4.569   4.393  15.258  0.6262  0.1107  0.3642
 7674SOL    HW134484   4.594   4.359  15.172 -0.8071  2.8816 -1.1793
 7674SOL    HW234485   4.651   4.399  15.306  0.6881  0.0069  0.2715
 7675SOL     OW34486   1.965   4.353   9.477  0.0783  0.0519 -0.4615
 7675SOL    HW134487   2.047   4.394   9.505  0.2652  0.0322 -0.9808
 7675SOL    HW234488   1.981   4.259   9.487 -0.1354 -0.0442 -1.0544
 7676SOL     OW34489   1.851   2.878  14.545  0.0895  0.1696 -0.2244
 7676SOL    HW134490   1.821   2.824  14.618  2.4109 -1.4632 -0.4759
 7676SOL    HW234491   1.837   2.825  14.466 -2.0942 -0.4308  0.5609
 7677SOL     OW34492   1.761   2.316   6.703  0.0911 -0.3193  0.1816
 7677SOL    HW134493   1.696   2.366   6.753 -0.7282 -0.1813 -1.0225
 7677SOL    HW234494   1.834   2.300   6.762  1.0802  0.3757 -0.8353
 7678SOL     OW34495   0.806   0.987   2.662 -0.0765  0.4013  0.6040
 7678SOL    HW134496   0.893   1.026   2.651 -0.5079  1.0096 -0.6902
 7678SOL    HW234497   0.761   1.061   2.701 -1.5805  0.5597 -1.4099
 7679SOL     OW34498   4.464   1.332  10.083 -0.2774 -0.5949 -0.1608
 7679SOL    HW134499   4.486   1.246  10.047  0.2405 -0.3799 -0.3638
 7679SOL    HW234500   4.553   1.354  10.112 -0.3758  2.8387 -2.4448
 7680SOL     OW34501   4.245   3.631   6.370 -0.3387  0.1733  0.4802
 7680SOL    HW134502   4.327   3.662   6.332 -0.0654 -1.4893 -0.3014
 7680SOL    HW234503   4.278   3.557   6.420  0.9190  0.6461  0.3463
 7681SOL     OW34504   4.402   2.690  17.413 -0.2003  0.0179 -0.4487
 7681SOL    HW134505   4.378   2.670  17.503  0.5561 -1.5936 -0.6110
 7681SOL    HW234506   4.349   2.628  17.364 -1.1774 -1.3529  2.3869
 7682SOL     OW34507   3.964   3.642   2.398 -0.0678 -0.1847 -0.3402
 7682SOL    HW134508   3.977   3.572   2.333  1.4155  1.8347 -2.1919
 7682SOL    HW234509   4.021   3.715   2.375 -0.8555  0.1248 -1.3303
 7683SOL     OW34510   0.404   3.315   8.768 -0.1366 -0.7195 -0.3038
 7683SOL    HW134511   0.463   3.259   8.717  0.7653 -0.0782  0.0537
 7683SOL    HW234512   0.322   3.274   8.739 -0.0595 -1.2621  0.2471
 7684SOL     OW34513   2.428   1.702   6.432 -0.4905  0.3138 -0.2129
 7684SOL    HW134514   2.491   1.680   6.501 -0.4482  1.7441  0.2110
 7684SOL    HW234515   2.383   1.618   6.421 -0.4151  0.0927  1.1665
 7685SOL     OW34516   1.545   2.626   9.292 -0.0721  0.6250 -0.1792
 7685SOL    HW134517   1.580   2.670   9.370  4.6008 -2.4781 -0.5417
 7685SOL    HW234518   1.611   2.562   9.267 -0.4145  0.5977 -1.0110
 7686SOL     OW34519   1.937   3.035   1.552 -0.6101 -0.1237 -0.4130
 7686SOL    HW134520   2.028   3.057   1.535 -0.2231 -2.5117 -1.3190
 7686SOL    HW234521   1.897   3.115   1.517 -2.0403 -0.4701  0.4052
 7687SOL     OW34522   0.709   1.671   1.960  0.3883 -0.6263  0.0919
 7687SOL    HW134523   0.774   1.623   1.910 -2.7262 -1.9833 -2.6607
 7687SOL    HW234524   0.657   1.596   1.990  0.7496 -0.4430  1.1670
 7688SOL     OW34525   0.456   4.578   8.988 -0.3067 -0.3076 -0.3805
 7688SOL    HW134526   0.460   4.626   8.905  0.0235  0.6856  0.2095
 7688SOL    HW234527   0.484   4.648   9.046  0.2088 -0.2351 -0.7176
 7689SOL     OW34528   3.393   3.252  12.596 -0.0385 -1.0398  0.0702
 7689SOL    HW134529   3.405   3.322  12.660 -0.9233 -1.0271  0.2157
 7689SOL    HW234530   3.308   3.269  12.556  0.0553  1.8630  1.1268
 7690SOL     OW34531   0.223   0.224  10.280 -0.5045  0.0670  0.5140
 7690SOL    HW134532   0.272   0.144  10.261 -1.9160 -0.4727 -0.8493
 7690SOL    HW234533   0.134   0.190  10.290 -1.1952  1.2753 -1.4819
 7691SOL     OW34534   4.666   4.156   3.293  0.5231 -0.1162 -0.0563
 7691SOL    HW134535   4.601   4.094   3.327 -1.1347  1.6094 -0.0633
 7691SOL    HW234536   0.030   4.118   3.315  0.8355 -1.3001 -3.3029
 7692SOL     OW34537   1.110   1.523  12.941 -0.3968 -0.3277 -0.1545
 7692SOL    HW134538   1.124   1.503  12.848 -1.1505  1.6293 -0.6931
 7692SOL    HW234539   1.114   1.440  12.988 -0.1521 -0.0171  0.3655
 7693SOL     OW34540   4.029   2.603   5.961  0.4308 -0.5720 -0.6562
 7693SOL    HW134541   4.097   2.536   5.970  1.4867  0.5599 -0.1927
 7693SOL    HW234542   4.074   2.685   5.983 -1.1573  0.2873 -0.6129
 7694SOL     OW34543   2.121   0.762  12.641 -0.2417 -0.2829 -0.8880
 7694SOL    HW134544   2.179   0.689  12.620  1.1425  0.4342  0.4247
 7694SOL    HW234545   2.119   0.756  12.736  2.6813  2.3289 -0.6486
 7695SOL     OW34546   2.611   2.033   3.827  0.3416 -0.1816  0.3041
 7695SOL    HW134547   2.576   2.087   3.756  0.4993 -0.5122 -0.0233
 7695SOL    HW234548   2.626   1.950   3.782  1.0103 -0.7291  1.5347
 7696SOL     OW34549   0.651   2.584   8.093 -0.3954 -0.1536  0.7444
 7696SOL    HW134550   0.653   2.561   8.000 -0.7834  1.1140  0.4180
 7696SOL    HW234551   0.649   2.500   8.139  2.8802 -1.8147 -2.1578
 7697SOL     OW34552   2.482   1.149   2.593  0.5548 -0.1345  0.0014
 7697SOL    HW134553   2.434   1.222   2.632 -0.6919 -0.3267 -1.1702
 7697SOL    HW234554   2.549   1.206   2.555  0.2554 -1.2564 -2.2411
 7698SOL     OW34555   1.208   3.269   1.709  0.7611 -0.3003 -0.5329
 7698SOL    HW134556   1.263   3.204   1.666  0.5202 -1.3728  0.7838
 7698SOL    HW234557   1.157   3.217   1.771  1.9121  0.5324  1.1083
 7699SOL     OW34558   3.296   0.251  11.169  0.0906 -1.0374  0.0314
 7699SOL    HW134559   3.296   0.280  11.260 -0.4184 -2.9419  0.6332
 7699SOL    HW234560   3.329   0.161  11.175  3.4737  0.2645  1.3063
 7700SOL     OW34561   0.323   1.647  14.286 -0.1505 -0.2131  0.0276
 7700SOL    HW134562   0.329   1.664  14.380  1.2516  2.0732 -0.5002
 7700SOL    HW234563   0.248   1.587  14.277  0.1052 -0.6879  1.0691
 7701SOL     OW34564   2.219   1.287   5.082  0.9585 -0.5143 -0.0865
 7701SOL    HW134565   2.228   1.246   4.996 -1.4269 -0.2058 -0.4680
 7701SOL    HW234566   2.302   1.335   5.086  0.0006  0.8835  2.9216
 7702SOL     OW34567   1.509   1.113   9.037 -0.8699 -0.3870  0.3327
 7702SOL    HW134568   1.487   1.169   8.962  1.4262  1.2621  0.8801
 7702SOL    HW234569   1.502   1.031   8.989  1.2291  0.8517 -2.1201
 7703SOL     OW34570   1.012   0.927   8.392 -0.2767 -0.3439  0.3873
 7703SOL    HW134571   1.082   0.912   8.328 -1.1433  2.0251 -1.1197
 7703SOL    HW234572   0.991   1.017   8.367  1.6287 -0.7501 -2.7867
 7704SOL     OW34573   1.889   1.166   5.657 -0.4346 -0.4573  0.3643
 7704SOL    HW134574   1.980   1.195   5.660 -0.3852 -0.5705 -0.0337
 7704SOL    HW234575   1.849   1.240   5.612  1.1527 -0.6802 -1.4170
 7705SOL     OW34576   2.610   3.422   5.183 -0.4106  0.0985  0.4194
 7705SOL    HW134577   2.642   3.493   5.239  0.1386 -0.3444  0.6692
 7705SOL    HW234578   2.663   3.346   5.210  0.1276 -0.7843 -3.1830
 7706SOL     OW34579   4.537   0.253   3.909  0.0909  0.0656  0.5034
 7706SOL    HW134580   4.610   0.247   3.970  0.7676 -0.5771 -0.3689
 7706SOL    HW234581   4.579   0.296   3.835 -1.0523  3.4598  1.8315
 7707SOL     OW34582   0.498   2.214   9.257 -0.2420 -0.4024 -0.1508
 7707SOL    HW134583   0.574   2.181   9.306 -0.6990  1.2783  1.6909
 7707SOL    HW234584   0.547   2.233   9.177  0.8473 -2.4520  0.0322
 7708SOL     OW34585   0.221   1.676   5.239  0.1353  0.0745  0.0190
 7708SOL    HW134586   0.128   1.690   5.223 -0.1867 -1.0397  0.8949
 7708SOL    HW234587   0.236   1.584   5.260 -2.1415  0.1953  2.1559
 7709SOL     OW34588   2.080   3.894   6.431 -0.4654 -0.1080  0.1945
 7709SOL    HW134589   2.049   3.938   6.511 -0.0918 -0.2062  0.3926
 7709SOL    HW234590   2.130   3.827   6.477  1.1079  0.5015 -0.6651
 7710SOL     OW34591   2.517   2.364   8.213 -0.1274  0.5904  0.5607
 7710SOL    HW134592   2.475   2.430   8.267  4.6988  3.8808  0.2883
 7710SOL    HW234593   2.594   2.404   8.173 -2.3419  2.0902 -2.2902
 7711SOL     OW34594   3.555   4.454   7.248  0.1611 -0.0064  0.0675
 7711SOL    HW134595   3.581   4.467   7.339  2.3194  1.0953 -0.6983
 7711SOL    HW234596   3.545   4.359   7.241  0.2250 -0.0447  0.4830
 7712SOL     OW34597   1.077   1.615   8.448  0.2809 -0.1351 -0.4707
 7712SOL    HW134598   1.117   1.549   8.392 -1.6799 -3.4052  2.0447
 7712SOL    HW234599   0.996   1.568   8.469 -0.1495  1.7908  2.1431
 7713SOL     OW34600   1.588   2.535   6.110 -0.0530 -0.1426  0.0893
 7713SOL    HW134601   1.555   2.521   6.198 -0.5865  1.9440  0.2176
 7713SOL    HW234602   1.507   2.553   6.061  0.3855 -1.1848 -1.0404
 7714SOL     OW34603   2.158   0.710   0.372 -0.0636  0.0330  0.6370
 7714SOL    HW134604   2.077   0.744   0.412  0.6509  0.0992  2.0361
 7714SOL    HW234605   2.168   0.758   0.290  0.2660 -1.9915 -0.4864
 7715SOL     OW34606   0.457   4.629   3.972 -0.1840  0.1777 -0.0974
 7715SOL    HW134607   0.439   4.555   3.913 -1.3860 -1.2993  2.0714
 7715SOL    HW234608   0.366   4.643   4.000  0.6026  2.1281  1.4313
 7716SOL     OW34609   0.759   2.514   0.196  0.4536  0.2874 -0.1260
 7716SOL    HW134610   0.805   2.497   0.115  1.1230  0.7788  0.1561
 7716SOL    HW234611   0.813   2.582   0.237  0.7240  0.4508 -0.7635
 7717SOL     OW34612   3.723   1.225   5.727  0.3264 -0.6134  0.0566
 7717SOL    HW134613   3.693   1.153   5.671  0.8338 -0.1653 -0.7937
 7717SOL    HW234614   3.793   1.179   5.773 -0.3222  0.9471  2.5748
 7718SOL     OW34615   2.665   3.611  16.066  0.2422  0.0455  0.6426
 7718SOL    HW134616   2.734   3.555  16.029  0.1756 -0.6764  1.5987
 7718SOL    HW234617   2.713   3.692  16.083 -0.1825 -0.2040  3.0376
 7719SOL     OW34618   1.493   4.259   5.810  0.9008  0.5614 -0.2859
 7719SOL    HW134619   1.586   4.238   5.816  0.7452 -0.4474 -1.2581
 7719SOL    HW234620   1.492   4.280   5.717 -0.0087 -1.1215 -0.6623
 7720SOL     OW34621   1.537   1.769   5.657  0.4435 -0.0059  0.2277
 7720SOL    HW134622   1.491   1.758   5.574  1.2941 -2.6191  0.1173
 7720SOL    HW234623   1.515   1.862   5.668 -0.8930 -0.4452  1.3269
 7721SOL     OW34624   4.633   0.886   0.745  0.3131  0.1134 -0.1215
 7721SOL    HW134625   4.613   0.819   0.680  0.2594 -0.5824  0.6155
 7721SOL    HW234626   4.554   0.938   0.759  1.9295  2.9331 -1.3149
 7722SOL     OW34627   0.110   4.562   9.921 -0.0935  0.3097  0.1393
 7722SOL    HW134628   0.048   4.490   9.936  1.1533 -0.5266  1.2409
 7722SOL    HW234629   0.068   4.597   9.842  0.6776  0.7220 -0.0850
 7723SOL     OW34630   1.260   3.359   8.306 -0.1064 -0.1665  0.3214
 7723SOL    HW134631   1.341   3.409   8.312 -0.8528  1.3800 -2.5645
 7723SOL    HW234632   1.203   3.433   8.285 -0.6411 -0.5231  0.4817
 7724SOL     OW34633   2.445   1.563   7.656 -0.1186 -0.5099 -0.6039
 7724SOL    HW134634   2.532   1.582   7.622 -0.5300 -0.4485 -1.6244
 7724SOL    HW234635   2.406   1.650   7.650 -0.9024 -0.7629  0.7826
 7725SOL     OW34636   3.492   2.100  16.309  0.2806 -0.1752 -0.5627
 7725SOL    HW134637   3.446   2.127  16.229  0.4677 -3.1897 -1.7098
 7725SOL    HW234638   3.568   2.054  16.273 -0.0718 -1.3962  0.2373
 7726SOL     OW34639   0.306   1.179   4.443  0.1494 -0.1591  0.7285
 7726SOL    HW134640   0.269   1.164   4.356 -0.8799  3.3627  0.5618
 7726SOL    HW234641   0.342   1.094   4.469  1.0585  0.2690  0.8449
 7727SOL     OW34642   2.984   1.653  16.983 -0.1691 -0.4091 -0.9865
 7727SOL    HW134643   3.075   1.669  17.009 -0.3735 -0.5797 -0.1412
 7727SOL    HW234644   2.962   1.746  16.976  1.4377  0.1461  1.0858
 7728SOL     OW34645   1.975   0.874   7.575 -0.3462 -0.1464 -0.5140
 7728SOL    HW134646   2.058   0.828   7.565 -0.2448 -0.2814  0.9947
 7728SOL    HW234647   2.003   0.962   7.548  1.2084 -0.3654  0.3761
 7729SOL     OW34648   1.908   3.152  12.536  0.1508  0.3087  0.5379
 7729SOL    HW134649   1.860   3.158  12.454 -1.2568 -2.4877  1.1748
 7729SOL    HW234650   1.873   3.070  12.571  1.6545 -1.0183 -1.0595
 7730SOL     OW34651   0.317   3.865   5.201 -0.3371  0.2932  0.1101
 7730SOL    HW134652   0.338   3.774   5.177  1.5529  0.8657 -0.3694
 7730SOL    HW234653   0.223   3.849   5.208 -0.2160 -0.2091  0.5845
 7731SOL     OW34654   1.711   3.492   2.225 -0.4249 -0.1440  0.1042
 7731SOL    HW134655   1.620   3.519   2.223  0.8740  4.0711 -3.5544
 7731SOL    HW234656   1.700   3.406   2.185 -3.4253 -0.1206  0.9115
 7732SOL     OW34657   0.063   1.398   5.685 -0.4609  0.0441 -0.4302
 7732SOL    HW134658   0.135   1.389   5.747  1.5463 -1.6286 -2.9732
 7732SOL    HW234659   0.069   1.488   5.652  0.0875 -0.2289 -1.1046
 7733SOL     OW34660   2.715   4.305   4.273  0.0075 -0.6894 -0.1612
 7733SOL    HW134661   2.670   4.250   4.208 -0.4639  0.8643 -1.1319
 7733SOL    HW234662   2.805   4.272   4.276 -0.4409 -1.8632  0.5317
 7734SOL     OW34663   3.830   3.747   7.221  0.4337  0.3834  0.1334
 7734SOL    HW134664   3.735   3.755   7.233 -0.0889 -1.0347 -3.0620
 7734SOL    HW234665   3.817   3.688   7.147  1.5229  1.8804 -1.2438
 7735SOL     OW34666   3.188   0.779   3.280  0.2246  0.0445 -0.4743
 7735SOL    HW134667   3.205   0.798   3.372  0.6991 -1.4220 -0.2550
 7735SOL    HW234668   3.172   0.867   3.248 -0.4952  0.2607  0.4784
 7736SOL     OW34669   3.380   0.175   5.551 -0.1437  0.2941  0.2807
 7736SOL    HW134670   3.472   0.194   5.565  0.2202  0.4856 -2.4547
 7736SOL    HW234671   3.332   0.229   5.615 -0.9254 -1.0280  0.8195
 7737SOL     OW34672   2.703   0.879   1.862 -0.3213  0.2610  0.7112
 7737SOL    HW134673   2.782   0.869   1.809 -2.2726 -1.6744 -1.8463
 7737SOL    HW234674   2.641   0.824   1.813  1.0176  0.2184 -0.9425
 7738SOL     OW34675   4.110   3.422  10.188  0.1948  0.2952 -0.1029
 7738SOL    HW134676   4.034   3.460  10.144 -0.4905  1.8028  2.4155
 7738SOL    HW234677   4.155   3.381  10.113 -0.6361  0.3917 -0.6579
 7739SOL     OW34678   1.479   1.427   2.726  0.8509  0.4519 -0.5445
 7739SOL    HW134679   1.466   1.521   2.718  0.8788  0.5231  0.1934
 7739SOL    HW234680   1.404   1.403   2.780  0.4731 -0.9639 -1.6984
 7740SOL     OW34681   0.137   3.557   9.029 -0.9432 -0.4991 -0.1695
 7740SOL    HW134682   0.171   3.486   8.975  0.5458 -0.3530  0.5642
 7740SOL    HW234683   0.081   3.586   8.957  0.3777 -0.8711 -1.3358
 7741SOL     OW34684   3.110   2.180  16.983  0.1337  0.2905 -0.3804
 7741SOL    HW134685   3.080   2.094  17.014 -0.1116  0.7028  0.5143
 7741SOL    HW234686   3.204   2.164  16.988 -0.2268 -2.3154 -1.7350
 7742SOL     OW34687   2.920   0.382   4.173  0.1340 -0.2571  0.2101
 7742SOL    HW134688   2.932   0.327   4.251  0.4333 -1.1153 -0.4467
 7742SOL    HW234689   2.918   0.470   4.211 -0.7655 -0.8960  1.6527
 7743SOL     OW34690   1.050   0.762   4.694  0.1611  0.6778 -0.1907
 7743SOL    HW134691   0.994   0.840   4.698 -0.5595  0.1316  0.3335
 7743SOL    HW234692   1.046   0.723   4.781  2.7409 -2.9549 -1.7323
 7744SOL     OW34693   2.556   3.237   6.809  0.0141  0.3180  0.1727
 7744SOL    HW134694   2.625   3.238   6.743  0.9093  0.3671  1.1133
 7744SOL    HW234695   2.597   3.256   6.893  1.9137  2.9509 -1.3585
 7745SOL     OW34696   1.941   4.553  12.251 -0.5434  0.1790  0.6770
 7745SOL    HW134697   1.958   4.646  12.266 -1.5003  0.8149 -2.1232
 7745SOL    HW234698   1.894   4.550  12.168 -0.5508 -3.0388  0.7950
 7746SOL     OW34699   3.106   1.365   7.776 -0.0029 -0.5344 -0.3870
 7746SOL    HW134700   3.116   1.375   7.682 -1.1690  1.8957 -0.2488
 7746SOL    HW234701   3.157   1.285   7.782 -1.5708 -1.5891 -1.0913
 7747SOL     OW34702   1.381   0.015   3.791  0.2950 -0.0534  0.5898
 7747SOL    HW134703   1.411   0.097   3.829  0.7995  0.3105 -0.6133
 7747SOL    HW234704   1.469   4.708   3.767  0.1230  0.4720 -0.6446
 7748SOL     OW34705   2.805   1.453   1.448  0.0374  0.4228  0.0759
 7748SOL    HW134706   2.891   1.468   1.411 -0.1290  0.8770 -0.1298
 7748SOL    HW234707   2.748   1.471   1.373  0.0675 -1.3645 -0.3913
 7749SOL     OW34708   4.105   2.310  14.023  0.6369 -0.2960  0.1183
 7749SOL    HW134709   4.163   2.289  14.096 -1.2353 -2.4142  0.9936
 7749SOL    HW234710   4.032   2.250  14.039  1.0948 -0.9281 -0.1587
 7750SOL     OW34711   2.955   0.526  16.448  0.4138  0.1106 -0.5562
 7750SOL    HW134712   3.028   0.523  16.510  0.0105 -1.1004 -0.1233
 7750SOL    HW234713   2.926   0.617  16.457 -0.3171 -0.0054 -1.7179
 7751SOL     OW34714   4.335   1.625   0.654  0.1484 -0.1824 -0.2125
 7751SOL    HW134715   4.292   1.614   0.738 -0.7649 -0.6542 -0.7405
 7751SOL    HW234716   4.264   1.595   0.596 -0.1968 -2.1414  1.2192
 7752SOL     OW34717   3.999   1.603   0.229  0.0639 -0.5815  0.4459
 7752SOL    HW134718   4.012   1.651   0.147 -1.4277 -0.7668  0.0993
 7752SOL    HW234719   3.904   1.596   0.222  0.0755 -0.8975  0.6287
 7753SOL     OW34720   0.924   2.311   4.664  0.0594 -0.0053 -0.3451
 7753SOL    HW134721   0.964   2.335   4.747 -0.6038  0.9226 -0.3004
 7753SOL    HW234722   0.849   2.370   4.663 -0.9489 -1.3003 -1.8083
 7754SOL     OW34723   4.094   0.892   7.652  0.1534 -0.1066  0.0298
 7754SOL    HW134724   4.056   0.979   7.665  2.1751  0.5560  1.4889
 7754SOL    HW234725   4.077   0.858   7.739  0.6259  0.1968  0.2399
 7755SOL     OW34726   0.638   4.436  14.315 -0.1477  0.3288 -0.0009
 7755SOL    HW134727   0.715   4.465  14.364 -0.0141 -1.4239  0.8553
 7755SOL    HW234728   0.627   4.349  14.354  0.4479 -1.1809 -3.1692
 7756SOL     OW34729   1.255   0.787  13.915 -0.3218 -0.8235  0.1913
 7756SOL    HW134730   1.228   0.750  13.999 -0.9594  0.1078  0.4039
 7756SOL    HW234731   1.320   0.850  13.944  0.3869 -1.3508 -0.2483
 7757SOL     OW34732   4.630   0.210   7.775  0.5511  0.4388 -0.3738
 7757SOL    HW134733   4.584   0.253   7.848 -0.6186  1.3802 -1.6737
 7757SOL    HW234734   4.556   0.192   7.718 -0.7944  0.1740  1.4347
 7758SOL     OW34735   1.240   2.560   4.592  0.2725  0.3182 -0.7021
 7758SOL    HW134736   1.264   2.516   4.673 -1.0477 -2.1748 -1.6889
 7758SOL    HW234737   1.170   2.622   4.616 -1.2327 -1.1683 -1.2647
 7759SOL     OW34738   4.378   4.027   8.063 -0.6033  0.0857 -0.0865
 7759SOL    HW134739   4.288   4.058   8.061 -0.4517  0.4716 -1.1288
 7759SOL    HW234740   4.372   3.933   8.045 -1.5195 -0.1523  1.4743
 7760SOL     OW34741   2.079   2.577   5.944  0.5577  0.2040  0.0894
 7760SOL    HW134742   2.111   2.488   5.957  1.4764  0.6250  0.6627
 7760SOL    HW234743   2.081   2.579   5.848 -1.6541  1.1771  0.0514
 7761SOL     OW34744   1.651   3.294  16.196 -0.1503 -0.2137  0.1148
 7761SOL    HW134745   1.693   3.296  16.282  0.0763 -1.3963  0.0255
 7761SOL    HW234746   1.726   3.267  16.143 -0.6163 -0.4979 -0.4040
 7762SOL     OW34747   0.027   0.072   8.472  0.4318  0.3750 -0.3411
 7762SOL    HW134748   0.016   0.150   8.527 -0.0941  0.4655 -0.5731
 7762SOL    HW234749   0.103   0.099   8.420 -0.0564  1.6973 -0.3622
 7763SOL     OW34750   4.360   2.097   1.930 -0.2539  0.0294  0.6088
 7763SOL    HW134751   4.357   2.003   1.952 -0.5687 -0.1890 -0.3853
 7763SOL    HW234752   4.276   2.134   1.958  0.2327  2.0423 -0.6037
 7764SOL     OW34753   0.599   0.882   6.643  0.0061 -0.0155 -0.0709
 7764SOL    HW134754   0.603   0.940   6.566  0.1378 -0.5719 -0.4843
 7764SOL    HW234755   0.656   0.912   6.714 -0.6985 -1.8807  1.2774
 7765SOL     OW34756   0.430   2.808  15.607  0.0478 -0.1153  0.4519
 7765SOL    HW134757   0.448   2.807  15.513 -1.7737 -1.6718  0.1070
 7765SOL    HW234758   0.402   2.899  15.614  2.1214  0.6347 -1.0133
 7766SOL     OW34759   3.215   4.534   3.122  0.3154 -0.0707  0.6633
 7766SOL    HW134760   3.169   4.606   3.079 -1.7809 -1.7298  0.0858
 7766SOL    HW234761   3.178   4.462   3.070 -0.6361  1.7665 -1.2343
 7767SOL     OW34762   1.068   3.486   5.307  0.3130  0.2007 -0.0267
 7767SOL    HW134763   1.099   3.520   5.392 -2.1301  0.0100  0.9516
 7767SOL    HW234764   1.088   3.393   5.306  1.7947  0.5088  0.8322
 7768SOL     OW34765   1.667   1.974   0.297 -0.2305  0.2731 -0.3813
 7768SOL    HW134766   1.608   1.995   0.225 -2.5782  0.3489  1.5785
 7768SOL    HW234767   1.631   1.894   0.335  0.4317 -0.2379 -0.8079
 7769SOL     OW34768   1.374   0.392   8.474 -0.1229  0.0766  0.5023
 7769SOL    HW134769   1.389   0.418   8.565 -1.9730  3.1559 -0.0551
 7769SOL    HW234770   1.303   0.450   8.447  0.1056  0.2241  0.2180
 7770SOL     OW34771   1.874   1.555   4.660 -0.0114  0.5099 -0.4437
 7770SOL    HW134772   1.797   1.543   4.715  1.0222 -1.6270  0.5533
 7770SOL    HW234773   1.863   1.645   4.631 -1.9965  0.9726  1.7037
 7771SOL     OW34774   4.329   0.872   6.306  0.1778  0.1164 -0.1089
 7771SOL    HW134775   4.301   0.878   6.398 -0.7940  1.8750 -0.5271
 7771SOL    HW234776   4.248   0.849   6.262 -0.1424  0.2014  0.4312
 7772SOL     OW34777   3.735   2.751   7.706  0.5670  0.1830 -0.1556
 7772SOL    HW134778   3.669   2.687   7.731  2.2409 -2.7253 -3.2828
 7772SOL    HW234779   3.785   2.776   7.784 -0.1171 -0.5539  0.5161
 7773SOL     OW34780   0.937   0.009   5.830  0.0027 -0.1133 -0.0313
 7773SOL    HW134781   0.869   4.669   5.802  0.0358 -0.6434  1.0357
 7773SOL    HW234782   0.922   0.076   5.764  1.2606  0.7665  0.5809
 7774SOL     OW34783   4.543   0.793   8.150 -0.2403  0.0752  0.3929
 7774SOL    HW134784   4.540   0.736   8.073  1.6782  0.2575  0.1789
 7774SOL    HW234785   4.546   0.727   8.219  3.9767  0.1956  0.3617
 7775SOL     OW34786   0.438   0.923  10.248 -0.0052  0.0944  0.1192
 7775SOL    HW134787   0.523   0.936  10.290 -0.4489  1.7745  0.4633
 7775SOL    HW234788   0.375   0.930  10.320  0.2522 -1.6607  0.5214
 7776SOL     OW34789   2.160   2.622   8.925 -0.2857 -0.0117  0.2069
 7776SOL    HW134790   2.117   2.579   8.998 -1.0622  1.9098  0.8719
 7776SOL    HW234791   2.121   2.572   8.853  3.7466 -2.3634 -0.3463
 7777SOL     OW34792   0.860   3.584   5.069 -0.3507 -0.5156 -0.4146
 7777SOL    HW134793   0.932   3.641   5.043 -0.0173 -0.0300  1.5843
 7777SOL    HW234794   0.903   3.530   5.135  2.4730  1.4457 -0.6512
 7778SOL     OW34795   2.795   2.833   7.791  0.0599 -0.3745  0.2369
 7778SOL    HW134796   2.793   2.782   7.711 -2.5678 -0.8972  0.6599
 7778SOL    HW234797   2.733   2.905   7.778  0.7433 -0.0049 -0.9868
 7779SOL     OW34798   2.301   4.591   0.923  0.0316 -0.0228 -0.4289
 7779SOL    HW134799   2.273   4.499   0.924  0.3013 -0.1019  0.3480
 7779SOL    HW234800   2.350   4.591   1.005  1.7887 -1.4436 -1.4836
 7780SOL     OW34801   1.287   0.032  13.658 -0.7583  0.0659  0.4081
 7780SOL    HW134802   1.268   0.117  13.619  0.9380 -0.1150 -0.8349
 7780SOL    HW234803   1.325   4.712  13.580 -0.7205  0.8562  0.0134
 7781SOL     OW34804   2.406   2.963   3.191  0.3891  0.3341  0.0326
 7781SOL    HW134805   2.347   2.929   3.123  1.9853  0.1740 -1.2932
 7781SOL    HW234806   2.353   2.938   3.266 -3.1976  0.1720 -2.5301
 7782SOL     OW34807   1.608   1.969   1.656  0.3561 -0.0359  0.1866
 7782SOL    HW134808   1.655   2.051   1.665 -0.4845  0.3395  1.2365
 7782SOL    HW234809   1.679   1.911   1.685  0.7101  0.7036  0.7957
 7783SOL     OW34810   1.203   1.290   6.630 -0.0876 -0.4111  0.5779
 7783SOL    HW134811   1.181   1.283   6.723 -1.8224 -1.0517  0.1178
 7783SOL    HW234812   1.298   1.275   6.631  0.1647  1.2065  1.2155
 7784SOL     OW34813   0.408   4.655   8.715 -0.4105 -0.4455  0.0640
 7784SOL    HW134814   0.425   0.007   8.655  2.8007 -1.9202 -0.8125
 7784SOL    HW234815   0.314   4.643   8.727 -0.6439  2.6842  1.2830
 7785SOL     OW34816   3.900   4.450   2.102 -0.5447  0.0115 -0.5460
 7785SOL    HW134817   3.922   4.397   2.025 -1.0684  0.7146 -1.1751
 7785SOL    HW234818   3.811   4.476   2.079  0.1024  1.1441 -1.7599
 7786SOL     OW34819   2.561   1.067   4.880 -0.3917 -0.3031 -0.2170
 7786SOL    HW134820   2.566   1.153   4.923 -1.0399 -1.0683  1.4164
 7786SOL    HW234821   2.581   1.090   4.790 -1.2016 -1.1230 -0.6116
 7787SOL     OW34822   2.654   0.868   8.242  0.2521 -0.4375  0.0833
 7787SOL    HW134823   2.737   0.827   8.217  0.9972  0.1149  1.6805
 7787SOL    HW234824   2.679   0.959   8.230  1.1487 -0.5074  1.3964
 7788SOL     OW34825   2.796   4.263   3.915  0.1369 -0.4757  0.0517
 7788SOL    HW134826   2.769   4.286   3.826  0.6297  2.3252  0.6286
 7788SOL    HW234827   2.817   4.169   3.908  2.7551 -0.0436  2.3017
 7789SOL     OW34828   0.236   4.455   6.208  0.2426  0.1109  0.3573
 7789SOL    HW134829   0.249   4.395   6.282 -2.5903 -0.5007  0.3412
 7789SOL    HW234830   0.261   4.395   6.137  2.6946 -1.9515  2.8958
 7790SOL     OW34831   1.357   3.503   7.972 -0.7826 -0.0813  0.3586
 7790SOL    HW134832   1.288   3.564   7.998  0.7213  1.6570  0.2890
 7790SOL    HW234833   1.383   3.547   7.891  1.5095  0.5720  1.4436
 7791SOL     OW34834   0.212   4.174   7.095 -0.1149 -0.2681  0.2809
 7791SOL    HW134835   0.124   4.150   7.121 -0.1512  1.2375  1.5231
 7791SOL    HW234836   0.225   4.264   7.124 -1.4792 -0.6217  1.9255
 7792SOL     OW34837   2.668   3.259   3.344 -0.1242 -0.0557 -0.4634
 7792SOL    HW134838   2.685   3.265   3.438  0.2634  0.5599 -0.5761
 7792SOL    HW234839   2.680   3.167   3.322 -1.8440 -0.4161  0.0451
 7793SOL     OW34840   2.957   2.953   7.098 -0.4258  0.4907 -0.0439
 7793SOL    HW134841   2.998   3.019   7.041  3.0407 -0.2792  1.5451
 7793SOL    HW234842   3.012   2.958   7.177 -1.7362 -0.8444  0.9424
 7794SOL     OW34843   0.581   3.714   5.643  0.0321 -0.2347 -0.4106
 7794SOL    HW134844   0.500   3.664   5.652  0.0495 -0.3639 -0.9607
 7794SOL    HW234845   0.637   3.666   5.704  0.4701 -1.5127 -1.7993
 7795SOL     OW34846   2.889   1.699   2.114  0.4009  0.3693  0.2279
 7795SOL    HW134847   2.944   1.747   2.176  0.1289  2.5036 -1.1899
 7795SOL    HW234848   2.900   1.743   2.030  2.1082  0.4973  0.5035
 7796SOL     OW34849   0.544   2.026   9.038  0.3064  0.0139 -0.7155
 7796SOL    HW134850   0.508   2.109   9.008  0.2488  0.1803 -0.1914
 7796SOL    HW234851   0.638   2.041   9.026  0.6198 -1.7406 -0.4146
 7797SOL     OW34852   4.710   4.711  13.935  0.3247  0.0610  0.1017
 7797SOL    HW134853   0.028   0.078  13.938 -0.6341  0.4786  0.4908
 7797SOL    HW234854   4.691   4.681  14.024 -1.6704 -2.6263 -1.2293
 7798SOL     OW34855   3.117   4.268  13.654 -0.1243 -0.0567 -0.0648
 7798SOL    HW134856   3.086   4.178  13.650 -0.4304 -0.0112  1.3128
 7798SOL    HW234857   3.052   4.319  13.703 -0.2926 -1.2099  0.8966
 7799SOL     OW34858   2.694   3.109   7.216  0.2207 -0.0820 -0.0032
 7799SOL    HW134859   2.720   3.022   7.187 -2.6684 -1.6027  2.0458
 7799SOL    HW234860   2.778   3.148   7.242  1.9315 -2.6507 -1.6562
 7800SOL     OW34861   3.884   1.304  14.062  0.4889 -0.6162  0.0897
 7800SOL    HW134862   3.793   1.290  14.089 -0.0263 -1.0022 -1.7849
 7800SOL    HW234863   3.909   1.393  14.083  1.0086 -0.2528 -2.0505
 7801SOL     OW34864   1.028   0.005   5.406 -0.1021  0.1922  0.0319
 7801SOL    HW134865   0.946   4.713   5.358 -0.7748 -2.1579  1.7895
 7801SOL    HW234866   1.010   0.066   5.477  0.1100 -0.1014  0.3423
 7802SOL     OW34867   0.967   1.977   1.849  0.2242 -0.3630 -0.3401
 7802SOL    HW134868   1.030   1.990   1.920 -0.0675 -0.9910  0.0345
 7802SOL    HW234869   0.991   1.892   1.814  0.6261 -0.0269 -0.8775
 7803SOL     OW34870   1.995   1.933   0.718 -0.0419  0.6981  0.0552
 7803SOL    HW134871   2.044   1.934   0.635  0.0808 -0.3201  0.1226
 7803SOL    HW234872   2.069   1.955   0.775 -1.6302 -1.2863  2.8860
 7804SOL     OW34873   3.941   1.825   9.436  0.0502  0.0542  0.5562
 7804SOL    HW134874   3.981   1.910   9.452 -0.9788  0.4872  0.8616
 7804SOL    HW234875   3.885   1.851   9.362  0.6767 -0.0701  0.0393
 7805SOL     OW34876   3.021   1.809  12.029  0.5014 -0.5821 -0.1553
 7805SOL    HW134877   2.967   1.887  12.032  1.9034  0.4079 -0.4475
 7805SOL    HW234878   3.001   1.786  12.119  2.6116  0.0003  0.4695
 7806SOL     OW34879   2.396   0.916   7.678  0.2234 -0.1689  0.0641
 7806SOL    HW134880   2.344   0.931   7.757  0.2643  1.5411 -0.2480
 7806SOL    HW234881   2.459   0.987   7.688 -0.8947  0.7862  0.3796
 7807SOL     OW34882   0.419   2.734   3.556  0.4424 -0.5927  0.5929
 7807SOL    HW134883   0.373   2.679   3.620  0.8539 -1.3380  0.2588
 7807SOL    HW234884   0.395   2.819   3.592 -0.8698 -0.7175  0.0166
 7808SOL     OW34885   3.512   0.029   4.746  0.2061 -0.6286 -0.4789
 7808SOL    HW134886   3.451   4.680   4.726  0.1780 -1.0349  1.0298
 7808SOL    HW234887   3.458   0.103   4.715  1.6310  0.1420 -1.1234
 7809SOL     OW34888   2.520   4.177  12.345 -0.0302  0.5173 -0.0208
 7809SOL    HW134889   2.439   4.210  12.306 -0.8367  1.0886  2.1212
 7809SOL    HW234890   2.569   4.257  12.361 -1.1609  1.2010  0.0467
 7810SOL     OW34891   2.923   1.829   1.881 -0.0338 -0.6207  0.6401
 7810SOL    HW134892   2.990   1.789   1.826  0.8409  0.6775  0.7601
 7810SOL    HW234893   2.858   1.842   1.811  1.7583  3.9867 -0.1559
 7811SOL     OW34894   2.756   2.022   3.552 -0.5540  0.2236  0.0022
 7811SOL    HW134895   2.679   1.992   3.504 -0.0592  1.2038 -1.4316
 7811SOL    HW234896   2.766   1.944   3.605  2.7832  1.0779  0.6175
 7812SOL     OW34897   0.557   1.535  15.449  0.0994 -0.1660  0.5032
 7812SOL    HW134898   0.518   1.622  15.439 -2.8039 -1.5470 -0.1933
 7812SOL    HW234899   0.498   1.478  15.399  0.2253  0.2854 -0.1583
 7813SOL     OW34900   3.159   3.388   5.571  0.0558 -0.1703  0.0621
 7813SOL    HW134901   3.069   3.419   5.558  1.4878  2.4066 -3.6441
 7813SOL    HW234902   3.146   3.337   5.651  0.3247 -0.8432 -0.3255
 7814SOL     OW34903   0.192   2.452   4.005 -0.5144 -0.6890  0.0604
 7814SOL    HW134904   0.121   2.496   4.053  0.6365  0.6810  0.5000
 7814SOL    HW234905   0.262   2.479   4.065  1.2083  1.5388 -2.9663
 7815SOL     OW34906   0.640   1.685  11.344  0.3758  0.6554 -0.0927
 7815SOL    HW134907   0.652   1.779  11.352  1.4257  0.4299  1.0671
 7815SOL    HW234908   0.546   1.667  11.348  0.5407  0.1457  1.8229
 7816SOL     OW34909   2.560   0.597   5.198 -0.0696 -0.9497 -0.3199
 7816SOL    HW134910   2.581   0.514   5.242 -0.3617 -1.2038 -0.6527
 7816SOL    HW234911   2.495   0.628   5.261  1.4922  1.9906 -0.1966
 7817SOL     OW34912   3.256   0.829   3.998 -0.4460  0.3709 -0.5615
 7817SOL    HW134913   3.342   0.805   4.032  0.2195  2.1766 -0.9797
 7817SOL    HW234914   3.285   0.862   3.913 -2.4282  0.2999 -1.2670
 7818SOL     OW34915   4.214   0.502   4.999 -0.1328 -0.0631  0.0562
 7818SOL    HW134916   4.187   0.415   4.969 -0.1398  0.2077 -0.7269
 7818SOL    HW234917   4.131   0.538   5.031 -1.9485 -3.0255 -1.2363
 7819SOL     OW34918   4.039   0.020   4.855 -0.4097 -0.0931  0.8029
 7819SOL    HW134919   3.945   0.036   4.861 -0.7746 -1.9085 -0.1007
 7819SOL    HW234920   4.036   4.676   4.785 -3.2571  0.4844  0.4113
 7820SOL     OW34921   3.104   4.190   4.031  0.2948  0.3399  0.1718
 7820SOL    HW134922   3.089   4.285   4.024  0.2148  0.3647  0.6811
 7820SOL    HW234923   3.176   4.191   4.095  3.0657  1.4251 -2.9490
 7821SOL     OW34924   0.017   2.539   9.091  0.6618 -0.5433 -0.5647
 7821SOL    HW134925   0.064   2.618   9.064  0.3812 -0.5012 -0.9305
 7821SOL    HW234926   4.702   2.573   9.173  1.2251  1.8011 -1.2947
 7822SOL     OW34927   0.127   1.949   3.661 -0.1941  0.1910  0.2974
 7822SOL    HW134928   0.173   1.987   3.736 -1.6400 -1.3355  1.9593
 7822SOL    HW234929   0.200   1.909   3.613 -0.4005 -1.7922  1.6107
 7823SOL     OW34930   0.734   4.585   6.295 -0.0913  0.4475  0.0732
 7823SOL    HW134931   0.679   4.515   6.259  0.7105 -0.4011  0.5059
 7823SOL    HW234932   0.698   4.611   6.380  0.2853 -1.4983  0.8438
 7824SOL     OW34933   3.060   3.828  15.964 -0.3239  0.6836 -0.3546
 7824SOL    HW134934   3.010   3.787  15.893  2.5184 -1.9472 -0.8314
 7824SOL    HW234935   3.147   3.789  15.968 -1.1799 -1.1626  0.4122
 7825SOL     OW34936   3.774   1.508   9.034  0.3006 -0.1675  0.6243
 7825SOL    HW134937   3.799   1.537   8.946 -0.2208  1.5393  1.0324
 7825SOL    HW234938   3.698   1.565   9.046 -0.4367 -1.4388  2.0010
 7826SOL     OW34939   3.253   1.918   7.616  0.3194 -0.6092 -0.2693
 7826SOL    HW134940   3.274   1.855   7.547  0.5263  0.8592 -1.5419
 7826SOL    HW234941   3.174   1.888   7.661 -1.2676  1.4141 -1.7078
 7827SOL     OW34942   1.297   3.433   1.911 -0.1037 -0.0453  0.2988
 7827SOL    HW134943   1.264   3.373   1.844  0.8253  0.1434 -0.3385
 7827SOL    HW234944   1.227   3.499   1.903 -1.9375 -2.1184 -0.5893
 7828SOL     OW34945   2.222   2.115   5.354  0.4569 -0.5002  0.1363
 7828SOL    HW134946   2.317   2.127   5.347 -0.1505  3.1075 -1.4836
 7828SOL    HW234947   2.189   2.119   5.264  2.2074  0.5978 -0.4598
 7829SOL     OW34948   0.244   0.162  14.159 -0.5115  0.0443  0.0073
 7829SOL    HW134949   0.268   0.087  14.104  0.4066  0.1842  0.2093
 7829SOL    HW234950   0.150   0.146  14.153 -0.3205 -1.3993  0.8177
 7830SOL     OW34951   1.590   2.277  13.877  0.2252  0.2039 -0.3881
 7830SOL    HW134952   1.662   2.233  13.832  2.8513  4.0264  0.0251
 7830SOL    HW234953   1.545   2.302  13.796  1.8209 -1.0649 -1.6657
 7831SOL     OW34954   2.741   0.744   4.872  0.2709 -0.1827 -0.0994
 7831SOL    HW134955   2.796   0.701   4.807  0.7094  0.2957 -0.0477
 7831SOL    HW234956   2.681   0.793   4.815  1.2122  1.1907  0.0853
 7832SOL     OW34957   1.505   1.847   1.353 -0.0364  0.2378 -0.2865
 7832SOL    HW134958   1.578   1.876   1.299  1.4022  0.2827  1.7105
 7832SOL    HW234959   1.536   1.761   1.381 -1.1248  0.0049  0.2041
 7833SOL     OW34960   3.375   3.810   0.099 -0.2929  0.1036  0.1049
 7833SOL    HW134961   3.314   3.803   0.025  1.1809 -0.3278 -1.0578
 7833SOL    HW234962   3.420   3.726   0.090  2.1341  1.4369  0.0020
 7834SOL     OW34963   1.442   2.286  15.640  0.0147  0.1861  0.2572
 7834SOL    HW134964   1.479   2.335  15.713 -0.4345  0.8549  0.0367
 7834SOL    HW234965   1.349   2.298  15.658 -0.2503 -0.1936 -0.8452
 7835SOL     OW34966   1.051   2.597  10.217 -0.0010 -0.2499 -0.1280
 7835SOL    HW134967   0.991   2.648  10.164 -0.0251 -1.5306 -1.3377
 7835SOL    HW234968   1.126   2.656  10.225 -0.3868  0.1247  0.7941
 7836SOL     OW34969   0.894   3.435   7.551 -0.5552  0.0324  0.1561
 7836SOL    HW134970   0.900   3.343   7.524 -1.2585  0.2767 -0.8606
 7836SOL    HW234971   0.815   3.429   7.604  0.2377 -1.3067  1.1637
 7837SOL     OW34972   3.885   1.278   1.096 -0.5373  0.1904 -0.2413
 7837SOL    HW134973   3.794   1.296   1.118 -0.4202 -1.5153  1.5604
 7837SOL    HW234974   3.929   1.346   1.147 -0.4012  1.6901 -2.3388
 7838SOL     OW34975   4.171   1.662  13.507  0.2361 -0.2310 -0.0088
 7838SOL    HW134976   4.142   1.613  13.430  2.9266 -1.2039 -0.4243
 7838SOL    HW234977   4.259   1.682  13.474  0.4335 -0.3511  0.4377
 7839SOL     OW34978   4.146   0.118   7.573 -0.0083 -0.4612 -0.3126
 7839SOL    HW134979   4.075   0.121   7.637  0.7626 -1.0442  0.5614
 7839SOL    HW234980   4.154   0.031   7.535 -1.9299 -0.9641  0.4086
 7840SOL     OW34981   4.190   0.567   4.267 -0.5930 -0.1133 -0.1662
 7840SOL    HW134982   4.191   0.655   4.305 -0.9508 -0.0654 -0.2604
 7840SOL    HW234983   4.107   0.571   4.219 -0.5382  0.5915 -0.2079
 7841SOL     OW34984   4.720   1.053   3.301  0.1016  0.5226  0.6004
 7841SOL    HW134985   0.083   1.006   3.299 -1.4219 -2.2059  2.2517
 7841SOL    HW234986   4.711   1.076   3.208  0.1230 -0.6703  0.3043
 7842SOL     OW34987   1.860   1.200   5.966  0.1124 -0.1564 -0.0559
 7842SOL    HW134988   1.814   1.214   5.883 -1.8669 -0.5189  0.9697
 7842SOL    HW234989   1.903   1.285   5.969 -1.1952  0.5177 -0.4663
 7843SOL     OW34990   2.231   1.110   2.869  0.0016  0.0619 -0.1851
 7843SOL    HW134991   2.271   1.178   2.923  0.5803 -0.1293 -0.3793
 7843SOL    HW234992   2.235   1.140   2.778 -0.2084 -0.6720 -0.4346
 7844SOL     OW34993   0.273   2.712   5.639  0.6626 -0.4535  0.2569
 7844SOL    HW134994   0.359   2.685   5.668  0.8674 -0.1885 -0.0999
 7844SOL    HW234995   0.234   2.635   5.598  0.6187 -0.1458 -0.2864
 7845SOL     OW34996   4.718   2.778   4.931 -0.0513  0.4458 -0.1609
 7845SOL    HW134997   4.714   2.703   4.872 -0.0999 -0.4156  0.9359
 7845SOL    HW234998   0.084   2.766   4.970  0.0609  1.7146 -0.0270
 7846SOL     OW34999   2.706   0.271   1.345  0.3769  0.4463  0.6037
 7846SOL    HW135000   2.636   0.322   1.385 -1.0314  0.0846 -1.4273
 7846SOL    HW235001   2.686   0.281   1.252  1.6695 -1.1715  0.1438
 7847SOL     OW35002   1.354   1.097   3.204 -0.3649 -0.3549  0.5067
 7847SOL    HW135003   1.386   1.027   3.147  2.1515  0.8014  0.4621
 7847SOL    HW235004   1.334   1.047   3.283 -0.9089 -0.9725 -0.0254
 7848SOL     OW35005   0.318   2.890   7.299  0.1919 -0.7322 -0.3040
 7848SOL    HW135006   0.282   2.939   7.373  0.6982  0.7995 -1.0656
 7848SOL    HW235007   0.248   2.828   7.278  0.9440 -1.1120 -1.6995
 7849SOL     OW35008   2.740   2.992   0.424  0.7651 -0.5223  0.1005
 7849SOL    HW135009   2.665   2.960   0.374  1.4871 -2.2046  0.1060
 7849SOL    HW235010   2.725   3.086   0.426 -0.0234 -0.6358 -0.6888
 7850SOL     OW35011   1.992   4.026   8.406  0.4109 -0.2446 -0.2758
 7850SOL    HW135012   1.948   3.951   8.446 -0.3037 -1.7410 -3.8408
 7850SOL    HW235013   1.935   4.100   8.427  0.1425 -0.1852 -1.2007
 7851SOL     OW35014   1.546   1.647   9.954  0.4851  0.5309  0.2064
 7851SOL    HW135015   1.571   1.676   9.867 -0.2911  2.3973  0.5895
 7851SOL    HW235016   1.535   1.552   9.955 -0.1966  0.6127  0.4453
 7852SOL     OW35017   1.554   4.720  17.608 -0.0955  0.1985 -0.4382
 7852SOL    HW135018   1.509   0.061  17.666 -1.5017 -0.6456 -0.6328
 7852SOL    HW235019   1.483   4.693  17.550 -0.8044  1.4638 -0.1523
 7853SOL     OW35020   1.982   3.998   6.654  0.1794 -0.0213  0.1994
 7853SOL    HW135021   2.009   3.942   6.727  0.7829  1.0325  0.7956
 7853SOL    HW235022   1.939   4.073   6.698  0.2780 -0.1809  0.5696
 7854SOL     OW35023   1.674   2.781  14.748  0.2857  1.1115 -0.2828
 7854SOL    HW135024   1.697   2.714  14.812 -1.3638 -0.5570 -1.4348
 7854SOL    HW235025   1.686   2.852  14.812  0.8585 -2.2524  3.2991
 7855SOL     OW35026   1.823   0.898  14.199 -0.6430  0.2308  0.1350
 7855SOL    HW135027   1.765   0.872  14.127 -0.0839 -0.7515  0.0383
 7855SOL    HW235028   1.893   0.935  14.147  1.2314 -0.2670  2.2958
 7856SOL     OW35029   1.491   1.928   6.020  0.5619  0.7213  0.1746
 7856SOL    HW135030   1.439   1.854   6.051  2.5178 -0.4517  0.7222
 7856SOL    HW235031   1.564   1.886   5.973 -0.0276  0.1470 -0.2271
 7857SOL     OW35032   1.069   3.217   7.191 -0.0115  0.2586 -0.2947
 7857SOL    HW135033   1.025   3.255   7.114 -4.1090 -1.2359  1.3643
 7857SOL    HW235034   1.137   3.167   7.144  0.8498 -0.9776  2.2931
 7858SOL     OW35035   1.201   4.545  12.010  0.3625  0.1251  0.1956
 7858SOL    HW135036   1.240   4.528  12.096 -1.8770  0.5286  1.2765
 7858SOL    HW235037   1.121   4.592  12.033 -0.8097 -0.9506 -1.6669
 7859SOL     OW35038   2.489   1.606  13.135 -0.2566 -0.3294 -0.3470
 7859SOL    HW135039   2.537   1.592  13.054 -0.8104 -0.6204 -0.6282
 7859SOL    HW235040   2.442   1.684  13.106 -1.9526 -0.8588  0.9560
 7860SOL     OW35041   0.462   2.452  15.429 -0.2022 -0.1078  0.1742
 7860SOL    HW135042   0.370   2.477  15.437 -0.1151  0.4033 -0.3917
 7860SOL    HW235043   0.507   2.469  15.511 -0.3020  0.6765  0.0734
 7861SOL     OW35044   3.509   0.522   0.119  0.3159  0.4246 -0.4574
 7861SOL    HW135045   3.591   0.520   0.169  1.0957 -0.9936 -1.8059
 7861SOL    HW235046   3.469   0.604   0.149 -0.0042  0.4823 -1.0448
 7862SOL     OW35047   4.186   2.748  10.371  0.0159 -0.0206  0.3509
 7862SOL    HW135048   4.155   2.800  10.445 -0.3457  0.3480 -0.0611
 7862SOL    HW235049   4.105   2.722  10.327  0.8597 -1.6351 -0.2820
 7863SOL     OW35050   1.863   0.463   7.380 -0.0127  0.3001  0.3607
 7863SOL    HW135051   1.848   0.509   7.298  0.5644  0.9746  0.6352
 7863SOL    HW235052   1.847   0.374   7.349  0.0633  0.2232  0.5416
 7864SOL     OW35053   1.337   1.501   8.695  0.0194  0.2484 -0.3195
 7864SOL    HW135054   1.350   1.596   8.694 -0.3919  0.3057 -0.3601
 7864SOL    HW235055   1.241   1.504   8.690  0.0061  0.1491 -0.1164
 7865SOL     OW35056   3.642   0.622   4.972  0.0085  0.1862 -0.1277
 7865SOL    HW135057   3.601   0.588   5.051  0.5034 -1.8347 -0.7387
 7865SOL    HW235058   3.647   0.551   4.908 -0.9921  0.9753 -1.0894
 7866SOL     OW35059   1.749   2.851   4.757 -0.0220 -0.4718  0.3857
 7866SOL    HW135060   1.842   2.874   4.753 -0.7852  2.5612 -0.6292
 7866SOL    HW235061   1.724   2.879   4.845 -0.3915 -3.5803  1.2377
 7867SOL     OW35062   3.892   3.290   9.341 -0.6967  0.0208 -0.3088
 7867SOL    HW135063   3.972   3.272   9.392 -0.3480  2.5177  0.0032
 7867SOL    HW235064   3.835   3.244   9.403 -0.9325  0.3057 -0.3118
 7868SOL     OW35065   1.551   1.807   0.548 -0.0679  0.1874 -0.5821
 7868SOL    HW135066   1.457   1.810   0.564  0.1797 -1.0391  1.0872
 7868SOL    HW235067   1.584   1.879   0.601 -0.1226 -0.3599  0.1854
 7869SOL     OW35068   4.256   2.129   2.978  0.4544 -0.4195  0.0293
 7869SOL    HW135069   4.178   2.076   2.989 -0.0829  0.8401  2.4211
 7869SOL    HW235070   4.331   2.070   2.967  1.3102  0.7118 -0.2288
 7870SOL     OW35071   3.959   2.144  13.408 -0.0857  0.3405  0.7164
 7870SOL    HW135072   3.906   2.160  13.330  0.0927 -2.0981  0.0770
 7870SOL    HW235073   3.977   2.232  13.439  0.1348  0.3411  0.5883
 7871SOL     OW35074   3.382   0.578   6.573 -0.5636  0.0061 -0.0302
 7871SOL    HW135075   3.386   0.555   6.480 -0.9532  0.2993 -0.1180
 7871SOL    HW235076   3.443   0.514   6.610 -0.0068  1.0426  0.8384
 7872SOL     OW35077   3.772   2.441   3.225 -0.5882  0.1853  0.0897
 7872SOL    HW135078   3.679   2.442   3.201 -0.2663  0.8743 -1.1431
 7872SOL    HW235079   3.810   2.500   3.159  1.3044  0.6412  1.5859
 7873SOL     OW35080   2.382   2.593   6.568 -0.2970  0.2086 -0.1777
 7873SOL    HW135081   2.450   2.564   6.507  0.7577  1.0371  0.6064
 7873SOL    HW235082   2.349   2.508   6.600 -0.6997  0.1166 -0.8260
 7874SOL     OW35083   0.111   4.142  11.581 -0.2035  0.0218 -0.3508
 7874SOL    HW135084   0.163   4.086  11.524 -0.4049 -1.0130  0.4943
 7874SOL    HW235085   0.165   4.220  11.597  0.2287  0.0554 -1.8911
 7875SOL     OW35086   4.127   3.440   7.775  0.2388 -0.6441 -0.3998
 7875SOL    HW135087   4.200   3.397   7.818 -0.0164  1.0698  1.7321
 7875SOL    HW235088   4.110   3.504   7.844 -0.5269  1.4702 -2.5704
 7876SOL     OW35089   0.377   4.348   8.731 -0.0684  0.2289  0.0150
 7876SOL    HW135090   0.415   4.430   8.763 -1.5650  0.6986  0.5862
 7876SOL    HW235091   0.327   4.379   8.655 -1.4496  1.4562  1.4357
 7877SOL     OW35092   1.152   0.905  10.677 -0.2515  0.4031  0.9297
 7877SOL    HW135093   1.218   0.909  10.746 -0.5268  1.4540  1.1220
 7877SOL    HW235094   1.159   0.984  10.625 -2.2554 -0.4266 -0.6122
 7878SOL     OW35095   0.258   4.429  10.475 -0.2946 -0.0788 -0.1384
 7878SOL    HW135096   0.320   4.403  10.544  1.3942  0.0977 -1.5864
 7878SOL    HW235097   0.181   4.425  10.532 -1.0940 -1.4591 -1.3370
 7879SOL     OW35098   4.531   2.281   0.336 -0.1973  0.8148  0.0585
 7879SOL    HW135099   4.440   2.283   0.367 -0.7219  0.4537 -1.4919
 7879SOL    HW235100   4.521   2.255   0.245  1.1645 -1.6562  0.6132
 7880SOL     OW35101   1.358   1.687  15.067 -0.0893 -0.2888  0.1562
 7880SOL    HW135102   1.408   1.768  15.056  1.5638 -1.2769  0.3693
 7880SOL    HW235103   1.419   1.628  15.111  0.3490 -0.6220 -0.8965
 7881SOL     OW35104   0.333   2.834   3.311  0.0940  0.0790 -0.2315
 7881SOL    HW135105   0.354   2.927   3.312  1.1143 -0.1205 -2.3270
 7881SOL    HW235106   0.338   2.807   3.403  2.4586 -0.3810 -0.5102
 7882SOL     OW35107   3.683   1.186   8.037  0.0911  0.5875 -1.1890
 7882SOL    HW135108   3.594   1.181   8.000 -0.5589  1.4057  0.2710
 7882SOL    HW235109   3.652   1.166   8.125  1.5025 -1.3234 -1.1350
 7883SOL     OW35110   2.182   1.858   5.757  0.8406 -0.0526 -0.1504
 7883SOL    HW135111   2.219   1.916   5.691 -0.6839  1.6996  0.5191
 7883SOL    HW235112   2.114   1.914   5.795 -1.0846 -0.9357 -2.2896
 7884SOL     OW35113   2.263   0.497   6.636 -0.1035  0.3481 -0.0501
 7884SOL    HW135114   2.252   0.492   6.731  0.3017 -0.4549 -0.0502
 7884SOL    HW235115   2.187   0.455   6.595 -0.9745  1.5457  0.3402
 7885SOL     OW35116   0.641   2.688  15.854  0.1973  0.4130 -0.4532
 7885SOL    HW135117   0.667   2.754  15.918  1.7579 -3.0413  2.5285
 7885SOL    HW235118   0.655   2.744  15.778 -0.1349  0.5636 -0.4049
 7886SOL     OW35119   3.311   0.237   4.674  0.0530  0.3955 -0.4329
 7886SOL    HW135120   3.323   0.316   4.728  0.8187  0.0116 -0.0434
 7886SOL    HW235121   3.355   0.260   4.593  0.6874 -0.8891 -0.4529
 7887SOL     OW35122   1.457   1.208   0.715 -0.2871 -0.0518  0.2004
 7887SOL    HW135123   1.456   1.303   0.701 -1.2265  0.1393  1.6049
 7887SOL    HW235124   1.550   1.191   0.702 -0.6410  0.5232 -3.1342
 7888SOL     OW35125   1.254   0.459  13.379 -0.7060  0.3288 -0.2710
 7888SOL    HW135126   1.217   0.539  13.342 -1.2498 -0.4050 -1.3209
 7888SOL    HW235127   1.203   0.465  13.460 -0.3477 -1.3346  0.0962
 7889SOL     OW35128   3.096   2.533  11.280 -0.2529 -0.2429  0.6555
 7889SOL    HW135129   3.104   2.477  11.203 -2.0507  1.0436 -0.4765
 7889SOL    HW235130   3.133   2.480  11.351  1.2552 -0.5146 -0.3257
 7890SOL     OW35131   3.767   1.395   4.558 -0.1464 -0.0599 -0.4106
 7890SOL    HW135132   3.775   1.459   4.487  0.7020  0.5475  0.2250
 7890SOL    HW235133   3.787   1.310   4.519  1.8738 -0.3138  1.1670
 7891SOL     OW35134   2.393   1.833  15.081  0.1028  0.4068  0.0312
 7891SOL    HW135135   2.475   1.881  15.066  1.4463 -1.5974  1.0325
 7891SOL    HW235136   2.342   1.884  15.145 -0.0716  0.2752 -0.0073
 7892SOL     OW35137   3.784   1.719   4.061 -0.8623  0.6396  0.5798
 7892SOL    HW135138   3.722   1.781   4.098 -0.7595  0.0299  1.7785
 7892SOL    HW235139   3.868   1.741   4.101 -1.9343  2.3235  1.8872
 7893SOL     OW35140   2.149   1.741  14.699  0.0032 -0.0265 -0.2375
 7893SOL    HW135141   2.113   1.682  14.632  0.9836 -0.5222 -0.3340
 7893SOL    HW235142   2.234   1.757  14.659  1.4864  0.4547  3.1443
 7894SOL     OW35143   3.494   1.215   1.623  0.0119 -0.7631  0.0092
 7894SOL    HW135144   3.476   1.135   1.673  1.7396 -0.3665  1.2833
 7894SOL    HW235145   3.432   1.271   1.670  0.1242  0.4744 -1.3346
 7895SOL     OW35146   1.493   4.277   7.956  0.3977 -0.2486 -0.0957
 7895SOL    HW135147   1.428   4.266   8.025  0.0362  3.6631  0.1556
 7895SOL    HW235148   1.578   4.290   7.997  0.9795 -0.0946 -1.3269
 7896SOL     OW35149   0.213   4.708   7.039 -0.5040 -0.0350  0.2593
 7896SOL    HW135150   0.190   0.034   7.119  0.1811 -1.7742  1.4755
 7896SOL    HW235151   0.214   0.061   6.978 -1.5836  0.4680  0.8617
 7897SOL     OW35152   1.235   1.504   9.970  0.0366  0.7556 -0.2539
 7897SOL    HW135153   1.144   1.484   9.948  0.5954 -1.7433 -0.2791
 7897SOL    HW235154   1.286   1.503   9.889  0.3384  2.0330 -0.0782
 7898SOL     OW35155   1.705   1.710   9.705 -0.7243 -0.5755 -0.1101
 7898SOL    HW135156   1.645   1.753   9.644  1.0357 -2.2020 -3.0193
 7898SOL    HW235157   1.783   1.764   9.701 -0.9759  0.0365  3.1744
 7899SOL     OW35158   1.377   3.138   3.256  0.2894  0.5280 -0.9777
 7899SOL    HW135159   1.408   3.078   3.188  0.5844 -1.4556  0.9143
 7899SOL    HW235160   1.456   3.171   3.298  0.5965  1.4278 -2.2595
 7900SOL     OW35161   3.916   3.724  16.973  0.1557 -0.3114  0.2817
 7900SOL    HW135162   3.867   3.796  16.934 -0.4200 -1.2594 -0.7164
 7900SOL    HW235163   3.975   3.696  16.903 -0.7578 -0.8145 -0.2785
 7901SOL     OW35164   4.477   3.744   3.488 -0.0963  0.1626  0.0708
 7901SOL    HW135165   4.393   3.700   3.500  0.2151 -1.2203 -2.7443
 7901SOL    HW235166   4.525   3.711   3.564 -0.4412  0.9601  0.6266
 7902SOL     OW35167   3.859   1.212   5.392 -0.1820  0.7359 -0.5494
 7902SOL    HW135168   3.772   1.214   5.430 -0.1856 -1.1823 -0.4443
 7902SOL    HW235169   3.916   1.242   5.463  0.7762 -0.7645 -0.6700
 7903SOL     OW35170   4.026   0.695   8.467  0.1138  0.1195  0.4503
 7903SOL    HW135171   4.069   0.775   8.437  0.9848 -1.5480 -2.7231
 7903SOL    HW235172   4.023   0.648   8.383 -1.4251  2.3728 -0.7631
 7904SOL     OW35173   1.660   0.464   2.943 -0.3184  0.0373  0.9023
 7904SOL    HW135174   1.720   0.390   2.958 -0.4638 -0.0339  1.1294
 7904SOL    HW235175   1.716   0.518   2.887 -0.0216  0.2319  1.3814
 7905SOL     OW35176   2.421   0.013   3.259 -0.6094  0.0718 -0.6288
 7905SOL    HW135177   2.391   0.029   3.349 -0.7376  3.0205 -1.2238
 7905SOL    HW235178   2.504   0.060   3.250 -1.1219  1.1826  0.3759
 7906SOL     OW35179   2.762   2.435   3.883  0.4398  0.6238 -0.1616
 7906SOL    HW135180   2.834   2.416   3.822 -2.0664  0.8667 -3.2258
 7906SOL    HW235181   2.758   2.531   3.884 -2.6798  0.4745  0.1403
 7907SOL     OW35182   3.137   1.249   6.283  0.1368 -0.6392 -0.3552
 7907SOL    HW135183   3.186   1.252   6.201 -0.8391  3.0962 -0.7681
 7907SOL    HW235184   3.148   1.155   6.300 -1.7757 -0.6280  0.9554
 7908SOL     OW35185   0.254   3.752   6.371  0.3141  0.0319  0.4301
 7908SOL    HW135186   0.349   3.760   6.358  0.5304 -1.2767  1.1006
 7908SOL    HW235187   0.222   3.787   6.288  1.1896  1.4668  0.6980
 7909SOL     OW35188   4.113   1.742  12.754  0.6373 -0.0286 -0.4015
 7909SOL    HW135189   4.164   1.821  12.735 -2.8144  2.1249 -0.7163
 7909SOL    HW235190   4.036   1.754  12.699 -0.6560 -0.9503  1.1889
 7910SOL     OW35191   1.326   2.712   5.387  0.4942  0.6356  0.5846
 7910SOL    HW135192   1.376   2.679   5.461  1.8764 -1.1673 -1.1853
 7910SOL    HW235193   1.395   2.718   5.322 -0.3123 -1.1299 -0.4278
 7911SOL     OW35194   1.907   4.244   3.711  0.3406  0.5311  0.0002
 7911SOL    HW135195   1.982   4.303   3.714  1.8525 -1.3668 -0.4548
 7911SOL    HW235196   1.842   4.269   3.776  1.2922  1.8955  0.4394
 7912SOL     OW35197   1.273   1.730  13.018  0.7276 -0.3743 -0.4514
 7912SOL    HW135198   1.212   1.798  13.045 -0.5070 -1.2181 -1.1114
 7912SOL    HW235199   1.208   1.666  12.989 -0.2266  0.6145 -0.4824
 7913SOL     OW35200   0.589   1.706   4.328 -0.1393 -0.1963  0.1541
 7913SOL    HW135201   0.523   1.765   4.292 -0.0283 -1.2563 -1.7810
 7913SOL    HW235202   0.592   1.639   4.260  0.6584 -0.8477  0.8246
 7914SOL     OW35203   3.647   4.300   3.018 -0.6589  0.4978  0.5133
 7914SOL    HW135204   3.619   4.378   3.066 -0.1807  0.6086  0.6181
 7914SOL    HW235205   3.732   4.275   3.055  0.2219  1.3328 -0.9116
 7915SOL     OW35206   3.367   0.779  11.226  0.0098 -0.4237 -0.4274
 7915SOL    HW135207   3.426   0.705  11.212 -0.5301 -0.8090 -0.6313
 7915SOL    HW235208   3.306   0.773  11.153  0.3086  2.6212 -0.9469
 7916SOL     OW35209   3.495   2.957   2.964  0.4498  0.1718 -0.3052
 7916SOL    HW135210   3.587   2.982   2.960  1.2651 -2.7648 -0.0041
 7916SOL    HW235211   3.481   2.904   2.885 -1.2551  0.8946 -0.4855
 7917SOL     OW35212   0.414   0.842   6.201 -0.0452 -0.9768 -0.5382
 7917SOL    HW135213   0.321   0.824   6.214 -0.0019 -0.5986  0.2855
 7917SOL    HW235214   0.455   0.766   6.159  0.6322 -0.4254 -0.8789
 7918SOL     OW35215   0.794   4.395   4.678 -0.1481  0.0092 -0.2606
 7918SOL    HW135216   0.733   4.448   4.729  2.2496  1.7788  0.7192
 7918SOL    HW235217   0.819   4.321   4.733 -1.7483 -0.7527 -0.5556
 7919SOL     OW35218   3.982   1.359   6.281 -0.1244  0.1907  0.2623
 7919SOL    HW135219   4.072   1.332   6.263 -0.3373 -1.7416  2.0260
 7919SOL    HW235220   3.958   1.304   6.356  0.8897 -3.3222 -2.0117
 7920SOL     OW35221   2.883   0.698   8.145 -0.3511  0.0671 -0.2434
 7920SOL    HW135222   2.851   0.670   8.059  0.2279 -1.4583  0.0416
 7920SOL    HW235223   2.975   0.703   8.118 -0.0818  0.6291  0.7877
 7921SOL     OW35224   3.076   0.612   5.128  0.1204  0.1543 -0.2375
 7921SOL    HW135225   3.013   0.605   5.057 -0.9772 -2.5454  1.0075
 7921SOL    HW235226   3.025   0.595   5.207 -0.8608  0.1912 -0.8716
 7922SOL     OW35227   1.928   0.105  13.075  0.3303  0.0154  0.0276
 7922SOL    HW135228   1.959   0.195  13.061  0.6952 -0.0558  0.3723
 7922SOL    HW235229   1.833   0.114  13.077  0.3317  0.0476 -0.0335
 7923SOL     OW35230   3.398   3.198  15.689 -0.1439 -0.3085 -0.0190
 7923SOL    HW135231   3.478   3.146  15.689 -0.1575 -0.3118 -1.9511
 7923SOL    HW235232   3.348   3.143  15.749 -1.2976  0.2178 -0.4859
 7924SOL     OW35233   0.976   0.985   6.775 -0.5496  0.0191 -0.4580
 7924SOL    HW135234   0.885   0.980   6.804 -0.5280  1.4996 -0.1321
 7924SOL    HW235235   1.003   0.893   6.768 -2.5797 -0.4438 -2.2496
 7925SOL     OW35236   1.391   1.394   8.241  0.1991  0.1321 -0.9040
 7925SOL    HW135237   1.481   1.393   8.207  0.9866 -3.3755  1.2810
 7925SOL    HW235238   1.419   1.447   8.316 -1.0130  0.9717 -1.0498
 7926SOL     OW35239   1.885   1.856   6.376 -0.1034 -0.4148 -0.6386
 7926SOL    HW135240   1.797   1.893   6.375  0.5159  1.0048 -2.1431
 7926SOL    HW235241   1.868   1.788   6.310  1.3016 -1.7031  0.3045
 7927SOL     OW35242   2.258   0.158   0.931 -0.1648  0.1928 -0.3494
 7927SOL    HW135243   2.167   0.132   0.922 -0.3932  1.0654 -0.5117
 7927SOL    HW235244   2.300   0.078   0.961  0.2234  0.4886 -0.1003
 7928SOL     OW35245   2.333   0.551   7.289 -0.4430  0.1821  0.1440
 7928SOL    HW135246   2.254   0.506   7.320 -0.1672 -0.2065  0.2829
 7928SOL    HW235247   2.365   0.497   7.217 -1.1539 -0.1266  0.0656
 7929SOL     OW35248   2.126   4.433   8.119 -0.3938 -0.2132  0.1515
 7929SOL    HW135249   2.214   4.468   8.132  0.8055 -3.7424  1.5388
 7929SOL    HW235250   2.140   4.352   8.167  2.2339 -0.0121 -0.2966
 7930SOL     OW35251   0.897   2.942   1.624  0.6119 -0.5964  0.0049
 7930SOL    HW135252   0.897   3.036   1.604 -0.8815 -0.9565 -1.7619
 7930SOL    HW235253   0.824   2.906   1.574  0.3068 -1.3426  0.9969
 7931SOL     OW35254   2.264   0.083   2.477 -0.2602  0.9539 -0.1197
 7931SOL    HW135255   2.336   0.085   2.414  1.8277  0.6153  2.2692
 7931SOL    HW235256   2.191   0.117   2.425 -0.9920 -1.1253 -0.4397
 7932SOL     OW35257   4.448   0.190   0.133 -0.7103  0.1357 -0.5505
 7932SOL    HW135258   4.375   0.240   0.169 -0.7686 -0.6065  0.3885
 7932SOL    HW235259   4.413   0.109   0.171 -1.4675  0.9024  0.3771
 7933SOL     OW35260   0.129   0.950  11.370  0.3114 -0.2097 -0.1135
 7933SOL    HW135261   0.200   1.003  11.405  0.7923 -0.2836 -0.9563
 7933SOL    HW235262   0.167   0.933  11.283  0.5069 -1.1851  0.1555
 7934SOL     OW35263   1.206   2.185   4.602  0.3901  0.1729  0.0742
 7934SOL    HW135264   1.144   2.173   4.675  1.8949  0.6533  1.4355
 7934SOL    HW235265   1.287   2.183   4.653  0.6396  0.5595 -0.3002
 7935SOL     OW35266   2.903   3.899   6.881 -0.4326  0.2040  0.0473
 7935SOL    HW135267   2.929   3.913   6.790  0.2532  0.8787  0.3524
 7935SOL    HW235268   2.818   3.855   6.871 -0.3721  0.1293 -0.1321
 7936SOL     OW35269   2.593   3.721  10.811  0.0928  0.6441 -0.6483
 7936SOL    HW135270   2.625   3.631  10.817 -1.6183 -0.1348 -3.5086
 7936SOL    HW235271   2.565   3.735  10.901  0.9814  0.9889 -0.4188
 7937SOL     OW35272   0.863   1.154  11.144  0.5357 -0.1710  0.3572
 7937SOL    HW135273   0.782   1.131  11.099  0.2277  0.5941  0.5177
 7937SOL    HW235274   0.873   1.246  11.122 -0.1597 -0.6957 -2.1720
 7938SOL     OW35275   0.337   1.768   4.981  0.0636  0.3435 -0.6283
 7938SOL    HW135276   0.249   1.741   4.958  0.0246 -0.2268  0.2009
 7938SOL    HW235277   0.328   1.786   5.075 -1.0606 -1.6944 -0.3428
 7939SOL     OW35278   2.400   4.163  14.217  0.4715  0.0369  0.0267
 7939SOL    HW135279   2.376   4.255  14.217 -1.5727 -0.5066  0.0276
 7939SOL    HW235280   2.323   4.126  14.259  0.6176 -0.9553 -0.5677
 7940SOL     OW35281   4.665   2.645  12.628 -0.2371  0.2346 -0.0327
 7940SOL    HW135282   4.635   2.663  12.539  0.2416  1.3314  0.0294
 7940SOL    HW235283   4.583   2.667  12.671 -0.3290 -0.3457  0.0946
 7941SOL     OW35284   4.149   3.433   9.302  0.4576 -0.2362 -0.0010
 7941SOL    HW135285   4.134   3.338   9.307  1.5347 -0.5075 -1.6499
 7941SOL    HW235286   4.242   3.438   9.280  0.6468  0.8926  1.0376
 7942SOL     OW35287   1.011   1.213   7.139 -0.2533  0.4533 -0.0086
 7942SOL    HW135288   1.100   1.197   7.169  0.5013 -0.2326 -2.6579
 7942SOL    HW235289   0.968   1.132   7.167 -0.2980 -0.1611 -1.8582
 7943SOL     OW35290   1.385   2.693   3.780  0.3107  0.2370  0.6840
 7943SOL    HW135291   1.405   2.767   3.722  2.1975 -0.8609 -0.0623
 7943SOL    HW235292   1.414   2.723   3.866 -0.5853 -0.1808  1.1377
 7944SOL     OW35293   4.034   1.392   4.316  0.5487 -0.1518 -0.1980
 7944SOL    HW135294   3.967   1.446   4.357 -1.2723 -1.1271 -1.8456
 7944SOL    HW235295   4.015   1.399   4.222  2.8688  1.7675 -0.4926
 7945SOL     OW35296   4.375   3.791   7.226 -0.2808 -0.0604 -0.0333
 7945SOL    HW135297   4.336   3.783   7.312  0.1240  0.5478  0.2087
 7945SOL    HW235298   4.391   3.885   7.217  0.6403 -0.0638  1.6392
 7946SOL     OW35299   3.882   2.850   1.448  0.1736 -0.4191  0.0361
 7946SOL    HW135300   3.965   2.890   1.474 -0.7739 -0.2604  2.7731
 7946SOL    HW235301   3.913   2.802   1.371 -0.6720  0.2894 -0.7472
 7947SOL     OW35302   3.339   0.477   8.380  0.1700 -0.0050 -0.0478
 7947SOL    HW135303   3.401   0.546   8.406 -0.1035  0.6013 -1.0036
 7947SOL    HW235304   3.265   0.518   8.335  1.8819 -1.7116 -4.4021
 7948SOL     OW35305   1.546   3.148   4.798  0.6384 -0.2231 -0.2625
 7948SOL    HW135306   1.637   3.173   4.817  0.1953  0.4102  1.0053
 7948SOL    HW235307   1.511   3.226   4.754 -0.5782 -0.4016  0.4102
 7949SOL     OW35308   3.323   3.469   0.762 -0.1259  0.2920  0.3820
 7949SOL    HW135309   3.332   3.541   0.825  0.6535  1.1846 -0.7573
 7949SOL    HW235310   3.228   3.459   0.756 -0.0763 -0.2158  0.4435
 7950SOL     OW35311   3.260   4.195   2.899 -1.3926 -0.8070  0.0142
 7950SOL    HW135312   3.329   4.129   2.902 -0.0745  0.4933 -1.5192
 7950SOL    HW235313   3.242   4.201   2.805  2.1947 -0.7339 -0.6709
 7951SOL     OW35314   4.107   2.443   8.831 -0.2641 -0.0773  0.5897
 7951SOL    HW135315   4.053   2.396   8.767 -2.9661  1.8933  1.4253
 7951SOL    HW235316   4.060   2.525   8.844  0.6216  0.5437 -0.1440
 7952SOL     OW35317   4.215   1.148   6.448 -0.1674  0.3637 -0.3140
 7952SOL    HW135318   4.232   1.150   6.354  1.8085  0.6460  0.0552
 7952SOL    HW235319   4.121   1.132   6.455  0.0890 -0.6286  0.8911
 7953SOL     OW35320   4.691   4.573  16.292 -0.7422 -0.0778 -0.2230
 7953SOL    HW135321   4.630   4.500  16.280 -1.1937  0.0371  1.2982
 7953SOL    HW235322   4.673   4.597  16.383 -2.4011  0.9075 -0.8082
 7954SOL     OW35323   2.451   1.784   0.684  0.4142 -0.9065 -0.0573
 7954SOL    HW135324   2.395   1.815   0.612  0.9026  0.1737  0.0251
 7954SOL    HW235325   2.528   1.764   0.631 -1.1422 -2.1621 -1.8389
 7955SOL     OW35326   0.465   2.011   6.548 -0.1122 -0.0852  0.0083
 7955SOL    HW135327   0.493   1.920   6.561 -3.0465 -0.7583  1.6676
 7955SOL    HW235328   0.370   2.006   6.552 -0.0305 -1.1291  0.6322
 7956SOL     OW35329   1.611   3.160   3.869  0.1414  0.6748 -0.2354
 7956SOL    HW135330   1.706   3.168   3.859 -0.0163 -1.3735 -3.3650
 7956SOL    HW235331   1.570   3.234   3.824 -0.2823 -0.2921 -1.4300
 7957SOL     OW35332   1.286   4.479   5.173  0.1058 -0.5479 -0.4318
 7957SOL    HW135333   1.339   4.400   5.164  3.2528  1.6050 -0.7384
 7957SOL    HW235334   1.354   4.546   5.168  3.3124 -3.6484  1.3738
 7958SOL     OW35335   4.202   4.306   2.302 -0.3511 -0.3842 -0.8220
 7958SOL    HW135336   4.196   4.246   2.376  0.4995 -0.0944 -0.5173
 7958SOL    HW235337   4.175   4.256   2.225  1.2324 -0.7143 -1.1616
 7959SOL     OW35338   3.514   1.254   4.918  0.1871 -0.9192  0.0968
 7959SOL    HW135339   3.508   1.240   4.824  0.6443 -1.8396  0.2002
 7959SOL    HW235340   3.424   1.223   4.934 -0.7177  0.2208 -2.8477
 7960SOL     OW35341   4.304   0.708   5.620  0.2438  0.1803  0.0786
 7960SOL    HW135342   4.347   0.623   5.612 -0.8417 -0.4380  0.9372
 7960SOL    HW235343   4.352   0.752   5.550 -0.4886  0.5229 -0.2088
 7961SOL     OW35344   1.556   4.402  14.665 -0.4885  0.6767 -0.5268
 7961SOL    HW135345   1.629   4.398  14.727 -1.1932 -0.3819  0.2188
 7961SOL    HW235346   1.482   4.382  14.722 -0.8334  0.2458 -1.1293
 7962SOL     OW35347   1.416   4.220   5.133  0.4140 -0.2849  0.3464
 7962SOL    HW135348   1.472   4.207   5.209 -0.9515  0.9917  1.5822
 7962SOL    HW235349   1.389   4.129   5.117  0.7688 -0.7243  2.3359
 7963SOL     OW35350   2.578   2.087   5.481  0.0587 -0.1378 -0.1419
 7963SOL    HW135351   2.644   2.081   5.413  1.6928  0.0195  1.4472
 7963SOL    HW235352   2.549   1.995   5.483  0.4332 -0.2725 -0.9593
 7964SOL     OW35353   0.717   0.552  14.576  0.8897  0.0396  0.3004
 7964SOL    HW135354   0.633   0.515  14.550  0.6476  2.4982 -2.4447
 7964SOL    HW235355   0.704   0.645  14.596  1.3335 -0.4392  2.7769
 7965SOL     OW35356   2.345   2.889  15.004  0.3516  0.0117 -0.5813
 7965SOL    HW135357   2.299   2.808  14.983  1.1159 -0.5929  0.0826
 7965SOL    HW235358   2.289   2.929  15.071  1.0853 -0.9286  0.5932
 7966SOL     OW35359   4.636   3.298  13.650 -0.1807  0.1887 -0.5126
 7966SOL    HW135360   4.596   3.217  13.617  0.9931 -1.3094  1.7214
 7966SOL    HW235361   4.606   3.367  13.592  0.0530 -0.7090 -1.6974
 7967SOL     OW35362   3.161   3.042   0.860 -0.1673 -0.1919  0.2230
 7967SOL    HW135363   3.223   2.996   0.917 -0.6302 -0.0909  0.8106
 7967SOL    HW235364   3.071   3.009   0.868  0.2090 -1.2795 -0.1454
 7968SOL     OW35365   0.653   0.897   0.741 -0.3625 -0.2525 -0.3200
 7968SOL    HW135366   0.677   0.813   0.702 -2.0490 -0.6204 -0.5825
 7968SOL    HW235367   0.560   0.884   0.723 -0.4759 -0.6310  0.5202
 7969SOL     OW35368   1.136   2.335   5.988 -0.6655 -0.1419  0.1556
 7969SOL    HW135369   1.135   2.239   5.987 -1.6990 -0.1358  2.2090
 7969SOL    HW235370   1.104   2.350   6.077 -0.2620 -0.1393  0.3013
 7970SOL     OW35371   0.879   3.420   3.374  0.6038  0.1062  0.0934
 7970SOL    HW135372   0.878   3.404   3.468 -1.1337 -4.2755 -0.6905
 7970SOL    HW235373   0.912   3.333   3.351  0.1726 -0.2043  0.6611
 7971SOL     OW35374   1.970   1.196  15.798 -0.6525 -0.1612 -0.5315
 7971SOL    HW135375   1.899   1.210  15.860 -1.2043 -3.4572 -0.4014
 7971SOL    HW235376   2.040   1.232  15.852 -0.9687  2.0936 -1.6477
 7972SOL     OW35377   4.685   0.662   4.324 -0.5264 -0.6986  0.5968
 7972SOL    HW135378   0.052   0.653   4.288 -1.2344 -0.9371 -1.0652
 7972SOL    HW235379   4.637   0.630   4.247 -0.3532  0.0518  0.1824
 7973SOL     OW35380   0.910   0.992  17.576 -0.3390  0.1447 -0.3501
 7973SOL    HW135381   0.825   0.970  17.538 -1.3372  0.3727  1.7523
 7973SOL    HW235382   0.908   1.088  17.574 -0.0952  0.1521 -0.1614
 7974SOL     OW35383   1.496   0.185  12.211  0.4000  0.1241 -0.1394
 7974SOL    HW135384   1.450   0.101  12.211 -1.1239  0.9663  1.5551
 7974SOL    HW235385   1.582   0.166  12.250 -0.5430 -0.5936  1.5958
 7975SOL     OW35386   0.163   2.600   2.365 -0.0388  0.5184 -0.0955
 7975SOL    HW135387   0.072   2.569   2.363 -0.2373  0.9911  2.1157
 7975SOL    HW235388   0.194   2.573   2.451 -0.8781  3.9092  1.2727
 7976SOL     OW35389   3.124   1.831   1.111  0.7847  0.0420  0.5600
 7976SOL    HW135390   3.165   1.822   1.197  0.5892 -1.6965  0.4746
 7976SOL    HW235391   3.139   1.924   1.094  0.2045 -0.1032 -0.7198
 7977SOL     OW35392   2.779   0.543   2.761  0.0597 -0.3811  0.1486
 7977SOL    HW135393   2.702   0.594   2.787 -1.0265 -1.7472 -0.3885
 7977SOL    HW235394   2.775   0.470   2.823 -0.9756 -1.8624 -1.6778
 7978SOL     OW35395   4.385   1.919  12.495  0.0176  0.5667 -0.0735
 7978SOL    HW135396   4.353   1.833  12.521  0.8719 -0.6330 -2.9481
 7978SOL    HW235397   4.469   1.890  12.460 -1.1958 -1.8528 -1.0267
 7979SOL     OW35398   3.770   0.876  12.313  0.3070 -0.0122  0.2715
 7979SOL    HW135399   3.839   0.915  12.260  1.3600 -1.4524  0.5809
 7979SOL    HW235400   3.720   0.954  12.338  0.7499  0.2986  0.1750
 7980SOL     OW35401   4.100   2.048  12.889 -0.1370 -0.8125 -0.0360
 7980SOL    HW135402   4.060   1.975  12.935 -0.7742 -1.3463 -1.4230
 7980SOL    HW235403   4.155   2.082  12.959 -0.9818 -0.3857  0.4121
 7981SOL     OW35404   3.676   2.027   1.754  0.5980  0.1861  0.5614
 7981SOL    HW135405   3.765   1.993   1.743  0.2513 -0.4109 -0.3792
 7981SOL    HW235406   3.622   1.949   1.743 -0.1756  0.7763  0.1614
 7982SOL     OW35407   3.825   3.037   0.681  0.1977 -0.4575  0.0038
 7982SOL    HW135408   3.809   3.053   0.588  1.8938  0.7805 -0.0797
 7982SOL    HW235409   3.921   3.039   0.677  0.2390  0.9995  1.5355
 7983SOL     OW35410   4.038   0.383  11.380  0.0611  0.4460 -0.2714
 7983SOL    HW135411   3.996   0.455  11.427 -0.2634  0.8843 -1.2329
 7983SOL    HW235412   3.975   0.368  11.310 -0.3183 -3.2115  0.8711
 7984SOL     OW35413   1.566   1.400   0.348 -0.6649  0.1366 -0.5073
 7984SOL    HW135414   1.517   1.440   0.276  0.0533  1.6241 -0.1813
 7984SOL    HW235415   1.591   1.477   0.401 -0.5926 -0.0608 -0.2550
 7985SOL     OW35416   1.396   3.114   6.403  0.2172 -0.1889  0.2792
 7985SOL    HW135417   1.429   3.193   6.360 -0.8684 -1.0202 -2.0437
 7985SOL    HW235418   1.473   3.082   6.451 -0.3155  1.8945  2.5514
 7986SOL     OW35419   0.049   0.159   3.168  0.1748 -0.5882  0.0307
 7986SOL    HW135420   0.109   0.084   3.162 -0.5726 -1.2798  1.2786
 7986SOL    HW235421   4.690   0.113   3.194  1.1434 -2.0990  0.3649
 7987SOL     OW35422   0.490   3.880   4.502  0.1317  0.1971  0.2623
 7987SOL    HW135423   0.522   3.841   4.583  2.0597 -3.5830 -2.2689
 7987SOL    HW235424   0.528   3.967   4.507  0.8523 -0.0701 -0.5703
 7988SOL     OW35425   3.986   4.509   5.514  0.0683  1.1754  0.0881
 7988SOL    HW135426   3.992   4.520   5.419 -0.1092  0.3180 -0.0244
 7988SOL    HW235427   4.074   4.543   5.526  1.0807 -2.1528  2.0547
 7989SOL     OW35428   2.387   0.001  10.004 -0.2020  0.6270  0.6770
 7989SOL    HW135429   2.412   0.076  10.059  1.4155  0.5017  0.1275
 7989SOL    HW235430   2.442   4.655  10.044 -0.1049  0.8922  0.9909
 7990SOL     OW35431   2.425   1.643   7.358 -0.3143  0.0534 -0.3952
 7990SOL    HW135432   2.460   1.725   7.392 -1.1047 -0.3362  1.3535
 7990SOL    HW235433   2.336   1.651   7.393 -0.0635 -0.5229  0.3936
 7991SOL     OW35434   2.247   4.122   2.859  0.2919  0.0957 -0.0330
 7991SOL    HW135435   2.164   4.165   2.876 -0.1418 -0.6025 -0.3780
 7991SOL    HW235436   2.291   4.120   2.944  0.9767 -1.6981 -0.4239
 7992SOL     OW35437   4.567   3.573  15.587 -0.6092 -0.8563 -0.1027
 7992SOL    HW135438   4.565   3.516  15.510 -2.2001  0.4735 -1.0254
 7992SOL    HW235439   4.504   3.519  15.635 -0.7110 -1.7743 -1.2647
 7993SOL     OW35440   1.044   1.052   6.518 -0.4598 -0.0035 -0.1934
 7993SOL    HW135441   1.018   1.029   6.607  1.1522  0.0140  0.2633
 7993SOL    HW235442   1.062   1.142   6.541 -0.3736  0.3428 -1.5866
 7994SOL     OW35443   3.437   3.824   6.924  0.3749  0.4055 -0.3463
 7994SOL    HW135444   3.449   3.730   6.912  1.4522  0.4506  0.3987
 7994SOL    HW235445   3.512   3.857   6.875  1.1760 -1.3267 -0.3080
 7995SOL     OW35446   0.866   2.755   7.893  0.0527 -0.0557  0.1918
 7995SOL    HW135447   0.880   2.661   7.893  0.7003  0.0483  1.5420
 7995SOL    HW235448   0.830   2.772   7.806 -0.6566  0.5928  0.6088
 7996SOL     OW35449   3.413   0.950   6.466  0.2711 -0.1990  0.1616
 7996SOL    HW135450   3.419   0.899   6.547 -3.1023 -0.8895 -0.0309
 7996SOL    HW235451   3.343   1.012   6.489  1.5004  0.7601  1.2871
 7997SOL     OW35452   1.834   1.055   1.073 -0.1778  0.2265 -0.6636
 7997SOL    HW135453   1.914   1.019   1.111  0.1945  1.6172 -0.1210
 7997SOL    HW235454   1.878   1.124   1.024 -1.8231  0.8476 -1.2608
 7998SOL     OW35455   3.088   2.939   8.888 -0.2170  0.7875 -0.1918
 7998SOL    HW135456   3.130   2.918   8.971  1.7345 -1.2998 -1.7142
 7998SOL    HW235457   3.157   2.942   8.821 -0.3203 -0.5787 -0.3590
 7999SOL     OW35458   0.218   0.394   8.085 -0.2664  0.3806 -0.3820
 7999SOL    HW135459   0.266   0.474   8.064 -1.1346  1.1999  0.7820
 7999SOL    HW235460   0.165   0.393   8.006  0.7440  0.8264 -1.0675
 8000SOL     OW35461   1.841   1.260  16.958 -0.1849  0.5075  0.0846
 8000SOL    HW135462   1.818   1.262  17.051 -2.6077 -0.8093 -0.4772
 8000SOL    HW235463   1.805   1.347  16.938  1.8381  1.4389  0.4669
 8001SOL     OW35464   4.208   0.193  12.723 -0.2871 -0.1562 -0.3650
 8001SOL    HW135465   4.158   0.273  12.736  1.1158  0.8564 -1.0934
 8001SOL    HW235466   4.295   0.227  12.745  0.1371 -0.0971 -2.0681
 8002SOL     OW35467   3.267   0.667  17.247 -0.6881 -0.0638  0.7440
 8002SOL    HW135468   3.187   0.720  17.256 -0.1196  0.0235  5.4314
 8002SOL    HW235469   3.226   0.592  17.203  0.1943 -1.0710  1.6363
 8003SOL     OW35470   4.364   2.649  12.311 -0.4833  0.0734 -0.3635
 8003SOL    HW135471   4.356   2.707  12.236 -0.1375 -0.2341 -0.6392
 8003SOL    HW235472   4.298   2.584  12.287  0.8210 -1.2757 -0.3673
 8004SOL     OW35473   0.114   3.131   3.033  0.8148  0.3760 -0.7964
 8004SOL    HW135474   0.030   3.163   3.064  1.5428  0.3361  1.2056
 8004SOL    HW235475   0.148   3.210   2.992 -0.3717  0.7176 -1.0914
 8005SOL     OW35476   0.201   1.390  11.989 -0.3442  0.0851 -0.1581
 8005SOL    HW135477   0.170   1.341  11.913  0.9940 -2.9153  1.2134
 8005SOL    HW235478   0.269   1.448  11.955  0.8858 -1.2136  0.0626
 8006SOL     OW35479   2.489   3.270   6.502 -0.2491  0.1442  0.2427
 8006SOL    HW135480   2.525   3.190   6.462  0.1630  0.1040  0.6856
 8006SOL    HW235481   2.421   3.235   6.560 -0.4921 -2.1076 -1.3890
 8007SOL     OW35482   0.534   3.131   3.059  0.0286 -0.1312 -0.1869
 8007SOL    HW135483   0.463   3.118   3.123 -0.0004  1.0170  0.0167
 8007SOL    HW235484   0.512   3.217   3.022  0.3755  0.1994  0.3637
 8008SOL     OW35485   2.794   4.457   9.408  0.4383 -0.7806 -0.4156
 8008SOL    HW135486   2.751   4.503   9.480 -0.7558  2.5967 -3.2884
 8008SOL    HW235487   2.883   4.443   9.442  0.7064  0.1346 -0.7556
 8009SOL     OW35488   1.747   2.597   1.832  0.0652  0.5070 -0.1168
 8009SOL    HW135489   1.812   2.528   1.819 -1.1698 -1.3600  3.6414
 8009SOL    HW235490   1.796   2.675   1.804  0.9892 -1.0123 -2.7598
 8010SOL     OW35491   0.570   4.079   6.426  0.2540  0.2320  0.2492
 8010SOL    HW135492   0.663   4.057   6.435  0.2149 -0.5483 -1.2646
 8010SOL    HW235493   0.555   4.152   6.485  1.5153 -0.2804  1.2048
 8011SOL     OW35494   3.629   1.001   7.280 -0.5222  0.4940  0.3328
 8011SOL    HW135495   3.658   0.913   7.256 -0.5474  0.1539  1.5702
 8011SOL    HW235496   3.706   1.045   7.315 -0.3413 -0.0514  0.6129
 8012SOL     OW35497   2.913   1.149   5.995  0.0117  0.1926 -0.4484
 8012SOL    HW135498   2.916   1.099   5.913 -0.0606 -1.0688  0.3138
 8012SOL    HW235499   2.906   1.240   5.967 -0.3150  1.0530  2.4200
 8013SOL     OW35500   2.605   1.331   3.117  0.3055  0.0077 -0.6743
 8013SOL    HW135501   2.694   1.353   3.144  1.2228 -0.9796 -2.7986
 8013SOL    HW235502   2.608   1.235   3.109  2.0973 -0.0273  0.2992
 8014SOL     OW35503   3.473   4.053   6.501  0.6073  0.0653 -0.3822
 8014SOL    HW135504   3.386   4.081   6.472  0.2687  0.5347  1.1043
 8014SOL    HW235505   3.527   4.132   6.495 -0.3030  0.9030  2.4314
 8015SOL     OW35506   3.795   0.957   1.605  0.5106 -0.1253 -0.4601
 8015SOL    HW135507   3.885   0.941   1.632  0.1894 -2.4863 -0.7835
 8015SOL    HW235508   3.771   0.873   1.565 -0.3146 -0.7444  1.3303
 8016SOL     OW35509   2.071   1.342  17.324  0.8850 -0.3054  0.0188
 8016SOL    HW135510   2.029   1.399  17.388 -1.5352 -2.1235  0.0905
 8016SOL    HW235511   2.054   1.393  17.244  2.2887 -0.2744 -0.2568
 8017SOL     OW35512   0.154   4.613   8.670 -0.1190 -0.3767  0.2561
 8017SOL    HW135513   0.105   4.663   8.605 -0.9432  0.2024  1.3233
 8017SOL    HW235514   0.081   4.575   8.719 -1.1186 -1.2724 -1.9678
 8018SOL     OW35515   0.907   1.310   1.970 -0.1233  0.0782  0.4455
 8018SOL    HW135516   0.989   1.303   1.921  0.2903 -1.1980  1.3015
 8018SOL    HW235517   0.883   1.219   1.988 -0.8124  0.0479 -0.5923
 8019SOL     OW35518   2.561   2.963   8.250 -0.0290 -0.5006  0.4153
 8019SOL    HW135519   2.601   3.050   8.253 -1.5916  0.2263  0.1453
 8019SOL    HW235520   2.634   2.901   8.247 -0.9790 -1.6644  1.4303
 8020SOL     OW35521   2.053   2.281  14.312  0.1501  0.1390 -0.2740
 8020SOL    HW135522   2.117   2.211  14.324 -1.1046 -0.5246  2.5765
 8020SOL    HW235523   2.092   2.347  14.369  0.8838 -1.3137  0.9311
 8021SOL     OW35524   1.961   3.017  11.208  0.0894  0.3533 -0.4526
 8021SOL    HW135525   1.967   3.063  11.125  0.9799 -0.0162 -0.5902
 8021SOL    HW235526   2.039   2.961  11.211 -0.8496 -1.1483 -3.7339
 8022SOL     OW35527   3.056   0.311   6.710  0.1779 -0.5965 -0.1281
 8022SOL    HW135528   3.078   0.361   6.789 -1.2470  1.1023 -0.8139
 8022SOL    HW235529   3.035   0.224   6.744  0.9980 -1.2706 -1.3622
 8023SOL     OW35530   3.960   3.397   4.275  0.1607 -0.6440 -0.2343
 8023SOL    HW135531   3.970   3.491   4.256  1.9784 -0.4579  1.6129
 8023SOL    HW235532   3.967   3.393   4.371  2.0669 -2.2432 -0.4439
 8024SOL     OW35533   2.044   3.139   4.811 -0.3538 -0.1257  0.1048
 8024SOL    HW135534   2.106   3.090   4.757 -1.7425 -1.2157 -0.5090
 8024SOL    HW235535   2.017   3.219   4.765  0.4485 -0.6344 -1.2578
 8025SOL     OW35536   1.758   4.419   4.332  0.2959  0.5091  0.2900
 8025SOL    HW135537   1.847   4.409   4.366  1.1419 -0.4812 -2.1477
 8025SOL    HW235538   1.775   4.496   4.277 -0.3238  0.7793  0.4839
 8026SOL     OW35539   1.027   0.214  13.535  0.2169 -0.3238 -0.5619
 8026SOL    HW135540   1.035   0.306  13.559 -0.9991  0.0991 -1.8034
 8026SOL    HW235541   1.107   0.200  13.484  1.0176 -1.2543  0.9392
 8027SOL     OW35542   2.099   3.658   7.762 -0.2226 -0.0263  0.5059
 8027SOL    HW135543   2.106   3.572   7.722 -1.3023 -0.0806  0.4167
 8027SOL    HW235544   2.136   3.713   7.692 -1.4846 -2.5434 -2.1769
 8028SOL     OW35545   2.616   2.670   2.787  0.0886 -0.2595 -0.1025
 8028SOL    HW135546   2.552   2.726   2.743  0.4585 -1.3231 -2.0272
 8028SOL    HW235547   2.572   2.656   2.871  0.1204 -0.1929 -0.0749
 8029SOL     OW35548   0.331   4.309   6.764 -0.2105 -0.1876  0.3483
 8029SOL    HW135549   0.347   4.347   6.850  1.7508 -0.2414  0.0078
 8029SOL    HW235550   0.245   4.345   6.742  0.0461  0.0906 -0.2083
 8030SOL     OW35551   2.532   2.727   1.684 -0.0659 -0.5711 -0.2916
 8030SOL    HW135552   2.527   2.663   1.755 -1.0879 -0.3263 -0.1450
 8030SOL    HW235553   2.496   2.804   1.729  1.6069 -0.1347  0.2883
 8031SOL     OW35554   3.178   0.754   2.610  0.4024 -0.1834  0.4841
 8031SOL    HW135555   3.086   0.764   2.631  0.3677 -0.0467  0.2693
 8031SOL    HW235556   3.199   0.661   2.617  0.0064 -0.4230 -1.3021
 8032SOL     OW35557   3.446   4.017   2.917 -0.3309 -0.6034 -0.4209
 8032SOL    HW135558   3.373   3.971   2.957 -0.0402  0.4743  1.3270
 8032SOL    HW235559   3.508   4.026   2.990 -0.1054 -0.1464 -0.6676
 8033SOL     OW35560   0.198   3.496  12.622 -0.1021  0.8259 -0.4631
 8033SOL    HW135561   0.165   3.512  12.710 -1.7844 -1.1608 -0.7381
 8033SOL    HW235562   0.281   3.453  12.644 -0.2694  0.8870  0.2704
 8034SOL     OW35563   1.498   3.733   4.123  0.5761  0.1520 -0.8906
 8034SOL    HW135564   1.435   3.698   4.060 -0.0685 -0.6410  0.1881
 8034SOL    HW235565   1.560   3.660   4.131  0.6768  0.1206 -1.9149
 8035SOL     OW35566   3.694   4.352   7.473 -0.0141  0.0733  0.0499
 8035SOL    HW135567   3.737   4.393   7.549  2.3335 -0.9085 -0.7634
 8035SOL    HW235568   3.738   4.268   7.477 -1.1859 -0.5508 -0.0481
 8036SOL     OW35569   3.882   3.385   6.450  0.2315  0.7298  0.1713
 8036SOL    HW135570   3.792   3.366   6.424  1.7674 -1.9540 -3.1542
 8036SOL    HW235571   3.875   3.354   6.541  0.3886  1.1216  0.3197
 8037SOL     OW35572   2.819   2.219   4.762 -0.6822 -0.5116  0.1629
 8037SOL    HW135573   2.908   2.184   4.772 -2.0286 -3.2783  2.6479
 8037SOL    HW235574   2.764   2.142   4.746  0.7742 -1.2706 -1.1209
 8038SOL     OW35575   4.164   4.706   6.652 -0.1058 -0.1211 -0.2184
 8038SOL    HW135576   4.126   4.643   6.713 -0.9469  1.8758  1.3226
 8038SOL    HW235577   4.151   4.665   6.567 -2.2189 -0.5519  0.3136
 8039SOL     OW35578   0.056   0.891   4.480  0.5901 -0.2162  0.1416
 8039SOL    HW135579   0.003   0.818   4.449  2.1995 -0.5734 -1.7832
 8039SOL    HW235580   0.071   0.927   4.392  0.6286  0.1688  0.3056
 8040SOL     OW35581   4.199   0.482   2.272  0.0678  0.3431 -0.3570
 8040SOL    HW135582   4.267   0.454   2.332 -0.1188 -0.8514 -0.6859
 8040SOL    HW235583   4.158   0.556   2.316 -0.8566 -0.8111  0.7428
 8041SOL     OW35584   3.740   4.151   4.903  0.4584  0.1805 -0.1416
 8041SOL    HW135585   3.782   4.226   4.945 -1.3892  0.5318  1.0695
 8041SOL    HW235586   3.654   4.157   4.944  1.1792  0.6006  1.3235
 8042SOL     OW35587   1.196   3.736   6.709  0.2841  0.1208  0.4908
 8042SOL    HW135588   1.198   3.823   6.748  0.4500 -0.4074  1.6606
 8042SOL    HW235589   1.290   3.722   6.697  0.2992  0.8997 -0.2302
 8043SOL     OW35590   3.777   4.711  11.009  0.1517 -0.4443 -0.2580
 8043SOL    HW135591   3.827   0.065  10.977 -0.3063 -0.4128 -0.9064
 8043SOL    HW235592   3.690   0.029  11.007 -0.1218 -1.1514 -2.9013
 8044SOL     OW35593   3.437   3.377   1.292 -0.0203 -0.2218  0.0317
 8044SOL    HW135594   3.415   3.285   1.278  2.8806 -0.8366 -0.3838
 8044SOL    HW235595   3.481   3.377   1.376 -0.6896 -3.0623  0.3885
 8045SOL     OW35596   1.714   0.071  12.317  0.0174  0.3401 -0.0608
 8045SOL    HW135597   1.780   0.060  12.385  0.0371 -1.0164 -0.2845
 8045SOL    HW235598   1.749   0.016  12.246  0.5997  1.8587 -0.9487
 8046SOL     OW35599   4.197   2.301  16.074 -0.5246 -0.0092  0.1457
 8046SOL    HW135600   4.217   2.232  16.011  3.1414 -1.2717  2.6993
 8046SOL    HW235601   4.103   2.287  16.080 -0.9049  2.4870  0.0496
 8047SOL     OW35602   2.555   3.990   8.610 -0.1144  0.0494 -0.1151
 8047SOL    HW135603   2.605   4.065   8.640 -3.3701  2.2360 -0.0879
 8047SOL    HW235604   2.566   3.999   8.515 -0.6268  1.9088 -0.0013
 8048SOL     OW35605   1.864   1.273   7.364  0.2173 -0.2685 -0.0944
 8048SOL    HW135606   1.845   1.344   7.425  1.7763  0.7415 -0.7955
 8048SOL    HW235607   1.787   1.222   7.390  0.9809 -0.6669  1.3905
 8049SOL     OW35608   0.488   1.006  11.660  0.2901 -0.0201 -0.0393
 8049SOL    HW135609   0.465   1.077  11.721  0.0249 -1.2762  1.3251
 8049SOL    HW235610   0.514   0.943  11.727 -1.3733 -0.8278 -0.1327
 8050SOL     OW35611   0.698   4.438   2.721  1.1131 -0.3413  0.3208
 8050SOL    HW135612   0.615   4.391   2.721  1.8065 -1.5895 -0.6775
 8050SOL    HW235613   0.688   4.494   2.643 -1.3940 -1.6379 -0.3028
 8051SOL     OW35614   4.190   4.356   9.235  0.0805  0.1786  0.0839
 8051SOL    HW135615   4.189   4.272   9.188  0.5363  0.3551 -0.2437
 8051SOL    HW235616   4.100   4.366   9.267 -0.0882 -0.0294 -0.3260
 8052SOL     OW35617   2.710   0.682   0.371  0.7008 -1.0699  0.2939
 8052SOL    HW135618   2.672   0.598   0.395 -2.3365 -0.1123 -1.1807
 8052SOL    HW235619   2.644   0.734   0.416  1.6254  2.5275 -2.5127
 8053SOL     OW35620   3.839   1.743   2.565  0.1646  0.5346  0.4254
 8053SOL    HW135621   3.934   1.733   2.563  0.0995  0.1865 -0.6267
 8053SOL    HW235622   3.834   1.802   2.640 -2.7731  0.8181 -0.0113
 8054SOL     OW35623   0.758   0.606   6.646  0.6955  0.0564  0.0624
 8054SOL    HW135624   0.697   0.656   6.592  1.1507 -2.0692 -2.4770
 8054SOL    HW235625   0.703   0.532   6.675  1.7016 -0.1434  1.4435
 8055SOL     OW35626   3.282   2.814   7.072 -0.7808  0.1367 -0.0033
 8055SOL    HW135627   3.345   2.886   7.070  0.6060 -1.0129  1.4325
 8055SOL    HW235628   3.261   2.800   6.980  0.7778  0.1135 -0.3631
 8056SOL     OW35629   1.802   4.134   4.652 -0.2379  0.4636 -0.0033
 8056SOL    HW135630   1.752   4.128   4.734 -0.8468  0.9106 -0.3397
 8056SOL    HW235631   1.890   4.107   4.676 -0.9761 -0.8159  1.2972
 8057SOL     OW35632   3.754   2.816  10.385  0.3462 -0.0606  0.3797
 8057SOL    HW135633   3.746   2.910  10.376 -2.1980 -0.3024  0.1576
 8057SOL    HW235634   3.825   2.793  10.326 -0.3192 -0.2018 -0.3648
 8058SOL     OW35635   4.588   4.343   6.939 -0.2365 -0.3932 -0.3513
 8058SOL    HW135636   4.598   4.258   6.897  0.2694  0.5869 -2.2569
 8058SOL    HW235637   4.552   4.392   6.864 -1.3316 -1.8643 -0.7730
 8059SOL     OW35638   1.433   2.526   2.539 -0.2104  0.1291 -0.2512
 8059SOL    HW135639   1.492   2.498   2.468  0.2209 -0.1866  0.2324
 8059SOL    HW235640   1.357   2.563   2.494  0.9077  2.0507 -0.5919
 8060SOL     OW35641   4.061   0.101   9.007  0.6310 -0.2497 -0.4034
 8060SOL    HW135642   4.122   0.131   9.074  1.3470 -2.7060  0.0611
 8060SOL    HW235643   4.079   0.007   9.015 -0.1677 -0.4770 -1.2572
 8061SOL     OW35644   0.769   2.693   4.020  0.1596 -0.0843  0.3159
 8061SOL    HW135645   0.716   2.620   3.988 -2.1376  0.8670  1.8929
 8061SOL    HW235646   0.845   2.648   4.057 -1.2839 -1.5210  1.5211
 8062SOL     OW35647   3.331   2.477   9.934  0.7250  0.6080 -0.4243
 8062SOL    HW135648   3.277   2.543   9.890 -1.0970 -0.2648  0.5249
 8062SOL    HW235649   3.267   2.437   9.992  2.1178 -1.7308 -0.5037
 8063SOL     OW35650   3.203   2.536  13.302  0.1984  0.3767 -0.4435
 8063SOL    HW135651   3.265   2.493  13.361  0.1868 -0.3498 -0.9597
 8063SOL    HW235652   3.130   2.475  13.308 -0.2086  0.8803 -0.2251
 8064SOL     OW35653   1.873   0.222  13.548  1.2908 -0.0524 -0.0149
 8064SOL    HW135654   1.853   0.289  13.483 -0.5439 -0.9275 -0.3664
 8064SOL    HW235655   1.788   0.179  13.541  1.2011  0.4087 -1.6109
 8065SOL     OW35656   4.533   3.091  13.487 -0.3177  0.1758  1.0039
 8065SOL    HW135657   4.604   3.030  13.465 -0.9242 -0.1364 -0.0696
 8065SOL    HW235658   4.495   3.134  13.410  0.0921 -1.0891  0.0970
 8066SOL     OW35659   0.128   3.413  16.016  0.0462  0.0924  0.0192
 8066SOL    HW135660   0.071   3.459  15.954  0.3561  0.0995 -0.2615
 8066SOL    HW235661   0.164   3.348  15.956  1.2517 -1.4271  2.3860
 8067SOL     OW35662   1.525   2.533   7.744  0.3764  0.3825  0.3600
 8067SOL    HW135663   1.488   2.600   7.801  2.8456  1.4192  0.7471
 8067SOL    HW235664   1.485   2.560   7.661 -2.9296  1.5069  2.3407
 8068SOL     OW35665   4.116   0.159  11.124 -0.2882  0.5065  0.1746
 8068SOL    HW135666   4.080   0.119  11.203 -0.2436  0.8262  0.3587
 8068SOL    HW235667   4.096   0.087  11.064  0.4018  0.1552  0.3623
 8069SOL     OW35668   3.358   1.188   4.432  0.5510  0.0798 -0.2934
 8069SOL    HW135669   3.380   1.270   4.476 -2.7242  0.5857  0.3900
 8069SOL    HW235670   3.306   1.134   4.492  0.2118  0.9072  0.1559
 8070SOL     OW35671   0.293   2.658  10.504 -0.4927 -0.1804 -0.1685
 8070SOL    HW135672   0.314   2.749  10.525  0.5574 -0.2012 -1.1342
 8070SOL    HW235673   0.365   2.621  10.453  0.2735  0.3295  0.5404
 8071SOL     OW35674   1.793   0.003   9.338 -0.5789  0.4364 -0.1393
 8071SOL    HW135675   1.747   4.661   9.284 -1.4406  0.3355  0.7057
 8071SOL    HW235676   1.734   0.025   9.411  0.2797  0.7946  0.4483
 8072SOL     OW35677   3.417   3.391   5.119 -0.1130 -0.2082  0.2322
 8072SOL    HW135678   3.414   3.359   5.209  0.9422 -0.1476  0.2968
 8072SOL    HW235679   3.378   3.476   5.141  1.7551  0.8748 -0.6019
 8073SOL     OW35680   4.011   2.154   7.026  0.3679  0.0678 -0.1110
 8073SOL    HW135681   4.021   2.168   7.120  4.2223 -0.3756 -0.4314
 8073SOL    HW235682   3.941   2.215   7.004  0.0571 -0.2400  0.0272
 8074SOL     OW35683   4.317   4.145   4.629 -0.2149  0.2112 -0.3230
 8074SOL    HW135684   4.398   4.108   4.666 -1.3315 -0.9043  1.0307
 8074SOL    HW235685   4.290   4.070   4.575 -1.1329 -0.2304  0.7499
 8075SOL     OW35686   3.161   3.944   0.529  0.9885  0.2801 -0.4201
 8075SOL    HW135687   3.139   3.962   0.438  1.1560 -2.4992 -1.0114
 8075SOL    HW235688   3.193   3.854   0.519  0.3966  0.1107 -0.8108
 8076SOL     OW35689   1.883   0.574   7.124  0.1215 -0.4738  0.3807
 8076SOL    HW135690   1.807   0.516   7.114 -0.7420  0.8966 -1.0812
 8076SOL    HW235691   1.948   0.517   7.082  0.1187  0.3792 -0.7917
 8077SOL     OW35692   2.322   2.259   7.340 -0.2426  0.5359 -0.2953
 8077SOL    HW135693   2.239   2.278   7.295  1.5458  0.9347 -3.3969
 8077SOL    HW235694   2.365   2.345   7.346 -0.2642  0.3211  2.9298
 8078SOL     OW35695   2.830   0.159   2.733  0.0883  0.0396  0.5312
 8078SOL    HW135696   2.797   0.167   2.822 -1.7444  0.3825 -0.1702
 8078SOL    HW235697   2.759   0.125   2.679 -1.3152  1.3322  1.5546
 8079SOL     OW35698   0.338   0.445   9.005  0.4176 -0.3536  0.3680
 8079SOL    HW135699   0.277   0.418   9.073  2.7125 -1.8142  1.8576
 8079SOL    HW235700   0.368   0.526   9.048  0.2611  0.3358 -0.8396
 8080SOL     OW35701   3.037   2.342   6.335  0.3076 -0.0723 -0.1010
 8080SOL    HW135702   2.963   2.338   6.396 -0.7828 -2.8341 -1.6119
 8080SOL    HW235703   3.007   2.398   6.264  0.9970 -1.1462 -1.2258
 8081SOL     OW35704   0.858   0.613  12.203 -0.1601 -0.5595 -0.4702
 8081SOL    HW135705   0.839   0.529  12.162 -1.1521 -1.8323  2.5787
 8081SOL    HW235706   0.795   0.624  12.275 -0.4865 -2.0808 -0.5258
 8082SOL     OW35707   1.522   0.054   4.910  0.6325  0.3070 -0.0752
 8082SOL    HW135708   1.481   0.138   4.929  1.2845  0.5915  0.0978
 8082SOL    HW235709   1.502   0.002   4.987  0.4354  1.7250  0.8240
 8083SOL     OW35710   2.960   3.137   6.789  0.2102  0.9476 -0.2230
 8083SOL    HW135711   2.989   3.193   6.860  0.1924  0.3490  0.2616
 8083SOL    HW235712   2.908   3.191   6.729  1.0107 -1.2968 -2.9642
 8084SOL     OW35713   0.631   0.898   4.737 -0.2864 -0.2033 -0.1990
 8084SOL    HW135714   0.693   0.936   4.798 -1.9941  1.6558  0.3973
 8084SOL    HW235715   0.542   0.890   4.773 -1.9091 -0.4964 -4.1735
 8085SOL     OW35716   1.764   4.294   7.983  0.3785  0.3144 -0.2748
 8085SOL    HW135717   1.807   4.212   8.007  0.3746  0.5467  0.5346
 8085SOL    HW235718   1.761   4.346   8.064  1.9302  1.2053 -0.7930
 8086SOL     OW35719   3.109   4.228   4.607 -0.1987 -0.0439  0.0897
 8086SOL    HW135720   3.124   4.143   4.566 -2.6081 -0.1454 -0.6182
 8086SOL    HW235721   3.192   4.272   4.587  0.2547 -1.2561 -0.6712
 8087SOL     OW35722   1.001   2.940  17.174 -0.3459 -0.3702 -0.4050
 8087SOL    HW135723   0.952   2.861  17.152  1.2649 -1.9799  1.8217
 8087SOL    HW235724   1.079   2.897  17.210  1.3973  2.3060 -0.9872
 8088SOL     OW35725   1.433   0.884   4.066  0.3619  0.3036  0.0441
 8088SOL    HW135726   1.525   0.890   4.091  0.2520  1.0251  0.2918
 8088SOL    HW235727   1.407   0.808   4.118 -1.4810  0.6795 -0.3094
 8089SOL     OW35728   3.520   1.804   1.743  0.5044  0.1784 -0.1691
 8089SOL    HW135729   3.467   1.724   1.736  0.0601  0.5203 -0.6973
 8089SOL    HW235730   3.603   1.757   1.752  0.5063 -0.3219 -2.8643
 8090SOL     OW35731   0.295   0.534   2.368  0.5658  0.1970  0.2803
 8090SOL    HW135732   0.304   0.454   2.421 -4.3417  0.1394  1.0580
 8090SOL    HW235733   0.223   0.507   2.311  0.2648 -0.0238  0.7596
 8091SOL     OW35734   1.118   2.400  15.565  0.0071  0.5316 -0.3154
 8091SOL    HW135735   1.027   2.414  15.589  0.0122  1.7663 -1.0049
 8091SOL    HW235736   1.155   2.384  15.651 -0.1501  1.3319 -0.0952
 8092SOL     OW35737   3.426   2.942   2.229  0.6688  0.9389 -0.1829
 8092SOL    HW135738   3.379   2.922   2.148 -2.0726  0.3011  1.5482
 8092SOL    HW235739   3.437   2.848   2.244  0.5812  0.6785 -1.7967
 8093SOL     OW35740   4.140   2.454   7.036 -0.2394 -0.2995  0.2164
 8093SOL    HW135741   4.073   2.474   7.101 -1.0947 -2.4242 -0.0415
 8093SOL    HW235742   4.181   2.375   7.070  2.3478  0.0018 -2.1367
 8094SOL     OW35743   1.004   2.912   2.106  0.3101  0.7173 -0.6634
 8094SOL    HW135744   0.996   2.915   2.201  0.1963 -0.2854 -0.6489
 8094SOL    HW235745   1.033   3.001   2.085  1.5590  0.0133 -1.9230
 8095SOL     OW35746   3.593   1.122   6.389 -0.2931  0.4872  0.2249
 8095SOL    HW135747   3.527   1.058   6.415  1.0175 -0.5341  1.1120
 8095SOL    HW235748   3.552   1.196   6.434 -1.6694 -1.0054  1.4372
 8096SOL     OW35749   4.077   1.931   9.169  0.3635 -0.1170  0.1538
 8096SOL    HW135750   4.113   1.881   9.095 -0.4137  0.8658 -0.8961
 8096SOL    HW235751   3.983   1.909   9.166  0.9411 -2.6091  0.0396
 8097SOL     OW35752   4.147   1.315   7.578  0.0411 -0.5238  0.0751
 8097SOL    HW135753   4.079   1.345   7.638  2.1230 -0.6931  2.5475
 8097SOL    HW235754   4.190   1.243   7.623  0.1233 -0.9445 -0.6797
 8098SOL     OW35755   2.858   1.415   0.451 -0.6139  0.1995 -0.3954
 8098SOL    HW135756   2.850   1.340   0.510 -0.4474 -0.9984 -1.8869
 8098SOL    HW235757   2.860   1.492   0.506 -2.8972 -1.0199  1.4106
 8099SOL     OW35758   0.752   2.541   6.380 -0.3349 -0.1784 -0.6343
 8099SOL    HW135759   0.759   2.630   6.346  0.3762 -0.4028 -1.0691
 8099SOL    HW235760   0.726   2.565   6.469  1.9704 -0.9187  0.2419
 8100SOL     OW35761   1.465   2.305   3.961  0.2622  0.4449  0.6177
 8100SOL    HW135762   1.479   2.348   3.876 -0.5503  0.5728  0.5473
 8100SOL    HW235763   1.436   2.218   3.934 -0.0580  0.6390  0.3309
 8101SOL     OW35764   2.845   0.345  13.802  0.2900 -0.2713 -0.2777
 8101SOL    HW135765   2.868   0.252  13.805 -0.7420 -0.5643 -1.5271
 8101SOL    HW235766   2.851   0.373  13.893  0.5863  0.6767 -0.5846
 8102SOL     OW35767   2.943   3.228   4.298 -0.0803  0.1574  0.3955
 8102SOL    HW135768   2.945   3.209   4.204  3.1998 -0.0843  0.5222
 8102SOL    HW235769   2.961   3.143   4.337 -1.3470 -0.2553  0.0603
 8103SOL     OW35770   1.636   3.336  13.454  0.1354 -0.5395 -0.2988
 8103SOL    HW135771   1.594   3.366  13.535  1.3866 -1.7939  0.7940
 8103SOL    HW235772   1.723   3.308  13.482  0.1780 -0.0081  0.1245
 8104SOL     OW35773   1.213   3.749   7.235 -0.0266 -0.6841  0.4155
 8104SOL    HW135774   1.212   3.699   7.317 -2.5043 -2.0489 -0.4853
 8104SOL    HW235775   1.157   3.702   7.174  0.5535  0.1681 -0.7726
 8105SOL     OW35776   2.406   1.322   5.347 -0.7601 -0.0424  0.1139
 8105SOL    HW135777   2.414   1.257   5.416  2.7141  0.0456 -0.2102
 8105SOL    HW235778   2.477   1.377   5.379 -1.0639  1.6077 -1.9993
 8106SOL     OW35779   0.022   1.648   8.691  0.3559 -0.6533 -0.2427
 8106SOL    HW135780   0.100   1.699   8.669 -1.4016  1.4198 -1.7098
 8106SOL    HW235781   0.052   1.598   8.767  2.8177 -1.3720 -1.6755
 8107SOL     OW35782   0.293   4.496   7.671 -0.0297  0.2197 -0.2749
 8107SOL    HW135783   0.201   4.510   7.650 -0.6736 -0.0509  2.3661
 8107SOL    HW235784   0.304   4.405   7.642  0.6083  0.6110 -1.2561
 8108SOL     OW35785   2.665   4.217   9.323  0.3923  0.4421 -0.2917
 8108SOL    HW135786   2.746   4.228   9.273  0.8470 -0.3698  0.2485
 8108SOL    HW235787   2.655   4.303   9.363 -1.6872 -0.0084  0.1381
 8109SOL     OW35788   1.994   2.898   1.859  0.1965  0.0714 -0.3089
 8109SOL    HW135789   1.964   2.841   1.930  0.1730  2.0583  1.2663
 8109SOL    HW235790   1.915   2.906   1.806 -1.2974 -1.1819  1.7340
 8110SOL     OW35791   2.845   4.681   7.911  0.1095 -0.6054 -0.2421
 8110SOL    HW135792   2.817   0.050   7.929 -1.1455 -1.2752  1.1973
 8110SOL    HW235793   2.924   4.687   7.858 -0.4996 -0.1863 -1.0877
 8111SOL     OW35794   4.484   4.521  14.040 -0.1245 -0.0264 -0.1182
 8111SOL    HW135795   4.463   4.537  13.949 -1.6795  1.7645  0.5587
 8111SOL    HW235796   4.414   4.577  14.072  0.7361  0.9159  0.1179
 8112SOL     OW35797   1.132   0.377  15.789  0.2350 -0.0401 -0.0492
 8112SOL    HW135798   1.037   0.362  15.783  0.1672 -0.3506  1.8046
 8112SOL    HW235799   1.130   0.432  15.867 -0.0158  0.3221 -0.3051
 8113SOL     OW35800   2.556   3.752   6.283  1.0682  0.0374 -0.1348
 8113SOL    HW135801   2.497   3.817   6.320  1.7500  0.4139  0.2827
 8113SOL    HW235802   2.512   3.667   6.286 -1.8480  1.5150 -0.7754
 8114SOL     OW35803   2.551   3.119  17.057  0.1761  0.3594 -0.1461
 8114SOL    HW135804   2.503   3.202  17.050 -1.5886 -0.4614  2.4849
 8114SOL    HW235805   2.546   3.111  16.962 -0.0951 -0.2970 -0.0737
 8115SOL     OW35806   4.312   3.158  15.921 -0.2693 -0.6316 -0.1275
 8115SOL    HW135807   4.403   3.186  15.930 -0.2006 -1.0272  0.4279
 8115SOL    HW235808   4.310   3.099  15.997 -0.9862  0.2158  0.5131
 8116SOL     OW35809   1.039   1.493  16.231 -0.0069 -0.2982 -0.1115
 8116SOL    HW135810   1.076   1.578  16.257 -2.4506  1.1513 -1.3333
 8116SOL    HW235811   1.111   1.463  16.176 -0.3845  0.4490 -1.0038
 8117SOL     OW35812   2.663   3.788  15.093 -0.8339 -0.3792 -0.4158
 8117SOL    HW135813   2.642   3.872  15.052  1.0796  0.5526  0.5374
 8117SOL    HW235814   2.757   3.800  15.102 -0.6011 -1.8952 -0.8778
 8118SOL     OW35815   0.892   1.133   5.627 -0.2757  0.4531 -0.0863
 8118SOL    HW135816   0.844   1.098   5.702  1.7665 -1.9385  0.1421
 8118SOL    HW235817   0.836   1.206   5.602 -0.5847 -0.0641 -0.9049
 8119SOL     OW35818   0.385   3.604   5.189  0.1672  0.2363 -0.3309
 8119SOL    HW135819   0.461   3.551   5.165  2.0387  2.9599 -0.4293
 8119SOL    HW235820   0.391   3.609   5.285  0.1435 -0.5831 -0.2876
 8120SOL     OW35821   4.146   2.613   1.393 -0.4123  0.2999  0.7431
 8120SOL    HW135822   4.230   2.581   1.424 -1.0631 -1.8445  0.3245
 8120SOL    HW235823   4.178   2.658   1.315  0.9792 -1.8815  0.0509
 8121SOL     OW35824   2.803   0.446   8.193 -0.5996  0.1462  0.0345
 8121SOL    HW135825   2.811   0.541   8.190  2.1363 -0.0001  2.9067
 8121SOL    HW235826   2.858   0.416   8.266  0.3234  2.5399  0.3049
 8122SOL     OW35827   4.015   4.540   5.246  0.5432 -0.2749  0.4329
 8122SOL    HW135828   3.941   4.561   5.188  0.9071  1.1962  0.5132
 8122SOL    HW235829   4.089   4.584   5.203  1.3794 -0.3163  1.8448
 8123SOL     OW35830   0.315   4.645   6.683 -0.6111 -0.5323  0.1270
 8123SOL    HW135831   0.262   4.567   6.666 -3.3657  1.2051  0.8954
 8123SOL    HW235832   0.246   4.699   6.721 -0.8192 -0.1715 -0.7660
 8124SOL     OW35833   3.150   0.397   0.096  0.1486  0.3564  0.3165
 8124SOL    HW135834   3.117   0.450   0.168  1.9794 -1.8190  2.7479
 8124SOL    HW235835   3.085   0.327   0.100  1.1652 -0.5402  1.4199
 8125SOL     OW35836   2.195   0.345  10.664 -0.8259  0.5661 -0.4500
 8125SOL    HW135837   2.254   0.418  10.683  0.9286 -1.2323  0.9688
 8125SOL    HW235838   2.153   0.336  10.749 -1.1310 -1.3679 -0.8180
 8126SOL     OW35839   2.654   1.050   5.196  0.0619  0.3570  0.5240
 8126SOL    HW135840   2.736   1.083   5.160  1.3684 -1.0639  2.1914
 8126SOL    HW235841   2.692   0.993   5.264 -1.5810 -0.3891  0.8257
 8127SOL     OW35842   2.340   2.843  11.548  0.6792  0.2954 -0.4712
 8127SOL    HW135843   2.345   2.752  11.575 -2.5731  0.3045  0.1257
 8127SOL    HW235844   2.246   2.860  11.542  0.0594 -3.8186 -2.3283
 8128SOL     OW35845   4.646   4.498  14.565 -0.2249  0.0882  0.9096
 8128SOL    HW135846   4.586   4.572  14.575  1.3538  1.7766 -2.1539
 8128SOL    HW235847   4.635   4.473  14.473  0.1122  1.3501  0.5213
 8129SOL     OW35848   0.676   2.463  10.917  0.0275  0.6608 -0.0695
 8129SOL    HW135849   0.669   2.415  10.999 -0.9985 -0.4487 -0.8015
 8129SOL    HW235850   0.586   2.489  10.897  0.0437  1.1244  0.4727
 8130SOL     OW35851   1.939   0.690   6.321 -0.2339  0.7746 -0.1914
 8130SOL    HW135852   1.972   0.778   6.336 -0.1519  0.4032  1.7425
 8130SOL    HW235853   1.890   0.674   6.402 -0.2489  2.1232  0.0571
 8131SOL     OW35854   0.569   4.119   9.317 -0.3978 -0.2612 -0.0202
 8131SOL    HW135855   0.541   4.038   9.275 -0.6220 -0.6322  0.8438
 8131SOL    HW235856   0.491   4.164   9.350  0.2408  0.9469 -0.1442
 8132SOL     OW35857   3.401   0.950   5.629 -0.2616 -0.1085  0.1579
 8132SOL    HW135858   3.362   0.937   5.543  1.3297  0.7387 -0.7028
 8132SOL    HW235859   3.331   0.994   5.677 -1.3433 -0.1342 -1.4144
 8133SOL     OW35860   2.603   3.603   7.391 -0.0293 -0.2066  0.1793
 8133SOL    HW135861   2.638   3.688   7.363 -0.3463 -0.3966 -0.7625
 8133SOL    HW235862   2.678   3.544   7.403  0.5341  0.5715  0.5454
 8134SOL     OW35863   3.604   1.772   4.815 -0.3293 -0.1404 -0.0928
 8134SOL    HW135864   3.569   1.835   4.751 -1.3836  1.0362  1.6509
 8134SOL    HW235865   3.535   1.706   4.813 -0.9322  0.5500 -2.5602
 8135SOL     OW35866   1.423   2.164   0.691  0.3201 -0.3399 -0.4300
 8135SOL    HW135867   1.442   2.113   0.770 -1.9701  1.4884  1.3319
 8135SOL    HW235868   1.428   2.249   0.735  1.5808 -0.8169  0.3327
 8136SOL     OW35869   0.590   1.723   4.001 -0.1586  0.5147 -0.1372
 8136SOL    HW135870   0.618   1.803   4.044 -1.6741  0.3843  1.0827
 8136SOL    HW235871   0.638   1.739   3.920  1.0302 -0.2653  0.4176
 8137SOL     OW35872   3.182   0.849   8.427 -0.6362  0.3972  0.3277
 8137SOL    HW135873   3.223   0.856   8.513  1.1348 -1.5726 -0.3513
 8137SOL    HW235874   3.258   0.858   8.371 -0.5593 -0.9213  0.2007
 8138SOL     OW35875   0.269   0.723  12.786 -0.5354  0.3223  0.2369
 8138SOL    HW135876   0.298   0.648  12.838 -0.4094 -0.4692 -0.9759
 8138SOL    HW235877   0.322   0.705  12.708  1.0228 -2.0276  1.8438
 8139SOL     OW35878   2.352   2.539   7.610  0.0112  0.6963  0.3554
 8139SOL    HW135879   2.280   2.525   7.671 -0.1752 -0.5044 -0.1429
 8139SOL    HW235880   2.407   2.607   7.650  1.2403  1.1476 -2.0686
 8140SOL     OW35881   4.536   2.493   3.878  0.0015 -0.5729  0.6443
 8140SOL    HW135882   4.498   2.509   3.964 -1.6879 -2.0370  0.1757
 8140SOL    HW235883   4.474   2.539   3.821  1.5390  1.0578  0.2926
 8141SOL     OW35884   0.885   2.247   3.328  0.1519  0.3346  0.3859
 8141SOL    HW135885   0.841   2.162   3.329  0.3610  0.2050 -1.4914
 8141SOL    HW235886   0.892   2.272   3.420  2.3349  2.2794 -0.3155
 8142SOL     OW35887   3.722   3.184   9.540  0.2706  0.1015  0.5948
 8142SOL    HW135888   3.773   3.187   9.621  0.8834 -1.6362  0.2642
 8142SOL    HW235889   3.664   3.109   9.551  0.0803  0.1527 -0.0568
 8143SOL     OW35890   1.374   0.764  12.842 -0.2908 -0.5563  0.1724
 8143SOL    HW135891   1.279   0.771  12.847 -0.3029 -1.3170  1.0707
 8143SOL    HW235892   1.394   0.809  12.760 -1.1178  0.4185  0.5049
 8144SOL     OW35893   0.319   1.966   9.230  0.0644  1.0009 -0.1322
 8144SOL    HW135894   0.374   2.040   9.205  0.4938  1.5492  2.5215
 8144SOL    HW235895   0.260   2.019   9.283 -1.4554  2.0762 -2.8651
 8145SOL     OW35896   4.672   4.093   8.554 -0.5210 -0.2554  0.7772
 8145SOL    HW135897   0.045   4.086   8.536 -0.2970  3.6754  0.3393
 8145SOL    HW235898   4.685   4.103   8.648  0.4279 -0.2845  0.6532
 8146SOL     OW35899   1.167   2.668   7.750 -0.1640  0.1473  0.3862
 8146SOL    HW135900   1.173   2.763   7.759  0.7761  0.0273  1.0984
 8146SOL    HW235901   1.179   2.642   7.842  4.7865  1.6776  0.1441
 8147SOL     OW35902   0.671   2.183   0.231 -0.3434  0.4201 -0.4237
 8147SOL    HW135903   0.737   2.174   0.163  0.3469  0.2905  0.2673
 8147SOL    HW235904   0.704   2.256   0.283  1.9395 -1.0564  0.1835
 8148SOL     OW35905   0.513   2.510  10.375  0.5562 -0.0579 -0.4019
 8148SOL    HW135906   0.451   2.518  10.303  0.2844  1.2367 -0.0361
 8148SOL    HW235907   0.592   2.468  10.340  0.9821  0.4196 -0.0229
 8149SOL     OW35908   4.033   1.173   1.497  0.0848  0.4986 -0.3204
 8149SOL    HW135909   4.019   1.096   1.552 -0.5863  1.0487  0.2895
 8149SOL    HW235910   3.940   1.193   1.487 -0.0895 -0.3694 -0.3770
 8150SOL     OW35911   1.760   1.829   7.979  0.0153  0.4596 -0.2467
 8150SOL    HW135912   1.702   1.757   7.953 -0.8759  1.3069 -0.5815
 8150SOL    HW235913   1.724   1.858   8.062 -0.1726  1.2567 -0.6086
 8151SOL     OW35914   4.576   3.195   9.814 -0.3140  0.2760 -0.1714
 8151SOL    HW135915   4.642   3.246   9.767 -0.1081 -0.4543 -0.6714
 8151SOL    HW235916   4.579   3.245   9.896 -1.8926  2.0744 -1.2080
 8152SOL     OW35917   3.745   0.441   2.786  0.2719 -0.1395  0.4601
 8152SOL    HW135918   3.773   0.476   2.701  3.1164 -1.7723  0.7123
 8152SOL    HW235919   3.653   0.468   2.780  0.1347 -1.1863 -2.0158
 8153SOL     OW35920   1.402   3.920  11.978 -0.1598  0.1546  0.0045
 8153SOL    HW135921   1.443   3.928  11.891  1.2540 -1.1073  0.5609
 8153SOL    HW235922   1.452   3.846  12.012 -1.6602 -0.3000  1.2106
 8154SOL     OW35923   3.325   3.594   5.628  0.4425  0.6873  0.3112
 8154SOL    HW135924   3.261   3.523   5.623 -0.6378  1.6357  0.4614
 8154SOL    HW235925   3.390   3.555   5.685 -1.0638 -2.7895 -0.3904
 8155SOL     OW35926   0.477   3.884   7.077  0.1846  0.4706 -0.6948
 8155SOL    HW135927   0.408   3.883   7.010  0.4819 -0.7191 -0.9754
 8155SOL    HW235928   0.518   3.798   7.080 -1.5560 -0.4617 -2.9836
 8156SOL     OW35929   3.627   0.673  16.401  0.2649  0.6229  0.4267
 8156SOL    HW135930   3.664   0.704  16.485 -0.7553  0.1397  1.0481
 8156SOL    HW235931   3.707   0.631  16.369 -0.6992 -1.2983  0.6001
 8157SOL     OW35932   0.307   0.744   5.122 -0.0206 -0.1826 -0.0112
 8157SOL    HW135933   0.325   0.712   5.210  1.4047  1.2821  0.2303
 8157SOL    HW235934   0.364   0.691   5.066 -0.8916  0.0508 -1.1354
 8158SOL     OW35935   4.521   4.657  11.067  0.0810  0.1319  0.0509
 8158SOL    HW135936   4.475   0.009  11.107 -1.1019  0.5248 -2.0404
 8158SOL    HW235937   4.478   4.662  10.982  0.6187 -0.6121 -0.2625
 8159SOL     OW35938   4.417   1.684   4.416  0.3102 -0.6155 -0.3395
 8159SOL    HW135939   4.362   1.607   4.430  0.6430 -0.4193  2.1298
 8159SOL    HW235940   4.482   1.664   4.483 -0.9307 -0.6927  0.8388
 8160SOL     OW35941   3.363   2.495   7.020  0.7363 -0.0788 -0.5666
 8160SOL    HW135942   3.277   2.459   7.041  0.6421  0.6656  0.3064
 8160SOL    HW235943   3.348   2.523   6.930 -0.6123 -0.9803 -0.6109
 8161SOL     OW35944   0.152   1.841   2.628 -0.1813  0.3990  0.3299
 8161SOL    HW135945   0.145   1.780   2.555 -1.7135 -1.3525  1.9726
 8161SOL    HW235946   0.235   1.812   2.665 -1.4357 -1.0120  1.9924
 8162SOL     OW35947   0.288   2.403   9.318  0.2701 -0.3624  0.2967
 8162SOL    HW135948   0.208   2.353   9.331 -0.3276 -0.0652 -2.2608
 8162SOL    HW235949   0.350   2.334   9.295  1.4786  0.0503  2.2946
 8163SOL     OW35950   0.346   4.572  10.055  0.0876 -0.5599  0.2423
 8163SOL    HW135951   0.322   4.598  10.144 -0.9671 -0.1430 -0.1645
 8163SOL    HW235952   0.261   4.545  10.020 -0.4920 -1.6117  2.4749
 8164SOL     OW35953   1.906   4.111   9.139 -0.2651  0.2501  0.0350
 8164SOL    HW135954   1.906   4.036   9.199  1.8675  0.4368  0.2638
 8164SOL    HW235955   1.998   4.135   9.126  0.2260 -0.6544  1.8094
 8165SOL     OW35956   1.311   2.786   2.220 -0.1151 -0.0546 -0.3976
 8165SOL    HW135957   1.244   2.731   2.178  0.6138  0.4914 -2.2614
 8165SOL    HW235958   1.385   2.726   2.213 -0.8316 -0.9196 -0.6250
 8166SOL     OW35959   1.353   0.546   4.578 -0.1117  0.3023  0.0159
 8166SOL    HW135960   1.383   0.633   4.551  0.1711  0.4584  0.8266
 8166SOL    HW235961   1.381   0.566   4.667 -3.2835 -1.5763  1.4337
 8167SOL     OW35962   1.031   3.864   9.517 -0.2224 -0.0207 -0.0639
 8167SOL    HW135963   1.043   3.958   9.506  0.8381  0.0490  1.5931
 8167SOL    HW235964   0.937   3.862   9.532  0.0133  1.7393  1.5890
 8168SOL     OW35965   4.068   2.554   9.150 -0.5078  0.0395 -0.2322
 8168SOL    HW135966   4.160   2.530   9.138 -0.3460  0.1756  0.7369
 8168SOL    HW235967   4.036   2.464   9.145  0.2119 -0.3921  3.2158
 8169SOL     OW35968   0.032   2.613   8.347 -0.2542 -0.7255  0.1527
 8169SOL    HW135969   0.091   2.689   8.347 -1.1917  0.0045 -0.2012
 8169SOL    HW235970   0.076   2.547   8.401  0.5137  1.0269  1.6753
 8170SOL     OW35971   2.779   2.126  14.837  0.5817  0.1598  0.0572
 8170SOL    HW135972   2.856   2.109  14.892  0.2849 -1.5814 -0.0563
 8170SOL    HW235973   2.806   2.215  14.814  0.6065  0.8790  2.7519
 8171SOL     OW35974   1.131   4.088   4.627  0.4076 -0.4308 -0.3058
 8171SOL    HW135975   1.191   4.147   4.581 -0.4544  0.8815  0.2524
 8171SOL    HW235976   1.070   4.060   4.559  0.1951  1.4405 -0.8778
 8172SOL     OW35977   1.740   2.360   2.264 -0.5078  0.6380  0.5367
 8172SOL    HW135978   1.666   2.420   2.263 -0.6787  0.4321  0.6604
 8172SOL    HW235979   1.707   2.286   2.315 -1.1223  0.9018  0.5135
 8173SOL     OW35980   4.030   3.690   3.944 -0.9467 -0.0829 -0.3521
 8173SOL    HW135981   3.981   3.721   4.021  1.1396  2.9365 -0.2484
 8173SOL    HW235982   4.014   3.596   3.953 -2.0787  0.0225 -1.2316
 8174SOL     OW35983   1.366   3.561   8.595 -0.2808  0.2488 -0.0491
 8174SOL    HW135984   1.392   3.491   8.535 -0.6074  0.5695 -0.5563
 8174SOL    HW235985   1.446   3.612   8.578 -0.2058 -0.0759 -0.6826
 8175SOL     OW35986   0.333   2.919  11.354 -0.5523  0.0360 -0.0289
 8175SOL    HW135987   0.334   3.011  11.328  0.3368  0.1204  0.3106
 8175SOL    HW235988   0.259   2.891  11.299 -0.2768  1.0543 -0.9111
 8176SOL     OW35989   1.931   0.461   5.492  0.1932 -0.9322  0.1981
 8176SOL    HW135990   1.934   0.534   5.554 -2.3669 -2.3277  1.9603
 8176SOL    HW235991   1.863   0.404   5.528 -0.6682  0.9422  1.5702
 8177SOL     OW35992   3.430   1.535   9.092  0.0307  0.3464 -0.0015
 8177SOL    HW135993   3.419   1.447   9.057 -0.4188  0.8594 -1.1745
 8177SOL    HW235994   3.476   1.530   9.176 -0.4809  2.4623  0.3994
 8178SOL     OW35995   0.248   0.442   4.005 -0.0140  0.0632 -0.3401
 8178SOL    HW135996   0.328   0.398   3.975 -0.0384 -1.6765  2.1107
 8178SOL    HW235997   0.238   0.493   3.925  0.1650 -1.0709 -1.0827
 8179SOL     OW35998   3.464   3.047   5.284  0.2059  0.4521 -0.0658
 8179SOL    HW135999   3.376   3.051   5.246 -0.9323 -0.3623  2.4184
 8179SOL    HW236000   3.450   3.099   5.364 -1.8668 -3.7675  2.3558
 8180SOL     OW36001   0.849   1.532   2.977  0.1759 -0.2156 -0.0857
 8180SOL    HW136002   0.911   1.548   2.906 -1.2663  0.4754 -1.1900
 8180SOL    HW236003   0.909   1.559   3.047  0.3505 -0.4138 -0.1594
 8181SOL     OW36004   4.306   4.390   2.812 -0.4034  0.3003 -0.6007
 8181SOL    HW136005   4.348   4.426   2.889 -0.0530  0.1789 -0.7364
 8181SOL    HW236006   4.332   4.298   2.810  0.0473  0.4011  1.0801
 8182SOL     OW36007   4.129   1.387  14.314 -0.2098  0.3056 -0.4238
 8182SOL    HW136008   4.160   1.469  14.352  1.4768  0.2322 -1.6563
 8182SOL    HW236009   4.057   1.419  14.260  0.6904  1.6190 -0.8528
 8183SOL     OW36010   1.600   4.391   6.846 -0.0874 -0.8038 -0.8820
 8183SOL    HW136011   1.589   4.486   6.836  1.3641 -0.7125 -1.6834
 8183SOL    HW236012   1.659   4.376   6.772  2.3475 -0.9010  1.0624
 8184SOL     OW36013   2.080   0.649  14.696 -0.1273 -0.1698 -0.1760
 8184SOL    HW136014   1.997   0.694  14.679  0.9905  2.0730  0.2671
 8184SOL    HW236015   2.132   0.649  14.616 -1.6127 -0.1130 -1.1547
 8185SOL     OW36016   0.717   1.814   3.785 -0.2244  0.4369  0.1271
 8185SOL    HW136017   0.778   1.887   3.796 -0.2605  0.7232 -1.5077
 8185SOL    HW236018   0.757   1.756   3.720 -0.0837  1.1321 -0.4059
 8186SOL     OW36019   1.178   1.764  14.253  0.5389 -0.1588  0.7776
 8186SOL    HW136020   1.094   1.722  14.234  0.8321 -0.6212  0.4835
 8186SOL    HW236021   1.237   1.693  14.228  0.2049 -0.5249  1.0355
 8187SOL     OW36022   3.041   3.665  16.922 -0.2155 -0.1942  0.1202
 8187SOL    HW136023   3.117   3.623  16.963 -0.6771 -1.5373 -0.4188
 8187SOL    HW236024   3.083   3.734  16.870  2.5279 -3.2132 -1.6932
 8188SOL     OW36025   1.408   0.853   4.894 -0.1224  0.3937 -0.6134
 8188SOL    HW136026   1.493   0.890   4.869 -0.1699  0.8795 -0.0616
 8188SOL    HW236027   1.423   0.762   4.918  1.7232  0.0279 -3.2523
 8189SOL     OW36028   4.677   0.298  13.506  0.3876  0.6510 -0.1317
 8189SOL    HW136029   4.608   0.273  13.567 -1.0279  2.6539 -0.9109
 8189SOL    HW236030   0.012   0.356  13.558  1.7846 -0.3048 -0.5636
 8190SOL     OW36031   2.178   1.573   2.003  0.0424  0.3157 -0.8565
 8190SOL    HW136032   2.150   1.636   2.069 -0.5487 -2.1758  1.2522
 8190SOL    HW236033   2.273   1.588   2.013 -0.1640  0.4350  0.9478
 8191SOL     OW36034   0.177   2.964   8.863  0.0768  0.6278  0.0232
 8191SOL    HW136035   0.188   3.032   8.930 -0.0872  0.4570  0.2242
 8191SOL    HW236036   0.193   2.883   8.911  0.3120  0.5908 -0.1139
 8192SOL     OW36037   3.956   2.889   8.361 -0.7461 -0.4575  0.2087
 8192SOL    HW136038   4.032   2.864   8.309 -1.1515 -0.9993 -0.1329
 8192SOL    HW236039   3.889   2.889   8.291  1.5630 -3.1668 -1.9844
 8193SOL     OW36040   0.617   0.390   6.011 -0.4033  0.1208 -0.0660
 8193SOL    HW136041   0.707   0.361   6.027 -0.7057 -0.1457  1.1194
 8193SOL    HW236042   0.576   0.307   5.988 -1.5359  0.2630  1.4440
 8194SOL     OW36043   4.375   1.313   0.200  0.3408 -0.0311  0.1266
 8194SOL    HW136044   4.417   1.339   0.281  0.9113 -0.3815 -0.0565
 8194SOL    HW236045   4.285   1.320   0.231 -0.0716 -0.8999 -0.8702
 8195SOL     OW36046   0.174   2.330   6.901 -0.0843  0.2628 -0.1926
 8195SOL    HW136047   0.147   2.288   6.820  0.5126  2.7756 -1.6957
 8195SOL    HW236048   0.106   2.304   6.962 -0.5930 -1.3966 -1.4908
 8196SOL     OW36049   0.305   1.994   6.860 -0.2978  0.0113 -0.3123
 8196SOL    HW136050   0.257   1.954   6.933  0.2442 -0.2082 -0.0801
 8196SOL    HW236051   0.378   2.037   6.904  0.9341 -1.0178 -1.3603
 8197SOL     OW36052   1.435   4.051  16.649  0.1615  0.5517 -0.4797
 8197SOL    HW136053   1.449   4.096  16.566 -1.1381 -0.0356 -1.0329
 8197SOL    HW236054   1.340   4.063  16.660  0.0795 -1.3226  0.8436
 8198SOL     OW36055   0.451   3.493   4.511  0.1836  0.5446  0.4625
 8198SOL    HW136056   0.445   3.518   4.603 -1.5301 -0.1908  0.5605
 8198SOL    HW236057   0.542   3.503   4.482  0.0025 -1.1249 -0.6522
 8199SOL     OW36058   1.094   4.571   2.563 -0.1216  0.3110  0.1474
 8199SOL    HW136059   1.047   4.509   2.507  0.5507  2.0366 -2.3120
 8199SOL    HW236060   1.039   4.575   2.642 -0.6382 -2.7174 -0.0257
 8200SOL     OW36061   3.034   1.724   2.875 -0.0346  0.0529  0.1084
 8200SOL    HW136062   3.106   1.743   2.814 -0.4265  1.9839  0.2588
 8200SOL    HW236063   3.025   1.806   2.922  0.3865  1.3125 -2.0058
 8201SOL     OW36064   4.372   2.929  17.530  0.2325  0.1495  0.0079
 8201SOL    HW136065   4.333   2.881  17.603  0.6847  1.5689  1.1879
 8201SOL    HW236066   4.403   2.858  17.474 -0.7327 -1.8711  2.0476
 8202SOL     OW36067   2.107   1.952   2.706 -0.1514  0.0587 -0.6224
 8202SOL    HW136068   2.153   2.004   2.640 -0.1786 -0.1645 -0.8189
 8202SOL    HW236069   2.182   1.947   2.765 -0.9036 -0.3801  0.2894
 8203SOL     OW36070   2.043   4.501   3.041  0.1868  0.4526  0.3795
 8203SOL    HW136071   1.971   4.440   3.057 -0.7307  1.0799 -1.4426
 8203SOL    HW236072   2.037   4.504   2.945  3.2731 -1.0786  0.1252
 8204SOL     OW36073   2.739   4.347   6.927  0.4314 -0.4548  0.0127
 8204SOL    HW136074   2.705   4.332   6.839  1.1199  0.9534 -0.4826
 8204SOL    HW236075   2.722   4.267   6.978 -2.4964 -0.2645 -0.6850
 8205SOL     OW36076   2.477   1.306  11.822 -0.5455  0.5476  0.2027
 8205SOL    HW136077   2.556   1.344  11.861  1.0370 -2.1164 -0.4474
 8205SOL    HW236078   2.494   1.216  11.850 -0.5464  0.4119 -0.2335
 8206SOL     OW36079   3.583   0.185   7.041 -0.9286  0.2742 -0.5214
 8206SOL    HW136080   3.512   0.195   6.978 -0.2215  1.7424 -1.0765
 8206SOL    HW236081   3.651   0.137   6.994 -1.5655 -0.8319 -0.3147
 8207SOL     OW36082   3.548   2.587   6.613  0.7916 -0.2147 -0.2937
 8207SOL    HW136083   3.539   2.542   6.529 -0.7514  0.9571 -0.7521
 8207SOL    HW236084   3.595   2.668   6.592  0.2598 -0.0884 -0.9959
 8208SOL     OW36085   0.974   0.434  16.932  0.1727  0.6042  0.5623
 8208SOL    HW136086   1.052   0.415  16.984  0.6795 -2.1851 -1.2755
 8208SOL    HW236087   0.921   0.472  17.003 -0.1367 -1.0937  1.2363
 8209SOL     OW36088   0.775   4.713   8.531  0.2499 -0.3257  0.3824
 8209SOL    HW136089   0.864   0.024   8.539 -0.0908  0.2958  1.6917
 8209SOL    HW236090   0.737   0.044   8.602 -0.8531  1.1352 -1.2758
 8210SOL     OW36091   3.817   3.880   4.821 -0.0819 -0.1519  0.3827
 8210SOL    HW136092   3.803   3.965   4.863 -0.6276  0.1724 -0.4555
 8210SOL    HW236093   3.889   3.898   4.761 -0.3445 -0.7279 -0.1041
 8211SOL     OW36094   0.567   3.269   3.377 -0.0377 -0.3733 -0.0479
 8211SOL    HW136095   0.554   3.193   3.321  0.8521  0.5273 -1.4901
 8211SOL    HW236096   0.528   3.239   3.459  0.3039  3.6130  1.6095
 8212SOL     OW36097   1.782   2.975   5.509 -0.0223  0.2909 -0.4662
 8212SOL    HW136098   1.725   2.903   5.532  0.4109  1.2280  3.5030
 8212SOL    HW236099   1.872   2.941   5.508 -0.6831 -1.4195 -1.4028
 8213SOL     OW36100   1.228   0.368   0.425 -0.6453 -0.6437 -0.5103
 8213SOL    HW136101   1.159   0.302   0.417 -0.9327 -0.2647 -1.0910
 8213SOL    HW236102   1.172   0.445   0.423 -0.7148 -0.7205 -1.3996
 8214SOL     OW36103   0.352   2.094   6.153 -0.0207 -0.1389 -0.3548
 8214SOL    HW136104   0.414   2.089   6.081 -1.1515 -0.8386 -1.2909
 8214SOL    HW236105   0.399   2.142   6.221  0.6066  1.2003 -1.7691
 8215SOL     OW36106   3.388   3.224   4.068  0.2664 -0.4337  0.4192
 8215SOL    HW136107   3.323   3.285   4.033  2.1621  1.0629 -0.4808
 8215SOL    HW236108   3.341   3.179   4.138 -0.3428 -1.0926 -0.4017
 8216SOL     OW36109   3.490   2.468   6.385 -0.4406 -0.5201 -0.3167
 8216SOL    HW136110   3.540   2.473   6.303  1.9903  0.0358  1.2263
 8216SOL    HW236111   3.443   2.386   6.369 -1.1919 -0.1794  0.1738
 8217SOL     OW36112   3.395   4.453  13.277  0.3777  0.1950 -0.0138
 8217SOL    HW136113   3.343   4.525  13.312 -0.2621 -0.8833  1.2971
 8217SOL    HW236114   3.382   4.388  13.347 -0.1383  0.8289  0.4761
 8218SOL     OW36115   0.344   3.936   2.561 -0.5406 -0.0765  0.2666
 8218SOL    HW136116   0.309   3.853   2.593  0.7399 -1.1076 -0.9685
 8218SOL    HW236117   0.436   3.916   2.580 -0.8316 -0.8231  0.8360
 8219SOL     OW36118   0.480   3.535   6.191  0.1329 -0.2314  0.3655
 8219SOL    HW136119   0.469   3.546   6.285  1.9839  0.7537  0.4585
 8219SOL    HW236120   0.553   3.592   6.168  1.7255 -1.9393  1.1262
 8220SOL     OW36121   0.131   0.185  15.923  0.3472 -0.2561  0.2844
 8220SOL    HW136122   0.080   0.109  15.952 -1.9490  0.9707 -0.5470
 8220SOL    HW236123   0.114   0.194  15.829 -0.0223 -1.5399  0.2251
 8221SOL     OW36124   1.951   1.817   9.687 -0.1186  0.0078 -0.6441
 8221SOL    HW136125   2.000   1.802   9.606  0.1096  2.8504 -1.0429
 8221SOL    HW236126   2.011   1.775   9.749  0.4437  2.0055  0.1853
 8222SOL     OW36127   0.487   2.422   0.344 -0.1372 -0.2156 -0.1617
 8222SOL    HW136128   0.421   2.396   0.409 -0.1279 -3.2183 -1.3394
 8222SOL    HW236129   0.537   2.486   0.395 -0.3362 -2.1151  2.4399
 8223SOL     OW36130   3.998   1.548   3.065  0.5898 -0.1012  0.5144
 8223SOL    HW136131   4.012   1.464   3.021 -0.0967  0.1203 -0.1289
 8223SOL    HW236132   4.062   1.534   3.134  0.3942  0.5426  0.8276
 8224SOL     OW36133   0.647   1.393   2.056 -0.2698  0.2724  0.4069
 8224SOL    HW136134   0.722   1.352   2.012 -0.1367  1.2541 -0.2649
 8224SOL    HW236135   0.579   1.327   2.042 -1.6924  2.1462 -1.4735
 8225SOL     OW36136   2.956   2.473   2.539 -0.0549  0.3716  0.3734
 8225SOL    HW136137   2.898   2.470   2.615 -3.1139  0.6098 -1.9350
 8225SOL    HW236138   2.950   2.567   2.518  0.5248  0.5400  0.9660
 8226SOL     OW36139   0.864   2.886  14.616  0.0232 -0.2377 -0.7014
 8226SOL    HW136140   0.954   2.861  14.640  0.1212  0.2649 -0.5365
 8226SOL    HW236141   0.866   2.920  14.527  0.1341 -1.2605 -1.0940
 8227SOL     OW36142   2.956   1.555   5.466 -0.1322 -0.0818  0.8074
 8227SOL    HW136143   2.896   1.496   5.511 -0.4994 -0.4200 -0.1270
 8227SOL    HW236144   3.012   1.579   5.539  2.2678 -3.6494  0.1483
 8228SOL     OW36145   0.988   2.583   3.621 -0.4344  0.1298 -0.1449
 8228SOL    HW136146   1.030   2.650   3.566  1.9002 -1.1573  0.0790
 8228SOL    HW236147   0.961   2.644   3.690 -0.2271  1.4773 -1.2561
 8229SOL     OW36148   0.913   0.961  11.860  0.0847 -0.5098 -0.0748
 8229SOL    HW136149   1.004   0.987  11.872  0.3628 -1.5770  0.1410
 8229SOL    HW236150   0.863   1.043  11.853  1.5703  0.5605  1.6809
 8230SOL     OW36151   0.960   2.405   4.301  1.1143  0.2159  0.1605
 8230SOL    HW136152   0.869   2.390   4.276  0.9793  1.7151 -0.2910
 8230SOL    HW236153   0.973   2.329   4.358  0.1493  1.8525  2.5725
 8231SOL     OW36154   4.027   0.978   0.836  0.1069  0.0073  0.2298
 8231SOL    HW136155   4.060   0.976   0.926 -2.0105 -0.3493  0.9854
 8231SOL    HW236156   4.050   0.894   0.796  0.7451  0.6615 -0.7809
 8232SOL     OW36157   3.401   3.596  16.961 -0.4095 -0.0250  0.4140
 8232SOL    HW136158   3.394   3.544  17.041  0.3885 -1.5803 -0.5363
 8232SOL    HW236159   3.462   3.542  16.912 -0.7963  0.6609 -0.8131
 8233SOL     OW36160   1.737   1.086  10.069 -0.4436 -0.0422  0.0519
 8233SOL    HW136161   1.781   1.158  10.115 -0.2242 -1.0104  1.3427
 8233SOL    HW236162   1.750   1.116   9.979 -1.0946  0.3001  0.0703
 8234SOL     OW36163   1.753   4.068   2.675 -0.4248 -0.5380 -0.1782
 8234SOL    HW136164   1.804   4.069   2.756  0.3373  1.2948 -0.6903
 8234SOL    HW236165   1.794   4.136   2.622  1.0299  1.2925  3.3312
 8235SOL     OW36166   2.009   2.062   1.718  0.5767 -0.1452  0.3498
 8235SOL    HW136167   2.072   2.040   1.786  1.6394 -0.7201 -0.8104
 8235SOL    HW236168   1.930   2.026   1.758  0.1238 -3.0431 -3.1211
 8236SOL     OW36169   1.716   4.317   3.868  0.2149 -0.0029 -0.0963
 8236SOL    HW136170   1.779   4.303   3.939 -0.8889  0.8586  1.0495
 8236SOL    HW236171   1.643   4.353   3.919  0.8163 -0.3588  1.0167
 8237SOL     OW36172   0.718   1.853   5.112  0.1075  0.1784 -0.3552
 8237SOL    HW136173   0.671   1.819   5.036 -0.3256  1.9030 -0.8610
 8237SOL    HW236174   0.785   1.904   5.067  0.8720 -1.7601 -1.3962
 8238SOL     OW36175   3.346   0.864   7.768 -1.3673  0.0228  0.5609
 8238SOL    HW136176   3.416   0.815   7.810 -1.5542  0.7998  1.7708
 8238SOL    HW236177   3.394   0.895   7.691  1.3843  0.5243  2.4695
 8239SOL     OW36178   1.940   3.676   2.716 -0.0264  0.3787  0.4019
 8239SOL    HW136179   1.965   3.602   2.771 -1.0954  0.1935  0.6385
 8239SOL    HW236180   2.010   3.738   2.737  0.5482  0.0901 -0.6487
 8240SOL     OW36181   2.633   3.026  10.441 -0.0918 -0.0834 -0.0316
 8240SOL    HW136182   2.672   3.065  10.520 -1.0931  1.8891 -0.5165
 8240SOL    HW236183   2.551   2.997  10.481 -0.2372  0.2430 -0.0912
 8241SOL     OW36184   2.679   2.027   3.204  0.5447 -0.0137 -0.1125
 8241SOL    HW136185   2.666   2.121   3.192 -1.2719 -0.0491  1.5054
 8241SOL    HW236186   2.588   1.995   3.205 -0.7494  3.6802 -1.2815
 8242SOL     OW36187   4.022   1.392  14.797  0.7291  0.3388 -0.5445
 8242SOL    HW136188   4.086   1.322  14.810 -0.7034 -0.8556  0.1021
 8242SOL    HW236189   3.939   1.345  14.798  1.0045 -0.1492  0.1766
 8243SOL     OW36190   1.669   3.723  14.154  0.1525  0.0198  0.1755
 8243SOL    HW136191   1.577   3.708  14.172  0.0688  0.0087 -0.2676
 8243SOL    HW236192   1.670   3.812  14.118  0.9071 -0.0653 -0.0161
 8244SOL     OW36193   4.146   4.273   6.752 -0.5918 -0.3935  0.7816
 8244SOL    HW136194   4.112   4.289   6.840  0.3442  2.3222  0.6623
 8244SOL    HW236195   4.085   4.208   6.717 -0.4224  0.1986 -0.6187
 8245SOL     OW36196   2.669   2.143   1.823 -0.3016 -0.3455 -0.0619
 8245SOL    HW136197   2.574   2.142   1.839 -0.4019 -0.1275 -0.6509
 8245SOL    HW236198   2.711   2.144   1.909  0.0496  2.9520 -0.2622
 8246SOL     OW36199   4.272   1.382   7.904  0.3754  0.2040 -0.0037
 8246SOL    HW136200   4.266   1.469   7.865 -1.9399  0.5768  1.1551
 8246SOL    HW236201   4.183   1.370   7.936  0.4960 -0.2359  0.1665
 8247SOL     OW36202   1.930   0.047   5.585  0.0321  0.2274 -0.0880
 8247SOL    HW136203   1.946   0.140   5.599 -0.6302 -0.0569  2.5485
 8247SOL    HW236204   1.996   0.004   5.639  2.9742  4.0906 -0.5897
 8248SOL     OW36205   2.858   0.527  10.976 -0.2566  0.0579 -0.4659
 8248SOL    HW136206   2.880   0.473  10.900 -0.5808  0.6467 -0.9728
 8248SOL    HW236207   2.938   0.503  11.024 -0.6314  0.3835  0.3200
 8249SOL     OW36208   4.347   0.480   7.719  0.6304 -0.6847  0.4037
 8249SOL    HW136209   4.332   0.502   7.811 -0.2911  0.7593 -0.0988
 8249SOL    HW236210   4.291   0.550   7.685  0.8325  0.2949  2.1014
 8250SOL     OW36211   3.334   0.300   0.305  0.0773 -0.1074 -0.0785
 8250SOL    HW136212   3.285   0.314   0.224 -0.3727 -2.1582 -0.1398
 8250SOL    HW236213   3.418   0.302   0.260  1.3442  0.7852  2.3129
 8251SOL     OW36214   4.505   1.710   7.152 -0.1897 -0.0380 -0.0276
 8251SOL    HW136215   4.455   1.636   7.184 -1.7691  0.2729 -1.7842
 8251SOL    HW236216   4.473   1.771   7.218 -1.7265 -1.9154  0.9416
 8252SOL     OW36217   1.849   4.213   6.762 -0.0928 -0.4991 -0.2586
 8252SOL    HW136218   1.897   4.241   6.840  0.0295 -0.6458 -0.2810
 8252SOL    HW236219   1.827   4.294   6.717 -3.0396 -0.4912  1.1789
 8253SOL     OW36220   1.992   2.082   6.667  0.5408  0.1712  0.3120
 8253SOL    HW136221   1.979   2.093   6.572 -0.2207 -0.2145  0.3705
 8253SOL    HW236222   2.064   2.020   6.658 -0.1758 -0.5408 -0.4789
 8254SOL     OW36223   0.420   2.338  10.613 -0.2910  0.2915 -0.3977
 8254SOL    HW136224   0.386   2.297  10.533  1.9570  0.5472 -1.4787
 8254SOL    HW236225   0.456   2.419  10.578  3.7882 -0.0540  3.0157
 8255SOL     OW36226   3.235   3.897   9.559  0.4743 -0.3165  1.1268
 8255SOL    HW136227   3.181   3.934   9.489  2.9593 -1.3970 -1.3700
 8255SOL    HW236228   3.222   3.803   9.547 -0.7943 -0.4969  3.8438
 8256SOL     OW36229   4.212   4.222   5.253 -0.1164  0.0126  0.3828
 8256SOL    HW136230   4.243   4.312   5.266  1.7374 -0.6556  0.5878
 8256SOL    HW236231   4.252   4.199   5.169  0.2788  1.3411  0.2025
 8257SOL     OW36232   1.692   1.036   7.324 -0.5724 -0.2386  0.2004
 8257SOL    HW136233   1.731   0.965   7.272  2.4286  1.1357  0.5922
 8257SOL    HW236234   1.632   0.987   7.380  0.0462  0.9736  1.8938
 8258SOL     OW36235   3.245   4.161  10.897 -0.6543 -0.2916  0.2004
 8258SOL    HW136236   3.322   4.218  10.892 -0.5001 -0.6629 -1.7783
 8258SOL    HW236237   3.211   4.172  10.985  2.2801  1.1635  1.1594
 8259SOL     OW36238   1.584   2.401   7.128 -0.4194 -0.4870 -0.3501
 8259SOL    HW136239   1.619   2.488   7.147 -2.4914  0.6025 -1.4864
 8259SOL    HW236240   1.663   2.347   7.117  0.7328  1.4516 -1.5320
 8260SOL     OW36241   1.723   4.210   7.059 -0.3041 -0.5365 -0.2622
 8260SOL    HW136242   1.721   4.282   6.995 -2.2134  0.9374  1.4615
 8260SOL    HW236243   1.633   4.201   7.087 -0.8487 -1.1817 -2.1984
 8261SOL     OW36244   2.329   0.318   3.546  0.2065 -0.0846 -0.1749
 8261SOL    HW136245   2.360   0.232   3.575  1.2982  0.6585  0.8832
 8261SOL    HW236246   2.283   0.286   3.468  0.5623 -0.4376 -0.2397
 8262SOL     OW36247   2.895   4.019   3.080  0.4263 -0.1022 -0.2679
 8262SOL    HW136248   2.857   3.937   3.113 -1.3973 -0.4999 -3.4185
 8262SOL    HW236249   2.918   3.993   2.991  1.1593 -1.3416  0.2736
 8263SOL     OW36250   3.526   1.939   6.484 -0.0422  0.3295 -0.5105
 8263SOL    HW136251   3.536   1.844   6.488  0.4726  0.4364  0.5979
 8263SOL    HW236252   3.579   1.962   6.560  0.4922 -0.3781 -0.6693
 8264SOL     OW36253   3.467   0.234   2.964 -0.2927 -0.5044  0.1982
 8264SOL    HW136254   3.415   0.225   2.884  1.0813 -1.5586 -0.5781
 8264SOL    HW236255   3.492   0.325   2.951 -0.7000 -0.3283  0.6474
 8265SOL     OW36256   0.841   2.066   9.017 -0.1430  0.4402  0.0506
 8265SOL    HW136257   0.815   1.995   8.958 -1.1756  1.0803 -0.2596
 8265SOL    HW236258   0.929   2.032   9.033  0.1498  0.2813 -1.9243
 8266SOL     OW36259   4.153   1.795  10.811 -0.3927 -0.4269 -0.0595
 8266SOL    HW136260   4.083   1.832  10.759  1.1795  1.2791 -0.9541
 8266SOL    HW236261   4.220   1.840  10.760  1.1866 -0.4984  1.9333
 8267SOL     OW36262   2.764   0.476   6.373  0.6042 -0.2073  0.6426
 8267SOL    HW136263   2.750   0.505   6.283 -1.5601 -2.3568  0.2549
 8267SOL    HW236264   2.846   0.429   6.362  0.1771 -0.6905 -0.4842
 8268SOL     OW36265   1.683   1.313   4.163 -0.0051  0.1940  0.3574
 8268SOL    HW136266   1.709   1.289   4.075  0.7679  2.8419 -0.1336
 8268SOL    HW236267   1.630   1.238   4.192 -0.1788  0.4366  0.6725
 8269SOL     OW36268   0.127   3.598   2.771  0.3682 -0.2665  0.1753
 8269SOL    HW136269   0.069   3.595   2.847  1.6349 -0.9329  1.1155
 8269SOL    HW236270   0.068   3.630   2.704 -1.0168 -0.5772  1.2455
 8270SOL     OW36271   0.784   3.690   0.859  0.1913 -0.3666 -0.1754
 8270SOL    HW136272   0.818   3.616   0.809 -2.3118 -1.8482  0.3079
 8270SOL    HW236273   0.811   3.759   0.798  1.7008  0.4807  1.4338
 8271SOL     OW36274   3.472   1.397   5.684  0.3571  0.7638  0.3021
 8271SOL    HW136275   3.472   1.460   5.756  0.1188 -0.8837  1.7371
 8271SOL    HW236276   3.548   1.343   5.704 -0.7852 -1.5954 -1.7534
 8272SOL     OW36277   0.332   3.187   7.254  0.7743 -0.4409  0.1314
 8272SOL    HW136278   0.296   3.099   7.266 -1.0728  0.4785  1.4341
 8272SOL    HW236279   0.394   3.171   7.183  0.4841 -0.3627 -0.1405
 8273SOL     OW36280   0.235   1.324   4.703 -0.5414 -0.1331  0.1182
 8273SOL    HW136281   0.217   1.315   4.610  0.2087 -0.9530  0.0493
 8273SOL    HW236282   0.238   1.420   4.702 -1.6355 -0.1036  0.3466
 8274SOL     OW36283   2.437   4.198   8.888  0.7152 -0.0860  0.3177
 8274SOL    HW136284   2.477   4.274   8.931  0.7197  0.3952 -0.5423
 8274SOL    HW236285   2.486   4.205   8.806 -0.6551 -0.7717 -0.5443
 8275SOL     OW36286   2.707   2.661   3.436  1.0917 -0.6541 -0.1944
 8275SOL    HW136287   2.665   2.712   3.505 -0.1490 -3.7567  1.3057
 8275SOL    HW236288   2.721   2.733   3.373 -1.8212  0.6063  0.5560
 8276SOL     OW36289   2.857   1.374   5.215  0.4249  0.3079 -0.3572
 8276SOL    HW136290   2.923   1.392   5.282  0.3307 -0.6663  0.0021
 8276SOL    HW236291   2.900   1.308   5.160  2.3446  1.2643  0.0048
 8277SOL     OW36292   3.892   2.816  11.464  0.3056  0.4781 -0.1942
 8277SOL    HW136293   3.868   2.865  11.385 -1.2688 -1.6818 -1.0610
 8277SOL    HW236294   3.934   2.883  11.517 -0.1358  1.3344 -0.9278
 8278SOL     OW36295   1.386   0.130   6.799  0.1574 -0.0877  0.1575
 8278SOL    HW136296   1.357   0.174   6.880  0.0745 -0.2379  0.2090
 8278SOL    HW236297   1.321   0.066   6.769  0.9077 -2.0265  2.6409
 8279SOL     OW36298   1.580   2.286   8.982 -0.1212 -0.3680 -0.6197
 8279SOL    HW136299   1.574   2.244   8.896  1.8644 -5.1263  1.5643
 8279SOL    HW236300   1.542   2.215   9.035 -0.4016 -1.1305 -1.8444
 8280SOL     OW36301   2.275   1.560   0.508  0.9258  0.5477 -0.2565
 8280SOL    HW136302   2.309   1.638   0.552  0.3665  0.9328 -0.5127
 8280SOL    HW236303   2.218   1.584   0.435  1.5817 -0.7132 -1.1820
 8281SOL     OW36304   0.726   3.832  17.102 -0.3484  0.3762 -0.0813
 8281SOL    HW136305   0.633   3.818  17.082  0.1987 -2.3411 -0.6401
 8281SOL    HW236306   0.771   3.793  17.027 -2.5078 -0.7313 -0.8221
 8282SOL     OW36307   2.915   2.385   9.764 -0.2257  0.6271 -0.0695
 8282SOL    HW136308   2.889   2.472   9.733 -0.4840  0.5670 -0.0149
 8282SOL    HW236309   2.963   2.404   9.846  0.5642 -0.2361 -0.3311
 8283SOL     OW36310   1.015   0.754   3.590  0.1064  0.0032  0.0989
 8283SOL    HW136311   1.026   0.674   3.539 -0.7461  0.2430 -0.4661
 8283SOL    HW236312   0.945   0.801   3.544 -0.1078 -1.2945 -0.8843
 8284SOL     OW36313   1.628   4.642   3.758  0.4502  0.3961  0.1219
 8284SOL    HW136314   1.709   4.609   3.721  1.1765  3.4222 -0.9611
 8284SOL    HW236315   1.661   4.662   3.846 -3.1800 -0.5214  1.7350
 8285SOL     OW36316   2.324   1.340   8.717 -0.0536 -0.0320  0.0811
 8285SOL    HW136317   2.272   1.348   8.638  0.7311 -0.8203 -0.5166
 8285SOL    HW236318   2.332   1.244   8.716 -1.8760 -0.1946  0.3905
 8286SOL     OW36319   4.527   1.261   4.896  0.1344 -0.1690  0.0087
 8286SOL    HW136320   4.490   1.173   4.906  0.3990 -0.6417 -3.0906
 8286SOL    HW236321   4.621   1.245   4.902  0.1945  0.1528 -0.1006
 8287SOL     OW36322   3.673   3.391   6.799 -0.2999  0.2580  0.6934
 8287SOL    HW136323   3.738   3.325   6.775 -1.3724 -0.6550  0.2726
 8287SOL    HW236324   3.702   3.468   6.750 -0.7362  0.3769  0.6212
 8288SOL     OW36325   1.895   1.662   8.462 -0.0616 -0.6673 -0.2736
 8288SOL    HW136326   1.948   1.741   8.460  0.0721 -0.7910 -1.9507
 8288SOL    HW236327   1.933   1.599   8.400  2.8394 -1.1765  2.0638
 8289SOL     OW36328   2.936   3.305   0.424  0.0468  0.3357  0.4158
 8289SOL    HW136329   2.983   3.307   0.507  0.2715  2.2590  0.2474
 8289SOL    HW236330   2.849   3.272   0.448  0.3893 -1.4583 -0.7698
 8290SOL     OW36331   0.785   1.979  16.084  0.0390  0.1866  0.3759
 8290SOL    HW136332   0.875   1.977  16.052  0.1228  1.3234  0.5499
 8290SOL    HW236333   0.794   2.028  16.166  0.5621  1.4304 -0.4287
 8291SOL     OW36334   4.380   3.798   8.260 -0.1674  0.8193  0.6639
 8291SOL    HW136335   4.288   3.818   8.242 -0.4116 -1.1392 -0.3173
 8291SOL    HW236336   4.414   3.865   8.319  2.2013  0.3515 -0.1897
 8292SOL     OW36337   3.437   1.271   6.187 -0.4383 -0.2001 -0.2657
 8292SOL    HW136338   3.504   1.219   6.230 -1.0960 -1.7139 -1.0710
 8292SOL    HW236339   3.491   1.350   6.183  1.0034 -1.1462  0.3788
 8293SOL     OW36340   3.101   2.966   3.942  0.0979 -0.1281  0.6524
 8293SOL    HW136341   3.141   2.895   3.993 -1.1270 -0.5968  0.9637
 8293SOL    HW236342   3.110   2.931   3.854  0.9153 -0.1048  0.7302
 8294SOL     OW36343   3.225   2.792   6.793 -0.3868  0.7533  0.2924
 8294SOL    HW136344   3.253   2.701   6.797 -0.6218  0.6108 -1.4070
 8294SOL    HW236345   3.305   2.822   6.751  0.7846 -1.7782  0.7172
 8295SOL     OW36346   4.125   2.468  15.723 -0.3469 -1.0521  0.1129
 8295SOL    HW136347   4.177   2.477  15.803 -2.4061  2.0294  1.0975
 8295SOL    HW236348   4.044   2.430  15.758 -0.9938 -0.4920 -0.7727
 8296SOL     OW36349   3.345   3.998   8.983 -0.0524  0.3681 -0.5261
 8296SOL    HW136350   3.432   3.967   8.957  0.7751  0.8527  1.7076
 8296SOL    HW236351   3.360   4.011   9.076  0.2431 -1.5121 -0.3261
 8297SOL     OW36352   0.787   2.688   8.536  0.2704  0.9231 -0.3227
 8297SOL    HW136353   0.862   2.631   8.517  1.1377  2.1626 -0.5894
 8297SOL    HW236354   0.773   2.678   8.630 -3.9100 -2.9472 -1.3647
 8298SOL     OW36355   3.738   1.485   7.946 -0.2921 -0.1792  0.2887
 8298SOL    HW136356   3.729   1.390   7.959 -0.1116 -0.0184  1.5958
 8298SOL    HW236357   3.740   1.517   8.036  0.0342 -0.2594  0.3104
 8299SOL     OW36358   3.320   2.924   1.057 -0.1094  0.3172 -0.2918
 8299SOL    HW136359   3.307   2.847   1.111  0.8578  0.4077  0.0763
 8299SOL    HW236360   3.379   2.880   0.996  0.4290  0.8189 -0.1325
 8300SOL     OW36361   2.116   2.551  13.600 -0.1605 -0.0003 -0.0091
 8300SOL    HW136362   2.160   2.597  13.671  0.6177  0.4193 -0.7620
 8300SOL    HW236363   2.069   2.624  13.561  1.4729  0.3963 -1.2164
 8301SOL     OW36364   2.617   1.943   4.104 -0.3992  0.1982 -0.4737
 8301SOL    HW136365   2.666   1.882   4.050 -2.0769 -0.8589 -0.8020
 8301SOL    HW236366   2.604   2.020   4.048 -2.7812 -0.1091 -0.3471
 8302SOL     OW36367   2.771   1.894  17.286 -0.3504  0.4797 -0.0436
 8302SOL    HW136368   2.708   1.943  17.233  0.7457  4.2347  2.1186
 8302SOL    HW236369   2.726   1.823  17.332 -2.8576  2.2456  0.2501
 8303SOL     OW36370   0.298   3.433   9.620 -0.1205  0.7253  0.3373
 8303SOL    HW136371   0.325   3.453   9.710 -0.1186 -0.1755  0.5355
 8303SOL    HW236372   0.263   3.519   9.596 -0.8803  0.2783 -0.1442
 8304SOL     OW36373   1.918   4.055   7.989 -0.3870 -0.2976  0.3923
 8304SOL    HW136374   1.911   3.963   7.966 -0.6579  0.1387 -1.2209
 8304SOL    HW236375   1.979   4.088   7.924 -0.2170  0.2234  0.8151
 8305SOL     OW36376   0.620   1.850  13.511 -0.8260  0.0822 -0.2106
 8305SOL    HW136377   0.700   1.902  13.516 -1.4135  0.9641  0.0655
 8305SOL    HW236378   0.638   1.783  13.576 -0.9457  1.4043  1.1774
 8306SOL     OW36379   0.082   2.195  17.472 -0.0103 -1.0606 -0.2440
 8306SOL    HW136380   0.048   2.271  17.519 -2.2429 -2.0995 -0.2045
 8306SOL    HW236381   0.112   2.145  17.548 -1.9376 -0.8625  0.6482
 8307SOL     OW36382   0.772   3.539   2.940 -0.3894 -0.8733  0.5247
 8307SOL    HW136383   0.751   3.515   3.030 -1.6614 -0.4321  0.3526
 8307SOL    HW236384   0.762   3.460   2.887  0.2375 -0.0621 -0.8083
 8308SOL     OW36385   3.130   1.597   1.741  0.0713 -0.4912  0.0964
 8308SOL    HW136386   3.088   1.643   1.668 -1.0141 -0.5968  0.6467
 8308SOL    HW236387   3.066   1.530   1.766 -1.3188  0.4861 -0.8098
 8309SOL     OW36388   3.186   3.835   8.602 -0.5607 -0.2260  0.7150
 8309SOL    HW136389   3.167   3.741   8.605  1.1361 -0.6259 -1.1632
 8309SOL    HW236390   3.212   3.861   8.690  0.0386  2.9063 -0.3912
 8310SOL     OW36391   0.192   0.909   6.758  0.2951  0.3539  0.7359
 8310SOL    HW136392   0.151   0.856   6.826  1.4703 -0.1019  1.0962
 8310SOL    HW236393   0.273   0.860   6.742 -0.2950 -0.8478  1.4338
 8311SOL     OW36394   1.526   2.416   8.333  0.1862  0.3961  0.7765
 8311SOL    HW136395   1.621   2.422   8.324  0.1763  0.2883  0.5992
 8311SOL    HW236396   1.507   2.504   8.364 -3.6233  0.3733 -1.5944
 8312SOL     OW36397   4.448   3.570   6.675 -0.0185  0.1735 -0.5035
 8312SOL    HW136398   4.540   3.581   6.652  0.0430  2.5664  0.9557
 8312SOL    HW236399   4.440   3.630   6.749 -0.3810  0.5726 -0.8653
 8313SOL     OW36400   3.730   0.389   3.076  0.2489  0.0099  0.3504
 8313SOL    HW136401   3.786   0.465   3.062  0.0815 -0.0007 -0.3346
 8313SOL    HW236402   3.768   0.328   3.014  0.1014  2.0424 -1.7442
 8314SOL     OW36403   4.615   0.559  11.563 -0.2831 -0.0975 -0.1860
 8314SOL    HW136404   4.694   0.516  11.529 -1.0375 -1.2607 -0.4537
 8314SOL    HW236405   4.626   0.644  11.522  2.0517 -0.0120  0.5748
 8315SOL     OW36406   1.747   0.992   2.834  0.0295 -0.5170 -0.3195
 8315SOL    HW136407   1.763   0.961   2.745 -0.9826 -2.1242  0.0628
 8315SOL    HW236408   1.717   1.079   2.810  0.0830 -0.1047  1.1071
 8316SOL     OW36409   3.204   3.981   4.493 -0.2016 -0.0604  0.4021
 8316SOL    HW136410   3.249   3.909   4.537 -1.6737 -0.7013  0.8428
 8316SOL    HW236411   3.278   4.008   4.439 -0.2996  3.0728  1.8204
 8317SOL     OW36412   1.812   1.357   0.928 -0.1363  0.1419 -0.0045
 8317SOL    HW136413   1.842   1.438   0.887 -0.6377  0.1423 -0.3674
 8317SOL    HW236414   1.751   1.320   0.864  0.5490 -1.7562  0.4187
 8318SOL     OW36415   4.497   0.783   1.323 -0.0529  0.1716 -0.3072
 8318SOL    HW136416   4.495   0.831   1.241  1.4385  1.1640  0.2366
 8318SOL    HW236417   4.591   0.769   1.338 -0.5300 -4.0740 -1.2011
 8319SOL     OW36418   4.274   3.372  14.643  0.3193  0.0522  0.0095
 8319SOL    HW136419   4.236   3.299  14.692  1.0859  0.1882  0.8089
 8319SOL    HW236420   4.211   3.441  14.660  0.4873  0.1336  0.2943
 8320SOL     OW36421   3.658   3.402   5.407  0.0438  0.0676 -0.2734
 8320SOL    HW136422   3.566   3.388   5.429  0.4983 -1.9848  0.3668
 8320SOL    HW236423   3.681   3.466   5.475 -0.4728  2.6824 -2.5960
 8321SOL     OW36424   1.993   1.551   3.733  0.7150 -0.1575  0.2733
 8321SOL    HW136425   1.922   1.510   3.684  0.3278 -0.3593  1.0085
 8321SOL    HW236426   2.059   1.546   3.663 -0.0618 -0.6733 -0.4255
 8322SOL     OW36427   2.897   3.611   2.430 -0.4038  0.0221 -0.1035
 8322SOL    HW136428   2.843   3.642   2.502 -3.1073 -2.9809 -0.8273
 8322SOL    HW236429   2.969   3.674   2.423 -0.2417  0.2447  3.7530
 8323SOL     OW36430   2.635   3.170   0.231 -0.3771  0.1250  0.4635
 8323SOL    HW136431   2.599   3.225   0.300 -0.6407  1.2021 -0.5303
 8323SOL    HW236432   2.554   3.135   0.193 -0.1853  0.1581  0.0148
 8324SOL     OW36433   0.916   1.098   5.191 -0.1545 -0.2222  0.2737
 8324SOL    HW136434   0.960   1.176   5.156 -2.3880 -0.7161 -3.5810
 8324SOL    HW236435   0.864   1.127   5.267  0.3722  1.2647  0.0584
 8325SOL     OW36436   1.375   1.982   2.965  0.1548  0.1599  0.6090
 8325SOL    HW136437   1.294   1.951   3.006 -0.2058  1.9063  1.1887
 8325SOL    HW236438   1.397   2.046   3.032  0.6228  0.4810  0.1468
 8326SOL     OW36439   1.553   3.768   3.642  0.0795 -0.4880 -0.4981
 8326SOL    HW136440   1.575   3.860   3.628  0.5339 -0.5216 -0.0088
 8326SOL    HW236441   1.629   3.740   3.693 -1.0881  0.1694  1.5546
 8327SOL     OW36442   0.665   3.072   7.475 -0.4425  0.3661  0.0562
 8327SOL    HW136443   0.583   3.030   7.504 -1.4814  2.2453 -0.1978
 8327SOL    HW236444   0.682   3.036   7.388  1.3131  1.8862 -0.2224
 8328SOL     OW36445   0.485   0.912   9.962  0.4643 -0.4621  0.1458
 8328SOL    HW136446   0.422   0.977   9.930 -1.9663 -2.6324  0.6213
 8328SOL    HW236447   0.488   0.857   9.884  2.2245  0.3267 -0.3626
 8329SOL     OW36448   1.102   2.082   4.840 -0.0520  0.0732 -0.3970
 8329SOL    HW136449   1.073   2.171   4.858  2.8329  1.4661 -2.6863
 8329SOL    HW236450   1.195   2.091   4.863 -0.5103 -1.8364  2.2969
 8330SOL     OW36451   1.483   3.420  14.992 -0.1942  0.3733  0.3052
 8330SOL    HW136452   1.478   3.506  15.033 -0.5458  0.2084  0.6088
 8330SOL    HW236453   1.560   3.429  14.937  0.8721 -2.4983  1.3608
 8331SOL     OW36454   0.914   2.182  11.443 -0.4555  0.5055 -0.2696
 8331SOL    HW136455   0.988   2.242  11.436 -0.7395  0.7398 -1.3519
 8331SOL    HW236456   0.878   2.181  11.354  0.1844 -0.9203 -0.5042
 8332SOL     OW36457   4.083   3.364   4.530  0.2825 -0.1332  0.4101
 8332SOL    HW136458   4.170   3.385   4.563  0.3572  1.1604 -0.5975
 8332SOL    HW236459   4.029   3.421   4.585  0.1475  0.8477 -0.7205
 8333SOL     OW36460   3.970   0.069   2.419  0.3016  0.2463 -0.3231
 8333SOL    HW136461   3.988   4.698   2.402 -1.1279 -0.0779 -0.0900
 8333SOL    HW236462   4.005   0.105   2.338  0.3916  1.1868  0.1265
 8334SOL     OW36463   1.204   4.449   6.268  0.2389  0.0076 -0.2336
 8334SOL    HW136464   1.251   4.379   6.223  0.3710  0.5068 -0.8614
 8334SOL    HW236465   1.162   4.499   6.198 -2.4784 -0.5243  1.0035
 8335SOL     OW36466   3.112   0.674   4.849  0.4697 -0.2679  0.3326
 8335SOL    HW136467   3.166   0.704   4.776  0.5757 -0.7983  0.1978
 8335SOL    HW236468   3.032   0.670   4.797 -0.2049  2.1705  1.1805
 8336SOL     OW36469   1.800   3.819  12.071 -0.2306 -0.5827 -0.4115
 8336SOL    HW136470   1.743   3.751  12.107  0.0291 -0.5849 -0.0132
 8336SOL    HW236471   1.766   3.897  12.113 -0.5059 -2.2944  2.5261
 8337SOL     OW36472   0.833   3.753   4.383  0.0780  0.4705  0.7821
 8337SOL    HW136473   0.813   3.735   4.291 -0.6880 -1.1136  1.2574
 8337SOL    HW236474   0.833   3.848   4.393 -1.1949  0.4746  0.7721
 8338SOL     OW36475   1.847   2.198   7.527 -0.8775 -0.0289  0.1653
 8338SOL    HW136476   1.778   2.262   7.508  0.0634  0.5358 -1.3460
 8338SOL    HW236477   1.790   2.124   7.549 -0.6360 -0.4864 -0.7337
 8339SOL     OW36478   4.149   0.874  17.085  0.3266 -0.2599  0.7122
 8339SOL    HW136479   4.071   0.927  17.102 -0.0229  0.1024 -1.9963
 8339SOL    HW236480   4.194   0.878  17.170  0.9205  1.7846  0.2900
 8340SOL     OW36481   2.256   1.417   4.323 -0.0125  0.1329  0.7436
 8340SOL    HW136482   2.198   1.490   4.346  2.1205  2.1777 -0.3891
 8340SOL    HW236483   2.304   1.441   4.244 -0.3478  1.4180  0.9404
 8341SOL     OW36484   1.854   2.497  10.466 -0.0409 -0.0027  0.2793
 8341SOL    HW136485   1.888   2.494  10.555  2.2265  0.2270 -0.5704
 8341SOL    HW236486   1.819   2.586  10.458 -0.2924 -0.0909  0.3938
 8342SOL     OW36487   0.458   4.330  10.663 -0.3611 -0.2536  0.4333
 8342SOL    HW136488   0.475   4.401  10.725  1.2520  1.5304 -2.0645
 8342SOL    HW236489   0.521   4.362  10.597 -1.0428  2.1031  0.9155
 8343SOL     OW36490   4.675   3.104   4.278 -0.0845 -0.7412 -0.3682
 8343SOL    HW136491   4.642   3.194   4.273  1.5532 -0.1592 -0.5432
 8343SOL    HW236492   0.048   3.121   4.278 -0.4807  1.5246 -1.9646
 8344SOL     OW36493   0.381   4.013   3.733  0.4245  0.2672 -0.5914
 8344SOL    HW136494   0.423   4.065   3.664 -3.1901  1.0963 -2.2310
 8344SOL    HW236495   0.406   4.054   3.816 -1.3708 -0.0416  0.0999
 8345SOL     OW36496   0.271   3.315   2.905 -0.3378 -0.7133  0.2354
 8345SOL    HW136497   0.291   3.286   2.816  1.1576  0.6395  0.1331
 8345SOL    HW236498   0.351   3.357   2.935 -0.3885 -0.7040  0.3578
 8346SOL     OW36499   2.477   2.124   4.802  0.1383  0.5104  0.2797
 8346SOL    HW136500   2.449   2.146   4.713 -2.7436 -0.1807  1.0176
 8346SOL    HW236501   2.424   2.048   4.822 -0.9039  1.3346  0.6513
 8347SOL     OW36502   0.285   0.259   5.419 -0.9302  0.5859 -0.2633
 8347SOL    HW136503   0.276   0.240   5.513  1.2357  0.2284 -0.1333
 8347SOL    HW236504   0.367   0.307   5.430 -1.3667  1.1142  0.7322
 8348SOL     OW36505   3.274   4.089   0.726 -0.6722 -0.1268  0.1920
 8348SOL    HW136506   3.230   4.169   0.697  0.7965  0.1941 -1.1285
 8348SOL    HW236507   3.234   4.030   0.662  0.9742 -2.4901  1.3446
 8349SOL     OW36508   2.282   1.496   3.906  0.3156 -0.7882  0.0520
 8349SOL    HW136509   2.225   1.451   3.968 -0.2073  0.1790  0.2818
 8349SOL    HW236510   2.239   1.581   3.893  1.1574 -0.0397  2.1451
 8350SOL     OW36511   0.972   1.183   8.278 -0.2291 -0.6541 -0.3207
 8350SOL    HW136512   0.990   1.157   8.188  0.6030  0.2182 -0.4029
 8350SOL    HW236513   0.887   1.223   8.259  1.5816  2.6599 -1.4992
 8351SOL     OW36514   0.699   3.181   5.412 -0.6650 -0.0930  0.0312
 8351SOL    HW136515   0.604   3.182   5.399 -0.7255 -0.0995  0.4772
 8351SOL    HW236516   0.718   3.275   5.410  0.3358 -0.2482  2.0551
 8352SOL     OW36517   4.483   2.645   2.483 -0.4052 -0.0962 -0.7438
 8352SOL    HW136518   4.505   2.564   2.438  0.5469  0.5034 -1.3747
 8352SOL    HW236519   4.536   2.635   2.562 -0.5552  3.5748 -0.1588
 8353SOL     OW36520   3.726   3.109   9.838  0.0076  0.5771  0.2539
 8353SOL    HW136521   3.739   3.079   9.928  2.2060  0.6571 -0.0379
 8353SOL    HW236522   3.635   3.131   9.823 -0.0667 -0.1365 -0.3755
 8354SOL     OW36523   0.099   2.156  16.945  0.0633 -0.4535  0.1465
 8354SOL    HW136524   0.042   2.079  16.946 -0.3268 -0.2106 -2.1554
 8354SOL    HW236525   0.105   2.174  17.039  1.5651  0.3981 -0.1174
 8355SOL     OW36526   0.987   2.307   3.569 -0.4717  0.0557  0.0805
 8355SOL    HW136527   0.996   2.402   3.575 -1.6693  0.0563  1.9357
 8355SOL    HW236528   1.072   2.276   3.599 -0.6731 -1.3814 -0.8164
 8356SOL     OW36529   4.651   4.363   2.383  0.6557  0.1122  0.0658
 8356SOL    HW136530   4.681   4.451   2.362 -1.6046  1.3184  1.7916
 8356SOL    HW236531   4.719   4.306   2.348  0.2516 -0.1539 -0.2953
 8357SOL     OW36532   0.430   2.733  11.650  0.3390 -0.0838 -0.0475
 8357SOL    HW136533   0.386   2.818  11.655  1.3320  0.4515 -0.4993
 8357SOL    HW236534   0.381   2.690  11.720  0.9912  1.9083  1.6290
 8358SOL     OW36535   1.238   0.443   4.369 -0.1299  0.6122  0.1694
 8358SOL    HW136536   1.273   0.479   4.451  2.6475 -0.9196 -0.3480
 8358SOL    HW236537   1.177   0.376   4.401 -0.2236 -0.0503 -1.4458
 8359SOL     OW36538   0.495   3.921   9.949 -0.0108 -0.1010  0.3242
 8359SOL    HW136539   0.423   3.888   9.896  1.4837 -0.9890 -1.1793
 8359SOL    HW236540   0.491   3.875  10.033  0.5564  0.7413  0.8137
 8360SOL     OW36541   4.473   3.008   8.792  0.3638 -0.8037  0.0066
 8360SOL    HW136542   4.406   2.946   8.821 -0.6628  1.4852  2.4854
 8360SOL    HW236543   4.502   2.954   8.718  1.4661  0.8662 -0.7712
 8361SOL     OW36544   4.034   3.475   5.089  0.2089 -0.4456  0.7932
 8361SOL    HW136545   4.040   3.509   5.178 -0.9603  1.6869  0.0693
 8361SOL    HW236546   4.054   3.557   5.043 -1.3114  0.4866  1.7797
 8362SOL     OW36547   0.122   1.481  14.281 -0.0474  0.1501  0.0082
 8362SOL    HW136548   0.031   1.461  14.258 -0.4411  1.2254  0.6631
 8362SOL    HW236549   0.161   1.394  14.269 -0.0711 -0.1130  1.8975
 8363SOL     OW36550   2.442   3.104  10.805  0.3641  0.6056 -0.2112
 8363SOL    HW136551   2.435   3.073  10.895  0.1273 -0.3282 -0.5543
 8363SOL    HW236552   2.467   3.197  10.811 -0.7155  0.8283  0.7147
 8364SOL     OW36553   1.727   3.304  12.009  0.2259 -0.1814 -0.5085
 8364SOL    HW136554   1.727   3.212  11.981  0.9579 -0.7707  1.4056
 8364SOL    HW236555   1.789   3.298  12.082  0.4088  1.9583 -0.4963
 8365SOL     OW36556   4.015   1.895   5.362  0.3455  0.5422  0.1893
 8365SOL    HW136557   4.031   1.835   5.289  1.6393  1.1481 -0.0191
 8365SOL    HW236558   3.923   1.868   5.371  0.4754 -0.8016 -2.4530
 8366SOL     OW36559   3.358   4.272  17.661  0.1453 -0.2152 -0.4779
 8366SOL    HW136560   3.367   4.255  17.568 -1.0871 -0.5965 -0.5221
 8366SOL    HW236561   3.440   4.226  17.682  0.0244 -0.3747 -0.3625
 8367SOL     OW36562   3.652   4.092  14.950  0.0665  0.2929  0.5611
 8367SOL    HW136563   3.700   4.034  15.009 -1.3367  1.4368  2.8440
 8367SOL    HW236564   3.636   4.026  14.883  3.3144  1.2825 -1.1886
 8368SOL     OW36565   4.206   4.675   5.528 -0.8373  0.0149  0.1603
 8368SOL    HW136566   4.205   0.044   5.561 -0.1827  1.0058 -2.4989
 8368SOL    HW236567   4.300   4.658   5.520 -0.7009  0.7426  0.2084
 8369SOL     OW36568   0.649   0.744   5.610  0.2179  0.2975 -0.0395
 8369SOL    HW136569   0.744   0.750   5.626  0.5610  0.2508 -2.1112
 8369SOL    HW236570   0.637   0.664   5.662  1.4834 -0.6034 -1.1356
 8370SOL     OW36571   2.070   4.533   0.030 -0.2982 -0.0921  0.0967
 8370SOL    HW136572   2.022   4.486   0.098  0.6912  0.1189  0.9356
 8370SOL    HW236573   2.125   4.463  17.680 -0.9303 -0.6819  0.2714
 8371SOL     OW36574   3.944   1.561  14.143 -0.2588  0.3244  0.0853
 8371SOL    HW136575   3.940   1.626  14.074  1.3062 -0.2290 -0.5214
 8371SOL    HW236576   3.954   1.620  14.218 -0.8071  0.2045  0.2552
 8372SOL     OW36577   4.216   1.659  15.721 -0.4454  0.1202  0.7311
 8372SOL    HW136578   4.311   1.644  15.730 -0.2578 -0.0580 -1.5741
 8372SOL    HW236579   4.210   1.657  15.626  0.4251 -0.9148  0.6848
 8373SOL     OW36580   0.509   3.800   6.336  0.3167 -0.1148 -0.0031
 8373SOL    HW136581   0.550   3.809   6.250  1.1544  1.6319  0.5807
 8373SOL    HW236582   0.562   3.858   6.391 -0.2505  0.0473  0.3671
 8374SOL     OW36583   3.179   2.382  11.071  0.2340  0.0102  0.0992
 8374SOL    HW136584   3.255   2.334  11.102 -1.3763 -2.2249  0.5895
 8374SOL    HW236585   3.146   2.328  11.000  1.6884 -1.8462  0.8446
 8375SOL     OW36586   4.165   0.987   2.563 -0.0809 -0.0671 -0.5451
 8375SOL    HW136587   4.205   0.984   2.476  1.0095 -2.9475  0.0548
 8375SOL    HW236588   4.084   1.034   2.542 -0.6191 -1.1355 -0.8458
 8376SOL     OW36589   3.464   3.474   4.328  0.2579 -0.2645 -0.5442
 8376SOL    HW136590   3.436   3.426   4.405  0.2267 -1.7550 -1.4893
 8376SOL    HW236591   3.491   3.557   4.367  2.1493 -1.3045  0.3482
 8377SOL     OW36592   0.809   1.680   0.445  0.0997  0.0454  0.0873
 8377SOL    HW136593   0.777   1.590   0.456 -0.1759  0.2007  0.5262
 8377SOL    HW236594   0.733   1.724   0.407  0.2772  0.0222 -0.3034
 8378SOL     OW36595   0.785   2.406   8.661  0.5327 -0.5703 -0.3080
 8378SOL    HW136596   0.777   2.497   8.689 -0.5096 -0.5058 -0.8277
 8378SOL    HW236597   0.871   2.381   8.695  0.7960 -0.4380 -0.8712
 8379SOL     OW36598   3.496   1.165   2.079  0.6140 -0.5799 -0.4518
 8379SOL    HW136599   3.416   1.198   2.039  0.0147 -0.7165  0.6488
 8379SOL    HW236600   3.460   1.146   2.166  1.2607  0.8465  0.1291
 8380SOL     OW36601   1.204   1.067   0.053 -0.1330  0.4695 -0.3354
 8380SOL    HW136602   1.189   1.035  17.650 -1.0907 -0.3682  0.1236
 8380SOL    HW236603   1.213   1.162   0.042  1.1106  0.3267 -0.4657
 8381SOL     OW36604   1.870   1.649   1.285 -0.1935  0.5943 -0.2576
 8381SOL    HW136605   1.939   1.629   1.348 -1.7031  1.9588  1.8231
 8381SOL    HW236606   1.869   1.565   1.239  0.7663  0.7863 -0.6237
 8382SOL     OW36607   1.516   2.151   1.958  0.0229  0.3387  0.0156
 8382SOL    HW136608   1.506   2.110   1.872 -1.8162  0.6155  0.0950
 8382SOL    HW236609   1.598   2.113   1.990 -0.4424 -1.2715 -0.6780
 8383SOL     OW36610   3.516   0.047   4.367  0.3739  0.3982  0.4203
 8383SOL    HW136611   3.488   0.133   4.336 -1.1928 -0.4672 -0.5558
 8383SOL    HW236612   3.431   0.004   4.374  0.5517  0.0591  0.5047
 8384SOL     OW36613   2.706   1.397  11.954  0.2769 -0.2199  0.1440
 8384SOL    HW136614   2.786   1.346  11.945  1.5328  2.3269 -2.9008
 8384SOL    HW236615   2.748   1.479  11.980  0.1331  0.0570 -0.5095
 8385SOL     OW36616   1.108   3.411   2.825  0.0542  0.8143 -0.3761
 8385SOL    HW136617   1.064   3.496   2.819 -0.9620  0.3091  0.0636
 8385SOL    HW236618   1.192   3.432   2.784  1.1717 -0.9597  0.9908
 8386SOL     OW36619   4.620   3.126   8.057  0.7164  1.0855 -0.1218
 8386SOL    HW136620   4.591   3.185   8.126 -0.5165  1.3092 -0.8393
 8386SOL    HW236621   4.537   3.096   8.020 -0.2576  0.4533  2.5693
 8387SOL     OW36622   0.277   1.798   5.967  0.0975 -0.1503 -0.5133
 8387SOL    HW136623   0.340   1.726   5.979 -0.3288 -0.3734  0.3498
 8387SOL    HW236624   0.337   1.870   5.985 -1.7770  1.3041 -0.0881
 8388SOL     OW36625   1.792   3.659  15.175  0.2622 -0.3527  0.2732
 8388SOL    HW136626   1.850   3.682  15.247 -0.7466  0.4049  0.8504
 8388SOL    HW236627   1.707   3.650  15.218 -0.7998  0.6866 -1.5776
 8389SOL     OW36628   3.955   0.473   5.179 -0.3011  0.2592  0.0325
 8389SOL    HW136629   3.871   0.458   5.221 -0.9193  1.8414 -0.6100
 8389SOL    HW236630   3.975   0.387   5.142  0.1245  1.3358 -2.2760
 8390SOL     OW36631   1.079   3.942  10.930 -0.1469  0.2134  0.1162
 8390SOL    HW136632   1.087   3.927  10.836 -1.9038 -2.1285  0.3522
 8390SOL    HW236633   1.021   4.018  10.930  1.3822  1.3824 -0.0627
 8391SOL     OW36634   4.399   0.072   4.051  0.3107  0.1528 -0.4705
 8391SOL    HW136635   4.307   0.100   4.049  0.5891  1.2262  1.0473
 8391SOL    HW236636   4.448   0.138   4.002 -1.6910  1.9116 -0.1521
 8392SOL     OW36637   0.236   4.558  16.330 -0.2865 -0.3136 -0.7298
 8392SOL    HW136638   0.277   4.638  16.366 -0.1120  0.3537 -2.4077
 8392SOL    HW236639   0.143   4.575  16.320 -0.6076 -1.7463 -0.0598
 8393SOL     OW36640   1.025   0.567  16.279  0.0844  0.1341 -0.9971
 8393SOL    HW136641   1.082   0.622  16.333 -1.2742  0.0000  0.5807
 8393SOL    HW236642   0.977   0.516  16.344  0.8922  0.1428 -0.3920
 8394SOL     OW36643   3.302   2.062   5.031 -0.2575  0.0663  0.7385
 8394SOL    HW136644   3.294   2.128   5.100  0.3070  1.0253 -0.1039
 8394SOL    HW236645   3.265   1.990   5.081  0.9938 -1.3716 -0.4073
 8395SOL     OW36646   0.611   4.487   9.873  0.0117  0.7494  0.6529
 8395SOL    HW136647   0.706   4.490   9.888  0.0789  0.2064  0.3162
 8395SOL    HW236648   0.607   4.549   9.800  0.5627  2.9173  2.4522
 8396SOL     OW36649   0.185   2.575  14.824  0.4042  0.0077  0.2251
 8396SOL    HW136650   0.257   2.635  14.844  1.1852 -1.2733  1.3425
 8396SOL    HW236651   0.125   2.588  14.897  0.3719 -0.8589  0.3523
 8397SOL     OW36652   2.252   3.726   4.651  0.1165  0.2498 -0.1642
 8397SOL    HW136653   2.297   3.672   4.716  0.9875  0.6589 -0.4249
 8397SOL    HW236654   2.223   3.647   4.607 -0.7381  0.6884 -0.3937
 8398SOL     OW36655   1.026   0.576   4.183  0.3729  0.5892  0.1274
 8398SOL    HW136656   1.077   0.544   4.109  1.6716  1.5991  0.5735
 8398SOL    HW236657   1.050   0.521   4.258  1.4857  0.0208 -0.6416
 8399SOL     OW36658   4.441   0.632   7.111  0.3816 -0.2199  0.5369
 8399SOL    HW136659   4.473   0.690   7.180 -2.4174  2.7669 -0.6626
 8399SOL    HW236660   4.408   0.698   7.050  3.2460  1.1950  0.5617
 8400SOL     OW36661   3.692   1.679   5.078  0.2715 -0.3351  0.4482
 8400SOL    HW136662   3.648   1.685   4.994  1.6475  2.9856 -0.0182
 8400SOL    HW236663   3.648   1.746   5.130  1.3223 -0.1807  1.1420
 8401SOL     OW36664   4.517   1.776  10.787  0.0789  0.1906  0.1666
 8401SOL    HW136665   4.521   1.857  10.837 -0.9475  0.6293 -0.4636
 8401SOL    HW236666   4.441   1.795  10.732 -0.1348  0.7732  0.6714
 8402SOL     OW36667   2.250   2.344   6.689 -0.1121 -0.7251  0.1719
 8402SOL    HW136668   2.310   2.282   6.731  0.9780  0.2593  0.0838
 8402SOL    HW236669   2.258   2.318   6.597 -1.0124  1.4131 -0.5279
 8403SOL     OW36670   0.468   3.446  16.134 -1.1443 -0.5837  0.2400
 8403SOL    HW136671   0.489   3.353  16.143  1.1007 -0.1688 -0.8889
 8403SOL    HW236672   0.454   3.442  16.039  0.9089 -1.6950 -0.0043
 8404SOL     OW36673   4.468   4.710   7.227 -0.1878  0.4306 -0.2699
 8404SOL    HW136674   4.439   4.633   7.276 -0.5837  1.5826  1.2829
 8404SOL    HW236675   4.549   4.671   7.194  0.1234 -1.1167  2.3264
 8405SOL     OW36676   0.022   0.789   8.617  0.1801  0.4443 -0.5008
 8405SOL    HW136677   0.046   0.834   8.536  0.3585  0.1969 -0.5870
 8405SOL    HW236678   0.041   0.853   8.686 -2.9962 -0.1741  0.9334
 8406SOL     OW36679   2.611   2.676  11.724 -0.7232 -0.2411  0.0115
 8406SOL    HW136680   2.520   2.698  11.702 -0.3551  1.2606 -0.0288
 8406SOL    HW236681   2.629   2.685  11.817 -0.7849  0.7333 -0.0688
 8407SOL     OW36682   4.556   4.710   6.574 -0.0301 -0.2827  0.6611
 8407SOL    HW136683   4.622   0.042   6.530 -2.6843  1.5429 -1.1124
 8407SOL    HW236684   4.508   0.056   6.623 -0.6263 -1.2116  1.3639
 8408SOL     OW36685   1.700   0.711   5.983  0.0783  0.7876 -0.7359
 8408SOL    HW136686   1.786   0.696   6.022 -0.8006  2.2931  1.8070
 8408SOL    HW236687   1.701   0.807   5.980  2.6300  0.7955  0.1246
 8409SOL     OW36688   1.901   3.803   3.784  0.1274 -0.0402 -0.1155
 8409SOL    HW136689   1.954   3.821   3.706  0.8805  0.7190  0.5850
 8409SOL    HW236690   1.961   3.828   3.854  0.0404 -0.0313 -0.0442
 8410SOL     OW36691   2.127   2.569   6.957  0.1401 -0.3017  0.0544
 8410SOL    HW136692   2.090   2.638   7.012 -1.3468 -1.0707  0.0361
 8410SOL    HW236693   2.067   2.562   6.883 -1.0410  1.0608  0.8753
 8411SOL     OW36694   3.379   1.544   5.430  0.0913 -0.2209  0.7786
 8411SOL    HW136695   3.453   1.485   5.420 -0.0375 -0.1909 -0.3086
 8411SOL    HW236696   3.426   1.627   5.438  3.1625 -1.9516  0.5823
 8412SOL     OW36697   4.339   3.323  15.169 -0.0524  0.5147 -0.0446
 8412SOL    HW136698   4.392   3.274  15.232 -1.8022 -1.6208 -0.2368
 8412SOL    HW236699   4.376   3.411  15.178 -1.5238  1.2244 -0.9321
 8413SOL     OW36700   2.931   0.652   7.538 -0.4176 -0.1287 -0.7604
 8413SOL    HW136701   2.984   0.698   7.604 -0.1670  1.2255 -1.8938
 8413SOL    HW236702   2.843   0.688   7.550 -0.3143 -0.0921 -0.1150
 8414SOL     OW36703   4.585   3.019   4.918 -0.4727  0.1202  0.3341
 8414SOL    HW136704   4.626   3.070   4.988  0.1892  1.1662 -0.8176
 8414SOL    HW236705   4.643   2.943   4.916 -0.8386 -0.1446 -0.3341
 8415SOL     OW36706   4.009   2.659  13.727  0.3155 -0.4516  0.8595
 8415SOL    HW136707   4.009   2.565  13.747 -1.4704 -0.2795  1.6668
 8415SOL    HW236708   3.921   2.687  13.749  0.2227 -0.2307  0.2080
 8416SOL     OW36709   2.193   1.192   0.207  0.4238 -0.3990 -0.7595
 8416SOL    HW136710   2.246   1.248   0.264 -0.6509 -0.5621  0.4024
 8416SOL    HW236711   2.197   1.105   0.247 -0.2410 -0.4830 -0.8840
 8417SOL     OW36712   3.084   2.654  16.421 -0.2522 -0.2126  0.2814
 8417SOL    HW136713   3.130   2.627  16.501 -0.1355  0.5398  0.4658
 8417SOL    HW236714   3.010   2.593  16.424 -1.7824  1.5140 -1.9863
 8418SOL     OW36715   1.963   3.061  17.512 -0.4215 -0.0261 -0.3925
 8418SOL    HW136716   2.018   2.982  17.514  1.2121  1.1411  0.5425
 8418SOL    HW236717   2.030   3.119  17.548 -0.8098  1.0418 -1.3933
 8419SOL     OW36718   2.352   1.333   0.347  0.7631 -0.4072 -0.2944
 8419SOL    HW136719   2.403   1.378   0.280 -0.1080  2.5181  1.0100
 8419SOL    HW236720   2.321   1.411   0.393 -2.1216 -2.2964  0.9978
 8420SOL     OW36721   1.124   4.556   0.472 -0.2185  0.4303 -0.8492
 8420SOL    HW136722   1.114   4.626   0.536  0.1311 -0.1833 -0.1115
 8420SOL    HW236723   1.219   4.541   0.473 -0.0516  1.5172 -0.4480
 8421SOL     OW36724   0.834   0.398   5.463  0.0806 -0.1569  0.6032
 8421SOL    HW136725   0.823   0.423   5.371  0.9091  0.5620  0.6996
 8421SOL    HW236726   0.753   0.434   5.499  0.7771  0.7104  1.3208
 8422SOL     OW36727   4.692   1.564   3.036 -0.1539  0.1519  0.5510
 8422SOL    HW136728   4.690   1.617   2.956 -3.3880  0.5712  0.9009
 8422SOL    HW236729   4.657   1.479   3.009 -0.7789  0.8097 -0.7367
 8423SOL     OW36730   1.866   3.140   6.626 -0.7668  0.0976 -0.9447
 8423SOL    HW136731   1.935   3.079   6.599  1.3307  2.0003  0.0393
 8423SOL    HW236732   1.904   3.225   6.602  1.6880 -1.0812 -1.2160
 8424SOL     OW36733   1.017   3.004   5.824 -0.0408 -0.6924  0.5621
 8424SOL    HW136734   0.967   3.058   5.885 -3.1492  0.0677 -2.6549
 8424SOL    HW236735   0.982   3.027   5.738 -1.1273 -0.8385  0.9711
 8425SOL     OW36736   0.855   1.791  11.833 -0.5933  0.3054  0.2305
 8425SOL    HW136737   0.798   1.868  11.830 -2.6745 -1.3659 -2.4588
 8425SOL    HW236738   0.812   1.732  11.895  1.1664 -1.4598 -0.2440
 8426SOL     OW36739   1.112   2.629  13.408 -0.5416  0.5090 -0.6681
 8426SOL    HW136740   1.042   2.564  13.405 -0.2156  0.1567 -0.5933
 8426SOL    HW236741   1.157   2.622  13.324 -0.3024  2.4139 -0.7085
 8427SOL     OW36742   3.004   3.557   0.773 -0.2522 -0.4958  0.1722
 8427SOL    HW136743   2.913   3.587   0.773 -0.0144  0.1986 -2.2730
 8427SOL    HW236744   3.037   3.600   0.694 -0.8599 -0.5325 -0.0970
 8428SOL     OW36745   3.419   3.546   6.909 -0.5086  0.1081 -0.3178
 8428SOL    HW136746   3.457   3.459   6.895  3.0045  1.4190  1.0631
 8428SOL    HW236747   3.356   3.542   6.837 -3.0195  3.0654  1.7105
 8429SOL     OW36748   1.672   2.736   5.938  0.4933 -0.3555  0.5236
 8429SOL    HW136749   1.673   2.647   5.975  2.1009  1.4062  4.7646
 8429SOL    HW236750   1.676   2.794   6.015 -1.8859  0.9633 -0.3501
 8430SOL     OW36751   2.756   3.808  17.586  0.4013 -0.1774 -0.1286
 8430SOL    HW136752   2.778   3.747  17.516  0.7726  0.8678 -0.9189
 8430SOL    HW236753   2.837   3.856  17.602  0.8551 -1.0586  0.1925
 8431SOL     OW36754   0.906   3.043  17.406 -0.3468  0.6479 -0.2307
 8431SOL    HW136755   0.932   3.065  17.317 -1.6451 -1.8381 -1.2275
 8431SOL    HW236756   0.847   2.969  17.392 -1.7190  1.3898  1.4879
 8432SOL     OW36757   4.017   1.771   8.680  0.1632  0.4151 -0.5943
 8432SOL    HW136758   4.109   1.752   8.700 -0.7810 -1.2090  2.2644
 8432SOL    HW236759   4.018   1.851   8.629  2.8019  1.7305  1.5023
 8433SOL     OW36760   1.671   1.491   2.497 -0.3920  0.2090  0.0460
 8433SOL    HW136761   1.617   1.502   2.419  0.2718  1.1891 -0.2738
 8433SOL    HW236762   1.606   1.519   2.561 -0.2628 -0.1244  0.3268
 8434SOL     OW36763   1.387   0.423   3.903  0.4816  0.0956  0.0193
 8434SOL    HW136764   1.320   0.388   3.961  1.3802  1.2275  1.7520
 8434SOL    HW236765   1.449   0.351   3.916  0.0551 -0.0030  1.4492
 8435SOL     OW36766   1.716   0.777   3.485  0.4184 -0.4807 -0.7098
 8435SOL    HW136767   1.775   0.812   3.417  1.1872  1.7608  1.0931
 8435SOL    HW236768   1.761   0.807   3.564  0.9034  0.9825 -1.5390
 8436SOL     OW36769   1.738   2.078   3.949  0.0601 -0.0478  0.9470
 8436SOL    HW136770   1.821   2.063   3.903 -0.8259 -1.9844  0.0182
 8436SOL    HW236771   1.689   2.007   3.909  0.4913 -0.4922  1.2006
 8437SOL     OW36772   3.989   0.141  17.138 -0.1912  0.2230 -0.6322
 8437SOL    HW136773   4.037   0.201  17.196  0.3307  0.3995 -1.2544
 8437SOL    HW236774   3.920   0.198  17.102 -0.5727  0.0690 -0.1510
 8438SOL     OW36775   2.426   4.443   9.384 -0.0010 -0.4597  0.0768
 8438SOL    HW136776   2.397   4.412   9.470  0.1428  0.3943  0.4352
 8438SOL    HW236777   2.365   4.392   9.331 -1.0884  1.1736 -0.2646
 8439SOL     OW36778   0.084   0.189  11.265  0.2274 -0.2448  0.3115
 8439SOL    HW136779   4.721   0.202  11.308  0.3613 -0.4229  0.6323
 8439SOL    HW236780   0.087   0.093  11.261 -1.2235 -0.3222  1.2062
 8440SOL     OW36781   0.788   2.806   4.935  0.5032  0.4865 -0.3504
 8440SOL    HW136782   0.859   2.862   4.966  1.4320 -0.7845 -0.1555
 8440SOL    HW236783   0.752   2.870   4.874 -0.4979 -0.5114 -0.7954
 8441SOL     OW36784   3.160   4.205   3.156  0.1568  0.2306  0.3635
 8441SOL    HW136785   3.069   4.190   3.129  1.1982 -0.8249 -2.6218
 8441SOL    HW236786   3.205   4.190   3.072 -0.4541 -0.3239  0.1375
 8442SOL     OW36787   3.182   2.058   5.873 -0.0650  0.8716  0.1771
 8442SOL    HW136788   3.200   2.087   5.963  0.2904 -0.5202  0.5492
 8442SOL    HW236789   3.088   2.079   5.867 -0.4708 -1.2344 -0.6450
 8443SOL     OW36790   0.510   4.177   7.940  0.2434  0.0616  0.0210
 8443SOL    HW136791   0.531   4.204   7.850 -0.8149 -2.8394 -1.0956
 8443SOL    HW236792   0.489   4.262   7.979  0.1659  0.3756 -0.6966
 8444SOL     OW36793   0.745   0.468   2.797 -0.7158 -0.3071  0.1713
 8444SOL    HW136794   0.723   0.561   2.788 -0.5675 -0.3476 -0.6518
 8444SOL    HW236795   0.665   0.421   2.816 -0.5417 -0.7160 -0.0992
 8445SOL     OW36796   2.065   4.418  14.602 -0.5938  0.1529  0.6860
 8445SOL    HW136797   2.137   4.475  14.630  0.1834 -1.0233  1.1101
 8445SOL    HW236798   2.062   4.341  14.658  1.1760  0.7966  1.6603
 8446SOL     OW36799   3.077   1.133   0.297 -0.0465 -0.1007 -0.2318
 8446SOL    HW136800   3.084   1.219   0.338  0.7594 -0.4826  0.4187
 8446SOL    HW236801   3.164   1.094   0.296 -0.5362 -1.2013  1.0079
 8447SOL     OW36802   2.310   1.408   6.829 -0.4283  0.1097  0.2802
 8447SOL    HW136803   2.400   1.390   6.801 -1.2847 -1.9278 -1.1572
 8447SOL    HW236804   2.305   1.360   6.912  0.9572 -1.2261 -0.4098
 8448SOL     OW36805   1.664   3.846  12.979  0.5318  0.3216 -0.0120
 8448SOL    HW136806   1.663   3.779  12.911 -0.6743 -0.9027  1.2184
 8448SOL    HW236807   1.694   3.926  12.935 -0.5846  0.5896 -0.2763
 8449SOL     OW36808   3.105   4.450  13.926 -0.3328 -0.0842 -0.0000
 8449SOL    HW136809   3.138   4.540  13.925 -0.8373  0.1236  2.5742
 8449SOL    HW236810   3.165   4.411  13.862 -0.3719  1.9323 -1.2756
 8450SOL     OW36811   2.673   3.210   8.232 -0.0914 -0.6197  0.7747
 8450SOL    HW136812   2.747   3.219   8.172 -0.5706 -1.4230  0.0676
 8450SOL    HW236813   2.691   3.273   8.302 -0.1603  0.3261 -0.0517
 8451SOL     OW36814   0.878   2.625   5.737 -0.4350  0.2451 -0.1200
 8451SOL    HW136815   0.944   2.688   5.764 -1.8432  1.9200 -0.5760
 8451SOL    HW236816   0.885   2.560   5.806 -2.9818 -0.5680 -0.6306
 8452SOL     OW36817   0.487   0.941   3.431  0.4067 -0.6404 -0.1093
 8452SOL    HW136818   0.528   0.863   3.469  1.4177  0.0815  0.2761
 8452SOL    HW236819   0.525   1.008   3.488 -0.5882 -1.5292  1.5835
 8453SOL     OW36820   0.184   1.594   4.678 -1.0184 -0.6311  0.3209
 8453SOL    HW136821   0.272   1.632   4.673 -1.1789 -0.2854  0.1051
 8453SOL    HW236822   0.155   1.606   4.588  0.5781 -0.2084 -0.1361
 8454SOL     OW36823   4.356   0.667  11.949  0.0304 -0.2292 -0.0199
 8454SOL    HW136824   4.267   0.639  11.968 -0.6639  1.0259 -1.3920
 8454SOL    HW236825   4.351   0.762  11.939  1.8017 -0.0658  0.6056
 8455SOL     OW36826   3.005   1.320  14.993 -0.8110 -0.0855 -0.4801
 8455SOL    HW136827   3.057   1.241  15.006 -0.9840  0.2745  2.4405
 8455SOL    HW236828   3.056   1.385  14.945 -1.1712  0.6186  0.0796
 8456SOL     OW36829   1.063   2.626   9.800 -0.6497  0.0372 -0.4094
 8456SOL    HW136830   1.027   2.634   9.712 -1.3156  2.7444  0.1160
 8456SOL    HW236831   1.015   2.550   9.834 -2.0111  0.1123 -2.2243
 8457SOL     OW36832   2.482   3.908  13.258 -0.5751 -0.0987 -0.9512
 8457SOL    HW136833   2.460   3.954  13.339 -3.3565  3.5905 -3.8201
 8457SOL    HW236834   2.577   3.904  13.244 -0.2951 -0.4822  0.9984
 8458SOL     OW36835   4.238   1.134   4.017  0.2386 -0.2238  0.3995
 8458SOL    HW136836   4.315   1.093   4.056  1.2116  0.1682 -1.0913
 8458SOL    HW236837   4.192   1.069   3.963  0.6013 -0.4666  0.3843
 8459SOL     OW36838   2.924   4.227   5.170 -0.3135  0.2164 -0.1377
 8459SOL    HW136839   2.968   4.229   5.085  0.1888  2.6664  0.1824
 8459SOL    HW236840   2.941   4.137   5.196  2.0596  0.4133 -0.9482
 8460SOL     OW36841   2.390   1.360   2.777  0.0759  0.1862  1.1340
 8460SOL    HW136842   2.421   1.435   2.828  0.4980  0.8750 -0.1539
 8460SOL    HW236843   2.355   1.406   2.701  2.8487 -0.9366 -0.8074
 8461SOL     OW36844   0.824   4.113   7.069 -1.0238 -0.3600 -0.2086
 8461SOL    HW136845   0.851   4.164   7.145 -0.2089 -1.9590  0.5881
 8461SOL    HW236846   0.844   4.175   6.999  1.0897  1.5181  2.0687
 8462SOL     OW36847   3.768   4.361   8.706  0.3917  0.8285 -0.6706
 8462SOL    HW136848   3.762   4.430   8.772 -1.3815 -1.5200  1.6384
 8462SOL    HW236849   3.688   4.315   8.731  2.0864 -2.2339 -0.8789
 8463SOL     OW36850   1.075   2.912   6.556  0.4992 -0.5094 -0.3234
 8463SOL    HW136851   1.071   2.820   6.527 -1.5162 -1.2104  2.1751
 8463SOL    HW236852   1.072   2.959   6.473 -1.5266  0.9322  0.5579
 8464SOL     OW36853   4.604   2.233  10.236  0.2976 -0.2130  0.0477
 8464SOL    HW136854   4.560   2.165  10.185 -0.8857  1.6185 -1.3493
 8464SOL    HW236855   4.601   2.198  10.325  0.0138  3.2495  1.4054
 8465SOL     OW36856   2.838   2.492  11.479  0.1363 -0.1994 -0.0012
 8465SOL    HW136857   2.878   2.406  11.460  1.0427  0.8323 -2.8141
 8465SOL    HW236858   2.890   2.546  11.420  1.5573 -2.8147 -1.1843
 8466SOL     OW36859   3.037   0.063   3.592  0.0356 -0.0102  0.1102
 8466SOL    HW136860   3.050   0.150   3.556  0.8154  0.2252  0.9506
 8466SOL    HW236861   3.045   0.004   3.516  0.2761 -0.6430  0.6211
 8467SOL     OW36862   4.352   1.093   2.741 -0.2449  0.3107 -0.2675
 8467SOL    HW136863   4.329   1.164   2.800  2.0691 -0.2882  1.3489
 8467SOL    HW236864   4.272   1.048   2.714 -0.4644 -0.6900  2.0742
 8468SOL     OW36865   1.269   1.252   7.229 -0.1310  0.0344  0.2618
 8468SOL    HW136866   1.327   1.311   7.181 -0.6227  0.9353  0.7734
 8468SOL    HW236867   1.246   1.320   7.292 -0.1280  0.2524  0.0282
 8469SOL     OW36868   4.368   1.850   4.909 -0.6733  0.2468  0.2150
 8469SOL    HW136869   4.446   1.891   4.870 -0.0589 -2.4950 -1.4218
 8469SOL    HW236870   4.346   1.902   4.987 -0.5393  0.0243  0.4002
 8470SOL     OW36871   2.123   2.790   6.314  0.7288 -0.0707  0.2467
 8470SOL    HW136872   2.174   2.710   6.330  2.2238  0.7133 -0.7037
 8470SOL    HW236873   2.107   2.815   6.405 -0.1377 -0.4243  0.1928
 8471SOL     OW36874   1.718   2.225   1.717 -0.9943 -0.1902 -0.2818
 8471SOL    HW136875   1.725   2.311   1.677 -1.0898 -1.5892 -3.2943
 8471SOL    HW236876   1.759   2.241   1.803 -2.0359  3.4408 -0.4818
 8472SOL     OW36877   1.527   3.873  10.012  0.2596  0.0867 -0.0014
 8472SOL    HW136878   1.621   3.878   9.997  0.2750  0.2105  0.1345
 8472SOL    HW236879   1.512   3.783  10.041  2.5164 -1.2057 -2.8031
 8473SOL     OW36880   4.376   4.522   2.264  0.7299 -0.3605 -0.1880
 8473SOL    HW136881   4.304   4.555   2.211  0.4057  1.4688  1.4148
 8473SOL    HW236882   4.332   4.440   2.287 -0.8630  0.6501  0.2968
 8474SOL     OW36883   2.500   3.224   2.679 -0.2256  0.0149 -0.4328
 8474SOL    HW136884   2.511   3.191   2.590  1.5602  2.8316 -1.2312
 8474SOL    HW236885   2.451   3.305   2.671  1.2281  1.0946  1.6614
 8475SOL     OW36886   2.183   1.353   4.709  0.4793 -0.3107  0.4185
 8475SOL    HW136887   2.210   1.268   4.746  2.7253  0.0979 -0.2486
 8475SOL    HW236888   2.145   1.322   4.627  1.5272  0.6980 -0.4442
 8476SOL     OW36889   3.012   3.360   9.211  0.6175  0.2090  0.5085
 8476SOL    HW136890   3.101   3.383   9.186  0.8972 -0.9352  0.4497
 8476SOL    HW236891   3.011   3.266   9.192 -2.6556  0.2335  0.5048
 8477SOL     OW36892   1.504   3.026   5.366 -0.4427  0.0762  0.0287
 8477SOL    HW136893   1.528   2.944   5.323  2.8083  1.4665 -0.8064
 8477SOL    HW236894   1.587   3.063   5.396 -0.6462  0.0171  0.6749
 8478SOL     OW36895   1.019   2.061   1.543  0.0765 -0.4027  0.6984
 8478SOL    HW136896   1.007   2.021   1.629 -0.5260  0.7769  1.1612
 8478SOL    HW236897   0.939   2.023   1.509  0.5859 -1.1632  0.3468
 8479SOL     OW36898   1.814   3.424   7.243  0.1463  0.1472  0.1021
 8479SOL    HW136899   1.786   3.482   7.172  0.0053  0.1839  0.1866
 8479SOL    HW236900   1.908   3.439   7.237  0.4222 -1.3633  0.6436
 8480SOL     OW36901   2.850   2.796  11.931  0.2022 -0.2262 -0.2136
 8480SOL    HW136902   2.755   2.795  11.941  0.1887  2.5514 -0.0300
 8480SOL    HW236903   2.856   2.886  11.899 -0.1860  0.6321  2.1132
 8481SOL     OW36904   0.056   3.557   0.371 -0.1577 -0.1924  0.3150
 8481SOL    HW136905   0.075   3.579   0.463  1.2472  0.5522 -0.1535
 8481SOL    HW236906   0.093   3.470   0.356 -2.1760 -0.4859 -2.9316
 8482SOL     OW36907   4.395   3.570   9.601 -0.4086  0.1990 -0.7636
 8482SOL    HW136908   4.329   3.539   9.664 -0.8031  1.8362 -0.3687
 8482SOL    HW236909   4.471   3.577   9.659 -0.9664  3.0233 -0.3649
 8483SOL     OW36910   2.029   0.606  14.021 -0.4886 -0.3074  0.2334
 8483SOL    HW136911   2.011   0.685  13.971  0.3241 -0.4220 -0.2490
 8483SOL    HW236912   2.013   0.536  13.959 -0.3244 -1.3146  1.3215
 8484SOL     OW36913   4.080   3.558   9.778 -0.5309 -0.1828  0.2244
 8484SOL    HW136914   4.030   3.483   9.809 -0.2596  0.5654  2.4178
 8484SOL    HW236915   4.018   3.618   9.736  0.4660 -0.5134 -1.7650
 8485SOL     OW36916   0.768   0.853  11.626 -0.0756 -0.3336  0.2704
 8485SOL    HW136917   0.740   0.888  11.711  1.0856 -0.2311  0.6063
 8485SOL    HW236918   0.821   0.918  11.580  0.2115 -1.1497 -0.5550
 8486SOL     OW36919   3.477   3.043   9.583 -0.2332 -0.3100 -0.3846
 8486SOL    HW136920   3.394   3.007   9.614  0.3914 -1.4106  0.0046
 8486SOL    HW236921   3.488   3.124   9.633 -0.3701  0.4111 -1.5152
 8487SOL     OW36922   0.014   2.561   7.551  0.1168  0.3022 -0.2194
 8487SOL    HW136923   0.027   2.623   7.623 -1.0702 -0.9683  1.0698
 8487SOL    HW236924   4.699   2.488   7.601 -0.3040  0.7333  0.1115
 8488SOL     OW36925   2.214   0.592   4.124 -0.0711 -0.2048  0.3021
 8488SOL    HW136926   2.190   0.657   4.058  2.5366  0.4014 -0.0694
 8488SOL    HW236927   2.131   0.587   4.171  0.6710 -1.0214  1.5423
 8489SOL     OW36928   2.662   1.972  15.056  0.1738 -0.7721 -0.1834
 8489SOL    HW136929   2.697   1.886  15.033  1.7559 -0.4489  0.9555
 8489SOL    HW236930   2.687   2.007  14.970 -0.9352  0.2227 -0.0985
 8490SOL     OW36931   1.665   1.035   6.876 -0.2994 -0.1729 -0.2559
 8490SOL    HW136932   1.647   1.091   6.952 -1.5876 -0.3533 -0.4264
 8490SOL    HW236933   1.633   0.956   6.921  0.2469 -0.5638 -0.5515
 8491SOL     OW36934   4.038   0.874   6.407 -0.2621 -0.0081  0.0595
 8491SOL    HW136935   3.945   0.882   6.386 -0.4101  2.0106  1.5126
 8491SOL    HW236936   4.037   0.879   6.503  1.3605 -0.7306  0.1227
 8492SOL     OW36937   1.489   0.295   1.928  0.1441  0.1870 -0.4452
 8492SOL    HW136938   1.511   0.316   1.837  1.2618 -0.5880 -0.3572
 8492SOL    HW236939   1.442   0.212   1.920 -2.3205  1.7515 -2.2483
 8493SOL     OW36940   2.962   0.915  15.691 -0.2865 -0.2319 -0.1923
 8493SOL    HW136941   2.957   0.919  15.787 -2.2351  0.6960 -0.3442
 8493SOL    HW236942   3.057   0.907  15.680 -0.2028 -0.5326  0.7211
 8494SOL     OW36943   4.573   1.990   5.720  0.1100 -0.1894 -0.2540
 8494SOL    HW136944   4.494   1.946   5.751  0.3522  0.2867  1.0680
 8494SOL    HW236945   4.637   1.952   5.780  0.5096  0.9894  0.0874
 8495SOL     OW36946   1.940   1.516   8.209 -0.1872  0.1770  0.0260
 8495SOL    HW136947   1.903   1.537   8.123 -1.1015 -0.1869  0.3276
 8495SOL    HW236948   2.028   1.504   8.174 -0.0795 -0.3743  0.4900
 8496SOL     OW36949   1.108   3.206   3.799  0.0839 -0.3014  0.0424
 8496SOL    HW136950   1.128   3.120   3.835  0.2829  0.7204  2.4150
 8496SOL    HW236951   1.118   3.246   3.886 -1.5172  0.5601 -0.1686
 8497SOL     OW36952   3.706   3.413   3.396  0.4729 -0.2183 -0.0923
 8497SOL    HW136953   3.651   3.474   3.444  0.5841 -1.1958  1.3032
 8497SOL    HW236954   3.652   3.402   3.318  2.4881  0.0157 -1.5146
 8498SOL     OW36955   1.615   4.072  16.861  0.2342  0.1588 -0.5113
 8498SOL    HW136956   1.546   4.044  16.921  1.9151 -0.3914  1.1290
 8498SOL    HW236957   1.561   4.100  16.787 -0.9503 -2.1051 -0.5159
 8499SOL     OW36958   3.924   2.766   9.811  0.5668  0.1554  0.3361
 8499SOL    HW136959   3.883   2.681   9.822 -1.0926  1.1933  2.3638
 8499SOL    HW236960   4.012   2.748   9.845  0.2084  0.6568  1.5472
 8500SOL     OW36961   3.247   4.450   6.859  0.3862 -0.1456 -0.2703
 8500SOL    HW136962   3.156   4.425   6.871  0.8419 -0.9948  1.4322
 8500SOL    HW236963   3.242   4.534   6.906 -0.3355 -0.2166 -0.2276
 8501SOL     OW36964   3.033   4.119  12.945 -0.4647  0.4560  0.1013
 8501SOL    HW136965   2.943   4.132  12.976 -0.3525 -0.6241  0.8888
 8501SOL    HW236966   3.030   4.176  12.869  2.0657  0.6563  0.1723
 8502SOL     OW36967   0.784   1.268  10.790 -0.3811  0.0077  0.2252
 8502SOL    HW136968   0.871   1.230  10.784 -0.3837 -0.3121  2.1168
 8502SOL    HW236969   0.728   1.193  10.809 -0.9825  1.0141  2.3702
 8503SOL     OW36970   3.010   4.486   4.482 -0.4268  0.1090 -0.3277
 8503SOL    HW136971   3.092   4.501   4.529 -0.5110 -0.4587 -0.0049
 8503SOL    HW236972   2.943   4.490   4.550 -1.1741  0.1975 -1.0737
 8504SOL     OW36973   2.791   4.094  13.463 -0.1834 -0.1407 -0.2990
 8504SOL    HW136974   2.804   4.009  13.420  1.7621 -0.7838  1.5484
 8504SOL    HW236975   2.871   4.138  13.436 -0.5229  0.0310 -1.0212
 8505SOL     OW36976   1.909   1.167   5.193  0.9568 -0.3230  0.2116
 8505SOL    HW136977   1.919   1.197   5.102  1.8629  0.6228  0.6253
 8505SOL    HW236978   1.994   1.133   5.223 -0.2920 -1.9387  1.8923
 8506SOL     OW36979   2.056   0.218   3.644  0.0841  0.0051 -0.3501
 8506SOL    HW136980   2.149   0.241   3.646  0.5070 -1.6080 -0.8961
 8506SOL    HW236981   2.010   0.273   3.581 -0.0489 -0.0372 -0.2899
 8507SOL     OW36982   3.789   1.247   6.758 -0.2891  0.1786  0.4722
 8507SOL    HW136983   3.791   1.169   6.813 -2.2022  0.3827  0.8380
 8507SOL    HW236984   3.804   1.321   6.817  0.4492 -1.0543  1.8421
 8508SOL     OW36985   1.757   1.167  14.447 -0.6979 -0.4772  0.2277
 8508SOL    HW136986   1.793   1.191  14.362 -0.1894 -0.6288  0.3988
 8508SOL    HW236987   1.669   1.205  14.443 -0.2757  0.4798  0.1221
 8509SOL     OW36988   0.717   2.367   9.682  0.1907 -0.0248 -0.1149
 8509SOL    HW136989   0.758   2.378   9.596 -0.3921  0.8303 -0.2834
 8509SOL    HW236990   0.642   2.426   9.669 -0.5957 -0.6231  1.7992
 8510SOL     OW36991   2.503   0.951   2.058  0.6154  0.1191 -0.1254
 8510SOL    HW136992   2.590   0.928   2.023  0.1146  1.2518 -2.1163
 8510SOL    HW236993   2.523   0.936   2.150 -1.8204  1.5133  0.6384
 8511SOL     OW36994   2.517   0.301  13.007  0.3448  0.3057 -0.1248
 8511SOL    HW136995   2.596   0.292  12.954 -0.1069 -0.5336 -0.6564
 8511SOL    HW236996   2.556   0.289  13.093 -0.3106 -0.0417  0.1222
 8512SOL     OW36997   3.811   2.186  13.185 -1.0340 -0.7491 -0.3178
 8512SOL    HW136998   3.820   2.210  13.093 -0.6333 -2.6624 -0.7820
 8512SOL    HW236999   3.752   2.255  13.215 -2.3422 -2.2107  0.4634
 8513SOL     OW37000   2.821   0.977   2.468 -0.2432 -0.1468  0.2048
 8513SOL    HW137001   2.892   0.914   2.480 -1.8553 -2.3912 -2.0029
 8513SOL    HW237002   2.792   0.982   2.559  1.3169 -2.6616  0.8216
 8514SOL     OW37003   1.974   1.274  14.547 -0.2458  0.2289 -0.3726
 8514SOL    HW137004   2.022   1.203  14.504 -1.6197 -0.0732 -1.4364
 8514SOL    HW237005   1.885   1.242  14.532 -0.0676 -0.5977  0.3484
 8515SOL     OW37006   2.187   4.275   9.959 -0.5218 -0.4558  0.3642
 8515SOL    HW137007   2.129   4.302  10.030  0.7555  3.2384 -0.0141
 8515SOL    HW237008   2.238   4.205  10.002  0.6126  0.4650  0.5225
 8516SOL     OW37009   4.498   4.028   5.541  0.3782  0.1641 -0.5781
 8516SOL    HW137010   4.405   4.002   5.540 -0.0168  1.6181 -1.6422
 8516SOL    HW237011   4.515   4.043   5.448  1.2493  2.6415 -0.0247
 8517SOL     OW37012   1.975   2.628   6.739 -0.5543 -0.4900  0.3181
 8517SOL    HW137013   1.920   2.601   6.666 -1.3816  1.3711  0.2634
 8517SOL    HW237014   1.910   2.666   6.798  0.6404 -0.1829  1.4455
 8518SOL     OW37015   4.002   3.578   9.112 -0.0493 -0.1727  0.4492
 8518SOL    HW137016   4.036   3.546   9.196  1.1366 -2.2092 -0.8076
 8518SOL    HW237017   3.977   3.490   9.084  1.1567 -1.1795  2.4631
 8519SOL     OW37018   4.287   0.556   3.704  0.0527  0.7411  0.2367
 8519SOL    HW137019   4.225   0.507   3.651  0.9353  1.1686 -1.2079
 8519SOL    HW237020   4.371   0.544   3.660 -0.6592  1.1067 -1.2153
 8520SOL     OW37021   0.072   1.790   4.904  0.2764  0.1628 -0.0392
 8520SOL    HW137022   0.021   1.781   4.985  0.0042  1.2656 -0.0840
 8520SOL    HW237023   0.009   1.830   4.844  0.8939 -0.5767 -1.1771
 8521SOL     OW37024   0.618   3.203   8.626  0.4046  0.4135  0.0265
 8521SOL    HW137025   0.644   3.127   8.679  0.9783  0.5592 -0.0482
 8521SOL    HW237026   0.674   3.270   8.665 -0.0141  1.3360 -0.9560
 8522SOL     OW37027   2.361   1.628   1.562 -0.1998  0.0503 -0.0702
 8522SOL    HW137028   2.402   1.567   1.502 -2.5890  0.0034 -1.6832
 8522SOL    HW237029   2.288   1.667   1.513  0.3571  0.0067 -0.9263
 8523SOL     OW37030   4.300   0.479   5.798  0.7506 -0.3640 -0.5261
 8523SOL    HW137031   4.224   0.533   5.822  2.5541  2.0742 -0.3421
 8523SOL    HW237032   4.350   0.493   5.878  1.9110  0.1822 -1.3447
 8524SOL     OW37033   3.722   1.998   3.975  0.4822  0.0781 -0.2683
 8524SOL    HW137034   3.645   2.019   3.923  0.2870  0.7679  0.3002
 8524SOL    HW237035   3.714   2.050   4.056 -1.0068  0.8503 -0.9210
 8525SOL     OW37036   1.380   3.118   7.621 -0.0755  0.6812  0.1090
 8525SOL    HW137037   1.312   3.136   7.556  0.3745 -1.9036 -1.0786
 8525SOL    HW237038   1.386   3.203   7.664 -2.0923  0.3454  1.0715
 8526SOL     OW37039   0.913   1.723   2.139 -0.4559  0.5798  0.1176
 8526SOL    HW137040   0.845   1.721   2.072  0.2334  2.1964 -0.6530
 8526SOL    HW237041   0.976   1.669   2.091 -0.0522  0.2548  1.0199
 8527SOL     OW37042   3.583   1.902  10.763  0.3639 -0.3185 -0.0466
 8527SOL    HW137043   3.500   1.948  10.748 -0.3272 -0.9234  1.9253
 8527SOL    HW237044   3.592   1.848  10.685 -3.6838  1.2069 -1.5976
 8528SOL     OW37045   3.501   0.388   4.520  0.0722  0.1747  0.0690
 8528SOL    HW137046   3.563   0.393   4.447 -2.0022 -2.5064 -1.8998
 8528SOL    HW237047   3.449   0.466   4.501  1.8181  1.4030  0.3179
 8529SOL     OW37048   1.619   0.246   4.423 -0.0710  0.2267 -0.5379
 8529SOL    HW137049   1.566   0.252   4.503  2.8538  1.6800  1.3009
 8529SOL    HW237050   1.707   0.231   4.459  0.2279  0.1328 -1.3229
 8530SOL     OW37051   3.593   0.563   7.291  0.0983  0.0563  0.1226
 8530SOL    HW137052   3.663   0.499   7.279  0.6990 -0.3350  5.9209
 8530SOL    HW237053   3.514   0.515   7.268 -0.4041  1.8305 -1.8268
 8531SOL     OW37054   3.914   1.747   2.894  0.7286 -0.1255  0.0728
 8531SOL    HW137055   3.819   1.751   2.882  1.0221  0.9362 -2.0303
 8531SOL    HW237056   3.919   1.675   2.956  2.7378 -0.2325 -0.2043
 8532SOL     OW37057   1.196   1.165   9.111  0.2123 -0.1137  0.0398
 8532SOL    HW137058   1.269   1.106   9.128  1.5792  1.7231  0.5219
 8532SOL    HW237059   1.215   1.181   9.018  0.3580  0.4867  0.1732
 8533SOL     OW37060   1.074   0.716   3.302  0.2788  0.1131 -0.8494
 8533SOL    HW137061   1.083   0.677   3.215 -1.9150  0.7051 -1.3363
 8533SOL    HW237062   1.160   0.691   3.336 -0.1720 -0.7873 -0.3888
 8534SOL     OW37063   3.702   0.392  16.559  0.6341 -0.1338  0.0802
 8534SOL    HW137064   3.784   0.370  16.514  0.4815 -0.6745  0.0644
 8534SOL    HW237065   3.702   0.320  16.622  1.1700  0.2325  0.5011
 8535SOL     OW37066   2.706   3.989   9.455  0.4585  0.4893 -0.3047
 8535SOL    HW137067   2.688   4.070   9.409  0.4181  0.8506  0.3418
 8535SOL    HW237068   2.659   3.926   9.401 -0.7057  1.1480 -0.0612
 8536SOL     OW37069   0.111   4.406   7.295 -0.1157 -0.7197  0.0142
 8536SOL    HW137070   0.086   4.334   7.352  0.5336  0.8028  2.2202
 8536SOL    HW237071   0.178   4.450   7.347 -0.0919 -0.5082 -0.1898
 8537SOL     OW37072   3.539   4.568   7.004 -0.7918 -0.1958  0.8810
 8537SOL    HW137073   3.460   4.622   7.001 -0.9346 -0.4462  0.0592
 8537SOL    HW237074   3.546   4.549   7.097  0.1414 -0.7339  0.7057
 8538SOL     OW37075   2.623   1.497   0.653 -0.1738 -1.0064 -1.0582
 8538SOL    HW137076   2.710   1.468   0.627  0.4170  0.1779 -0.3599
 8538SOL    HW237077   2.614   1.574   0.597  0.5461 -0.5818 -0.5802
 8539SOL     OW37078   0.977   2.067   6.449 -0.3118  0.5045  0.3114
 8539SOL    HW137079   1.025   2.032   6.374  0.8061  2.6938  0.0017
 8539SOL    HW237080   0.906   2.004   6.466 -1.0082  1.2749  0.2565
 8540SOL     OW37081   1.325   0.062   2.733  0.0263  0.3469 -0.2849
 8540SOL    HW137082   1.404   0.009   2.738  0.2874  0.6401 -1.3359
 8540SOL    HW237083   1.365   0.138   2.774 -0.2693 -0.2256  1.0419
 8541SOL     OW37084   4.697   3.876   1.512  0.6455  0.1475 -0.3687
 8541SOL    HW137085   4.712   3.967   1.487  0.9064  0.6808  1.7432
 8541SOL    HW237086   0.001   3.828   1.433  0.3505 -0.0114 -0.3634
 8542SOL     OW37087   1.243   2.012   1.378  0.4814 -0.2789  0.4852
 8542SOL    HW137088   1.163   2.004   1.430 -0.2203 -0.4071 -0.6114
 8542SOL    HW237089   1.241   1.929   1.330  0.9952 -0.4018  0.6795
 8543SOL     OW37090   3.953   2.363   9.689  0.1472  0.1770  0.2405
 8543SOL    HW137091   3.871   2.405   9.664  0.5991  1.1084  0.2949
 8543SOL    HW237092   4.014   2.434   9.668  1.4505 -1.2306 -0.6821
 8544SOL     OW37093   1.420   1.924   2.706  0.4851 -0.2465 -0.3172
 8544SOL    HW137094   1.420   1.945   2.800  0.4584  0.0474 -0.3819
 8544SOL    HW237095   1.506   1.952   2.675  0.3714 -0.0144 -0.4198
 8545SOL     OW37096   2.235   4.715   5.842 -0.2368 -0.7990 -0.5477
 8545SOL    HW137097   2.299   4.694   5.909 -0.6783 -1.0132 -0.1978
 8545SOL    HW237098   2.168   0.035   5.897 -0.2569 -2.7119  0.8404
 8546SOL     OW37099   2.722   1.796   7.371 -0.9307  0.5723 -0.1425
 8546SOL    HW137100   2.646   1.851   7.353 -1.4108 -0.2838 -0.7055
 8546SOL    HW237101   2.792   1.862   7.377 -0.1457 -0.4158  1.7311
 8547SOL     OW37102   0.507   0.459   5.502 -0.1842 -0.5403  0.3966
 8547SOL    HW137103   0.498   0.532   5.441  0.9977 -2.5966 -2.2211
 8547SOL    HW237104   0.515   0.497   5.590 -0.8876 -0.4545  0.4239
 8548SOL     OW37105   0.539   4.682   4.678  0.5304  0.1950  0.2892
 8548SOL    HW137106   0.451   4.687   4.640  0.7975 -1.1884 -0.5140
 8548SOL    HW237107   0.585   4.647   4.602 -0.1622  0.5115 -0.2762
 8549SOL     OW37108   4.484   3.861  14.933 -0.3784  0.4122 -0.4329
 8549SOL    HW137109   4.447   3.773  14.928  0.5100 -0.1720  3.4708
 8549SOL    HW237110   4.439   3.876  15.016  0.6619 -0.6940  0.3337
 8550SOL     OW37111   1.843   2.911   4.251 -0.2338  0.5069  0.2229
 8550SOL    HW137112   1.801   2.940   4.331 -2.3970 -1.5524 -0.1912
 8550SOL    HW237113   1.840   2.998   4.212 -1.8326 -0.2728 -1.3936
 8551SOL     OW37114   0.490   4.495   3.120  0.2608 -0.4640  0.5814
 8551SOL    HW137115   0.525   4.415   3.079  0.6290 -0.6094  1.1917
 8551SOL    HW237116   0.539   4.559   3.068  2.7679 -2.4057  0.4980
 8552SOL     OW37117   0.387   4.478   1.035 -0.2928  0.2691  0.4826
 8552SOL    HW137118   0.404   4.519   0.950  0.4958 -2.2967 -0.6294
 8552SOL    HW237119   0.414   4.549   1.093 -1.2073  0.4226  0.7148
 8553SOL     OW37120   3.296   3.621   2.871  0.0253  0.2160 -0.2348
 8553SOL    HW137121   3.353   3.555   2.831  2.6183  1.0233  2.1684
 8553SOL    HW237122   3.215   3.610   2.821 -0.1829  1.3741 -0.1431
 8554SOL     OW37123   4.151   4.633   2.985 -0.3464  0.9830  0.6393
 8554SOL    HW137124   4.155   4.574   3.061  1.1050  1.1533  0.6930
 8554SOL    HW237125   4.107   4.578   2.921 -1.4617  1.2766  1.1465
 8555SOL     OW37126   1.797   0.714   0.210  0.3929 -0.1608 -0.3104
 8555SOL    HW137127   1.835   0.800   0.228  0.2549 -0.0208 -0.6737
 8555SOL    HW237128   1.724   0.743   0.155  0.6281 -0.0806 -0.5837
 8556SOL     OW37129   3.475   0.014   5.336 -0.1379 -0.0252 -0.4823
 8556SOL    HW137130   3.564   4.704   5.354  0.5687  2.6159  0.6576
 8556SOL    HW237131   3.462   0.065   5.417 -0.6962 -0.1372 -0.5064
 8557SOL     OW37132   2.455   2.932   7.432 -0.2979  0.4066  0.4980
 8557SOL    HW137133   2.423   3.023   7.436 -0.3314  0.3275  2.1114
 8557SOL    HW237134   2.372   2.887   7.450 -0.0178  0.5816  2.2321
 8558SOL     OW37135   0.546   2.170   7.340  0.5370 -0.1823  0.0663
 8558SOL    HW137136   0.619   2.135   7.392 -0.1700  0.7270  1.6787
 8558SOL    HW237137   0.494   2.213   7.408  1.1251  0.1867  0.2814
 8559SOL     OW37138   3.558   1.335   4.257 -0.6669  0.2235  0.1931
 8559SOL    HW137139   3.463   1.326   4.259 -0.5601 -1.1749 -1.2852
 8559SOL    HW237140   3.553   1.431   4.265 -0.0355  0.0155  3.2063
 8560SOL     OW37141   1.579   2.306  17.358  0.1806  0.2324 -0.3342
 8560SOL    HW137142   1.591   2.321  17.264  0.9706  2.7821  0.1557
 8560SOL    HW237143   1.628   2.382  17.391  0.9871  0.8549 -2.9410
 8561SOL     OW37144   3.658   0.416   4.771  0.3068 -0.0593  0.0445
 8561SOL    HW137145   3.591   0.396   4.706 -0.2999 -0.2590  0.7328
 8561SOL    HW237146   3.697   0.496   4.735 -1.0615  0.1140 -1.0418
 8562SOL     OW37147   2.942   0.944   3.430 -0.0124  0.5171  0.0732
 8562SOL    HW137148   2.992   0.875   3.474  0.0797 -0.3666 -1.4219
 8562SOL    HW237149   2.989   1.022   3.461 -1.0839  0.7687  1.0456
 8563SOL     OW37150   4.126   0.477  12.731  0.6474  0.8083 -0.2014
 8563SOL    HW137151   4.033   0.461  12.746  0.5569  0.8834 -0.6998
 8563SOL    HW237152   4.127   0.566  12.767 -1.4715 -0.8128  3.7986
 8564SOL     OW37153   0.682   1.526  12.516  0.1829  0.4732 -0.4343
 8564SOL    HW137154   0.603   1.472  12.520  0.4005  0.3639  1.8118
 8564SOL    HW237155   0.636   1.610  12.523  0.1474  0.7055 -3.2596
 8565SOL     OW37156   0.572   4.716  11.671  0.4664  0.7847  0.2248
 8565SOL    HW137157   0.666   4.698  11.666  0.2757  0.3660 -1.7615
 8565SOL    HW237158   0.535   4.630  11.690  0.6817  0.8307  0.8523
 8566SOL     OW37159   4.363   2.753   5.642 -0.2480  0.4292  0.6810
 8566SOL    HW137160   4.387   2.716   5.727 -0.2191 -0.5529  0.2510
 8566SOL    HW237161   4.404   2.701   5.573  1.0628 -0.6578  2.2543
 8567SOL     OW37162   2.336   0.470   7.991  0.0206  0.1743 -0.2188
 8567SOL    HW137163   2.381   0.506   7.915  0.7634  1.5714  0.8827
 8567SOL    HW237164   2.265   0.532   8.010 -0.4550 -0.6771  0.7614
 8568SOL     OW37165   0.521   3.259  10.642 -0.3921 -0.1956 -0.4653
 8568SOL    HW137166   0.488   3.230  10.557 -2.0405  1.0768 -0.2512
 8568SOL    HW237167   0.611   3.282  10.621  0.3384 -2.0277  0.6529
 8569SOL     OW37168   3.017   0.578   2.332  0.1395  0.1480 -0.4494
 8569SOL    HW137169   3.111   0.560   2.336  0.3475  1.5509  0.8667
 8569SOL    HW237170   2.984   0.508   2.390  0.4484 -1.4524 -2.2092
 8570SOL     OW37171   3.851   0.487   9.235 -0.0262 -0.7809  0.0375
 8570SOL    HW137172   3.893   0.460   9.316 -0.2738  1.0878  0.7845
 8570SOL    HW237173   3.890   0.575   9.230  0.4475 -1.0661 -1.3801
 8571SOL     OW37174   2.124   3.508   4.541 -0.2247  0.5041 -0.4597
 8571SOL    HW137175   2.051   3.453   4.568  0.6384  0.5105  1.8531
 8571SOL    HW237176   2.165   3.460   4.469 -1.4517 -1.9380  0.5012
 8572SOL     OW37177   1.469   3.400   6.421  0.5557  0.0459 -0.2153
 8572SOL    HW137178   1.439   3.438   6.503 -1.0675 -1.7251 -0.0081
 8572SOL    HW237179   1.395   3.433   6.370  1.8403 -1.5163 -3.1336
 8573SOL     OW37180   1.006   3.955   5.755 -0.6382 -0.1852  0.1876
 8573SOL    HW137181   1.072   4.024   5.765  0.1300 -0.9780  0.6620
 8573SOL    HW237182   1.057   3.901   5.694 -2.8286 -1.0812 -0.8278
 8574SOL     OW37183   4.610   1.074   4.611  0.0762  0.4618 -0.2355
 8574SOL    HW137184   4.563   1.006   4.660 -1.1109  1.3493 -0.1348
 8574SOL    HW237185   4.679   1.018   4.576 -0.5341  0.0778 -0.8430
 8575SOL     OW37186   2.499   0.212  13.705 -0.1257  0.1522 -0.0269
 8575SOL    HW137187   2.442   0.221  13.629 -1.7429 -0.6223  1.1257
 8575SOL    HW237188   2.577   0.178  13.660 -0.8749 -1.5804 -0.0031
 8576SOL     OW37189   4.195   4.155   3.845  0.1156  0.6551  0.1703
 8576SOL    HW137190   4.225   4.237   3.805  0.4584  0.1098 -0.6707
 8576SOL    HW237191   4.238   4.162   3.931 -2.7235  2.7891  1.3924
 8577SOL     OW37192   2.585   2.563   5.845  0.1763  0.1171  0.1782
 8577SOL    HW137193   2.654   2.540   5.781 -0.5990  3.1256 -1.7009
 8577SOL    HW237194   2.585   2.477   5.889  2.3578 -0.6474 -1.2810
 8578SOL     OW37195   4.598   0.988   2.638 -0.1681 -0.0708  0.4054
 8578SOL    HW137196   4.516   1.016   2.678  0.0752  1.8687 -0.4479
 8578SOL    HW237197   4.642   0.946   2.713 -1.6786 -1.6644  0.3876
 8579SOL     OW37198   1.884   1.772   7.368 -0.5978  0.2187 -0.2193
 8579SOL    HW137199   1.789   1.778   7.381 -0.1312  4.6309  1.1189
 8579SOL    HW237200   1.917   1.838   7.429  1.9762 -0.9027 -0.3814
 8580SOL     OW37201   2.587   3.086  11.526  0.2814 -0.1886 -0.1600
 8580SOL    HW137202   2.677   3.054  11.514  1.3031  2.9924 -0.8750
 8580SOL    HW237203   2.542   3.003  11.513  1.0547 -0.9254  1.7893
 8581SOL     OW37204   2.804   0.262   5.754 -0.0930  0.1511 -0.3294
 8581SOL    HW137205   2.839   0.349   5.772 -2.2594  0.8293  0.6328
 8581SOL    HW237206   2.785   0.246   5.847  0.4204  2.2953  0.1320
 8582SOL     OW37207   1.976   0.593   3.316 -0.1935  0.3069  0.3305
 8582SOL    HW137208   1.946   0.684   3.316 -2.8991 -0.5960  0.5786
 8582SOL    HW237209   2.057   0.599   3.368 -0.4932 -0.0993  0.8345
 8583SOL     OW37210   3.080   3.364   3.492  0.3058 -0.0808 -0.2292
 8583SOL    HW137211   3.096   3.276   3.527 -0.8549  0.2145  1.0694
 8583SOL    HW237212   3.131   3.371   3.412  0.9651  0.1991  0.2214
 8584SOL     OW37213   4.548   1.271  16.358  0.5423  0.6911 -0.3713
 8584SOL    HW137214   4.590   1.297  16.439 -2.3112  0.0764  1.2997
 8584SOL    HW237215   4.561   1.177  16.346  0.4616  0.3249  2.6322
 8585SOL     OW37216   0.018   3.562   4.232  0.2300  0.8668  0.1209
 8585SOL    HW137217   0.110   3.555   4.259  0.2678  1.2993  0.1007
 8585SOL    HW237218   0.027   3.638   4.175  1.0980 -0.2138 -1.2120
 8586SOL     OW37219   1.883   4.717  12.533  0.2988 -0.2058  0.7534
 8586SOL    HW137220   1.962   4.667  12.555  0.2358 -0.3907  0.5675
 8586SOL    HW237221   1.855   0.015  12.623  0.8007  0.1663  0.8280
 8587SOL     OW37222   1.790   4.592   5.077 -0.4180 -0.1899 -0.3159
 8587SOL    HW137223   1.761   4.564   5.164  0.0459  0.1378 -0.0533
 8587SOL    HW237224   1.749   4.678   5.065  0.2551  0.1448 -0.2309
 8588SOL     OW37225   0.098   4.229   5.799 -0.1443 -0.3062  0.5404
 8588SOL    HW137226   0.112   4.177   5.720  2.3663 -2.8411  2.6266
 8588SOL    HW237227   0.134   4.173   5.869 -0.0388 -1.5262 -0.4921
 8589SOL     OW37228   3.883   0.386  12.725  0.2121  0.3879  0.1283
 8589SOL    HW137229   3.820   0.364  12.656 -0.9149 -2.1834  1.9522
 8589SOL    HW237230   3.811   0.415  12.782 -1.5334  0.0846 -1.9051
 8590SOL     OW37231   2.299   3.055   5.883 -0.2330 -0.7729 -0.4382
 8590SOL    HW137232   2.239   3.090   5.817 -0.4302 -1.0356 -0.3962
 8590SOL    HW237233   2.244   2.978   5.899  0.5410 -1.9215 -3.2323
 8591SOL     OW37234   0.424   3.414  15.861  0.2251 -0.1446 -0.0725
 8591SOL    HW137235   0.478   3.342  15.828  0.0184  0.6994 -2.2325
 8591SOL    HW237236   0.338   3.376  15.849  0.2504 -0.7017  1.4418
 8592SOL     OW37237   3.763   1.559   8.216  0.4470 -0.0051  0.1032
 8592SOL    HW137238   3.818   1.626   8.255  0.8236  0.2550 -0.8637
 8592SOL    HW237239   3.789   1.482   8.266 -1.1910 -0.5508  0.1219
 8593SOL     OW37240   3.161   1.106  11.921 -0.5810  0.1125  0.1694
 8593SOL    HW137241   3.205   1.035  11.873  1.4459  1.5528 -0.0918
 8593SOL    HW237242   3.236   1.155  11.957  0.4264 -1.7305  0.5894
 8594SOL     OW37243   1.382   0.654  11.435 -0.2754 -0.7737 -0.0121
 8594SOL    HW137244   1.388   0.739  11.478  1.3087 -0.8556 -0.0684
 8594SOL    HW237245   1.465   0.613  11.463  0.2686  1.0096  0.9741
 8595SOL     OW37246   4.203   4.139   9.980 -0.0908  0.4273  0.2992
 8595SOL    HW137247   4.278   4.095  10.020 -0.4454 -0.1086  0.3830
 8595SOL    HW237248   4.156   4.087   9.914 -2.3771  1.8062  0.8399
 8596SOL     OW37249   3.168   3.189   4.942  0.6886 -0.1007 -0.3627
 8596SOL    HW137250   3.186   3.283   4.940  1.6296 -0.2962 -1.0351
 8596SOL    HW237251   3.126   3.179   4.857 -0.4699 -0.4960  0.2587
 8597SOL     OW37252   0.924   3.349   3.668 -0.1401  0.0022 -0.2226
 8597SOL    HW137253   0.995   3.301   3.711 -0.4840  0.0652  0.4103
 8597SOL    HW237254   0.907   3.412   3.738  0.6921 -0.3512  0.3034
 8598SOL     OW37255   1.932   1.326   0.471 -0.4443  0.7349 -0.4410
 8598SOL    HW137256   1.939   1.370   0.555 -0.9974  0.0922 -0.0586
 8598SOL    HW237257   1.841   1.349   0.455 -0.3157  0.4838 -1.5888
 8599SOL     OW37258   1.698   0.537  14.502 -0.1539 -0.0371 -0.5452
 8599SOL    HW137259   1.712   0.532  14.597  0.4381  1.4118 -0.5628
 8599SOL    HW237260   1.621   0.594  14.498 -1.4729 -1.7324  0.4642
 8600SOL     OW37261   0.897   1.452   1.455 -0.4316 -0.5994  0.4041
 8600SOL    HW137262   0.905   1.547   1.443  2.2489 -0.9368 -0.5049
 8600SOL    HW237263   0.884   1.424   1.364 -5.4989 -0.3111  1.0394
 8601SOL     OW37264   1.489   0.005  16.975  0.2343 -0.0158 -0.3478
 8601SOL    HW137265   1.506   4.678  16.894  1.5506  1.1029 -0.7229
 8601SOL    HW237266   1.577   0.041  16.983 -0.7369  2.8206 -2.2911
 8602SOL     OW37267   2.251   3.924   5.795  0.2162 -0.0303 -0.0973
 8602SOL    HW137268   2.313   3.932   5.868 -0.9722  2.9662  0.5620
 8602SOL    HW237269   2.193   3.994   5.823  0.3190  0.4834 -1.1948
 8603SOL     OW37270   3.078   1.398   4.350 -0.2333 -0.2490 -0.3700
 8603SOL    HW137271   3.041   1.310   4.342 -1.0230  0.0405  0.0909
 8603SOL    HW237272   3.151   1.389   4.288  0.9960  0.9582  0.8946
 8604SOL     OW37273   2.182   1.203  17.606 -0.5045  0.3210  0.8579
 8604SOL    HW137274   2.207   1.192   0.012 -0.5092  0.4767  0.8786
 8604SOL    HW237275   2.091   1.176  17.617 -0.0515 -0.3876  2.7566
 8605SOL     OW37276   2.469   3.926  14.786 -0.0108 -0.2430 -0.0295
 8605SOL    HW137277   2.512   3.841  14.769 -2.2219 -1.3048 -0.2832
 8605SOL    HW237278   2.507   3.956  14.869 -1.9487 -1.2279  1.2117
 8606SOL     OW37279   3.806   3.343  12.808 -0.1189  0.0680  1.0769
 8606SOL    HW137280   3.824   3.260  12.765 -2.1763 -0.0571  0.4662
 8606SOL    HW237281   3.711   3.354  12.809 -0.3314 -1.7276 -0.1496
 8607SOL     OW37282   3.517   4.340   4.033  0.1152  0.2771 -0.5457
 8607SOL    HW137283   3.563   4.419   4.007  1.7184  0.0360  1.5206
 8607SOL    HW237284   3.430   4.378   4.043 -0.0031  0.1094 -0.9309
 8608SOL     OW37285   2.173   2.515   8.397  0.2628  0.1264 -0.0069
 8608SOL    HW137286   2.142   2.571   8.327  0.8644 -0.1696 -0.5098
 8608SOL    HW237287   2.094   2.469   8.423 -1.3140  0.8545 -3.6073
 8609SOL     OW37288   2.861   1.733   7.046  0.2521 -0.6890 -0.3253
 8609SOL    HW137289   2.907   1.787   7.110 -1.2461  1.5976 -1.1880
 8609SOL    HW237290   2.933   1.716   6.986  1.2324  2.1654  0.0434
 8610SOL     OW37291   1.594   3.041   8.484  0.2330 -0.0350 -0.0240
 8610SOL    HW137292   1.633   3.128   8.472  0.9836 -0.5039 -0.9624
 8610SOL    HW237293   1.599   3.009   8.394 -0.1254 -1.7500  0.5690
 8611SOL     OW37294   3.547   0.033  11.247 -0.7876 -0.0914 -0.1293
 8611SOL    HW137295   3.508   0.034  11.160  0.0539 -0.8431 -0.5165
 8611SOL    HW237296   3.549   4.660  11.268 -2.4933 -0.0787  0.1275
 8612SOL     OW37297   2.078   0.657   4.422  0.0619  0.0286  0.2406
 8612SOL    HW137298   2.028   0.650   4.504 -0.9141  1.2829 -0.2465
 8612SOL    HW237299   2.079   0.752   4.412 -1.1328 -0.3908 -3.8863
 8613SOL     OW37300   4.310   1.596   6.960 -0.0425 -1.1265  0.3128
 8613SOL    HW137301   4.239   1.630   7.015 -0.4413  0.5851 -1.2400
 8613SOL    HW237302   4.322   1.659   6.889 -0.0963 -0.7622  0.6261
 8614SOL     OW37303   2.526   4.074   3.775 -0.0219  0.4307 -0.0756
 8614SOL    HW137304   2.603   4.063   3.830  0.5538 -0.1830 -1.0140
 8614SOL    HW237305   2.562   4.049   3.690  1.0169 -3.3009  1.4668
 8615SOL     OW37306   1.561   3.040   2.333  0.1699  0.1621  0.0277
 8615SOL    HW137307   1.549   3.036   2.428  4.1361 -0.5309  0.4816
 8615SOL    HW237308   1.598   2.952   2.320  0.0485  0.0082  0.7201
 8616SOL     OW37309   4.661   1.152   2.972 -0.5053 -0.3209 -0.4799
 8616SOL    HW137310   4.662   1.230   2.917 -1.5164 -0.7741 -1.1383
 8616SOL    HW237311   4.575   1.162   3.013 -1.1401  3.8636 -2.8241
 8617SOL     OW37312   2.386   2.105   7.103 -0.1584 -0.3893  0.9482
 8617SOL    HW137313   2.304   2.054   7.099 -0.4812  0.2639 -0.7333
 8617SOL    HW237314   2.361   2.196   7.122 -2.8746 -1.1959  1.2864
 8618SOL     OW37315   2.692   2.290  14.574  0.1052  0.0738 -0.0036
 8618SOL    HW137316   2.769   2.256  14.621  1.0245 -2.9033 -3.6449
 8618SOL    HW237317   2.731   2.277  14.488  0.9803  0.0875  0.3878
 8619SOL     OW37318   4.644   0.334   4.658 -0.6315 -0.1733 -0.2398
 8619SOL    HW137319   4.585   0.349   4.584 -0.1918 -0.6310 -0.6712
 8619SOL    HW237320   4.657   0.427   4.680 -0.1835 -0.7591  1.9746
 8620SOL     OW37321   4.246   3.189  12.035  0.2813  0.2860  0.0565
 8620SOL    HW137322   4.261   3.094  12.034 -2.0527 -0.1035  0.1269
 8620SOL    HW237323   4.292   3.221  11.958 -0.7471  0.3985 -0.5229
 8621SOL     OW37324   3.839   4.174   8.204 -0.6453  0.1756  0.0522
 8621SOL    HW137325   3.787   4.227   8.144 -2.2562  2.2731  3.3074
 8621SOL    HW237326   3.842   4.231   8.281  0.5627 -3.2590  2.5618
 8622SOL     OW37327   0.969   4.099   3.817 -0.8129 -0.5197  0.0178
 8622SOL    HW137328   0.938   4.190   3.823 -0.0198 -0.1568 -1.2735
 8622SOL    HW237329   0.945   4.067   3.729  2.7841 -0.3474 -1.0005
 8623SOL     OW37330   3.774   3.626   3.089  0.0949 -0.0751 -0.1708
 8623SOL    HW137331   3.744   3.659   3.174  2.0607  1.0444  0.1053
 8623SOL    HW237332   3.869   3.637   3.093 -0.0547  1.1036  0.3440
 8624SOL     OW37333   3.860   3.203   4.137 -0.0124 -0.3825 -0.1355
 8624SOL    HW137334   3.896   3.267   4.199  2.0669 -0.0449 -1.6744
 8624SOL    HW237335   3.777   3.249   4.125 -0.8446 -1.3756  1.8856
 8625SOL     OW37336   0.969   4.624   8.163  0.2544 -0.5130  0.4653
 8625SOL    HW137337   0.981   4.628   8.258 -0.2479  3.1366  0.3757
 8625SOL    HW237338   0.896   4.686   8.164  1.0141  0.3927  0.0375
 8626SOL     OW37339   4.512   0.861  11.118 -0.7307  0.4406 -0.0559
 8626SOL    HW137340   4.542   0.951  11.123  1.5669 -0.2238 -2.1772
 8626SOL    HW237341   4.514   0.856  11.023 -0.0794  1.4031 -0.0939
 8627SOL     OW37342   1.594   2.510  12.407 -0.0183  0.8256  0.2524
 8627SOL    HW137343   1.607   2.504  12.313 -1.8296 -1.7048  0.1647
 8627SOL    HW237344   1.518   2.452  12.407 -0.6539  1.6547  0.3106
 8628SOL     OW37345   4.526   1.030   5.605 -0.8372 -0.0716  0.0289
 8628SOL    HW137346   4.560   1.110   5.565  0.4568  0.7088  2.7151
 8628SOL    HW237347   4.490   1.061   5.688  0.2960 -0.9944  0.8664
 8629SOL     OW37348   4.113   1.668  13.777  0.2974  0.6095 -0.1459
 8629SOL    HW137349   4.124   1.656  13.683  1.8361  2.3401 -0.2013
 8629SOL    HW237350   4.201   1.640  13.804  1.5083  2.9783 -1.5738
 8630SOL     OW37351   1.226   1.710   0.316  0.2098 -0.2833  0.5209
 8630SOL    HW137352   1.230   1.695   0.410  1.1684 -2.8495  0.0654
 8630SOL    HW237353   1.206   1.804   0.317  1.6647  0.0232  0.3448
 8631SOL     OW37354   4.667   3.466   6.290  0.4820  0.2028 -0.1351
 8631SOL    HW137355   4.619   3.422   6.220  2.0326 -1.1097 -0.3760
 8631SOL    HW237356   4.616   3.546   6.302  1.3885  0.1787  3.7627
 8632SOL     OW37357   3.022   4.688   2.723 -0.0338  0.0262  0.6170
 8632SOL    HW137358   2.991   4.640   2.646  0.7437  2.3121 -1.1277
 8632SOL    HW237359   2.953   0.034   2.724  1.9263  2.0337  1.7772
 8633SOL     OW37360   2.878   1.627  13.151 -0.0263  0.2889 -0.9786
 8633SOL    HW137361   2.941   1.591  13.214 -2.1984  0.1033  1.0784
 8633SOL    HW237362   2.896   1.574  13.074 -1.9329  0.0812 -1.2776
 8634SOL     OW37363   1.693   3.571  12.159 -0.8279  0.4357  0.6791
 8634SOL    HW137364   1.719   3.486  12.122  0.1215  0.1058  2.0815
 8634SOL    HW237365   1.731   3.553  12.246 -0.7264  0.2735  0.6009
 8635SOL     OW37366   2.649   4.243   5.999  0.0168  0.1379  0.0299
 8635SOL    HW137367   2.670   4.155   6.030  1.4844 -0.3192 -2.2663
 8635SOL    HW237368   2.632   4.236   5.905  1.9007 -0.2097 -0.2892
 8636SOL     OW37369   0.526   0.617   3.419 -0.6434 -0.1019  0.0089
 8636SOL    HW137370   0.506   0.529   3.388  0.0364 -0.0034 -0.7217
 8636SOL    HW237371   0.620   0.606   3.433 -0.6041 -0.3308 -0.4503
 8637SOL     OW37372   2.270   1.247   2.246 -0.2171  0.3619  0.0809
 8637SOL    HW137373   2.308   1.171   2.291 -0.6353 -1.3821 -2.5041
 8637SOL    HW237374   2.285   1.307   2.319 -0.4422 -0.5696  0.9064
 8638SOL     OW37375   3.769   3.209   3.578 -0.0758  0.0275  0.5191
 8638SOL    HW137376   3.775   3.245   3.489 -2.1179 -1.9459 -0.4433
 8638SOL    HW237377   3.675   3.191   3.591 -0.6484  0.7742 -2.4171
 8639SOL     OW37378   1.401   1.070   3.748  0.0817 -0.1968 -0.0193
 8639SOL    HW137379   1.455   1.085   3.826  1.5678 -0.4684 -0.9863
 8639SOL    HW237380   1.321   1.105   3.786  0.3354  0.3279  0.0452
 8640SOL     OW37381   0.142   1.424   5.174  0.5128 -0.2624 -0.4125
 8640SOL    HW137382   0.080   1.467   5.234 -0.6217 -1.1272 -0.9621
 8640SOL    HW237383   0.108   1.451   5.088 -1.0934 -1.5450 -0.1820
 8641SOL     OW37384   4.329   1.014  12.707 -0.2033  0.3857  0.3431
 8641SOL    HW137385   4.280   0.953  12.763 -1.2241  0.2273 -0.7169
 8641SOL    HW237386   4.390   0.965  12.652 -1.1367 -0.2293 -0.1459
 8642SOL     OW37387   0.313   1.234   4.138 -0.1330 -0.2552  0.1036
 8642SOL    HW137388   0.333   1.246   4.045 -0.8811  0.6588  0.0591
 8642SOL    HW237389   0.400   1.244   4.178 -0.9165 -0.5781  1.8701
 8643SOL     OW37390   4.619   1.334  16.103  0.2126 -0.5076 -0.3122
 8643SOL    HW137391   4.541   1.362  16.055 -0.0432 -1.9443 -0.7283
 8643SOL    HW237392   4.578   1.316  16.188 -0.6597 -0.8032 -0.8018
 8644SOL     OW37393   4.076   0.487  16.717  0.0329 -0.0403 -0.0603
 8644SOL    HW137394   4.119   0.523  16.795 -0.4526  2.4549 -0.9354
 8644SOL    HW237395   4.028   0.407  16.741 -2.5887  0.6617 -3.0490
 8645SOL     OW37396   3.096   1.340   2.689  0.1340 -0.6033 -0.2699
 8645SOL    HW137397   3.105   1.257   2.736 -0.5630  0.3654  1.5787
 8645SOL    HW237398   3.187   1.351   2.661  0.0049  0.8422 -0.1174
 8646SOL     OW37399   1.012   2.576   1.071  0.0865  0.4934 -0.7376
 8646SOL    HW137400   0.948   2.620   1.127  0.0468 -0.1808 -0.2613
 8646SOL    HW237401   0.970   2.590   0.986 -1.0025  0.8003 -0.1528
 8647SOL     OW37402   3.071   0.040   7.424  0.4046 -0.4959 -0.2102
 8647SOL    HW137403   2.988   0.086   7.415  0.5231 -0.4395 -1.0798
 8647SOL    HW237404   3.045   4.669   7.427  0.8317 -0.6064  0.0484
 8648SOL     OW37405   2.449   1.793   0.042  0.3672 -0.2623  0.3933
 8648SOL    HW137406   2.535   1.823   0.073  2.4268 -0.6288 -4.9697
 8648SOL    HW237407   2.389   1.851   0.089  1.2480  0.0095  1.1671
 8649SOL     OW37408   3.917   1.157  10.085  0.1653 -0.0059  0.0910
 8649SOL    HW137409   3.981   1.086  10.086  0.2418  0.0585 -0.4417
 8649SOL    HW237410   3.943   1.204  10.165 -0.2586  0.1960  0.1078
 8650SOL     OW37411   0.384   0.925   2.190 -0.0652 -0.3552 -0.3784
 8650SOL    HW137412   0.460   0.890   2.235 -0.5496  0.8302  1.3446
 8650SOL    HW237413   0.427   1.004   2.157 -0.2533 -0.7399 -1.5660
 8651SOL     OW37414   0.255   2.577   6.807  0.3478  0.6374  0.5044
 8651SOL    HW137415   0.172   2.614   6.777  0.0065  1.4629  2.4913
 8651SOL    HW237416   0.226   2.487   6.824 -2.1626  1.2937 -0.3561
 8652SOL     OW37417   1.874   4.467  17.016  0.5386 -0.1618 -0.1094
 8652SOL    HW137418   1.901   4.512  17.095 -0.0671 -2.2679  1.3056
 8652SOL    HW237419   1.914   4.524  16.950 -1.3173  1.8347  0.5006
 8653SOL     OW37420   2.379   1.043   4.305 -0.1955  0.1339 -0.2187
 8653SOL    HW137421   2.307   1.065   4.247 -0.6858 -0.9024 -0.0163
 8653SOL    HW237422   2.437   1.115   4.281 -1.0474  1.2281  1.0128
 8654SOL     OW37423   0.130   3.523   5.881 -0.0176 -0.2536  0.1473
 8654SOL    HW137424   0.175   3.439   5.891  0.8759  0.2349  0.2094
 8654SOL    HW237425   0.180   3.579   5.939  0.3837  1.0408 -1.4254
 8655SOL     OW37426   1.418   0.861  11.054 -0.7259 -0.2448  0.5299
 8655SOL    HW137427   1.468   0.900  11.126 -1.2662  1.1783  0.1174
 8655SOL    HW237428   1.405   0.773  11.090 -0.4624 -0.4026  0.2398
 8656SOL     OW37429   0.787   0.808   2.049 -0.4513  0.4820 -0.1817
 8656SOL    HW137430   0.704   0.803   2.002 -0.7985  0.8708  0.3969
 8656SOL    HW237431   0.797   0.713   2.046  0.4145  0.5665  0.1917
 8657SOL     OW37432   3.393   2.518  14.511  0.4215  0.4354  0.4125
 8657SOL    HW137433   3.441   2.452  14.561 -1.0544 -1.5457 -0.8113
 8657SOL    HW237434   3.444   2.518  14.430 -0.8632 -2.8275 -0.3705
 8658SOL     OW37435   3.873   2.118  14.152  0.0120  0.3007 -0.2077
 8658SOL    HW137436   3.870   2.050  14.084 -1.5334  2.2788 -2.1086
 8658SOL    HW237437   3.787   2.160  14.147  0.0744  0.3634 -0.8077
 8659SOL     OW37438   2.402   4.170   7.662 -0.8242 -0.2927 -0.3695
 8659SOL    HW137439   2.335   4.235   7.683 -0.4979  0.0772 -0.4779
 8659SOL    HW237440   2.475   4.203   7.714 -2.9268  2.2822  0.9989
 8660SOL     OW37441   1.802   2.782   8.444 -0.6718 -0.2411 -0.2334
 8660SOL    HW137442   1.877   2.798   8.501  1.0451 -0.2419 -2.4550
 8660SOL    HW237443   1.821   2.832   8.364  0.8287 -2.8024 -1.4665
 8661SOL     OW37444   1.262   3.799   9.617  0.2839 -0.5656  0.1683
 8661SOL    HW137445   1.169   3.812   9.595  0.0448  0.6669  1.8579
 8661SOL    HW237446   1.292   3.888   9.603 -0.6753 -0.1682  0.5960
 8662SOL     OW37447   4.124   2.330  17.660 -0.0751 -0.3918 -0.0692
 8662SOL    HW137448   4.075   2.405   0.006 -1.6577 -0.9555 -1.1360
 8662SOL    HW237449   4.211   2.369  17.649 -0.2391 -1.4633 -5.5827
 8663SOL     OW37450   1.231   1.238   8.814 -0.1632 -0.3613 -0.0758
 8663SOL    HW137451   1.295   1.267   8.749  1.3300 -2.1085  0.6246
 8663SOL    HW237452   1.160   1.290   8.775  0.7992 -1.0880 -2.7885
 8664SOL     OW37453   3.496   1.276   8.568 -0.7224 -0.6461 -0.0506
 8664SOL    HW137454   3.517   1.269   8.662 -0.7063  0.1067  0.0071
 8664SOL    HW237455   3.578   1.306   8.530 -0.2442 -0.7584  0.8839
 8665SOL     OW37456   0.013   0.055   3.569  0.3002 -0.3905  0.0722
 8665SOL    HW137457   0.096   0.019   3.535  0.6700  0.1707  0.3859
 8665SOL    HW237458   4.678   0.045   3.492 -0.3833 -0.1323  0.5396
 8666SOL     OW37459   2.387   1.725  14.563 -0.3155 -0.3005 -0.4542
 8666SOL    HW137460   2.464   1.671  14.548 -1.4045 -2.2463  0.9843
 8666SOL    HW237461   2.403   1.806  14.514  0.1105  0.5682  1.1167
 8667SOL     OW37462   2.060   0.235   4.116 -0.0216 -0.0062 -0.1015
 8667SOL    HW137463   2.024   0.185   4.043 -0.0325 -0.1331 -0.0096
 8667SOL    HW237464   2.149   0.201   4.112 -0.4704 -1.2395  0.2387
 8668SOL     OW37465   2.247   3.879   8.380 -0.0869  0.3215 -0.1315
 8668SOL    HW137466   2.164   3.856   8.338 -0.2346 -1.0006  0.8699
 8668SOL    HW237467   2.210   3.949   8.434 -1.5411  0.0945 -0.8401
 8669SOL     OW37468   1.039   2.423   2.979 -0.7850 -0.5847 -0.4505
 8669SOL    HW137469   1.088   2.479   3.039  0.5042  0.3200 -2.3400
 8669SOL    HW237470   1.087   2.436   2.897 -1.2730  1.0779 -0.4686
 8670SOL     OW37471   4.391   2.035   5.114  0.1327 -0.2978  0.2550
 8670SOL    HW137472   4.461   2.042   5.179 -1.2517 -2.0478  1.9093
 8670SOL    HW237473   4.330   2.099   5.149  1.0961 -1.9266  4.8298
 8671SOL     OW37474   1.659   0.693   1.990 -0.0628 -0.7029 -0.7275
 8671SOL    HW137475   1.597   0.765   1.977  1.1907  0.4172 -0.4863
 8671SOL    HW237476   1.714   0.727   2.061  1.7283  0.2275 -2.5805
 8672SOL     OW37477   2.493   0.657   6.628  0.1148 -0.2975 -0.6635
 8672SOL    HW137478   2.401   0.629   6.633 -0.5886  2.4114  1.4470
 8672SOL    HW237479   2.474   0.751   6.630  2.0881  0.0861 -0.6768
 8673SOL     OW37480   3.307   2.353  12.611  0.2062 -0.5597 -0.3037
 8673SOL    HW137481   3.288   2.262  12.635 -1.0271 -0.3928 -0.6311
 8673SOL    HW237482   3.219   2.379  12.638  0.6011  0.1118  0.3453
 8674SOL     OW37483   4.322   3.973   5.873  0.0108  0.1047  0.1239
 8674SOL    HW137484   4.357   4.055   5.907 -0.5563  0.5072 -0.2596
 8674SOL    HW237485   4.255   4.005   5.813 -0.7415 -1.6110  0.0603
 8675SOL     OW37486   1.127   4.148   1.290 -0.1482 -0.1501 -0.1624
 8675SOL    HW137487   1.061   4.113   1.229  0.4142 -0.7427 -0.4266
 8675SOL    HW237488   1.199   4.162   1.228  0.0296  0.9815  0.3038
 8676SOL     OW37489   2.141   3.767   3.353  0.6007  0.5279 -0.4058
 8676SOL    HW137490   2.144   3.673   3.331  0.0033  0.5327 -0.5206
 8676SOL    HW237491   2.047   3.776   3.371  0.4960 -1.0681 -0.1213
 8677SOL     OW37492   4.464   2.991   5.582  0.0799 -0.2132  0.1518
 8677SOL    HW137493   4.475   3.010   5.675  1.7971  2.1969 -0.5372
 8677SOL    HW237494   4.441   2.898   5.591  1.2753 -0.5385 -0.1025
 8678SOL     OW37495   1.976   4.496  10.917  0.5454  0.1947  0.1734
 8678SOL    HW137496   1.883   4.508  10.897  0.0964 -1.7351  1.0464
 8678SOL    HW237497   1.972   4.515  11.011  2.7590  0.9038  0.1182
 8679SOL     OW37498   3.901   2.340   8.375  0.5016 -0.6923 -0.2137
 8679SOL    HW137499   3.899   2.420   8.323 -1.5587 -1.2081 -0.9287
 8679SOL    HW237500   3.842   2.354   8.450 -1.5143 -2.4415 -1.4477
 8680SOL     OW37501   1.451   2.739   2.729 -0.5051 -0.0391 -0.0929
 8680SOL    HW137502   1.449   2.662   2.671 -0.9755  0.1333 -0.3110
 8680SOL    HW237503   1.546   2.748   2.733 -0.3575 -2.3258  1.3317
 8681SOL     OW37504   1.492   1.511  17.195 -0.0521  0.1197 -0.4371
 8681SOL    HW137505   1.431   1.448  17.156 -1.0002 -0.1270  1.4762
 8681SOL    HW237506   1.467   1.510  17.287  3.9279 -0.3649  0.6488
 8682SOL     OW37507   3.169   1.681   2.398  0.2518  0.1487  0.5222
 8682SOL    HW137508   3.247   1.710   2.350  1.6827 -2.1811  1.4542
 8682SOL    HW237509   3.166   1.588   2.375  0.1297  0.5293 -1.0320
 8683SOL     OW37510   2.800   3.742   8.753 -0.5394 -0.2839  0.2072
 8683SOL    HW137511   2.825   3.714   8.664 -2.0657  0.5467 -0.4808
 8683SOL    HW237512   2.857   3.691   8.810  0.5110  0.5988 -0.0517
 8684SOL     OW37513   0.734   2.884   4.352  0.7007 -0.3804  0.3958
 8684SOL    HW137514   0.789   2.955   4.319 -0.5524  0.0167 -0.8436
 8684SOL    HW237515   0.795   2.810   4.355  2.2419  0.8516 -0.5026
 8685SOL     OW37516   3.011   2.410  12.704 -0.4864  0.3091 -0.0309
 8685SOL    HW137517   2.989   2.452  12.788 -0.6251  0.9355 -0.3763
 8685SOL    HW237518   2.929   2.403  12.655 -0.7563 -0.9203  0.6055
 8686SOL     OW37519   0.387   0.170   2.825 -0.1237  0.0610 -0.0412
 8686SOL    HW137520   0.333   0.091   2.832 -0.4634  0.6801  4.1388
 8686SOL    HW237521   0.451   0.149   2.757 -0.0321 -0.0000  0.0640
 8687SOL     OW37522   2.591   2.982   4.702  0.2140 -0.1245 -0.9606
 8687SOL    HW137523   2.551   3.058   4.744 -0.6308 -1.1036  0.0007
 8687SOL    HW237524   2.572   2.908   4.760  1.9007  2.1100  2.4535
 8688SOL     OW37525   3.815   1.356   1.830  0.2097 -0.4077 -0.2097
 8688SOL    HW137526   3.794   1.373   1.738  1.8894  3.4153  0.1153
 8688SOL    HW237527   3.908   1.379   1.831  0.1692 -0.2645  0.3399
 8689SOL     OW37528   3.142   2.663  13.018  0.0630 -0.4592  0.0113
 8689SOL    HW137529   3.210   2.730  13.012 -0.2609 -0.0438  0.8779
 8689SOL    HW237530   3.189   2.583  12.997 -0.5378 -0.1886 -2.3832
 8690SOL     OW37531   0.748   3.381   8.796  0.1675 -0.0599 -0.1727
 8690SOL    HW137532   0.672   3.383   8.853  0.7127 -0.6700  0.5699
 8690SOL    HW237533   0.822   3.389   8.857 -0.0080 -2.2479  0.3328
 8691SOL     OW37534   1.170   3.827   3.349 -0.1350 -0.1862  0.1319
 8691SOL    HW137535   1.143   3.917   3.327 -0.4344 -0.1573  0.6253
 8691SOL    HW237536   1.095   3.776   3.319 -0.3672  0.2104  0.0333
 8692SOL     OW37537   4.514   2.874   3.059  0.1466 -0.3862 -0.5251
 8692SOL    HW137538   4.554   2.809   3.116 -1.3820 -0.9378 -0.0712
 8692SOL    HW237539   4.593   2.920   3.032  0.4309 -1.0301 -0.7690
 8693SOL     OW37540   2.153   1.134   4.126 -0.4802  0.5234 -0.0189
 8693SOL    HW137541   2.068   1.097   4.104 -1.8660  2.2831  2.3303
 8693SOL    HW237542   2.158   1.214   4.074 -1.0062  0.7745  0.3079
 8694SOL     OW37543   0.277   2.061   8.337  0.0264  0.0831 -0.2490
 8694SOL    HW137544   0.232   2.041   8.419  0.8538 -1.8533 -0.2856
 8694SOL    HW237545   0.259   2.155   8.330  2.2803  0.3625 -2.0109
 8695SOL     OW37546   2.698   0.005   5.766 -0.3528 -0.2949 -0.0140
 8695SOL    HW137547   2.665   0.039   5.849  1.1893 -1.9943  1.3048
 8695SOL    HW237548   2.668   0.082   5.719  0.5293  1.1342  1.7493
 8696SOL     OW37549   3.187   2.306   7.746  0.0714  0.1033  0.0271
 8696SOL    HW137550   3.237   2.227   7.725 -0.5046 -0.2506 -0.0147
 8696SOL    HW237551   3.173   2.341   7.657  0.6624  2.2542  0.7701
 8697SOL     OW37552   0.272   0.430   4.593 -0.1734  0.5341  0.2226
 8697SOL    HW137553   0.308   0.425   4.505 -0.9557 -1.3330 -0.0116
 8697SOL    HW237554   0.264   0.522   4.616 -0.2067  0.6686 -0.3452
 8698SOL     OW37555   2.673   1.440  10.731  0.0020  0.4015  0.8639
 8698SOL    HW137556   2.720   1.484  10.660 -0.2796  2.1973  1.7984
 8698SOL    HW237557   2.735   1.462  10.800  1.2921 -0.0683 -0.1358
 8699SOL     OW37558   2.294   1.737   8.021  0.3164  0.5953  0.2070
 8699SOL    HW137559   2.330   1.808   8.074 -0.6360  0.7736  0.6014
 8699SOL    HW237560   2.347   1.743   7.941  1.5487  1.2297  1.0566
 8700SOL     OW37561   2.790   1.095   8.202 -0.3219  0.0288 -0.0340
 8700SOL    HW137562   2.883   1.106   8.223  0.3088 -2.8201 -1.2948
 8700SOL    HW237563   2.798   1.100   8.107  1.1006 -0.0440  0.0725
 8701SOL     OW37564   0.727   2.849   2.138  0.4191 -0.4416  0.1066
 8701SOL    HW137565   0.818   2.872   2.155  0.2842  0.4461 -0.4189
 8701SOL    HW237566   0.700   2.810   2.221 -0.5433 -0.3206 -0.1458
 8702SOL     OW37567   0.426   3.575   3.085  0.1696  0.6291  0.0033
 8702SOL    HW137568   0.430   3.512   3.013  0.4437 -1.0280  1.4547
 8702SOL    HW237569   0.506   3.543   3.128  0.1521 -2.4887 -2.2759
 8703SOL     OW37570   3.340   4.106  11.712  0.4581  0.2291  0.8140
 8703SOL    HW137571   3.309   4.034  11.766  0.9246 -0.3849  0.2596
 8703SOL    HW237572   3.421   4.080  11.669 -0.6189 -1.2444 -0.3434
 8704SOL     OW37573   1.364   3.912  12.296  0.0495 -0.3852  0.0742
 8704SOL    HW137574   1.434   3.897  12.360 -1.7070  1.1708  2.3585
 8704SOL    HW237575   1.327   3.824  12.285 -1.7788  0.2011  1.6389
 8705SOL     OW37576   0.503   2.605   4.584 -0.7958 -0.3171  0.4930
 8705SOL    HW137577   0.491   2.564   4.498  1.3221  1.6283 -0.7137
 8705SOL    HW237578   0.488   2.698   4.568  1.7774  0.2268  1.1340
 8706SOL     OW37579   0.245   4.288   3.038 -0.1317 -0.0848 -0.5014
 8706SOL    HW137580   0.182   4.224   3.071  1.2165 -1.0501  0.1661
 8706SOL    HW237581   0.315   4.234   3.001 -0.3455  0.2113 -1.3271
 8707SOL     OW37582   3.212   2.969   3.508 -0.1339  0.0612 -0.2474
 8707SOL    HW137583   3.305   2.948   3.515  0.6699  3.2589 -1.1856
 8707SOL    HW237584   3.187   2.961   3.416 -1.0414  0.2623 -0.0195
 8708SOL     OW37585   0.403   0.848   4.086  0.1874 -0.2639 -0.1315
 8708SOL    HW137586   0.375   0.775   4.141  2.1121  0.0766  1.3291
 8708SOL    HW237587   0.486   0.816   4.050  0.9747  0.9995  0.5638
 8709SOL     OW37588   0.533   4.378  12.448  0.2236  0.0896  0.5008
 8709SOL    HW137589   0.600   4.315  12.476 -0.8301 -1.0912  0.3319
 8709SOL    HW237590   0.486   4.390  12.530  1.2382 -0.1962  1.1322
 8710SOL     OW37591   2.956   3.443   4.969  0.7306 -0.0837 -0.1979
 8710SOL    HW137592   2.863   3.421   4.980  0.1392  1.2683 -2.5587
 8710SOL    HW237593   2.955   3.452   4.874 -0.9590  1.6769 -0.0297
 8711SOL     OW37594   0.575   0.208   8.917  0.3954 -0.2881 -0.1469
 8711SOL    HW137595   0.636   0.135   8.911  1.2794  0.5336 -1.1415
 8711SOL    HW237596   0.549   0.212   8.825 -0.2770  0.6802  0.0904
 8712SOL     OW37597   0.155   4.431  13.674 -0.6736 -0.2090 -0.1511
 8712SOL    HW137598   0.134   4.513  13.630  0.0657 -2.0409 -3.9580
 8712SOL    HW237599   0.099   4.441  13.751  0.6704 -1.2862  0.9705
 8713SOL     OW37600   0.965   1.973   7.182  0.6856 -0.3556  0.0520
 8713SOL    HW137601   0.923   1.896   7.222  1.1751 -1.2696 -1.1884
 8713SOL    HW237602   0.888   2.022   7.155  3.1025  2.2791 -2.0221
 8714SOL     OW37603   0.845   4.135  10.319 -0.0894  0.0749  0.5549
 8714SOL    HW137604   0.854   4.054  10.269  0.1313  2.0146 -2.5496
 8714SOL    HW237605   0.928   4.183  10.312 -0.0071  0.0069  1.0702
 8715SOL     OW37606   1.620   1.583   3.878 -0.1211  0.0824  0.1534
 8715SOL    HW137607   1.596   1.515   3.815  1.4467 -0.0855 -0.2497
 8715SOL    HW237608   1.540   1.636   3.882 -0.9864 -1.0616 -2.0076
 8716SOL     OW37609   2.631   0.353   5.292  0.3025 -0.6307  0.5715
 8716SOL    HW137610   2.647   0.313   5.378  0.8265  2.3653  1.8636
 8716SOL    HW237611   2.721   0.373   5.266  0.1823  0.1755  0.7705
 8717SOL     OW37612   3.928   4.689   8.079  0.3362  0.1253 -0.2674
 8717SOL    HW137613   3.954   4.684   8.171 -0.2376  0.5300 -0.0838
 8717SOL    HW237614   3.929   0.064   8.081 -0.2147  0.1526 -1.1973
 8718SOL     OW37615   1.390   1.051   8.384  0.3436  0.0959 -0.6884
 8718SOL    HW137616   1.387   0.995   8.462  1.5118  0.4836 -0.3673
 8718SOL    HW237617   1.470   1.096   8.411  1.3695 -0.4592 -2.7235
 8719SOL     OW37618   3.275   3.052   4.355 -0.3846  0.2614  0.3384
 8719SOL    HW137619   3.183   3.032   4.374 -0.5385  0.2785 -0.3854
 8719SOL    HW237620   3.303   2.961   4.348  0.2077  0.4599  0.1632
 8720SOL     OW37621   4.325   2.893   4.142 -0.2931  0.6442 -0.5314
 8720SOL    HW137622   4.296   2.837   4.070  0.9799 -0.2854 -0.3292
 8720SOL    HW237623   4.418   2.874   4.147 -0.5030 -0.3992 -0.3703
 8721SOL     OW37624   3.155   0.157   7.980 -0.4935 -0.1189 -0.2462
 8721SOL    HW137625   3.214   0.092   8.017  0.3936  1.1134  0.5011
 8721SOL    HW237626   3.110   0.109   7.910 -0.9175  0.1113 -0.1368
 8722SOL     OW37627   1.491   1.278  14.435  0.3818 -0.2709  0.0364
 8722SOL    HW137628   1.403   1.313  14.445  1.7317  2.5775  1.6936
 8722SOL    HW237629   1.473   1.187  14.408 -1.6522  0.2337 -0.3560
 8723SOL     OW37630   3.516   1.737  17.098  0.4978  0.0274  0.2272
 8723SOL    HW137631   3.562   1.734  17.014 -2.8208 -0.1378 -1.6100
 8723SOL    HW237632   3.569   1.800  17.147 -0.2835  0.7888  0.0853
 8724SOL     OW37633   3.205   3.661   4.565  0.5200 -0.9778  0.3534
 8724SOL    HW137634   3.148   3.636   4.493  0.7815  1.3104 -0.6619
 8724SOL    HW237635   3.231   3.577   4.601  3.5249 -0.1590  0.1091
 8725SOL     OW37636   0.272   2.727   5.149 -0.0538 -0.1800 -0.6726
 8725SOL    HW137637   0.289   2.638   5.118  3.4671  0.5196 -0.6801
 8725SOL    HW237638   0.354   2.776   5.142 -0.3926  1.0101  3.1940
 8726SOL     OW37639   2.882   3.879   0.448 -0.1200  0.3169  0.1903
 8726SOL    HW137640   2.954   3.920   0.496  1.3490 -1.0888 -0.8374
 8726SOL    HW237641   2.855   3.953   0.393 -1.3907  0.1291  0.5494
 8727SOL     OW37642   0.224   4.300   3.692 -0.5546  0.5485  0.4888
 8727SOL    HW137643   0.270   4.218   3.712 -1.5660 -0.1052  0.1513
 8727SOL    HW237644   0.134   4.280   3.717 -0.8739  0.5664 -0.6569
 8728SOL     OW37645   3.091   0.736   7.758 -0.0013 -1.1312  0.3599
 8728SOL    HW137646   3.170   0.790   7.764  0.0630 -1.1521 -0.3684
 8728SOL    HW237647   3.105   0.680   7.835  1.2999  0.6011  1.3655
 8729SOL     OW37648   3.415   0.306  10.761 -0.3506  0.0852 -0.0088
 8729SOL    HW137649   3.392   0.395  10.788 -0.0330  0.5551 -1.2751
 8729SOL    HW237650   3.461   0.320  10.678 -0.6542  0.3099 -0.1418
 8730SOL     OW37651   3.531   0.347   3.247 -0.3751 -0.0695  0.1781
 8730SOL    HW137652   3.503   0.419   3.190  2.8308  0.5521 -0.6172
 8730SOL    HW237653   3.624   0.363   3.229  0.0494 -1.7364  0.8996
 8731SOL     OW37654   0.455   2.594   2.491 -0.9452  0.2865 -0.4172
 8731SOL    HW137655   0.477   2.564   2.580 -0.5006  0.7156 -0.3792
 8731SOL    HW237656   0.489   2.523   2.436 -0.8105  0.6115 -0.7546
 8732SOL     OW37657   4.353   3.621   4.515  0.5535  0.0915  0.4499
 8732SOL    HW137658   4.384   3.536   4.545 -0.5508 -0.6959 -0.6451
 8732SOL    HW237659   4.285   3.597   4.452 -0.9379  0.1073  2.0516
 8733SOL     OW37660   4.114   1.782  14.550 -0.9596  0.1744 -0.6582
 8733SOL    HW137661   4.112   1.756  14.458  1.7167 -0.7431 -0.4632
 8733SOL    HW237662   4.184   1.847  14.555  0.5311 -1.4147 -0.8278
 8734SOL     OW37663   0.426   0.174   3.656 -0.1922  0.1599 -0.2894
 8734SOL    HW137664   0.468   0.240   3.601 -2.1972  0.8646 -0.9859
 8734SOL    HW237665   0.508   0.150   3.699 -0.5971  2.0120  1.5369
 8735SOL     OW37666   0.956   1.125   1.383  0.5054  0.8238  0.1213
 8735SOL    HW137667   0.944   1.159   1.472 -0.1827 -1.3994  0.8851
 8735SOL    HW237668   0.991   1.204   1.343 -3.5557  2.7769  0.4314
 8736SOL     OW37669   0.087   1.445   6.464  0.2529  0.1480 -0.1914
 8736SOL    HW137670   0.059   1.536   6.476  2.0467  0.6488  0.1724
 8736SOL    HW237671   0.014   1.384   6.474  1.4509 -1.1760  0.4915
 8737SOL     OW37672   2.372   4.566   1.690  0.6455  0.4086  0.6604
 8737SOL    HW137673   2.298   4.514   1.661  0.4014  0.2499  1.5726
 8737SOL    HW237674   2.354   4.572   1.784 -3.4381  0.2385 -0.1208
 8738SOL     OW37675   4.068   0.424   3.570  0.3904  0.4445  0.1403
 8738SOL    HW137676   3.997   0.446   3.510  0.8025  0.2658 -0.4050
 8738SOL    HW237677   4.085   0.332   3.550  0.2436  0.8316 -1.7183
 8739SOL     OW37678   3.351   1.210   5.943  0.1420  0.0280  0.2285
 8739SOL    HW137679   3.392   1.225   6.027 -1.4435  1.3866  0.7647
 8739SOL    HW237680   3.416   1.147   5.911  1.1132 -0.4843  3.2132
 8740SOL     OW37681   4.271   0.814  17.403  0.5570 -0.1848 -0.2136
 8740SOL    HW137682   4.297   0.726  17.431 -2.6707 -0.7488  0.9954
 8740SOL    HW237683   4.322   0.868  17.464  2.8271 -1.5247 -0.9100
 8741SOL     OW37684   0.520   0.156   7.248 -0.7936 -0.1793  0.2004
 8741SOL    HW137685   0.545   0.063   7.252  0.2908  0.1034 -0.1227
 8741SOL    HW237686   0.523   0.178   7.155 -1.4832 -0.0423  0.2136
 8742SOL     OW37687   1.643   0.837   8.218  0.3675  0.2288  0.1248
 8742SOL    HW137688   1.671   0.833   8.310 -1.3008 -2.7192  0.5196
 8742SOL    HW237689   1.570   0.776   8.214 -0.4033  1.3107 -2.1389
 8743SOL     OW37690   4.488   0.450   4.885  0.5942  0.0736  0.1662
 8743SOL    HW137691   4.534   0.507   4.824 -0.6027 -0.0122 -0.8139
 8743SOL    HW237692   4.403   0.494   4.893  0.0022 -1.3394  1.6111
 8744SOL     OW37693   3.872   3.171   2.024  0.4524 -0.6818  0.0996
 8744SOL    HW137694   3.820   3.208   2.095 -0.4001 -0.7581 -0.4853
 8744SOL    HW237695   3.958   3.213   2.031  0.0643  0.3140 -0.9921
 8745SOL     OW37696   0.144   3.337   1.878 -0.1113  0.3120 -0.3702
 8745SOL    HW137697   0.082   3.268   1.854  0.0963 -0.4555  1.2860
 8745SOL    HW237698   0.093   3.381   1.946  0.5261  1.2964 -0.5247
 8746SOL     OW37699   1.914   3.060  16.849  0.2377 -0.3158  0.1937
 8746SOL    HW137700   1.916   3.007  16.929  0.6736 -0.5613  0.0211
 8746SOL    HW237701   1.895   3.148  16.882  1.8637 -0.1958  0.8260
 8747SOL     OW37702   1.324   3.654  15.087  0.1231 -0.3426 -0.1430
 8747SOL    HW137703   1.290   3.601  15.159  0.5986 -0.8430 -0.2839
 8747SOL    HW237704   1.258   3.652  15.018  0.4483 -0.1247 -0.4575
 8748SOL     OW37705   3.844   2.860  15.745 -0.0576 -0.2767  0.3061
 8748SOL    HW137706   3.912   2.865  15.678  0.2147 -1.4584  0.4895
 8748SOL    HW237707   3.891   2.815  15.815  0.3093 -0.6108 -0.1569
 8749SOL     OW37708   1.744   1.371   5.528  0.2535 -0.0398  0.1463
 8749SOL    HW137709   1.689   1.411   5.595  1.1786 -0.7769  1.3448
 8749SOL    HW237710   1.748   1.431   5.453  0.2007  0.2112  0.3446
 8750SOL     OW37711   3.275   0.987   5.382 -0.4177 -0.1502 -0.0440
 8750SOL    HW137712   3.358   1.008   5.340 -0.4705 -1.2006 -0.6779
 8750SOL    HW237713   3.278   0.895   5.356 -2.9216  1.1248 -4.7398
 8751SOL     OW37714   2.175   3.774   7.993 -0.0295 -0.1180  0.3480
 8751SOL    HW137715   2.161   3.718   8.069 -0.6502 -0.5856 -0.1034
 8751SOL    HW237716   2.151   3.723   7.916 -0.2475  0.8769 -0.2427
 8752SOL     OW37717   3.867   4.697  12.659 -0.2275  0.3189  0.2179
 8752SOL    HW137718   3.824   0.062  12.666  2.8699  1.8319  0.4771
 8752SOL    HW237719   3.900   4.705  12.569 -0.9905  2.7953  0.1475
 8753SOL     OW37720   2.606   3.207   3.812 -0.1541 -0.4037 -0.4628
 8753SOL    HW137721   2.525   3.234   3.854 -0.5846 -1.1913 -0.7844
 8753SOL    HW237722   2.661   3.285   3.824 -0.8490  0.1685 -0.9219
 8754SOL     OW37723   1.157   0.236  10.709  0.5615  0.9506 -0.2512
 8754SOL    HW137724   1.104   0.306  10.747  0.6258  1.6958 -1.5322
 8754SOL    HW237725   1.174   0.279  10.625  2.1422  1.2737  0.2375
 8755SOL     OW37726   4.479   2.419   8.919 -0.0900  0.0820 -0.0149
 8755SOL    HW137727   4.502   2.484   8.851  0.3745  1.0715  1.0891
 8755SOL    HW237728   4.536   2.454   8.987 -1.5004  0.6738  0.8641
 8756SOL     OW37729   3.172   3.375  16.591 -0.1947  0.0179 -0.0361
 8756SOL    HW137730   3.176   3.286  16.556  1.9766 -0.9502  2.6256
 8756SOL    HW237731   3.085   3.409  16.573  0.4067  0.9989 -1.0637
 8757SOL     OW37732   0.092   2.881   9.311  0.1284  0.0697 -0.2367
 8757SOL    HW137733   0.134   2.809   9.359  0.5876 -0.2001 -1.0380
 8757SOL    HW237734   0.076   2.940   9.385  0.2666 -1.0925  0.7207
 8758SOL     OW37735   0.130   0.737   6.224  0.7142  0.3012  0.0898
 8758SOL    HW137736   0.110   0.696   6.140  2.1665  0.1664 -0.1860
 8758SOL    HW237737   0.181   0.661   6.252  0.0885 -0.1245  0.0819
 8759SOL     OW37738   3.523   4.493   3.169  0.3328  0.2697 -0.3922
 8759SOL    HW137739   3.430   4.482   3.152 -0.1113 -1.4306  3.0057
 8759SOL    HW237740   3.529   4.587   3.149 -0.8457  0.6989  1.2216
 8760SOL     OW37741   2.177   2.911   4.472  0.3338  0.2330 -0.3992
 8760SOL    HW137742   2.263   2.915   4.431 -0.4126 -1.4460 -2.0892
 8760SOL    HW237743   2.189   2.989   4.527 -0.8610  0.3642 -0.3269
 8761SOL     OW37744   4.093   3.077   7.949 -0.0786  0.3487  0.1141
 8761SOL    HW137745   4.129   3.155   7.905  0.6601 -0.3594 -0.5376
 8761SOL    HW237746   4.166   3.050   8.004  0.0603  1.2307  0.3602
 8762SOL     OW37747   1.516   2.467   3.749 -0.5448  0.7734 -0.4167
 8762SOL    HW137748   1.455   2.541   3.749  1.0816  2.1135  0.5783
 8762SOL    HW237749   1.569   2.486   3.827  0.6978  1.3034 -1.3752
 8763SOL     OW37750   3.147   1.949   3.023 -0.0976  0.4740  0.1737
 8763SOL    HW137751   3.203   1.908   3.089 -0.4580 -2.0400 -1.0809
 8763SOL    HW237752   3.081   1.990   3.079 -0.7290 -0.3041  0.0197
 8764SOL     OW37753   0.314   2.263   2.186  0.1240 -0.1417  0.2216
 8764SOL    HW137754   0.242   2.222   2.234  0.4067  0.3632  1.0697
 8764SOL    HW237755   0.319   2.196   2.117 -1.6633  0.1442 -0.1919
 8765SOL     OW37756   3.915   0.971   4.029 -0.6482  0.9131 -0.0875
 8765SOL    HW137757   3.870   0.940   3.950  0.0640 -0.9830  0.2388
 8765SOL    HW237758   3.997   1.006   3.993 -0.8774  1.1512 -0.3767
 8766SOL     OW37759   0.034   2.900   2.910  0.2975  0.8935  0.3483
 8766SOL    HW137760   0.090   2.850   2.968  0.6769  0.5530 -0.3098
 8766SOL    HW237761   0.051   2.992   2.929  0.2123  0.7178  1.2603
 8767SOL     OW37762   0.986   3.468   8.963  0.3889  0.0914  0.3127
 8767SOL    HW137763   1.043   3.431   8.895 -1.5828 -0.0483 -1.2755
 8767SOL    HW237764   1.049   3.509   9.023  0.6798 -0.1107  0.1480
 8768SOL     OW37765   1.151   2.001   0.862  0.0257 -0.0540  0.0300
 8768SOL    HW137766   1.216   2.048   0.915 -0.3605  0.7767 -0.2263
 8768SOL    HW237767   1.067   2.029   0.898  0.0072  0.8569 -0.7232
 8769SOL     OW37768   0.824   1.930   0.809  0.0095  0.0063 -0.0832
 8769SOL    HW137769   0.818   1.993   0.736 -1.6756 -0.8961 -0.7396
 8769SOL    HW237770   0.852   1.987   0.880  0.0691  0.6722 -0.6329
 8770SOL     OW37771   3.676   4.401   5.267  0.3905  0.2322 -0.0047
 8770SOL    HW137772   3.677   4.308   5.246  1.1755 -0.4105  2.8557
 8770SOL    HW237773   3.620   4.448   5.205 -1.4370  0.6647  1.9585
 8771SOL     OW37774   0.818   3.873   4.112 -0.2914 -0.1291  0.0849
 8771SOL    HW137775   0.908   3.845   4.093  0.0131  0.9673 -0.0983
 8771SOL    HW237776   0.762   3.819   4.056  0.4740  0.7405 -1.5277
 8772SOL     OW37777   0.305   4.485   5.575 -0.3430 -0.7374  0.4350
 8772SOL    HW137778   0.239   4.443   5.520  0.2002  0.5850 -1.2383
 8772SOL    HW237779   0.377   4.423   5.571 -0.8400 -1.1181 -3.0165
 8773SOL     OW37780   1.283   0.860   5.169 -0.9591 -0.0065  0.0031
 8773SOL    HW137781   1.235   0.827   5.093 -0.5560 -0.5058 -0.0352
 8773SOL    HW237782   1.288   0.954   5.151  0.7874  0.2083  1.6700
 8774SOL     OW37783   2.293   1.998  15.269  0.3535 -0.0686 -0.3861
 8774SOL    HW137784   2.281   2.013  15.362  1.7129 -0.1240 -0.1993
 8774SOL    HW237785   2.371   2.052  15.254  0.2273  0.3495  0.4460
 8775SOL     OW37786   0.997   4.507   8.683 -0.7479  0.7374 -0.2729
 8775SOL    HW137787   1.045   4.536   8.760 -0.6126  1.2031 -0.5317
 8775SOL    HW237788   0.911   4.488   8.721 -0.3333  0.0450  0.3177
 8776SOL     OW37789   3.338   0.323   6.084  0.6246  0.0199  0.0108
 8776SOL    HW137790   3.267   0.259   6.086  0.8440 -0.2328 -0.3939
 8776SOL    HW237791   3.410   0.287   6.136 -0.4156 -2.8308 -0.5407
 8777SOL     OW37792   1.014   3.424   9.883  0.0092 -0.2261  0.5968
 8777SOL    HW137793   1.095   3.410   9.833 -0.5486  0.5889 -0.5464
 8777SOL    HW237794   1.004   3.519   9.873  1.5945  0.0573  1.7739
 8778SOL     OW37795   1.354   1.678   2.613 -0.3597  0.2711 -0.3342
 8778SOL    HW137796   1.359   1.712   2.523 -0.8449  1.1075 -0.0420
 8778SOL    HW237797   1.402   1.747   2.657  0.4846 -0.6907  0.2354
 8779SOL     OW37798   0.011   2.652  13.679 -0.0316  0.4053  0.5067
 8779SOL    HW137799   0.001   2.746  13.691 -0.5703  0.5645 -1.2080
 8779SOL    HW237800   0.075   2.623  13.744  1.2678 -0.6513 -1.1964
 8780SOL     OW37801   3.227   1.088   4.112 -0.5201  0.3556 -0.1408
 8780SOL    HW137802   3.213   1.004   4.069  1.0468 -0.5512  1.1246
 8780SOL    HW237803   3.319   1.083   4.136 -0.6964  0.1093  0.4944
 8781SOL     OW37804   4.633   0.511   3.803 -0.0764 -0.3648  0.0841
 8781SOL    HW137805   4.668   0.430   3.766  0.6632 -0.3959  0.8503
 8781SOL    HW237806   4.637   0.559   3.720 -1.3924 -1.0346 -0.3602
 8782SOL     OW37807   2.685   4.569   0.734  0.3586  0.2368  0.2428
 8782SOL    HW137808   2.655   4.523   0.656  1.0293  1.9648 -1.0288
 8782SOL    HW237809   2.754   4.620   0.692  2.2270 -1.6718  1.0013
 8783SOL     OW37810   0.593   3.486   5.862 -0.0167  0.2889 -0.0236
 8783SOL    HW137811   0.587   3.531   5.947 -1.0839  0.1070 -0.0095
 8783SOL    HW237812   0.577   3.393   5.875 -0.4148  0.1231 -1.6806
 8784SOL     OW37813   0.161   0.453  10.123  0.1900 -0.0577  0.6029
 8784SOL    HW137814   0.189   0.370  10.161  0.2426 -1.4557 -2.5310
 8784SOL    HW237815   0.118   0.421  10.044  2.1605  0.5130 -0.7089
 8785SOL     OW37816   0.554   0.000   6.568 -1.0559 -0.3619 -0.1600
 8785SOL    HW137817   0.612   4.716   6.644  0.7074  1.1986 -1.4246
 8785SOL    HW237818   0.477   4.679   6.607 -0.6273  0.4398  1.5903
 8786SOL     OW37819   3.288   2.096   6.979  0.4841 -0.1488  0.0601
 8786SOL    HW137820   3.345   2.167   7.009 -1.6994  2.4498 -1.9072
 8786SOL    HW237821   3.254   2.135   6.898 -2.6832 -1.9565  0.5127
 8787SOL     OW37822   0.675   1.655   5.659 -0.5269  0.3848 -0.0362
 8787SOL    HW137823   0.716   1.569   5.671  2.6608  2.0173  0.8321
 8787SOL    HW237824   0.605   1.634   5.597 -1.0577  0.4335  0.5457
 8788SOL     OW37825   0.056   2.984   6.247 -0.1978 -0.3546 -0.2443
 8788SOL    HW137826   4.710   3.004   6.313  1.4717 -1.8314  1.8941
 8788SOL    HW237827   0.002   2.954   6.174  0.2339  0.7458 -1.0313
 8789SOL     OW37828   1.164   4.243   6.807  0.0654 -0.0550 -0.5478
 8789SOL    HW137829   1.220   4.289   6.870  1.3431 -0.5320 -1.3286
 8789SOL    HW237830   1.102   4.308   6.773  0.9234  1.2415  0.3793
 8790SOL     OW37831   2.553   1.180  10.701 -0.2288  0.2420 -0.0130
 8790SOL    HW137832   2.600   1.259  10.728 -1.6925  0.6949  1.1359
 8790SOL    HW237833   2.462   1.209  10.699 -1.2044 -2.7476  1.1615
 8791SOL     OW37834   1.313   2.216   8.714 -0.1107 -0.6404 -0.3806
 8791SOL    HW137835   1.392   2.172   8.745 -1.7950 -2.4973  1.2346
 8791SOL    HW237836   1.248   2.145   8.719 -0.5308 -0.4070 -2.6668
 8792SOL     OW37837   2.810   4.416   8.221  0.0702  0.2284 -0.5365
 8792SOL    HW137838   2.764   4.491   8.258 -0.5090  0.5642 -1.9407
 8792SOL    HW237839   2.859   4.387   8.298 -0.8150  1.9236  0.6489
 8793SOL     OW37840   0.736   4.549   3.339 -0.2314 -0.4885 -0.2085
 8793SOL    HW137841   0.801   4.586   3.398  0.1353  0.6831 -1.3490
 8793SOL    HW237842   0.732   4.454   3.350  0.9825 -1.0002 -4.0914
 8794SOL     OW37843   1.978   0.466  17.122  0.0108  0.1789  0.1523
 8794SOL    HW137844   1.896   0.436  17.162  0.4846 -0.1623  0.8683
 8794SOL    HW237845   2.015   0.522  17.190  1.7188 -2.7499  1.6727
 8795SOL     OW37846   1.003   3.003   4.982 -0.5127  0.0538  0.1263
 8795SOL    HW137847   1.051   3.063   4.925  2.0312 -1.5746  0.5797
 8795SOL    HW237848   1.064   2.998   5.055 -0.6173  3.7899  0.4850
 8796SOL     OW37849   1.307   4.211   4.439  0.8755 -0.1119 -0.1031
 8796SOL    HW137850   1.378   4.251   4.388  0.4260  0.7264 -0.0718
 8796SOL    HW237851   1.292   4.131   4.389 -1.6966  0.6114 -0.5331
 8797SOL     OW37852   2.015   4.539   4.907  0.0544 -0.1995  0.2247
 8797SOL    HW137853   1.936   4.557   4.957  1.4876  1.7187  1.7965
 8797SOL    HW237854   2.077   4.609   4.930 -0.3090  0.4531 -0.8051
 8798SOL     OW37855   2.217   3.127   7.100  0.3070 -0.4202  0.2943
 8798SOL    HW137856   2.285   3.069   7.067 -0.2270 -1.3978  0.9223
 8798SOL    HW237857   2.163   3.136   7.022  1.9297  0.4380 -0.7337
 8799SOL     OW37858   4.151   3.793   0.915  0.3165 -0.3908  0.4140
 8799SOL    HW137859   4.059   3.768   0.919  0.3485 -0.8883 -1.9264
 8799SOL    HW237860   4.175   3.744   0.837  1.0766  0.2309  0.2548
 8800SOL     OW37861   1.880   1.397   7.969  0.5266  0.6783  0.3807
 8800SOL    HW137862   1.816   1.406   7.899  0.2090 -1.4541  0.4045
 8800SOL    HW237863   1.954   1.432   7.919  0.0605  1.8870  0.5453
 8801SOL     OW37864   1.302   0.101   1.859  0.3740 -0.1789  0.5406
 8801SOL    HW137865   1.237   0.035   1.883  0.9642 -0.6806  0.7782
 8801SOL    HW237866   1.374   0.054   1.816  0.1537  0.4396 -0.5054
 8802SOL     OW37867   1.402   2.527   5.164 -0.1626  0.3701  0.0765
 8802SOL    HW137868   1.486   2.572   5.161 -0.0961  0.0690 -2.2013
 8802SOL    HW237869   1.338   2.582   5.209 -0.0409  0.8906 -0.3850
 8803SOL     OW37870   1.125   3.307  14.253  0.0922 -0.0263  0.5182
 8803SOL    HW137871   1.108   3.279  14.163 -0.7138 -0.7031  0.8768
 8803SOL    HW237872   1.219   3.321  14.255  0.2140 -0.6502 -0.6729
 8804SOL     OW37873   2.809   2.820   2.212  0.0629 -0.4031 -0.3720
 8804SOL    HW137874   2.782   2.794   2.124 -0.2578 -0.8593 -0.1443
 8804SOL    HW237875   2.743   2.887   2.227  2.1101  1.0234  2.3389
 8805SOL     OW37876   1.769   4.311   9.296 -0.0113 -0.2273 -0.6448
 8805SOL    HW137877   1.842   4.338   9.351 -0.1951 -1.3759  0.1526
 8805SOL    HW237878   1.804   4.233   9.253  1.0907 -0.0906  0.0099
 8806SOL     OW37879   2.386   4.688   7.963 -0.1684  0.2515 -0.0780
 8806SOL    HW137880   2.387   4.657   8.053  0.9065  1.8750  0.4658
 8806SOL    HW237881   2.399   4.602   7.924 -0.8222 -0.6314  1.7062
 8807SOL     OW37882   3.189   3.025   2.625 -0.3072  0.2412  0.3630
 8807SOL    HW137883   3.246   3.057   2.556 -0.3922  0.4897  0.4080
 8807SOL    HW237884   3.249   2.979   2.683 -0.1096  0.0697  0.0231
 8808SOL     OW37885   1.278   3.654  12.276  0.2949 -0.0908 -0.1076
 8808SOL    HW137886   1.335   3.618  12.344  0.6731  0.8714  0.0882
 8808SOL    HW237887   1.197   3.604  12.285  0.7656 -0.7687  0.3907
 8809SOL     OW37888   3.146   1.632   5.293 -0.3554 -0.1734  0.2978
 8809SOL    HW137889   3.080   1.619   5.361  0.8558 -1.1610  1.2984
 8809SOL    HW237890   3.224   1.590   5.330 -1.7559 -2.0154  1.1626
 8810SOL     OW37891   1.452   1.207   3.994 -0.4684 -0.3872  0.0910
 8810SOL    HW137892   1.410   1.163   4.068 -0.2660  0.4378  0.6940
 8810SOL    HW237893   1.403   1.289   4.005  0.0265 -0.2066  0.9601
 8811SOL     OW37894   0.386   1.891   5.232 -0.0632 -0.5213 -0.4439
 8811SOL    HW137895   0.314   1.952   5.217 -1.1642 -1.9470 -0.9424
 8811SOL    HW237896   0.343   1.823   5.285 -0.8367  0.7150  0.5167
 8812SOL     OW37897   1.338   3.687   4.665  0.0931 -0.4432  0.2740
 8812SOL    HW137898   1.305   3.739   4.738  1.4755  0.1288  0.4837
 8812SOL    HW237899   1.265   3.685   4.604  0.5721 -1.8649 -0.2545
 8813SOL     OW37900   4.269   3.654   7.460  0.1024 -0.5960  0.2095
 8813SOL    HW137901   4.175   3.647   7.441 -0.2296  1.1492  1.1412
 8813SOL    HW237902   4.304   3.570   7.431 -0.4000 -0.3601 -1.0738
 8814SOL     OW37903   0.202   2.461   2.652  0.0673  0.3617 -0.1366
 8814SOL    HW137904   0.266   2.394   2.629  0.9151  0.3921  2.0661
 8814SOL    HW237905   0.254   2.539   2.672 -0.5846  0.4309  1.2978
 8815SOL     OW37906   4.687   2.353  14.747  0.2756  0.2634 -0.2384
 8815SOL    HW137907   4.661   2.293  14.818  0.4737  0.5276  0.0550
 8815SOL    HW237908   0.033   2.415  14.777 -0.3161  1.0523 -0.5778
 8816SOL     OW37909   4.083   3.656   5.280  0.5136  0.5878  0.5967
 8816SOL    HW137910   4.111   3.739   5.240 -0.7352  0.6449 -0.1621
 8816SOL    HW237911   4.133   3.671   5.360 -0.3690 -1.4482  1.5251
 8817SOL     OW37912   2.366   3.256  11.451 -0.0112 -0.6922 -0.4182
 8817SOL    HW137913   2.431   3.202  11.496  1.2863  0.0096 -1.4339
 8817SOL    HW237914   2.389   3.259  11.358  2.7824 -0.1931  0.2726
 8818SOL     OW37915   3.942   2.696  14.857  0.1028  0.0010  0.4759
 8818SOL    HW137916   3.890   2.658  14.928  0.0791  1.5280  1.2757
 8818SOL    HW237917   3.944   2.626  14.792  0.4977 -1.3705  1.9435
 8819SOL     OW37918   0.953   1.683  11.602 -0.6343  0.2198  0.0098
 8819SOL    HW137919   0.936   1.721  11.688 -2.5745 -1.7743  0.4954
 8819SOL    HW237920   1.032   1.636  11.632 -0.2684  0.1025 -1.1415
 8820SOL     OW37921   4.174   1.569   5.918  0.2731  0.1546  0.0999
 8820SOL    HW137922   4.098   1.571   5.975  0.8392  0.9706  0.8306
 8820SOL    HW237923   4.136   1.556   5.831  0.8623 -0.6456 -0.0379
 8821SOL     OW37924   4.111   3.336   7.514 -0.6483  0.1746  0.4074
 8821SOL    HW137925   4.138   3.375   7.598  0.7048 -2.4990  1.2093
 8821SOL    HW237926   4.122   3.242   7.529 -1.9785 -0.2526 -1.2763
 8822SOL     OW37927   1.964   4.322   6.988 -0.6010 -0.1546 -0.5806
 8822SOL    HW137928   1.906   4.380   7.039  0.2894 -0.4453  0.7518
 8822SOL    HW237929   1.971   4.254   7.055 -1.9216  0.1378 -0.1444
 8823SOL     OW37930   4.019   2.586   9.415 -0.1391  0.8791  0.1459
 8823SOL    HW137931   4.040   2.587   9.322 -0.9917 -2.6130 -0.0761
 8823SOL    HW237932   3.978   2.672   9.424 -0.8152  0.5500  0.2084
 8824SOL     OW37933   3.604   3.514   9.777 -0.1855 -0.8287 -0.2905
 8824SOL    HW137934   3.590   3.560   9.859 -0.1734  0.7256 -1.1660
 8824SOL    HW237935   3.568   3.582   9.721  1.3658 -0.5565 -0.9587
 8825SOL     OW37936   4.528   3.413  14.803 -0.2144 -0.6972  0.4973
 8825SOL    HW137937   4.571   3.497  14.786 -2.3079  0.4103  0.6309
 8825SOL    HW237938   4.447   3.429  14.754  1.6893  1.0446 -2.0858
 8826SOL     OW37939   2.238   1.902   1.244 -0.1725 -0.4142 -0.2092
 8826SOL    HW137940   2.179   1.977   1.251  1.5005  1.0348 -1.7926
 8826SOL    HW237941   2.304   1.922   1.177  0.1458  2.3703  0.9446
 8827SOL     OW37942   2.091   0.451   6.296 -0.3982 -0.3466  0.2996
 8827SOL    HW137943   2.044   0.533   6.304  0.2350  0.1124 -0.6934
 8827SOL    HW237944   2.071   0.403   6.377 -0.9074  0.9760  0.9563
 8828SOL     OW37945   4.009   2.235  11.082  0.2665  0.4299 -0.1333
 8828SOL    HW137946   4.041   2.146  11.090 -1.8911 -0.2273  1.3418
 8828SOL    HW237947   4.088   2.289  11.075  0.8515 -0.6593 -1.6916
 8829SOL     OW37948   1.688   0.293   9.146  0.1298 -0.0701 -0.3937
 8829SOL    HW137949   1.767   0.244   9.125  0.5303 -0.1760  1.3711
 8829SOL    HW237950   1.721   0.380   9.123  4.1595 -0.9579  2.1245
 8830SOL     OW37951   4.489   1.215   3.847 -0.2599 -0.1084  0.3160
 8830SOL    HW137952   4.414   1.196   3.903 -2.0898  1.5149 -1.5748
 8830SOL    HW237953   4.522   1.125   3.844 -1.0880 -0.4076  0.1734
 8831SOL     OW37954   1.524   1.616   5.150 -0.0887 -0.1734 -0.2602
 8831SOL    HW137955   1.508   1.699   5.104 -3.8378 -0.1646  1.0304
 8831SOL    HW237956   1.431   1.595   5.160  0.1715 -1.3372 -0.1968
 8832SOL     OW37957   2.775   3.033   2.510  0.3537  0.1214  0.4037
 8832SOL    HW137958   2.833   3.047   2.435  0.6717 -1.9290  0.2746
 8832SOL    HW237959   2.690   3.060   2.476  0.8803  1.1372 -0.1062
 8833SOL     OW37960   2.937   2.152   5.788 -0.0005  0.3192 -0.2995
 8833SOL    HW137961   2.913   2.197   5.870  0.8143 -0.5826  0.4380
 8833SOL    HW237962   2.922   2.228   5.732  0.8022 -1.4635 -2.8853
 8834SOL     OW37963   3.148   1.125   8.042 -0.0505 -0.2190 -0.1813
 8834SOL    HW137964   3.087   1.136   8.115  0.0486 -1.3371  0.0719
 8834SOL    HW237965   3.229   1.138   8.090 -0.1480  1.0701 -0.3662
 8835SOL     OW37966   0.016   2.524   1.525 -0.0033  0.0504 -0.0792
 8835SOL    HW137967   0.062   2.532   1.609  1.3324 -1.8338 -0.6307
 8835SOL    HW237968   0.090   2.502   1.469 -1.1204  2.3810 -2.4411
 8836SOL     OW37969   2.092   1.367   3.018  0.0524  0.2065 -0.3660
 8836SOL    HW137970   2.023   1.300   3.021  1.5199 -1.3222 -0.5160
 8836SOL    HW237971   2.176   1.320   3.012  1.2242  2.6684 -3.1637
 8837SOL     OW37972   4.051   3.350  16.847 -0.2011  0.1964  0.1269
 8837SOL    HW137973   4.008   3.407  16.783  1.2701  1.9872  0.7042
 8837SOL    HW237974   4.028   3.382  16.935 -1.1689 -1.1743  0.3686
 8838SOL     OW37975   1.931   4.641   2.541  0.2290  0.7173 -0.2951
 8838SOL    HW137976   1.840   4.650   2.512 -0.5553 -0.6106  1.7869
 8838SOL    HW237977   1.963   0.010   2.540 -0.3144  0.8959 -1.8550
 8839SOL     OW37978   3.988   1.679   6.409  0.3497  0.1802 -0.8155
 8839SOL    HW137979   3.979   1.626   6.488 -0.6451  0.7417 -0.5478
 8839SOL    HW237980   3.930   1.755   6.419  0.5248  0.5998 -3.0144
 8840SOL     OW37981   2.311   3.795  16.994  0.2880  0.1124  0.1597
 8840SOL    HW137982   2.245   3.737  17.032 -1.4647  1.4716 -0.8229
 8840SOL    HW237983   2.278   3.842  16.918 -1.5646 -2.0150 -0.3593
 8841SOL     OW37984   0.260   1.821   3.445  0.4677 -0.6281 -0.1568
 8841SOL    HW137985   0.301   1.735   3.457  1.0045  0.1185  3.3759
 8841SOL    HW237986   0.220   1.796   3.362  0.4541  0.2311 -0.4080
 8842SOL     OW37987   4.622   0.434   2.300  0.3432  0.1559 -0.7168
 8842SOL    HW137988   4.656   0.344   2.307  0.2229  0.3551  2.5230
 8842SOL    HW237989   4.704   0.477   2.278  0.9411  0.1702  1.4820
 8843SOL     OW37990   4.429   3.717   2.809 -0.4708  0.4422  0.1292
 8843SOL    HW137991   4.516   3.751   2.828 -0.0859 -1.4004  1.6164
 8843SOL    HW237992   4.398   3.688   2.894  0.3766  2.1725  1.0181
 8844SOL     OW37993   4.239   4.031   0.333 -0.2775 -0.5932 -0.7062
 8844SOL    HW137994   4.294   4.071   0.265 -1.0949  1.3884 -0.1856
 8844SOL    HW237995   4.190   4.106   0.364  1.5241  0.1816  0.2968
 8845SOL     OW37996   3.256   3.331   3.744  0.3085 -0.3820  0.7501
 8845SOL    HW137997   3.198   3.259   3.719  0.7564 -0.0670 -1.2001
 8845SOL    HW237998   3.307   3.349   3.665 -0.7188 -0.8652 -0.0147
 8846SOL     OW37999   0.419   1.712   4.639 -0.5101  0.2805  0.2496
 8846SOL    HW138000   0.434   1.778   4.706 -3.2020  1.0125  0.1051
 8846SOL    HW238001   0.478   1.741   4.569 -0.7752 -1.8027 -0.8341
 8847SOL     OW38002   2.619   1.161   6.087  0.5735  0.4851  0.0408
 8847SOL    HW138003   2.613   1.252   6.115 -2.3657 -0.3064  1.9340
 8847SOL    HW238004   2.601   1.104   6.162 -1.3441  0.8264 -0.1815
 8848SOL     OW38005   1.489   4.698   5.194 -0.3337 -0.0608  0.4076
 8848SOL    HW138006   1.409   0.024   5.216  0.1187  1.2035 -0.6575
 8848SOL    HW238007   1.560   0.013   5.247 -2.0756 -0.8011  3.2333
 8849SOL     OW38008   3.015   3.881   2.821  0.0260 -0.1682 -0.0636
 8849SOL    HW138009   2.992   3.958   2.768  0.7578  0.7279  0.9085
 8849SOL    HW238010   2.938   3.827   2.803  1.4807 -1.9362 -0.9067
 8850SOL     OW38011   2.262   1.129   4.843  0.5372 -0.0336 -0.1369
 8850SOL    HW138012   2.354   1.113   4.865 -0.4623 -3.0367  1.9296
 8850SOL    HW238013   2.242   1.044   4.803  2.7230 -0.4338 -0.3924
 8851SOL     OW38014   2.821   4.138  16.707 -0.6005  0.0808 -0.2038
 8851SOL    HW138015   2.759   4.126  16.635  1.8395  0.3029 -2.2977
 8851SOL    HW238016   2.770   4.193  16.766  0.7045  0.5486  0.4791
 8852SOL     OW38017   2.673   2.895   3.255 -0.0044  0.0598 -0.1321
 8852SOL    HW138018   2.719   2.906   3.172 -2.5341  0.9510 -1.4366
 8852SOL    HW238019   2.585   2.920   3.224  0.2170  2.7574  1.4023
 8853SOL     OW38020   0.000   4.426   4.372  0.4187  0.0102  0.4014
 8853SOL    HW138021   0.079   4.372   4.369 -0.5945 -1.3902 -0.7157
 8853SOL    HW238022   4.718   4.477   4.453  2.7860  0.6887  0.0804
 8854SOL     OW38023   1.341   2.050   3.850 -0.0904  0.3290 -0.0794
 8854SOL    HW138024   1.387   1.966   3.851 -0.3872  0.2265  2.9174
 8854SOL    HW238025   1.260   2.015   3.886  0.6343 -0.1981  1.0244
 8855SOL     OW38026   1.390   0.255  11.857 -0.4462  0.7188  0.6377
 8855SOL    HW138027   1.365   0.252  11.764  0.5378 -1.4757  0.4405
 8855SOL    HW238028   1.407   0.161  11.866  0.0542  0.5891 -1.6265
 8856SOL     OW38029   2.349   3.953   9.629  0.4501 -0.6239 -0.0116
 8856SOL    HW138030   2.385   3.877   9.581  2.8298  0.3181  0.3026
 8856SOL    HW238031   2.371   3.940   9.721  0.0345 -2.0673 -0.1063
 8857SOL     OW38032   1.254   0.730   5.417  0.4563 -0.4855  0.3561
 8857SOL    HW138033   1.200   0.799   5.456 -1.4405 -1.2326 -0.9557
 8857SOL    HW238034   1.253   0.743   5.323 -0.2240 -0.8183  0.3186
 8858SOL     OW38035   3.696   2.574   5.686 -0.2889  0.0857  0.7903
 8858SOL    HW138036   3.773   2.518   5.687  0.5851  1.3038  1.8132
 8858SOL    HW238037   3.666   2.579   5.777 -0.9024  0.1191  0.5900
 8859SOL     OW38038   0.820   1.524   2.645 -0.4588  0.0728  0.1135
 8859SOL    HW138039   0.878   1.451   2.624 -3.9765 -2.6818  0.0164
 8859SOL    HW238040   0.820   1.570   2.561 -1.1775 -2.2755 -1.1719
 8860SOL     OW38041   3.818   3.663   5.248  0.1153  0.4323  0.0056
 8860SOL    HW138042   3.910   3.638   5.242 -0.1327 -0.8438  1.5448
 8860SOL    HW238043   3.795   3.634   5.336 -2.3172 -0.1969 -0.8301
 8861SOL     OW38044   1.353   4.466   8.744 -0.0152 -0.0262 -0.0834
 8861SOL    HW138045   1.336   4.405   8.815 -1.5586  0.3750 -0.1008
 8861SOL    HW238046   1.281   4.528   8.758 -0.8482 -0.8313 -0.7404
 8862SOL     OW38047   0.582   2.255   0.544 -0.0467 -0.2916 -0.0436
 8862SOL    HW138048   0.596   2.312   0.468 -1.0483 -1.4345 -1.0930
 8862SOL    HW238049   0.488   2.244   0.557  0.1655 -1.0364  0.8440
 8863SOL     OW38050   3.236   0.486   2.624  0.1298 -0.1947 -0.7274
 8863SOL    HW138051   3.266   0.490   2.534 -0.6412  2.4607 -0.8790
 8863SOL    HW238052   3.146   0.458   2.608 -0.0405 -0.1594  0.1752
 8864SOL     OW38053   0.385   2.346   5.660 -0.5192 -0.2749  0.0314
 8864SOL    HW138054   0.407   2.397   5.582 -0.1336 -1.5888 -0.7186
 8864SOL    HW238055   0.477   2.325   5.677 -0.7923 -0.0559  1.7719
 8865SOL     OW38056   2.822   3.132   5.206 -0.7155 -0.2772 -0.3254
 8865SOL    HW138057   2.883   3.206   5.198 -0.4486 -0.3354  1.2796
 8865SOL    HW238058   2.830   3.120   5.300 -2.5893  1.0869  0.0150
 8866SOL     OW38059   3.097   1.480  12.115  0.0963  0.3174  1.0764
 8866SOL    HW138060   3.004   1.483  12.138 -0.6828  1.8691 -2.3873
 8866SOL    HW238061   3.119   1.387  12.111  2.4267  0.9426 -0.4803
 8867SOL     OW38062   3.672   2.259   5.867 -0.1532  0.4254 -0.3913
 8867SOL    HW138063   3.746   2.313   5.839  0.0844 -1.3309 -3.1412
 8867SOL    HW238064   3.705   2.181   5.823 -0.1802  0.2639 -0.1202
 8868SOL     OW38065   2.221   3.854   2.038 -0.6813 -0.1296 -0.1217
 8868SOL    HW138066   2.266   3.811   1.965  1.2832 -0.8963  1.5279
 8868SOL    HW238067   2.273   3.824   2.112  1.3005  1.1931 -0.9794
 8869SOL     OW38068   4.694   0.636   5.993  0.2832  0.3071 -0.2146
 8869SOL    HW138069   4.627   0.567   5.999 -1.0607  1.7701  1.5419
 8869SOL    HW238070   4.643   0.711   5.962  0.0432 -0.4076 -1.5787
 8870SOL     OW38071   4.485   0.380   6.530  0.5092  0.2524 -0.1020
 8870SOL    HW138072   4.496   0.320   6.604 -1.1483 -0.2118 -0.2134
 8870SOL    HW238073   4.390   0.392   6.533  0.6607  1.0644  1.4812
 8871SOL     OW38074   4.286   0.547   9.990  0.2783  0.2180  0.2601
 8871SOL    HW138075   4.251   0.547  10.079  0.5378 -1.4334  0.3503
 8871SOL    HW238076   4.312   0.456   9.982 -2.1463 -0.6431  2.2121
 8872SOL     OW38077   3.676   1.238   2.441  0.6891 -0.3080  0.4686
 8872SOL    HW138078   3.714   1.186   2.370  1.0327  1.6564 -0.8109
 8872SOL    HW238079   3.711   1.326   2.423  1.9635 -0.4203  2.3611
 8873SOL     OW38080   2.395   3.749   1.854 -0.4708  0.3074 -0.6289
 8873SOL    HW138081   2.486   3.757   1.884 -0.1611 -1.1129 -1.1985
 8873SOL    HW238082   2.413   3.691   1.780 -0.1555  0.6233 -0.8022
 8874SOL     OW38083   4.304   4.396   0.942 -0.1356  0.2910 -0.0995
 8874SOL    HW138084   4.234   4.423   1.002 -0.4229 -0.8182  0.0635
 8874SOL    HW238085   4.329   4.484   0.915  0.9365 -0.1973 -0.6829
 8875SOL     OW38086   2.180   2.040  16.845  0.5712 -0.1888  0.5191
 8875SOL    HW138087   2.185   2.134  16.858  0.7016  0.0438 -1.2256
 8875SOL    HW238088   2.270   2.011  16.863  0.4671 -0.9039 -0.0877
 8876SOL     OW38089   0.339   3.006   3.567  0.2829  0.3062 -0.6558
 8876SOL    HW138090   0.245   3.019   3.563 -0.4555 -4.7932  0.1158
 8876SOL    HW238091   0.360   3.093   3.603 -1.4254  1.0546 -1.4798
 8877SOL     OW38092   2.530   1.520   4.912 -0.6822  0.1009 -0.8989
 8877SOL    HW138093   2.622   1.536   4.936 -0.5818 -0.7061 -0.7375
 8877SOL    HW238094   2.522   1.425   4.913  2.8291 -0.1790  0.4444
 8878SOL     OW38095   0.921   1.693   8.053 -0.4573  0.1231 -0.5661
 8878SOL    HW138096   0.956   1.739   7.977 -0.9184 -0.0917 -0.9123
 8878SOL    HW238097   0.958   1.743   8.126 -1.2379 -0.8767  0.5168
 8879SOL     OW38098   0.057   3.829   5.148 -0.8008 -0.3033  0.2854
 8879SOL    HW138099   4.709   3.787   5.200 -1.5409 -1.0741 -1.3154
 8879SOL    HW238100   0.009   3.898   5.103 -0.4265  0.6030  1.2853
 8880SOL     OW38101   0.286   1.667   1.951 -0.1662 -0.0557  0.5231
 8880SOL    HW138102   0.374   1.693   1.922 -0.7562  2.7114  1.2331
 8880SOL    HW238103   0.271   1.715   2.033 -0.1661 -0.9290  1.0397
 8881SOL     OW38104   0.350   2.571   1.668 -0.9340  0.1332  0.5794
 8881SOL    HW138105   0.361   2.523   1.749  0.8810  0.6933  0.6781
 8881SOL    HW238106   0.392   2.508   1.610  0.3992  1.1022  0.4828
 8882SOL     OW38107   2.451   2.206  14.229 -0.1449 -0.3446  0.1524
 8882SOL    HW138108   2.387   2.169  14.167  2.2236 -0.7211 -2.0851
 8882SOL    HW238109   2.468   2.137  14.293 -0.4995 -2.1295 -1.6872
 8883SOL     OW38110   0.252   3.784   3.812  0.2090  0.2439 -0.2956
 8883SOL    HW138111   0.169   3.771   3.765 -0.9955 -0.4815  2.0250
 8883SOL    HW238112   0.287   3.862   3.770  2.6060 -0.8214 -0.2695
 8884SOL     OW38113   3.157   2.809   3.719  0.1663  0.2525  0.1361
 8884SOL    HW138114   3.165   2.865   3.642  0.3143  1.4491  1.0190
 8884SOL    HW238115   3.229   2.749   3.699 -0.0874  0.4115 -1.2198
 8885SOL     OW38116   4.226   3.749   6.935  0.0585  0.6731  0.1726
 8885SOL    HW138117   4.298   3.798   6.894 -0.3758 -1.0499 -2.6981
 8885SOL    HW238118   4.247   3.757   7.028 -0.5347  0.6197  0.3094
 8886SOL     OW38119   2.610   3.234   1.929 -0.1582  0.2642  0.3031
 8886SOL    HW138120   2.626   3.257   2.021  2.1084  1.8557 -0.4878
 8886SOL    HW238121   2.609   3.314   1.877 -1.6179  0.3679  0.4857
 8887SOL     OW38122   0.102   0.872   2.171  0.0595  0.3700 -0.2378
 8887SOL    HW138123   0.083   0.882   2.264 -0.2583  1.0985 -0.3801
 8887SOL    HW238124   0.192   0.902   2.157 -0.9970  3.2115 -0.9732
 8888SOL     OW38125   2.240   3.864  16.744  0.5718 -0.2464 -0.3792
 8888SOL    HW138126   2.217   3.932  16.680 -0.8542 -0.4910 -0.1248
 8888SOL    HW238127   2.159   3.813  16.744  0.8168 -0.6402 -0.8125
 8889SOL     OW38128   3.207   4.174  10.452 -0.2115 -0.7262 -0.7851
 8889SOL    HW138129   3.274   4.241  10.443  0.4845 -1.0625  1.8169
 8889SOL    HW238130   3.227   4.119  10.376 -0.6213 -3.6944  1.2375
 8890SOL     OW38131   4.143   1.583  12.997  0.4100  0.1759 -0.2666
 8890SOL    HW138132   4.176   1.641  12.928 -0.5489  2.2887  1.0479
 8890SOL    HW238133   4.121   1.503  12.949 -0.6395  0.8560 -0.9269
 8891SOL     OW38134   1.009   1.358   8.647 -0.0680  0.5873  0.4589
 8891SOL    HW138135   1.069   1.354   8.573 -2.9050 -2.8010 -1.6165
 8891SOL    HW238136   0.924   1.373   8.607  0.0040 -0.5271 -0.0998
 8892SOL     OW38137   4.594   2.356  13.135  0.3033 -0.0614 -0.0687
 8892SOL    HW138138   4.676   2.378  13.091  0.1552 -0.9584 -0.7942
 8892SOL    HW238139   4.539   2.412  13.079 -0.9901  1.4815  2.7232
 8893SOL     OW38140   4.185   1.367   5.008 -0.0149 -0.4428  0.3215
 8893SOL    HW138141   4.119   1.384   4.940  0.4329  0.8902  0.2197
 8893SOL    HW238142   4.128   1.325   5.073  0.9826 -1.6749  0.3971
 8894SOL     OW38143   2.869   0.393   5.014  0.0697  0.5619  0.1498
 8894SOL    HW138144   2.943   0.388   4.954 -0.4686  2.3668 -0.6804
 8894SOL    HW238145   2.899   0.368   5.101  0.5237 -2.4326 -0.8906
 8895SOL     OW38146   2.516   1.659  10.525  0.0791  0.6312 -0.1174
 8895SOL    HW138147   2.515   1.754  10.508  2.6459  0.5745 -0.6475
 8895SOL    HW238148   2.473   1.624  10.447  0.7054 -0.0121 -0.1727
 8896SOL     OW38149   1.379   2.290  15.352  0.0053  0.3720  0.0817
 8896SOL    HW138150   1.358   2.196  15.359 -1.9257  0.7873 -0.1864
 8896SOL    HW238151   1.398   2.304  15.445  1.8331 -0.5785 -0.1445
 8897SOL     OW38152   3.940   0.546   4.160  0.6741 -0.6323  0.3048
 8897SOL    HW138153   3.915   0.454   4.152 -2.5629  0.3627 -0.6523
 8897SOL    HW238154   3.859   0.596   4.152  1.2061  0.2824  0.7560
 8898SOL     OW38155   0.520   1.070   8.060 -0.2410  0.1073  0.1751
 8898SOL    HW138156   0.471   1.150   8.044  2.0593  1.4712  0.0100
 8898SOL    HW238157   0.443   1.013   8.064  1.0159 -1.4863  2.0622
 8899SOL     OW38158   2.232   1.208  12.888  0.2551 -0.6629 -0.6817
 8899SOL    HW138159   2.328   1.207  12.891  0.2108 -2.3481  0.3918
 8899SOL    HW238160   2.207   1.299  12.902  1.5788 -0.7603  2.3972
 8900SOL     OW38161   3.607   4.612   3.507 -0.1508  0.4726  0.8740
 8900SOL    HW138162   3.548   4.621   3.433  1.9410  1.2763 -0.6949
 8900SOL    HW238163   3.648   4.699   3.509  0.4470  0.2567 -2.4382
 8901SOL     OW38164   3.528   1.595   4.319 -0.0601  0.4383  0.4945
 8901SOL    HW138165   3.444   1.621   4.356  0.6533  3.3477  0.0722
 8901SOL    HW238166   3.551   1.676   4.274  2.3524  0.0076  0.9597
 8902SOL     OW38167   3.626   4.519   4.855  0.3048  0.0632  0.1639
 8902SOL    HW138168   3.604   4.606   4.821  2.3557  0.7901  0.7087
 8902SOL    HW238169   3.596   4.517   4.946 -0.1928 -1.1452 -0.0256
 8903SOL     OW38170   3.624   3.854   2.298 -0.5268  0.6842 -0.5779
 8903SOL    HW138171   3.539   3.869   2.338 -0.5887 -0.3624 -0.2968
 8903SOL    HW238172   3.650   3.941   2.267  0.4159  0.5453 -0.2026
 8904SOL     OW38173   1.152   1.696   1.394  0.1223  0.1504  0.2241
 8904SOL    HW138174   1.072   1.709   1.444 -0.5184  1.6104 -1.1844
 8904SOL    HW238175   1.120   1.717   1.306 -2.3476  0.2894  1.1793
 8905SOL     OW38176   0.722   2.077   7.072 -0.2749 -0.4537  0.8318
 8905SOL    HW138177   0.630   2.050   7.064 -0.2422 -0.2099 -0.3366
 8905SOL    HW238178   0.715   2.157   7.123  1.1855  0.2790 -0.1435
 8906SOL     OW38179   2.084   1.776  16.904  0.3074  0.3569  0.5254
 8906SOL    HW138180   1.995   1.788  16.870  0.5771 -0.0859 -0.3441
 8906SOL    HW238181   2.112   1.865  16.885 -3.0822  1.7132  1.8232
 8907SOL     OW38182   4.518   2.644  12.026  0.3886  0.0835 -0.8502
 8907SOL    HW138183   4.513   2.548  12.030 -0.0355  0.2489  2.3676
 8907SOL    HW238184   4.429   2.663  11.999 -1.3826 -1.0203  4.3170
 8908SOL     OW38185   1.489   1.927   8.515 -0.4711  0.6366 -0.0800
 8908SOL    HW138186   1.439   1.850   8.544  0.3692 -0.5181 -1.7167
 8908SOL    HW238187   1.553   1.945   8.584 -1.5208  0.6090  0.9062
 8909SOL     OW38188   1.743   4.453  12.406  1.1188  0.3583 -0.3269
 8909SOL    HW138189   1.783   4.385  12.460 -1.6944 -3.1486 -2.6338
 8909SOL    HW238190   1.817   4.510  12.387 -0.2057  1.0401 -3.4770
 8910SOL     OW38191   0.686   0.823  14.637 -0.7053  0.0805 -0.5423
 8910SOL    HW138192   0.710   0.884  14.567  1.0201  0.8077  0.6644
 8910SOL    HW238193   0.762   0.847  14.690  0.1977 -1.1276 -1.3013
 8911SOL     OW38194   0.527   2.367   3.754 -0.5176  0.3196 -0.6117
 8911SOL    HW138195   0.466   2.437   3.775  1.7597  3.3372 -4.1006
 8911SOL    HW238196   0.521   2.374   3.658  0.8813  0.0794 -0.7169
 8912SOL     OW38197   4.026   1.198   5.617  0.5749  0.1886 -0.4830
 8912SOL    HW138198   4.111   1.235   5.639  0.2323  0.5475  0.2262
 8912SOL    HW238199   3.994   1.187   5.706 -0.3212  0.3453 -0.7895
 8913SOL     OW38200   3.327   2.549   6.751 -0.4454 -0.1451  0.9097
 8913SOL    HW138201   3.272   2.483   6.709  0.0126 -0.6656  1.1379
 8913SOL    HW238202   3.409   2.536   6.704 -0.5862 -0.2547  0.6947
 8914SOL     OW38203   1.619   1.132  17.385  0.4372 -0.5840  0.4012
 8914SOL    HW138204   1.685   1.063  17.374 -2.1276 -3.1721  1.3921
 8914SOL    HW238205   1.539   1.088  17.356 -0.4961  0.0290  2.0769
 8915SOL     OW38206   1.941   0.475   4.128  0.0378  0.5861  0.1249
 8915SOL    HW138207   1.952   0.480   4.033 -1.8000  1.6545 -0.0481
 8915SOL    HW238208   1.955   0.382   4.146 -0.7325  0.2214 -1.1777
 8916SOL     OW38209   2.884   0.499   3.890  0.4526  0.1206  0.2999
 8916SOL    HW138210   2.819   0.507   3.959 -0.4177 -1.0953 -0.3701
 8916SOL    HW238211   2.957   0.543   3.933  1.8828  0.1348 -2.1330
 8917SOL     OW38212   4.415   1.776  12.943 -0.2337 -0.6198  0.4374
 8917SOL    HW138213   4.389   1.764  13.034 -0.3686 -3.0587  0.0581
 8917SOL    HW238214   4.451   1.865  12.942  1.0693 -1.1686 -2.0022
 8918SOL     OW38215   0.216   3.654   4.911 -0.1709  0.4094 -0.4400
 8918SOL    HW138216   0.152   3.612   4.853  0.3790  0.2281 -0.9197
 8918SOL    HW238217   0.154   3.710   4.957 -0.1397 -0.9365  1.2363
 8919SOL     OW38218   4.108   0.155   8.738  0.0928 -0.1776  0.8203
 8919SOL    HW138219   4.080   0.152   8.829  0.5660 -0.1194  0.9640
 8919SOL    HW238220   4.024   0.169   8.694  0.7714  0.4753 -0.2847
 8920SOL     OW38221   1.701   3.423  10.357 -0.1611 -0.0394  0.2833
 8920SOL    HW138222   1.692   3.410  10.451  0.8703 -2.1097  0.0938
 8920SOL    HW238223   1.724   3.516  10.347 -0.7177 -0.0575 -1.1170
 8921SOL     OW38224   3.371   2.670   3.669  0.8886 -0.2286  0.1094
 8921SOL    HW138225   3.393   2.585   3.629 -0.0239 -0.8351  0.8923
 8921SOL    HW238226   3.458   2.709   3.677  1.0934 -0.4914 -0.8017
 8922SOL     OW38227   3.284   1.098   4.919  0.3730 -0.4272  0.4045
 8922SOL    HW138228   3.227   1.047   4.976 -0.8643 -0.6289 -0.9921
 8922SOL    HW238229   3.251   1.087   4.829  1.4225 -1.4966  0.1480
 8923SOL     OW38230   3.405   1.323  16.206 -0.4026  0.2230  0.4871
 8923SOL    HW138231   3.311   1.312  16.214 -0.5565  0.1612 -1.6002
 8923SOL    HW238232   3.430   1.272  16.129 -0.5126 -0.3161  0.8120
 8924SOL     OW38233   2.315   2.388   7.092  0.1433 -0.6269 -0.5792
 8924SOL    HW138234   2.362   2.450   7.148 -1.4020 -1.2873  1.4522
 8924SOL    HW238235   2.253   2.444   7.045 -0.5814  2.2923  3.8766
 8925SOL     OW38236   4.120   1.127  14.637  0.0914 -0.4050  0.1221
 8925SOL    HW138237   4.106   1.067  14.711  2.1761 -1.9717 -0.7801
 8925SOL    HW238238   4.203   1.163  14.665  0.5851 -1.7271  0.3809
 8926SOL     OW38239   1.268   2.881   3.317 -0.1108  0.4104  0.0092
 8926SOL    HW138240   1.207   2.893   3.244 -0.2262 -0.5216 -0.0465
 8926SOL    HW238241   1.317   2.963   3.322  0.0496  0.3564 -0.7510
 8927SOL     OW38242   4.597   2.643   7.004 -0.1896 -0.0197  0.0098
 8927SOL    HW138243   4.505   2.657   7.026 -0.7984 -1.9944 -1.2513
 8927SOL    HW238244   4.618   2.584   7.076  2.5019  0.6542 -0.2183
 8928SOL     OW38245   1.815   4.575   6.146  0.3513 -0.6233 -1.0893
 8928SOL    HW138246   1.720   4.587   6.157  0.7951  2.1235 -0.2370
 8928SOL    HW238247   1.804   4.572   6.051  1.5033 -2.2460 -1.1636
 8929SOL     OW38248   0.962   2.963   7.006  0.3287  0.2622  0.0929
 8929SOL    HW138249   0.891   2.900   6.993  0.5836  0.4387 -2.1173
 8929SOL    HW238250   1.016   2.903   7.057  0.3840 -0.4007 -0.7308
 8930SOL     OW38251   3.869   1.974  10.456 -0.3028  0.1456 -0.1099
 8930SOL    HW138252   3.775   1.991  10.449 -0.3596  1.0119  2.5963
 8930SOL    HW238253   3.877   1.888  10.415 -1.2947 -0.9660  1.9948
 8931SOL     OW38254   4.636   2.107  10.648  0.1024  0.4698  0.5266
 8931SOL    HW138255   4.607   2.113  10.739  0.7863 -2.3539  0.9283
 8931SOL    HW238256   4.705   2.040  10.652 -0.0353  0.2613 -0.4204
 8932SOL     OW38257   3.394   1.834  14.362  0.9092 -0.0376  0.2450
 8932SOL    HW138258   3.347   1.831  14.279 -1.7368  2.6819  1.6476
 8932SOL    HW238259   3.464   1.892  14.330  2.8392 -1.5180  1.7945
 8933SOL     OW38260   1.700   4.647   7.961  0.2998  0.3410  0.3015
 8933SOL    HW138261   1.614   4.682   7.982  0.2287 -0.8212  1.9301
 8933SOL    HW238262   1.700   4.580   8.029  2.0164 -0.1795 -0.2197
 8934SOL     OW38263   4.399   0.226   7.619  0.1847  0.2161 -0.1119
 8934SOL    HW138264   4.307   0.199   7.616 -0.2825  1.4490  2.8439
 8934SOL    HW238265   4.389   0.313   7.657  3.1332 -0.6047  2.4851
 8935SOL     OW38266   3.405   0.152   2.509 -0.3044 -0.5668 -0.5964
 8935SOL    HW138267   3.436   0.102   2.584  0.8653 -0.7609 -1.2017
 8935SOL    HW238268   3.329   0.103   2.477  0.4590 -1.0339 -1.7240
 8936SOL     OW38269   3.767   1.326   7.167 -0.2036  0.6408 -0.1968
 8936SOL    HW138270   3.798   1.343   7.255 -2.1783  1.2992  0.3684
 8936SOL    HW238271   3.677   1.353   7.185 -1.0405 -0.4408 -2.7366
 8937SOL     OW38272   3.114   4.547   8.877  0.2362  0.1727  0.2889
 8937SOL    HW138273   3.184   4.551   8.812 -1.2244  0.5419 -1.2647
 8937SOL    HW238274   3.123   4.637   8.910 -0.0608  0.2110  0.2625
 8938SOL     OW38275   1.606   0.605   1.679 -0.1257  0.1747 -0.0600
 8938SOL    HW138276   1.515   0.631   1.662 -0.4552  0.3707  1.9569
 8938SOL    HW238277   1.626   0.647   1.763 -0.5637 -1.1473  0.7145
 8939SOL     OW38278   0.046   3.195   2.350 -0.2847  0.1234  0.3084
 8939SOL    HW138279   0.057   3.124   2.287 -1.7581  0.2303 -0.0863
 8939SOL    HW238280   4.707   3.152   2.412 -0.7736 -1.2385 -1.1049
 8940SOL     OW38281   1.950   2.800   2.126 -0.0367  0.0071 -0.0614
 8940SOL    HW138282   1.998   2.727   2.164  1.1174  0.3355 -0.8843
 8940SOL    HW238283   2.012   2.866   2.158 -2.0866  2.0362 -0.2890
 8941SOL     OW38284   0.480   2.830  16.077 -0.5478  0.8652  0.0400
 8941SOL    HW138285   0.510   2.790  16.159  1.0660  1.8998 -0.0477
 8941SOL    HW238286   0.395   2.785  16.074  0.0826 -0.3356 -0.0422
 8942SOL     OW38287   0.480   2.113   3.886 -0.1667  0.6258  0.3872
 8942SOL    HW138288   0.387   2.117   3.907 -0.5262  0.8043 -1.2405
 8942SOL    HW238289   0.490   2.192   3.833 -0.0330  0.3620  0.0115
 8943SOL     OW38290   0.225   0.582   9.477  0.0458 -0.7713 -0.3145
 8943SOL    HW138291   0.168   0.527   9.424 -2.0073 -0.2455  1.3304
 8943SOL    HW238292   0.236   0.657   9.419  1.6923  0.3578  1.4338
 8944SOL     OW38293   3.161   4.613   5.110 -0.4155 -0.2421 -0.4003
 8944SOL    HW138294   3.150   4.556   5.186  0.6864  1.4509  1.0116
 8944SOL    HW238295   3.071   4.599   5.079 -0.5708 -1.6678  0.6662
 8945SOL     OW38296   0.228   2.413  10.807 -0.0351  0.1146 -0.6749
 8945SOL    HW138297   0.314   2.402  10.768 -0.4974  0.2334 -1.7229
 8945SOL    HW238298   0.226   2.508  10.823 -0.1112  0.0078 -0.0319
 8946SOL     OW38299   2.227   0.243   4.509 -0.3128 -0.0894 -0.0833
 8946SOL    HW138300   2.166   0.314   4.525 -1.0493 -0.1947 -2.4083
 8946SOL    HW238301   2.280   0.298   4.451  0.6510 -0.6578  0.2459
 8947SOL     OW38302   0.982   3.102  11.066 -0.2644  0.2425 -0.6286
 8947SOL    HW138303   1.074   3.127  11.070  0.4352 -2.4719  0.4465
 8947SOL    HW238304   0.994   3.011  11.039  1.8728  0.0331  1.0633
 8948SOL     OW38305   2.641   2.132   2.579  0.0179 -0.6192 -0.5564
 8948SOL    HW138306   2.718   2.158   2.529  0.1834  0.8858  0.4936
 8948SOL    HW238307   2.618   2.208   2.631  0.3796 -1.3814  0.7170
 8949SOL     OW38308   4.414   2.653  16.900 -0.0611  0.1592 -0.4556
 8949SOL    HW138309   4.458   2.628  16.818 -2.4578 -0.2039 -1.6479
 8949SOL    HW238310   4.434   2.577  16.954  1.2299 -0.6566 -2.0956
 8950SOL     OW38311   1.820   0.158   7.806  0.2788  0.4449  0.0499
 8950SOL    HW138312   1.809   0.086   7.869  0.2090  0.0502 -0.4151
 8950SOL    HW238313   1.891   0.211   7.842 -0.4801  0.8069  1.0071
 8951SOL     OW38314   4.579   0.502   2.675  0.5715  0.0939  0.1169
 8951SOL    HW138315   4.589   0.541   2.762 -1.9046  1.2173 -0.0965
 8951SOL    HW238316   4.606   0.583   2.633  0.7883  0.2113  0.4770
 8952SOL     OW38317   3.385   2.499   4.055  0.0758  0.0793  0.4595
 8952SOL    HW138318   3.378   2.484   4.150 -2.7124  1.5569  0.4903
 8952SOL    HW238319   3.381   2.594   4.059  0.6609  0.1238 -0.1324
 8953SOL     OW38320   2.858   1.223   0.622 -0.1474 -0.4567  0.2306
 8953SOL    HW138321   2.921   1.223   0.693 -0.2145 -1.4236  0.3000
 8953SOL    HW238322   2.886   1.141   0.580 -0.8454  0.1267 -1.3871
 8954SOL     OW38323   0.493   1.417  14.465  0.6477  0.1812 -0.0862
 8954SOL    HW138324   0.412   1.465  14.451  1.7467  2.0231 -0.1675
 8954SOL    HW238325   0.551   1.485  14.499  0.6370 -0.8157  1.9319
 8955SOL     OW38326   1.470   0.558  14.131 -0.5010  0.4629  1.2690
 8955SOL    HW138327   1.463   0.512  14.215 -2.3041  1.2457  1.5600
 8955SOL    HW238328   1.563   0.571  14.145 -0.7020  1.5350  1.5824
 8956SOL     OW38329   0.953   3.450   2.157  0.5108  0.5733 -0.0934
 8956SOL    HW138330   0.881   3.418   2.212  2.0375 -0.9720  0.9892
 8956SOL    HW238331   1.026   3.408   2.202 -0.3099 -1.8632 -1.0879
 8957SOL     OW38332   4.394   3.721   5.111  0.3870 -0.5121 -0.0428
 8957SOL    HW138333   4.326   3.787   5.119 -0.7380 -1.3016 -3.0407
 8957SOL    HW238334   4.349   3.643   5.143  1.2973 -1.9272 -2.1437
 8958SOL     OW38335   3.337   2.764  13.347 -0.7435  0.1858 -0.3865
 8958SOL    HW138336   3.278   2.690  13.330  0.0668 -0.1352 -1.7858
 8958SOL    HW238337   3.341   2.775  13.442 -2.1196  1.4638 -0.4669
 8959SOL     OW38338   2.067   2.415   3.922  0.0518 -0.2194 -0.1610
 8959SOL    HW138339   2.068   2.438   4.015 -2.1466  1.9640 -0.6740
 8959SOL    HW238340   2.101   2.497   3.886  0.0269 -0.3747 -0.5317
 8960SOL     OW38341   1.180   2.844   4.175 -0.0937 -0.3618  0.1131
 8960SOL    HW138342   1.148   2.903   4.243 -1.7130 -2.6806  1.3232
 8960SOL    HW238343   1.230   2.778   4.223  0.6323  1.0136  1.2716
 8961SOL     OW38344   3.967   4.405   2.908  0.8439  0.3024 -0.1556
 8961SOL    HW138345   3.924   4.413   2.822  0.9620 -0.1092 -0.2559
 8961SOL    HW238346   3.898   4.438   2.965  1.5472  1.3330  0.0896
 8962SOL     OW38347   2.205   2.294   7.901 -0.3261  0.4674 -0.4961
 8962SOL    HW138348   2.144   2.341   7.844 -0.9645 -0.5122 -0.6107
 8962SOL    HW238349   2.231   2.364   7.961 -1.2514  0.5209 -0.1705
 8963SOL     OW38350   3.686   3.515   1.966  0.4487 -0.3799 -0.2475
 8963SOL    HW138351   3.609   3.474   1.926  0.3177  0.7393 -1.1411
 8963SOL    HW238352   3.746   3.529   1.893 -0.8184 -1.1017 -1.4303
 8964SOL     OW38353   0.571   2.528  12.862  0.1229 -0.4571  0.1509
 8964SOL    HW138354   0.485   2.486  12.867 -0.5808  0.8989 -0.4778
 8964SOL    HW238355   0.542   2.619  12.869 -0.0560 -0.5680  0.8676
 8965SOL     OW38356   3.994   2.747  15.953  1.0380 -0.5320  0.7443
 8965SOL    HW138357   4.066   2.802  15.984  0.3117 -0.1236  1.6877
 8965SOL    HW238358   4.041   2.709  15.878 -0.4481  0.2922 -0.5843
 8966SOL     OW38359   0.480   0.934   4.523  0.0463 -0.4494  0.2487
 8966SOL    HW138360   0.528   0.937   4.605  2.7912 -1.6353 -1.3290
 8966SOL    HW238361   0.550   0.908   4.463 -1.2843  1.0072 -1.9239
 8967SOL     OW38362   0.499   4.232   2.778 -0.1241  0.1268  0.3892
 8967SOL    HW138363   0.546   4.150   2.759  0.5733  0.5475  0.2832
 8967SOL    HW238364   0.412   4.201   2.753  0.2981  0.6141 -1.6891
 8968SOL     OW38365   0.938   4.612   7.489  0.5729  0.2347 -0.3598
 8968SOL    HW138366   0.996   4.592   7.562  1.8616  2.9304 -0.6438
 8968SOL    HW238367   0.870   4.660   7.536  0.0960 -1.1463  0.3323
 8969SOL     OW38368   3.304   3.732   0.421  0.1011  0.0619  0.8405
 8969SOL    HW138369   3.283   3.662   0.360  0.8041  0.5732  0.0149
 8969SOL    HW238370   3.387   3.756   0.381 -0.0510  1.4651  1.3464
 8970SOL     OW38371   1.362   3.589   3.737 -0.4087  0.2808  0.3590
 8970SOL    HW138372   1.290   3.616   3.680 -0.6949 -2.4663 -0.5835
 8970SOL    HW238373   1.432   3.644   3.703 -0.1388  0.8938  1.8689
 8971SOL     OW38374   4.478   3.363   4.562 -0.0150 -0.6345  0.5397
 8971SOL    HW138375   4.509   3.352   4.472 -0.1144 -2.4075  0.7219
 8971SOL    HW238376   4.558   3.349   4.613  0.7636 -1.4955 -0.9193
 8972SOL     OW38377   1.748   3.485   9.004 -0.5171 -0.3467  0.2078
 8972SOL    HW138378   1.768   3.440   8.921 -1.7176 -2.0586  0.8421
 8972SOL    HW238379   1.771   3.418   9.069 -0.0465 -0.0476  0.3468
 8973SOL     OW38380   3.706   1.917   2.112 -0.0365  0.2707  0.3532
 8973SOL    HW138381   3.711   1.884   2.202 -0.7093 -1.3998 -0.2090
 8973SOL    HW238382   3.751   1.999   2.131  1.8041 -0.5710 -0.4119
 8974SOL     OW38383   0.936   3.541  11.734 -0.0428  0.4799  0.0020
 8974SOL    HW138384   0.920   3.515  11.643 -0.3686  1.8104 -0.3138
 8974SOL    HW238385   0.952   3.635  11.728 -0.3157  0.5291  0.0261
 8975SOL     OW38386   2.581   1.531   2.928  0.7765 -0.1724 -0.1466
 8975SOL    HW138387   2.666   1.492   2.907  1.5879  0.9300  1.1321
 8975SOL    HW238388   2.558   1.483   3.007  0.8948 -2.1020 -1.2741
 8976SOL     OW38389   2.309   2.317   4.146  0.5901  0.2489  0.4182
 8976SOL    HW138390   2.288   2.290   4.056 -0.8811  0.4974  0.6909
 8976SOL    HW238391   2.385   2.370   4.125  0.8384  0.2539  1.3488
 8977SOL     OW38392   1.462   3.174  12.235 -0.2504 -0.7559 -0.7507
 8977SOL    HW138393   1.409   3.097  12.215 -1.6803  0.6771 -2.3755
 8977SOL    HW238394   1.424   3.241  12.178  0.1197  0.4674  0.4372
 8978SOL     OW38395   3.906   0.054  13.576 -0.4156 -0.1020  0.0162
 8978SOL    HW138396   3.889   0.120  13.643  0.7566 -0.4982  0.6992
 8978SOL    HW238397   4.000   0.061  13.589 -0.7545  1.1775  1.7921
 8979SOL     OW38398   0.286   4.031   6.493  0.2533 -0.3265 -0.1279
 8979SOL    HW138399   0.304   3.979   6.572  0.8162 -0.5403 -0.3945
 8979SOL    HW238400   0.362   4.002   6.443 -0.7524 -1.2830 -1.0908
 8980SOL     OW38401   4.714   4.383   6.384 -0.6268 -0.5616 -0.2129
 8980SOL    HW138402   4.672   4.456   6.339 -2.6526  0.0164  2.6389
 8980SOL    HW238403   0.084   4.411   6.393 -0.8378  0.0147  0.0820
 8981SOL     OW38404   4.564   1.538   7.645 -0.2039  0.0639  0.3088
 8981SOL    HW138405   4.470   1.533   7.667 -0.3993 -0.4991 -0.6669
 8981SOL    HW238406   4.597   1.585   7.721 -1.1273  1.1265  0.0572
 8982SOL     OW38407   1.760   0.081  16.527 -0.7446  0.5687 -0.1395
 8982SOL    HW138408   1.823   0.141  16.567  0.1313 -1.3564  1.3990
 8982SOL    HW238409   1.706   0.146  16.482 -0.6644  1.0618  0.4850
 8983SOL     OW38410   2.859   1.471   3.182 -0.8692  0.3470 -0.2239
 8983SOL    HW138411   2.940   1.483   3.132  0.5377  0.7822  2.1367
 8983SOL    HW238412   2.814   1.556   3.181  1.4224  1.5562 -2.0211
 8984SOL     OW38413   1.612   2.006   5.392 -0.3972  0.0511  0.3838
 8984SOL    HW138414   1.654   2.064   5.328  0.9943 -1.3773  0.0122
 8984SOL    HW238415   1.522   2.018   5.363 -0.2388 -0.5683 -0.3725
 8985SOL     OW38416   0.311   0.086   1.488  0.0333 -0.5180  0.2063
 8985SOL    HW138417   0.238   0.082   1.427  0.5904 -1.3184 -0.4148
 8985SOL    HW238418   0.357   0.153   1.438 -0.2764  1.2038  2.2409
 8986SOL     OW38419   2.667   3.511  10.995 -0.1258 -0.1599 -0.5948
 8986SOL    HW138420   2.612   3.576  11.039 -1.3163 -1.1820 -0.5693
 8986SOL    HW238421   2.757   3.532  11.017 -0.3286  2.7677 -2.5467
 8987SOL     OW38422   0.866   1.544  16.470  0.6283  0.2704  0.1858
 8987SOL    HW138423   0.922   1.526  16.395 -0.5196 -1.1031 -0.3353
 8987SOL    HW238424   0.889   1.636  16.485 -0.0493  1.1045 -3.8711
 8988SOL     OW38425   0.803   2.669   6.029 -0.0231 -0.7385 -0.3830
 8988SOL    HW138426   0.712   2.649   6.005 -0.2371 -0.3401  0.0962
 8988SOL    HW238427   0.849   2.589   6.003 -1.6650 -1.4593 -1.0887
 8989SOL     OW38428   0.098   3.652   9.647 -0.6279  0.2704 -0.1432
 8989SOL    HW138429   0.032   3.617   9.707  0.0037  2.3842  1.7869
 8989SOL    HW238430   0.049   3.705   9.585 -0.1360  1.3531  0.3934
 8990SOL     OW38431   0.953   2.746  17.567  0.0383  0.1028  0.2843
 8990SOL    HW138432   0.908   2.788  17.640 -0.8570 -0.6626  0.1857
 8990SOL    HW238433   0.894   2.761  17.493  0.3513  0.6259  0.1414
 8991SOL     OW38434   0.589   1.332  16.418  0.0160 -0.0401  0.1488
 8991SOL    HW138435   0.654   1.336  16.348 -0.4194  1.2006 -0.1894
 8991SOL    HW238436   0.573   1.425  16.435 -2.7785 -0.6042  0.6214
 8992SOL     OW38437   3.730   0.368   5.317 -0.4456 -0.2460  0.1238
 8992SOL    HW138438   3.706   0.278   5.295  1.9253 -0.9857  0.5551
 8992SOL    HW238439   3.660   0.412   5.269 -1.6515 -3.1957 -0.8206
 8993SOL     OW38440   0.396   1.249   6.049 -0.6056 -0.0244  0.6614
 8993SOL    HW138441   0.322   1.214   6.099 -0.2654 -0.1693  1.0626
 8993SOL    HW238442   0.401   1.169   5.997  4.5277  0.9013 -0.2327
 8994SOL     OW38443   4.001   2.416   2.071 -0.8913  0.5734  0.3366
 8994SOL    HW138444   4.026   2.441   2.160 -0.0455 -0.9118  0.5162
 8994SOL    HW238445   4.069   2.352   2.052  0.8471  2.8042 -1.0573
 8995SOL     OW38446   2.487   3.033   3.620 -1.0815  0.2825 -0.4134
 8995SOL    HW138447   2.531   3.099   3.673  0.8895 -0.5008 -1.0682
 8995SOL    HW238448   2.402   3.076   3.610 -1.6319 -0.2000  2.1726
 8996SOL     OW38449   1.771   3.528   7.995 -0.3784 -0.0557  0.3473
 8996SOL    HW138450   1.791   3.603   8.051  1.4957 -0.1353 -0.1991
 8996SOL    HW238451   1.741   3.574   7.916  3.4419 -0.1920 -1.2011
 8997SOL     OW38452   4.152   0.070  12.959 -0.0544  0.6390  0.4655
 8997SOL    HW138453   4.180   0.109  12.877 -3.2979 -0.0586 -0.9755
 8997SOL    HW238454   4.068   0.032  12.934 -0.0572 -0.0469  1.5253
 8998SOL     OW38455   4.497   2.394   9.558  0.4513  0.2385 -0.1328
 8998SOL    HW138456   4.411   2.411   9.519 -0.3627 -2.6723  0.4188
 8998SOL    HW238457   4.491   2.411   9.652 -0.2671  0.9116 -0.3005
 8999SOL     OW38458   1.705   1.314  17.201  0.4271  0.4730 -0.1577
 8999SOL    HW138459   1.637   1.381  17.205  0.5485  0.6315 -0.8676
 8999SOL    HW238460   1.666   1.251  17.261  1.7552 -1.8809 -1.7770
 9000SOL     OW38461   2.425   1.441  17.283 -0.0634  0.4761  0.2073
 9000SOL    HW138462   2.509   1.419  17.242 -0.0202  0.0132  0.5446
 9000SOL    HW238463   2.377   1.484  17.213 -0.3196 -1.9723 -1.1237
 9001SOL     OW38464   2.142   0.268   2.311 -0.4842  0.2415 -0.5259
 9001SOL    HW138465   2.146   0.263   2.215  0.2211  1.3461 -0.5446
 9001SOL    HW238466   2.054   0.305   2.315  0.3906  2.2067  0.3070
 9002SOL     OW38467   4.137   4.039  15.346  0.0570  0.4234 -0.0514
 9002SOL    HW138468   4.062   4.087  15.310 -0.5679 -0.4271  0.1084
 9002SOL    HW238469   4.198   4.112  15.359  1.2775 -0.6767  0.3624
 9003SOL     OW38470   2.657   1.819  15.492  0.3678  0.1874  0.3623
 9003SOL    HW138471   2.583   1.841  15.550  0.5670 -1.6045  1.3017
 9003SOL    HW238472   2.616   1.771  15.420  0.6465  1.1836 -0.4536
 9004SOL     OW38473   4.278   4.483   8.230  0.0784 -0.1427 -0.0251
 9004SOL    HW138474   4.277   4.578   8.221 -0.7098 -0.0387  1.2392
 9004SOL    HW238475   4.229   4.455   8.152 -0.4176  0.3662  0.1041
 9005SOL     OW38476   0.514   2.816   5.114 -0.1397 -0.4498 -0.5292
 9005SOL    HW138477   0.603   2.792   5.089  1.0251  0.7592  2.4312
 9005SOL    HW238478   0.495   2.881   5.046 -0.2363  0.5525  0.4592
 9006SOL     OW38479   3.763   0.751   7.243  0.7860 -0.0296 -0.3971
 9006SOL    HW138480   3.838   0.698   7.269 -0.0742 -1.4239 -0.7270
 9006SOL    HW238481   3.691   0.692   7.265  0.7060  0.5901  0.9599
 9007SOL     OW38482   2.847   3.737   8.114 -0.6381  0.3911  0.0554
 9007SOL    HW138483   2.917   3.691   8.160 -0.0282  2.2834  1.0038
 9007SOL    HW238484   2.842   3.816   8.168  1.0079  1.3398 -1.1613
 9008SOL     OW38485   4.530   3.986   7.483  0.3692 -0.1051 -0.0890
 9008SOL    HW138486   4.605   3.950   7.436  0.6629  0.8008 -0.3133
 9008SOL    HW238487   4.536   4.074   7.448 -0.6161 -0.0193 -0.0495
 9009SOL     OW38488   4.665   4.674   9.274  0.2347 -0.5361  0.1401
 9009SOL    HW138489   4.596   4.706   9.217  2.4148  0.3218 -2.0087
 9009SOL    HW238490   0.001   4.618   9.222 -1.0317 -0.1198 -1.6732
 9010SOL     OW38491   2.829   1.470   4.442 -0.1162 -0.6604  0.1454
 9010SOL    HW138492   2.914   1.431   4.421  0.4015  1.2071 -1.1803
 9010SOL    HW238493   2.791   1.452   4.356  0.8320 -1.5743 -0.0933
 9011SOL     OW38494   0.034   2.728  14.667  0.2540 -0.2479 -0.4792
 9011SOL    HW138495   0.091   2.663  14.708  2.1408  0.9480 -1.2302
 9011SOL    HW238496   0.065   2.814  14.696 -0.5244 -0.9480  2.5156
 9012SOL     OW38497   0.839   1.485   0.057  0.5801  0.4225 -0.0903
 9012SOL    HW138498   0.884   1.542   0.119 -0.5024  0.8770  0.2770
 9012SOL    HW238499   0.749   1.518   0.056  0.1637 -0.6770  0.5063
 9013SOL     OW38500   0.868   1.597  12.262  0.0723  0.2594  0.5027
 9013SOL    HW138501   0.957   1.622  12.239  1.0671 -2.9454  0.8641
 9013SOL    HW238502   0.810   1.631  12.194  1.2875  2.7994  0.7327
 9014SOL     OW38503   0.922   2.077   3.956 -0.5389 -0.6018 -0.5486
 9014SOL    HW138504   1.008   2.046   3.928  0.0322  0.2848  0.2025
 9014SOL    HW238505   0.942   2.171   3.960 -0.4173 -0.5831 -1.7001
 9015SOL     OW38506   4.476   0.623   0.869  0.0610  0.5006 -0.0874
 9015SOL    HW138507   4.554   0.584   0.908 -1.3315  0.2079  2.3777
 9015SOL    HW238508   4.494   0.629   0.775 -0.1174 -1.2771 -0.2336
 9016SOL     OW38509   4.565   0.736  13.135  0.6510  0.1208 -0.0008
 9016SOL    HW138510   4.546   0.653  13.179  0.1905  0.2164 -0.0179
 9016SOL    HW238511   4.655   0.755  13.161  0.4122  2.5241 -0.9612
 9017SOL     OW38512   1.039   1.383   5.403  0.4753 -0.1038  0.7573
 9017SOL    HW138513   1.012   1.472   5.425  0.4783  0.2506 -0.6486
 9017SOL    HW238514   0.953   1.348   5.379  1.2526 -1.3962 -0.1962
 9018SOL     OW38515   4.544   0.798   7.283 -0.7058 -0.5395 -0.1176
 9018SOL    HW138516   4.487   0.801   7.360  0.0803  0.2369  0.4300
 9018SOL    HW238517   4.579   0.887   7.280 -1.0200 -0.4445 -1.0930
 9019SOL     OW38518   1.583   1.524   4.723  0.1362 -0.6940 -0.1774
 9019SOL    HW138519   1.538   1.504   4.641  1.4863  0.3145 -1.1683
 9019SOL    HW238520   1.538   1.475   4.791 -1.3331  0.0714 -0.6066
 9020SOL     OW38521   4.274   3.526   0.293  0.8433 -0.1407  0.0757
 9020SOL    HW138522   4.191   3.558   0.257  0.3815 -2.9779 -1.4223
 9020SOL    HW238523   4.283   3.572   0.376  1.0328  0.0305 -0.0420
 9021SOL     OW38524   2.063   4.705  15.121 -0.1852  0.0080  0.2644
 9021SOL    HW138525   2.139   4.671  15.167 -1.5266 -0.7224  1.9363
 9021SOL    HW238526   2.034   0.032  15.199 -1.9909  0.2012 -0.5260
 9022SOL     OW38527   1.705   1.557   1.477 -0.5203 -0.9372 -0.7725
 9022SOL    HW138528   1.766   1.598   1.416 -0.5926  2.0165  1.1331
 9022SOL    HW238529   1.744   1.589   1.558 -0.6182  0.9186 -1.4488
 9023SOL     OW38530   0.836   4.719  16.996  0.3797  0.1640 -0.3079
 9023SOL    HW138531   0.850   0.070  16.934 -0.0610  1.1695  0.7553
 9023SOL    HW238532   0.913   4.664  16.985  0.9284  0.8895 -0.0256
 9024SOL     OW38533   0.166   4.241   5.179  0.0564 -0.5109 -0.3946
 9024SOL    HW138534   0.237   4.191   5.218 -0.8786 -0.1376  1.7734
 9024SOL    HW238535   0.196   4.330   5.200 -0.2030 -0.5639  0.1977
 9025SOL     OW38536   1.115   2.298  14.976  0.3569 -0.1239  0.8274
 9025SOL    HW138537   1.151   2.350  15.048  1.4190  0.1951  0.0689
 9025SOL    HW238538   1.169   2.330  14.904  0.1898  0.6909  1.0653
 9026SOL     OW38539   4.593   3.819   8.611  0.4696  0.1284  0.5977
 9026SOL    HW138540   4.657   3.886   8.584  0.7011  0.0199  0.8857
 9026SOL    HW238541   4.512   3.871   8.610  0.2151 -0.2698  0.9943
 9027SOL     OW38542   2.630   3.515   2.781  0.2812  0.2832  0.2470
 9027SOL    HW138543   2.585   3.477   2.705 -0.6698  1.5271  0.1894
 9027SOL    HW238544   2.680   3.445   2.823  0.7239 -0.0723 -0.8668
 9028SOL     OW38545   4.620   2.426   2.389  0.6672 -0.1649 -0.2783
 9028SOL    HW138546   4.666   2.346   2.415  1.5694  0.2050 -0.7346
 9028SOL    HW238547   4.585   2.404   2.303  1.0297  2.7319 -1.1591
 9029SOL     OW38548   1.837   2.073   2.891  0.1171 -0.0218  0.3804
 9029SOL    HW138549   1.853   2.048   2.982  1.0290  2.5962  0.9426
 9029SOL    HW238550   1.920   2.047   2.851  0.6121 -0.2828  1.5729
 9030SOL     OW38551   3.340   0.458   7.268  0.3421  0.3611  0.0431
 9030SOL    HW138552   3.264   0.508   7.298 -0.2455 -0.5281  0.0367
 9030SOL    HW238553   3.300   0.394   7.209  1.1120 -1.7991  1.8248
 9031SOL     OW38554   0.354   3.141   9.560  0.8307  0.1425 -0.4603
 9031SOL    HW138555   0.287   3.186   9.612  0.7206 -0.3063 -0.2135
 9031SOL    HW238556   0.299   3.085   9.505  0.2114 -1.0122  1.3381
 9032SOL     OW38557   1.076   0.617   0.440 -0.4592 -0.0095  0.3688
 9032SOL    HW138558   1.114   0.704   0.428 -0.3836 -0.0468  0.3310
 9032SOL    HW238559   1.071   0.620   0.536 -1.1237 -2.9472  0.4168
 9033SOL     OW38560   3.895   2.371   4.642  0.3390  0.4130  0.3829
 9033SOL    HW138561   3.851   2.290   4.670  2.4654 -1.4769 -1.7095
 9033SOL    HW238562   3.832   2.399   4.576  0.6132  0.4072  0.1225
 9034SOL     OW38563   2.597   2.788   5.401  0.2650  0.1707  0.1977
 9034SOL    HW138564   2.666   2.722   5.393 -0.1772 -0.4279  1.2484
 9034SOL    HW238565   2.520   2.739   5.428  0.1876  0.5198  0.6116
 9035SOL     OW38566   4.287   0.438   8.398  0.2054 -0.1975  0.0634
 9035SOL    HW138567   4.201   0.406   8.373 -0.1112  0.8977 -0.2051
 9035SOL    HW238568   4.266   0.469   8.486  2.6148 -1.6452  1.1466
 9036SOL     OW38569   4.398   0.422  11.596 -0.5939  0.3260 -0.2183
 9036SOL    HW138570   4.480   0.465  11.574  0.2139 -1.2855 -0.3665
 9036SOL    HW238571   4.327   0.486  11.597 -1.2519 -0.3647 -1.8143
 9037SOL     OW38572   3.916   1.909  10.716 -0.5185 -0.3567  0.4207
 9037SOL    HW138573   3.926   1.998  10.751 -0.0306 -0.3761  0.3342
 9037SOL    HW238574   3.882   1.922  10.628 -1.8245 -0.0636  0.9621
 9038SOL     OW38575   0.165   2.752   9.047 -0.0441  0.0205 -0.0297
 9038SOL    HW138576   0.159   2.821   9.114 -0.8935 -0.9071  0.8482
 9038SOL    HW238577   0.253   2.716   9.057 -0.4939 -0.4380  2.4769
 9039SOL     OW38578   4.550   3.344   2.626  0.3185 -0.2091 -0.2813
 9039SOL    HW138579   4.574   3.257   2.592  0.4102 -1.5531  3.1788
 9039SOL    HW238580   4.613   3.400   2.582  0.6491  0.8634  1.5290
 9040SOL     OW38581   2.241   4.157   5.043 -0.4969  0.3874 -0.2782
 9040SOL    HW138582   2.228   4.103   4.965  0.3999 -0.7101  0.3410
 9040SOL    HW238583   2.153   4.195   5.050 -0.0515  1.2414  0.7213
 9041SOL     OW38584   1.734   0.087   5.319  0.2760  0.3128  0.5682
 9041SOL    HW138585   1.815   0.128   5.350 -0.3919  0.9109  1.5100
 9041SOL    HW238586   1.693   0.161   5.275  1.9155  0.3229 -0.9569
 9042SOL     OW38587   3.067   4.581   8.169  0.3622 -0.5909 -0.2660
 9042SOL    HW138588   3.079   4.523   8.094 -1.8458  0.0543 -1.1186
 9042SOL    HW238589   3.005   4.528   8.219  0.7559 -0.9706 -0.1843
 9043SOL     OW38590   4.629   0.264   5.752  0.2238 -0.3319  0.1603
 9043SOL    HW138591   4.669   0.181   5.727 -2.0417 -2.0738  2.3033
 9043SOL    HW238592   4.561   0.226   5.808  0.8699 -1.6331  0.0676
 9044SOL     OW38593   2.952   3.646   9.394 -0.3341  0.0923 -0.1261
 9044SOL    HW138594   2.963   3.555   9.365  4.0181  0.3581  0.6618
 9044SOL    HW238595   2.908   3.633   9.478  0.0606  0.8585  0.1980
 9045SOL     OW38596   1.710   3.179  12.325 -0.1278 -0.0536  0.2540
 9045SOL    HW138597   1.734   3.099  12.279 -0.6689 -0.0041 -0.1135
 9045SOL    HW238598   1.615   3.181  12.316 -0.0772 -1.6327 -0.5724
 9046SOL     OW38599   1.061   3.640   4.485 -0.3597 -0.1310  0.0694
 9046SOL    HW138600   0.995   3.689   4.436  0.7290 -0.1997 -1.4575
 9046SOL    HW238601   1.141   3.650   4.434  0.0074  0.6867  0.8016
 9047SOL     OW38602   3.357   2.380   9.137  0.2743 -0.4614  0.0440
 9047SOL    HW138603   3.351   2.446   9.206 -2.6527 -0.4140 -0.2505
 9047SOL    HW238604   3.351   2.296   9.181 -1.7623 -0.2377  0.2210
 9048SOL     OW38605   1.033   3.553   9.482  0.2310  0.0524  0.0707
 9048SOL    HW138606   1.008   3.597   9.563  1.7469 -1.2892  1.2460
 9048SOL    HW238607   0.961   3.492   9.463 -0.5299  0.8928  0.2570
 9049SOL     OW38608   1.756   3.573   3.504 -0.1512 -0.4684  0.3426
 9049SOL    HW138609   1.792   3.657   3.476 -1.2782 -0.2484 -0.4603
 9049SOL    HW238610   1.662   3.592   3.505 -0.0986 -0.2009  0.2765
 9050SOL     OW38611   1.756   1.340  15.901  0.3231 -0.3213  0.1277
 9050SOL    HW138612   1.795   1.380  15.978  0.5633 -0.6744  0.1914
 9050SOL    HW238613   1.694   1.406  15.870  0.3012 -0.3717  0.0623
 9051SOL     OW38614   4.302   3.062   3.004 -0.1137 -0.3319 -0.4006
 9051SOL    HW138615   4.273   3.087   3.092  1.7337  1.6462 -0.3572
 9051SOL    HW238616   4.390   3.027   3.017 -0.2021 -0.4382 -0.0769
 9052SOL     OW38617   2.832   1.736   6.205  0.2586  0.1938  0.1648
 9052SOL    HW138618   2.751   1.691   6.231  0.2528 -0.0219 -0.2353
 9052SOL    HW238619   2.802   1.778   6.125 -0.1732 -0.1339  0.1532
 9053SOL     OW38620   4.704   2.456  10.703 -0.0697  0.3773  0.5868
 9053SOL    HW138621   0.045   2.420  10.766  1.3537 -1.1629 -1.7209
 9053SOL    HW238622   4.623   2.450  10.754  0.9875 -0.6488  2.1184
 9054SOL     OW38623   1.226   0.176   9.128 -0.2618 -0.2646  0.5912
 9054SOL    HW138624   1.307   0.207   9.088 -0.8731  0.7165  0.1238
 9054SOL    HW238625   1.255   0.180   9.219  1.5788  3.7910 -0.1643
 9055SOL     OW38626   0.271   3.974   1.334  0.2655  0.5975 -0.3996
 9055SOL    HW138627   0.190   3.934   1.304  0.6478  0.4218 -1.2057
 9055SOL    HW238628   0.333   3.925   1.279  2.0580  1.9319  0.4058
 9056SOL     OW38629   2.350   4.141   3.441 -0.2910  0.1139 -0.0629
 9056SOL    HW138630   2.317   4.229   3.458  0.2137  0.3553 -0.3368
 9056SOL    HW238631   2.365   4.142   3.346  1.3948  1.6539  0.2255
 9057SOL     OW38632   1.351   4.265   6.034  0.6012  0.0995 -0.8794
 9057SOL    HW138633   1.260   4.240   6.018  0.5520 -0.9455  1.0129
 9057SOL    HW238634   1.407   4.250   5.958  1.9193  2.4608 -0.3525
 9058SOL     OW38635   4.059   3.310   5.540  0.2341 -0.0810  0.2034
 9058SOL    HW138636   4.149   3.316   5.570  0.1640  1.9701  0.0499
 9058SOL    HW238637   4.015   3.280   5.620  0.3860 -0.3112  0.1974
 9059SOL     OW38638   3.034   3.966   4.266  0.1523 -0.1388  0.8416
 9059SOL    HW138639   3.057   3.975   4.359  2.4303  1.9258  0.0878
 9059SOL    HW238640   3.051   4.054   4.233  0.5854 -0.0075  1.4112
 9060SOL     OW38641   1.753   2.081   0.708 -0.2973  0.2744  0.3437
 9060SOL    HW138642   1.843   2.063   0.735 -1.0426 -1.2603  1.8006
 9060SOL    HW238643   1.705   2.036   0.778  0.1890  2.5621  2.1523
 9061SOL     OW38644   0.674   3.729  11.817 -0.9096 -0.5968 -0.4991
 9061SOL    HW138645   0.753   3.734  11.763 -1.0963  0.1396 -0.7092
 9061SOL    HW238646   0.642   3.641  11.797 -1.6591 -0.7945  1.5697
 9062SOL     OW38647   1.434   2.957   6.650  0.1320  0.2026  0.6954
 9062SOL    HW138648   1.518   2.917   6.630  0.8574  1.3047  1.5654
 9062SOL    HW238649   1.370   2.903   6.605  1.4935  0.8253 -1.9918
 9063SOL     OW38650   0.600   1.598   7.572  0.3524  0.2462 -0.1345
 9063SOL    HW138651   0.586   1.691   7.591  0.2190 -0.1517  1.6954
 9063SOL    HW238652   0.519   1.574   7.617 -0.5263  1.7738 -0.8857
 9064SOL     OW38653   1.336   0.841  13.297  0.5945  0.0065  0.3583
 9064SOL    HW138654   1.248   0.805  13.285  1.0171 -1.5349  1.9935
 9064SOL    HW238655   1.325   0.921  13.245 -0.4524 -1.0471 -1.0357
 9065SOL     OW38656   2.548   3.808   7.113 -0.2833 -0.0703  0.4747
 9065SOL    HW138657   2.627   3.829   7.162 -1.0233 -1.1226  2.1079
 9065SOL    HW238658   2.587   3.783   7.029 -1.0481  1.4514 -0.3406
 9066SOL     OW38659   2.662   0.808   9.656  0.6331  0.4460 -0.4229
 9066SOL    HW138660   2.681   0.755   9.579 -1.8857 -1.2493  0.1302
 9066SOL    HW238661   2.567   0.803   9.650  0.5978 -0.0828  0.4730
 9067SOL     OW38662   0.111   4.465   4.937  0.3224 -0.1029  0.1140
 9067SOL    HW138663   0.188   4.426   4.978 -1.2743 -1.3083  1.9721
 9067SOL    HW238664   0.059   4.467   5.018 -0.5487 -0.0696 -0.4549
 9068SOL     OW38665   0.646   4.208  14.459  0.3255 -0.6615 -0.3588
 9068SOL    HW138666   0.553   4.220  14.477  0.2715  0.6123 -1.5279
 9068SOL    HW238667   0.648   4.114  14.441  0.2198 -1.0756  1.7267
 9069SOL     OW38668   1.734   1.610  15.578  0.1350  0.7600  0.2068
 9069SOL    HW138669   1.683   1.559  15.640  0.2371  0.8721  0.3804
 9069SOL    HW238670   1.760   1.544  15.513 -0.4325  2.5192 -1.8218
 9070SOL     OW38671   2.482   0.593   8.525  0.9685 -0.2135 -0.2330
 9070SOL    HW138672   2.566   0.639   8.528  1.3084 -0.6955 -2.2832
 9070SOL    HW238673   2.421   0.639   8.582  1.0209 -0.8653  0.3422
 9071SOL     OW38674   0.319   2.528  17.584  0.3463  0.0623  0.2258
 9071SOL    HW138675   0.388   2.512  17.648 -1.3829  0.1395  2.1142
 9071SOL    HW238676   0.244   2.506  17.639 -0.4814  1.0219 -0.5126
 9072SOL     OW38677   0.064   2.524  10.448 -0.0878  0.4641  0.1708
 9072SOL    HW138678   0.144   2.566  10.479  0.6290 -0.0923 -0.9366
 9072SOL    HW238679   0.033   2.507  10.537 -1.5743 -0.9262 -0.5937
 9073SOL     OW38680   4.448   2.838   2.026  0.4760 -0.1391 -0.1396
 9073SOL    HW138681   4.444   2.748   1.993  1.4312 -0.0730 -0.4433
 9073SOL    HW238682   4.403   2.883   1.955  1.2539  0.6040 -0.1613
 9074SOL     OW38683   0.955   3.671   2.690  0.5118 -0.0427  0.5428
 9074SOL    HW138684   0.992   3.684   2.777 -0.3465  0.6196  0.8100
 9074SOL    HW238685   0.864   3.652   2.709  0.0247 -0.0211 -1.7381
 9075SOL     OW38686   4.019   1.358   8.052  0.3154 -0.4982 -0.6338
 9075SOL    HW138687   3.998   1.265   8.053  0.9250 -0.6411 -0.8013
 9075SOL    HW238688   3.986   1.391   8.135  2.4035  0.3174 -0.1263
 9076SOL     OW38689   4.311   4.253   4.108  0.2970  0.1793 -0.0274
 9076SOL    HW138690   4.406   4.268   4.114  0.5464 -2.0153  1.5180
 9076SOL    HW238691   4.296   4.204   4.189  0.4563  0.8309  0.3951
 9077SOL     OW38692   0.208   3.635   5.432  0.0539 -0.2505 -0.5644
 9077SOL    HW138693   0.132   3.589   5.397 -0.6444 -0.6726  1.5190
 9077SOL    HW238694   0.199   3.720   5.388 -0.8947  0.8130  1.6436
 9078SOL     OW38695   1.330   2.640   1.284  0.1154 -0.0358  0.2764
 9078SOL    HW138696   1.330   2.724   1.238  0.1131 -0.4386 -0.4575
 9078SOL    HW238697   1.413   2.650   1.332 -0.7385 -1.3260  2.0328
 9079SOL     OW38698   2.092   2.842   6.605  0.4672  0.2368 -0.1484
 9079SOL    HW138699   2.058   2.753   6.603 -0.4601  0.5408  2.0129
 9079SOL    HW238700   2.065   2.856   6.696  0.8817  1.3631 -0.2019
 9080SOL     OW38701   2.367   3.439  16.695  0.4116 -0.0497 -0.4277
 9080SOL    HW138702   2.367   3.455  16.790 -0.2122 -2.0953 -0.0771
 9080SOL    HW238703   2.361   3.522  16.648  1.7589  0.0448 -0.4372
 9081SOL     OW38704   2.478   3.227   5.764 -0.0849  0.3364 -0.3599
 9081SOL    HW138705   2.562   3.184   5.779  0.1794  0.7347 -0.7122
 9081SOL    HW238706   2.418   3.172   5.815  0.9132 -3.0009 -2.7547
 9082SOL     OW38707   1.208   2.890  13.326  0.7539 -0.0131 -0.0671
 9082SOL    HW138708   1.230   2.872  13.417  2.3600 -1.1640 -0.6830
 9082SOL    HW238709   1.113   2.889  13.327  0.7451  0.4830 -0.2221
 9083SOL     OW38710   1.754   0.824   8.510  0.0649 -0.0994 -0.7863
 9083SOL    HW138711   1.846   0.853   8.510  0.5795 -1.7178 -1.9748
 9083SOL    HW238712   1.761   0.736   8.546  2.2578  0.7499  0.8761
 9084SOL     OW38713   4.703   4.444   3.894  0.3197 -0.9295  0.4696
 9084SOL    HW138714   4.672   4.532   3.875  1.4518 -0.4546  0.8346
 9084SOL    HW238715   4.679   4.403   3.810  3.5297  0.3176 -1.0430
 9085SOL     OW38716   0.737   4.380   7.862 -0.0603 -0.4096  0.6541
 9085SOL    HW138717   0.802   4.450   7.851 -1.4070  0.8331  0.5779
 9085SOL    HW238718   0.727   4.380   7.957 -1.8476  3.5090  0.4698
 9086SOL     OW38719   4.430   2.921   0.820 -0.3678 -0.3838  0.4371
 9086SOL    HW138720   4.472   2.994   0.867 -0.2922 -0.6046  0.7129
 9086SOL    HW238721   4.498   2.853   0.824  1.9626  1.7373 -3.2110
 9087SOL     OW38722   0.248   3.773   9.915  0.1925 -0.2782  0.3962
 9087SOL    HW138723   0.255   3.683   9.882  2.7332  0.8169 -2.1195
 9087SOL    HW238724   0.259   3.763  10.010  1.8605  2.2941  0.4825
 9088SOL     OW38725   3.040   2.051  13.030  0.0824  0.9963  0.1828
 9088SOL    HW138726   3.065   2.052  13.122 -2.2203 -0.9839  0.8143
 9088SOL    HW238727   2.951   2.017  13.040  0.6293 -0.3862  0.3843
 9089SOL     OW38728   2.429   2.810   8.842  1.3375  0.0938  0.2311
 9089SOL    HW138729   2.348   2.783   8.884 -0.5172  3.3218 -1.2738
 9089SOL    HW238730   2.405   2.872   8.773 -1.1906  0.5085  1.4768
 9090SOL     OW38731   2.783   0.649   0.842 -0.5022  0.2684 -0.4478
 9090SOL    HW138732   2.775   0.589   0.768 -4.0736  1.9490 -1.4279
 9090SOL    HW238733   2.728   0.724   0.820 -1.0441  0.0431  0.1327
 9091SOL     OW38734   3.686   0.171  12.593 -0.1579 -0.1419 -0.1396
 9091SOL    HW138735   3.685   0.101  12.528  1.2363  1.5572 -1.9631
 9091SOL    HW238736   3.644   0.236  12.537  0.1845  0.0433 -0.1816
 9092SOL     OW38737   3.068   2.957  16.098  0.3950  0.0648 -0.0768
 9092SOL    HW138738   3.075   2.862  16.098 -1.2629 -0.0578  2.0118
 9092SOL    HW238739   3.140   2.974  16.038 -1.0543  1.9020 -1.2849
 9093SOL     OW38740   1.549   3.669   5.173  0.0675 -0.2253  0.4076
 9093SOL    HW138741   1.534   3.584   5.132 -0.3496 -0.6579  1.4714
 9093SOL    HW238742   1.593   3.642   5.254 -0.8714  0.6012  1.1917
 9094SOL     OW38743   4.718   4.369  10.369 -0.6764  0.8059  0.2280
 9094SOL    HW138744   0.091   4.387  10.360 -0.1289 -1.8574  0.7428
 9094SOL    HW238745   4.697   4.461  10.386  0.1911  1.1212 -0.4286
 9095SOL     OW38746   0.016   4.061   5.015 -0.0798 -0.7425  0.0733
 9095SOL    HW138747   4.688   4.107   4.947  1.1348  0.6475  0.1537
 9095SOL    HW238748   0.049   4.131   5.071 -0.7098 -1.1697  0.9784
 9096SOL     OW38749   1.340   1.330   7.719 -0.4610 -0.3178 -0.5016
 9096SOL    HW138750   1.382   1.416   7.720 -1.0165 -0.0598  0.8772
 9096SOL    HW238751   1.398   1.286   7.780  0.5623  1.2560 -0.3425
 9097SOL     OW38752   2.439   2.575   8.364  0.6184 -0.2018 -0.2173
 9097SOL    HW138753   2.396   2.652   8.328 -0.3517  0.3116  2.0390
 9097SOL    HW238754   2.364   2.539   8.411 -0.1540  1.7466  0.0090
 9098SOL     OW38755   1.173   1.015   3.941 -0.2554  0.0540  0.0595
 9098SOL    HW138756   1.238   0.948   3.961 -0.6370  0.1256  1.5110
 9098SOL    HW238757   1.137   1.049   4.023  0.8217  0.7778  0.2344
 9099SOL     OW38758   0.207   3.248  15.820 -0.2779 -0.4930 -0.0293
 9099SOL    HW138759   0.240   3.166  15.856  0.5857  0.4522  1.3236
 9099SOL    HW238760   0.123   3.219  15.783 -0.5366 -1.4147  1.2987
 9100SOL     OW38761   2.213   3.523   8.605 -0.1657  0.3677  0.0091
 9100SOL    HW138762   2.220   3.468   8.527  2.4653  1.5974 -0.6428
 9100SOL    HW238763   2.277   3.594   8.608 -0.0612  0.3057 -0.5701
 9101SOL     OW38764   4.211   0.941   2.285  0.3783 -0.1913  0.1732
 9101SOL    HW138765   4.181   0.895   2.206  1.6301  0.3115 -0.5973
 9101SOL    HW238766   4.179   1.031   2.277  1.8487  0.3015 -0.0085
 9102SOL     OW38767   2.447   4.325   2.692 -0.3704  0.1131 -0.0733
 9102SOL    HW138768   2.381   4.275   2.644 -0.0731  0.0416 -0.4063
 9102SOL    HW238769   2.456   4.402   2.636 -1.2997 -0.5968 -1.2177
 9103SOL     OW38770   3.750   0.585   2.323 -0.2117 -0.5206 -0.2564
 9103SOL    HW138771   3.836   0.582   2.366 -0.6954  1.9141  0.8355
 9103SOL    HW238772   3.701   0.521   2.375  0.0399 -0.4312  0.0964
 9104SOL     OW38773   0.912   3.162   5.616 -0.0788  0.0969  0.3937
 9104SOL    HW138774   0.976   3.160   5.545  2.2189  0.3908  2.4505
 9104SOL    HW238775   0.827   3.152   5.572 -0.2576  1.4151  0.4344
 9105SOL     OW38776   2.151   0.969  11.276 -0.2277  1.2461  0.2422
 9105SOL    HW138777   2.224   1.030  11.271  0.7858  0.0121  0.0846
 9105SOL    HW238778   2.194   0.884  11.286 -0.8849  0.6325 -2.1069
 9106SOL     OW38779   2.971   1.531   6.011 -0.2348 -0.2775  0.3497
 9106SOL    HW138780   2.934   1.487   6.087  1.6286 -0.7173  0.9976
 9106SOL    HW238781   3.026   1.593   6.059  1.0881  0.5945 -2.3100
 9107SOL     OW38782   0.101   1.866   9.878 -0.1848 -0.2719 -0.2005
 9107SOL    HW138783   0.165   1.887   9.946 -0.7733  0.1854  0.2122
 9107SOL    HW238784   0.062   1.951   9.859  1.4567  0.3401 -0.8161
 9108SOL     OW38785   0.185   4.619  16.640 -0.0457  0.3087 -0.3203
 9108SOL    HW138786   0.214   4.528  16.628 -0.5134  0.3488 -1.8030
 9108SOL    HW238787   0.243   4.655  16.573  2.2827  1.0704  2.0968
 9109SOL     OW38788   3.533   2.956   0.587 -0.2518 -0.3507  0.3841
 9109SOL    HW138789   3.590   3.023   0.549 -2.1753  1.3266  0.5098
 9109SOL    HW238790   3.518   3.000   0.671 -2.1423 -0.4332  0.0800
 9110SOL     OW38791   1.387   2.517   4.108 -0.0472 -0.6298 -0.1453
 9110SOL    HW138792   1.407   2.437   4.059  0.9344 -0.6556  0.2906
 9110SOL    HW238793   1.399   2.588   4.044  1.6075  0.1526  1.0310
 9111SOL     OW38794   4.169   0.768  16.836 -0.6166 -0.0707  0.6247
 9111SOL    HW138795   4.176   0.839  16.900 -1.3677  2.1851 -1.7821
 9111SOL    HW238796   4.165   0.694  16.898  1.1483 -1.1742 -0.5848
 9112SOL     OW38797   4.429   3.773   9.305 -0.0550 -0.2372 -0.3238
 9112SOL    HW138798   4.404   3.861   9.276 -0.5885 -0.1842  0.2914
 9112SOL    HW238799   4.345   3.742   9.339 -0.6810 -0.2348 -1.8981
 9113SOL     OW38800   4.694   2.261   8.121 -0.1825 -0.3376  0.1220
 9113SOL    HW138801   4.707   2.352   8.094  2.5220 -0.6550  0.4326
 9113SOL    HW238802   0.025   2.257   8.201 -1.2991  0.0553  0.8743
 9114SOL     OW38803   1.076   4.603  16.981 -0.1316  0.0413 -0.2992
 9114SOL    HW138804   1.141   4.673  16.978  0.1672 -0.1509  1.6215
 9114SOL    HW238805   1.136   4.532  17.004  0.8844  0.5638 -1.3237
 9115SOL     OW38806   3.117   2.280   8.050  0.1898  0.6498 -0.4337
 9115SOL    HW138807   3.163   2.267   7.967  0.2495 -1.5492 -0.0440
 9115SOL    HW238808   3.043   2.220   8.043  0.4446  0.3253 -0.3463
 9116SOL     OW38809   0.367   1.393   8.878 -0.1813 -0.7719 -0.2038
 9116SOL    HW138810   0.411   1.458   8.933  0.7292 -0.5570 -1.1773
 9116SOL    HW238811   0.440   1.382   8.816  1.8319 -1.3472  2.2529
 9117SOL     OW38812   2.683   3.011   8.556 -0.1789 -0.5400  0.2947
 9117SOL    HW138813   2.755   3.074   8.563  2.5870 -3.5114 -1.5455
 9117SOL    HW238814   2.708   2.957   8.481 -1.8464 -0.7949 -0.0596
 9118SOL     OW38815   3.122   3.002   9.624 -0.6079  0.2103  0.6682
 9118SOL    HW138816   3.194   3.018   9.685 -1.4017 -0.0080  1.6646
 9118SOL    HW238817   3.059   3.067   9.654 -0.9157  0.3777 -0.3388
 9119SOL     OW38818   3.561   3.703   4.423 -0.2442  0.2296  0.0970
 9119SOL    HW138819   3.491   3.767   4.414 -0.7787 -0.4473 -0.5026
 9119SOL    HW238820   3.625   3.748   4.479  1.0863 -0.5228 -0.8413
 9120SOL     OW38821   3.571   0.499   5.955  0.1680  0.9249 -0.4870
 9120SOL    HW138822   3.573   0.533   5.865  0.9776  0.6552 -0.5667
 9120SOL    HW238823   3.538   0.410   5.943  1.3339  0.3471  0.6675
 9121SOL     OW38824   4.069   2.781   2.925 -0.2631 -0.7655 -0.4581
 9121SOL    HW138825   4.128   2.708   2.907 -0.2107 -0.0022 -3.4683
 9121SOL    HW238826   4.089   2.810   3.014 -2.0619  0.0319 -0.3061
 9122SOL     OW38827   2.319   1.191  14.605 -0.0936  0.4808 -0.3344
 9122SOL    HW138828   2.348   1.103  14.626  0.6968  1.0565  0.9777
 9122SOL    HW238829   2.312   1.175  14.511  1.5578  0.6393 -0.4779
 9123SOL     OW38830   0.415   1.678   3.157  0.4454  0.4683  0.3383
 9123SOL    HW138831   0.331   1.684   3.202  0.8813 -0.5803  1.2793
 9123SOL    HW238832   0.392   1.607   3.097 -1.0239  0.5131  0.8520
 9124SOL     OW38833   3.793   3.787   2.093  1.1479 -0.4570  0.1981
 9124SOL    HW138834   3.733   3.785   2.168  2.0974  0.5711  0.9943
 9124SOL    HW238835   3.748   3.739   2.023  0.2662  0.0846  0.3885
 9125SOL     OW38836   0.801   1.439  11.488  0.0784  0.1628  0.0558
 9125SOL    HW138837   0.840   1.412  11.571  1.8077  1.1719 -0.4234
 9125SOL    HW238838   0.855   1.510  11.453  0.1272 -0.1020 -0.3983
 9126SOL     OW38839   4.442   3.018   7.890 -0.6046  0.0267  0.2516
 9126SOL    HW138840   4.399   2.947   7.842 -0.9472 -1.0167  2.0883
 9126SOL    HW238841   4.518   3.031   7.833 -1.6760 -1.4271 -1.5017
 9127SOL     OW38842   1.271   3.227  14.730  0.4227  0.4339  0.4305
 9127SOL    HW138843   1.331   3.189  14.666  0.6788  0.9467  0.3615
 9127SOL    HW238844   1.280   3.321  14.711  0.0122  0.9199  2.6838
 9128SOL     OW38845   0.108   0.936   4.217  0.0136 -0.1907 -0.2820
 9128SOL    HW138846   0.064   0.891   4.145 -1.1344 -0.8090  0.8137
 9128SOL    HW238847   0.188   0.882   4.212  1.7707  2.3074  1.0877
 9129SOL     OW38848   3.965   4.046   8.740  0.5328 -0.5688 -0.4457
 9129SOL    HW138849   3.939   4.058   8.649  2.6103 -1.4241 -1.1582
 9129SOL    HW238850   4.057   4.074   8.742  0.0335  0.9600  1.0543
 9130SOL     OW38851   3.267   4.513   7.351 -0.3787 -0.2111  0.2080
 9130SOL    HW138852   3.180   4.512   7.310 -0.9830  1.7725  1.4399
 9130SOL    HW238853   3.322   4.539   7.277 -1.1889 -0.6299 -0.5453
 9131SOL     OW38854   3.581   2.070   5.024 -0.1582 -0.4829  0.3117
 9131SOL    HW138855   3.492   2.037   5.009 -0.4026 -0.7852  2.5603
 9131SOL    HW238856   3.572   2.118   5.106 -1.3660 -0.0104 -0.1088
 9132SOL     OW38857   0.947   0.797   4.320  0.0442 -0.3451  0.6812
 9132SOL    HW138858   0.966   0.731   4.253 -3.0290  0.3810 -0.9529
 9132SOL    HW238859   1.039   0.819   4.335  0.0330  1.3475 -1.5881
 9133SOL     OW38860   4.037   1.160   8.406 -0.3207 -0.0266 -0.6972
 9133SOL    HW138861   3.982   1.101   8.355 -1.7056  0.4755  0.2240
 9133SOL    HW238862   4.122   1.163   8.362  0.5777 -0.5683  0.9820
 9134SOL     OW38863   3.583   1.407   5.255 -0.1931 -0.4053  0.5715
 9134SOL    HW138864   3.654   1.423   5.193 -0.3420 -0.5044  0.3785
 9134SOL    HW238865   3.617   1.472   5.318 -2.3052  2.5086 -1.3234
 9135SOL     OW38866   1.856   0.966  13.565  0.3631  0.3665  0.3621
 9135SOL    HW138867   1.828   0.945  13.654  1.9943  2.0248  1.2716
 9135SOL    HW238868   1.775   0.964  13.514  0.8176 -0.7819 -0.3330
 9136SOL     OW38869   0.768   1.233   3.971  0.1894  0.1178  0.6432
 9136SOL    HW138870   0.820   1.181   4.033 -0.8406 -0.8986  0.6434
 9136SOL    HW238871   0.715   1.282   4.034 -0.9368  2.0481 -1.8145
 9137SOL     OW38872   0.855   1.060   0.757  0.1739 -0.2193  0.1999
 9137SOL    HW138873   0.897   1.077   0.672 -1.5935  1.3850 -0.3553
 9137SOL    HW238874   0.765   1.036   0.738 -0.1040  0.1668  1.0561
 9138SOL     OW38875   0.587   3.428   5.132  0.2633 -0.2358  0.4092
 9138SOL    HW138876   0.666   3.428   5.186  1.4144 -1.5041 -1.2956
 9138SOL    HW238877   0.622   3.417   5.044 -0.4986  0.4750  0.0141
 9139SOL     OW38878   3.694   3.189   7.378 -0.5760 -0.1403 -0.4202
 9139SOL    HW138879   3.783   3.194   7.344 -0.5465  0.7017 -0.2224
 9139SOL    HW238880   3.697   3.248   7.453  0.7888  0.5021 -0.9785
 9140SOL     OW38881   0.646   3.098   1.385 -0.0949  0.2157 -0.1024
 9140SOL    HW138882   0.713   3.135   1.442 -0.6503  0.8964  0.1166
 9140SOL    HW238883   0.583   3.060   1.446  0.8589 -0.1600  0.6435
 9141SOL     OW38884   3.578   4.353  17.158  0.5636  0.2605 -0.2591
 9141SOL    HW138885   3.505   4.396  17.115  1.5495 -0.7313 -2.9126
 9141SOL    HW238886   3.630   4.424  17.196  1.9682 -2.2734  2.6031
 9142SOL     OW38887   4.036   0.459   1.720  0.1907 -0.4867 -0.7820
 9142SOL    HW138888   3.959   0.508   1.748 -0.7453 -2.3707 -0.0630
 9142SOL    HW238889   4.031   0.394   1.790 -0.6366  0.4648  0.0419
 9143SOL     OW38890   4.543   2.702   3.416  0.0280  0.0442  0.6910
 9143SOL    HW138891   4.575   2.680   3.329  0.1165  0.7885  0.5337
 9143SOL    HW238892   4.564   2.621   3.462 -0.0616 -0.6801 -0.5587
 9144SOL     OW38893   0.188   3.385  15.487  0.5081  0.2399 -0.4627
 9144SOL    HW138894   0.160   3.294  15.488 -0.7789  0.6499  0.0885
 9144SOL    HW238895   0.282   3.368  15.480  0.6773  0.2220  2.1168
 9145SOL     OW38896   3.130   3.676   1.984  0.1220  0.0052 -0.0043
 9145SOL    HW138897   3.210   3.637   2.019  0.7656  2.1003  0.8543
 9145SOL    HW238898   3.156   3.719   1.902  1.2257  0.5286  0.6269
 9146SOL     OW38899   4.670   1.239   7.989  0.0957 -0.1081  0.0724
 9146SOL    HW138900   4.653   1.331   8.011  1.7149  0.9146 -3.0061
 9146SOL    HW238901   0.020   1.252   7.927  1.6553 -0.9714  1.6702
 9147SOL     OW38902   4.410   1.353   6.325 -0.1300 -0.2048 -0.1384
 9147SOL    HW138903   4.389   1.324   6.236 -0.7689  0.6954 -0.2786
 9147SOL    HW238904   4.336   1.412   6.341  0.9472  1.1498 -0.1543
 9148SOL     OW38905   3.053   0.900   5.577  0.4843  0.0374 -0.5463
 9148SOL    HW138906   3.079   0.970   5.637 -0.4649  0.0968 -0.2121
 9148SOL    HW238907   3.108   0.921   5.502  1.9768  0.9060  0.7889
 9149SOL     OW38908   1.982   2.199  10.697  0.8307 -0.0409 -0.2284
 9149SOL    HW138909   2.018   2.287  10.703  1.4317 -0.3932  1.4903
 9149SOL    HW238910   2.039   2.148  10.755  0.7940  0.2030  0.0225
 9150SOL     OW38911   3.150   2.427   4.858  0.0285 -0.6100  0.1165
 9150SOL    HW138912   3.205   2.491   4.812  0.3312  0.3738  1.8653
 9150SOL    HW238913   3.154   2.473   4.942  0.6256  1.5172 -1.0738
 9151SOL     OW38914   3.719   3.018   5.988  0.0589 -0.5717 -0.5748
 9151SOL    HW138915   3.693   2.937   6.032 -0.2885 -0.1041  0.0718
 9151SOL    HW238916   3.799   2.986   5.946  2.1704  0.7371  2.4688
 9152SOL     OW38917   2.716   1.081   3.661 -0.2898 -0.0639 -0.7391
 9152SOL    HW138918   2.776   1.006   3.660 -1.5285 -1.0582  0.8922
 9152SOL    HW238919   2.674   1.061   3.744 -1.3642  0.0091 -1.2684
 9153SOL     OW38920   4.482   0.287   3.123 -0.2330 -0.4430 -0.3394
 9153SOL    HW138921   4.481   0.260   3.032 -2.2620  0.9240 -0.7092
 9153SOL    HW238922   4.394   0.324   3.132 -0.0145 -0.5906  2.6543
 9154SOL     OW38923   1.457   1.411   1.503 -0.7952  0.2051 -0.1321
 9154SOL    HW138924   1.424   1.426   1.414 -0.0547 -1.9496 -0.7646
 9154SOL    HW238925   1.541   1.457   1.492 -0.7182 -0.6847 -3.3773
 9155SOL     OW38926   4.491   1.547   4.805 -0.2255 -0.5312  0.1069
 9155SOL    HW138927   4.507   1.461   4.845  3.9501  0.5964  0.9060
 9155SOL    HW238928   4.523   1.603   4.876 -0.4526 -0.3011  0.0243
 9156SOL     OW38929   4.717   1.890   6.324 -0.3155 -0.1289 -0.1011
 9156SOL    HW138930   4.625   1.909   6.308 -0.8581 -1.8605  0.9625
 9156SOL    HW238931   0.037   1.939   6.253 -1.7005  3.0311  1.3180
 9157SOL     OW38932   1.168   1.358   1.112 -0.2492 -0.0790 -0.1918
 9157SOL    HW138933   1.246   1.305   1.130  0.2808  0.0933 -1.9645
 9157SOL    HW238934   1.178   1.382   1.019 -2.3676  1.3690 -0.0429
 9158SOL     OW38935   4.397   3.655  10.132 -0.3934  0.0228  0.1375
 9158SOL    HW138936   4.483   3.686  10.106  0.3811 -1.4865  0.9220
 9158SOL    HW238937   4.403   3.560  10.129  1.7589  0.1334  1.5171
 9159SOL     OW38938   0.301   3.152  10.745  0.6775  0.9289 -0.3368
 9159SOL    HW138939   0.259   3.188  10.667 -0.9463 -1.0502 -0.3564
 9159SOL    HW238940   0.386   3.192  10.724  2.3793 -2.7905 -0.4746
 9160SOL     OW38941   1.623   0.309   6.478  0.7442 -0.7210 -0.1515
 9160SOL    HW138942   1.591   0.287   6.566  1.4506  0.5844  0.4262
 9160SOL    HW238943   1.551   0.274   6.425 -1.8391  0.6681  2.4354
 9161SOL     OW38944   2.568   4.664  15.597  0.5115  0.2260 -0.5328
 9161SOL    HW138945   2.547   4.573  15.620  2.2590  0.0378  0.2590
 9161SOL    HW238946   2.540   4.657  15.506  0.2359  0.3477 -0.4600
 9162SOL     OW38947   2.514   2.015   8.819  0.1244 -0.1209  0.4464
 9162SOL    HW138948   2.586   2.016   8.883 -1.2708 -0.6100  2.0188
 9162SOL    HW238949   2.436   2.029   8.872 -0.7217 -1.2502 -0.5100
 9163SOL     OW38950   1.125   3.247   4.110  0.3427 -1.1267  0.2776
 9163SOL    HW138951   1.108   3.154   4.126 -1.7499 -0.5333  1.4525
 9163SOL    HW238952   1.053   3.286   4.160  1.6334  1.4689  0.1236
 9164SOL     OW38953   1.598   1.564   1.972 -0.1642  0.2034 -0.7038
 9164SOL    HW138954   1.691   1.547   1.985 -0.4721 -0.9688 -0.0334
 9164SOL    HW238955   1.558   1.481   1.947 -2.2506  0.6281  1.1482
 9165SOL     OW38956   1.520   2.705   1.003 -0.0902  0.2226 -0.0282
 9165SOL    HW138957   1.455   2.639   0.978 -0.5010  1.7308 -2.9773
 9165SOL    HW238958   1.595   2.683   0.948  0.3587 -0.3851  0.8424
 9166SOL     OW38959   0.838   0.204   6.043 -0.1088 -0.2492 -0.2633
 9166SOL    HW138960   0.859   0.124   6.091  1.4861  0.0291 -0.4990
 9166SOL    HW238961   0.824   0.168   5.955 -1.3991 -0.3042 -0.0361
 9167SOL     OW38962   2.295   2.023   8.993 -0.4456 -0.1216 -0.3461
 9167SOL    HW138963   2.242   2.098   9.019 -0.5949 -0.6827  0.9698
 9167SOL    HW238964   2.223   1.964   8.972 -0.2855 -0.2754 -0.4679
 9168SOL     OW38965   3.007   0.367  11.377  0.1052 -0.2860  0.0320
 9168SOL    HW138966   3.057   0.403  11.450 -0.6684  1.3211 -0.2324
 9168SOL    HW238967   2.936   0.429  11.364 -1.0671 -1.6401 -0.0264
 9169SOL     OW38968   2.268   1.580   4.595 -0.1761 -0.3596  0.3519
 9169SOL    HW138969   2.235   1.492   4.614 -1.1084  0.0453  0.6058
 9169SOL    HW238970   2.358   1.571   4.628  0.9429 -0.7206 -2.7810
 9170SOL     OW38971   1.377   2.447   0.002  0.6027  0.5761 -0.3975
 9170SOL    HW138972   1.342   2.513  17.627 -0.1992 -0.2222 -0.7967
 9170SOL    HW238973   1.418   2.498   0.071 -0.1902  0.9796 -0.2267
 9171SOL     OW38974   2.651   3.770   4.107  0.4776 -0.3100  0.5337
 9171SOL    HW138975   2.702   3.729   4.037  0.2223  1.8255 -0.9229
 9171SOL    HW238976   2.569   3.772   4.058  0.2502 -1.1729  0.8820
 9172SOL     OW38977   2.628   2.472   6.911  0.2794  0.3883 -0.2423
 9172SOL    HW138978   2.545   2.516   6.928  0.5834  1.2554 -1.0658
 9172SOL    HW238979   2.657   2.459   7.001 -1.2919 -0.1681  0.1938
 9173SOL     OW38980   3.907   0.914   5.464  0.2673  0.1568 -0.4870
 9173SOL    HW138981   3.819   0.893   5.433  0.0211 -1.8948  1.6019
 9173SOL    HW238982   3.909   1.006   5.436  0.1271 -0.3510 -2.1352
 9174SOL     OW38983   4.486   4.652   2.504  0.1009 -0.0995  0.4431
 9174SOL    HW138984   4.451   4.611   2.424  1.4214  1.5569 -0.9794
 9174SOL    HW238985   4.496   0.019   2.469 -2.0994  0.2464  0.7162
 9175SOL     OW38986   1.774   2.497   8.399  0.4434 -0.2678  0.0219
 9175SOL    HW138987   1.790   2.591   8.407 -0.0381 -0.2880  1.3471
 9175SOL    HW238988   1.816   2.480   8.315  3.2178  0.1415  1.3208
 9176SOL     OW38989   3.597   2.851   2.471 -0.1307 -0.1447 -0.0288
 9176SOL    HW138990   3.563   2.800   2.397 -2.5669  0.2637  0.8162
 9176SOL    HW238991   3.645   2.921   2.427  0.1769  0.1661  0.8188
 9177SOL     OW38992   0.972   4.049   3.539  0.2501  0.2711 -0.5170
 9177SOL    HW138993   1.043   3.985   3.547  1.2777  1.3592 -0.9208
 9177SOL    HW238994   0.892   4.012   3.501 -0.5308  0.9653  0.4379
 9178SOL     OW38995   4.503   1.445  16.854 -0.0438  0.2804  0.5250
 9178SOL    HW138996   4.456   1.502  16.793  0.3144 -1.0093 -0.9679
 9178SOL    HW238997   4.494   1.501  16.931  0.7338 -1.1494  1.6488
 9179SOL     OW38998   3.976   3.951   7.631  0.1187  0.2066 -0.1807
 9179SOL    HW138999   4.072   3.959   7.638  0.0931  0.8035 -0.4961
 9179SOL    HW239000   3.957   3.962   7.725  0.1202 -1.1034 -0.0248
 9180SOL     OW39001   3.940   2.082   6.104 -0.4717  0.0171  0.6792
 9180SOL    HW139002   3.846   2.067   6.114 -0.5752 -1.1619 -1.9966
 9180SOL    HW239003   3.961   2.095   6.197  1.5883 -1.8169  0.4700
 9181SOL     OW39004   0.899   1.336   0.424  0.3782  0.3947  0.1242
 9181SOL    HW139005   0.888   1.285   0.344  1.4383 -1.9157  1.4459
 9181SOL    HW239006   0.809   1.365   0.435  0.5803  1.5332 -1.1988
 9182SOL     OW39007   0.848   3.163  17.021 -0.1018 -0.3025 -0.0266
 9182SOL    HW139008   0.919   3.226  17.030 -1.2851  1.2454 -1.5339
 9182SOL    HW239009   0.900   3.085  17.041  0.9670  0.7099  1.1679
 9183SOL     OW39010   0.123   3.747  17.640  0.3281 -0.0956  0.0152
 9183SOL    HW139011   0.187   3.812  17.668 -0.3244  0.7225 -0.3867
 9183SOL    HW239012   0.049   3.777   0.007 -1.2303  0.1091 -2.2553
 9184SOL     OW39013   0.077   4.152   9.136  0.2196 -0.3408 -0.0108
 9184SOL    HW139014   0.167   4.183   9.121  0.0447  0.0616 -0.2338
 9184SOL    HW239015   0.060   4.180   9.226 -1.3536  1.1423 -0.7653
 9185SOL     OW39016   2.029   2.097  15.249 -0.5829 -0.0024  0.5880
 9185SOL    HW139017   2.123   2.078  15.255 -0.3542  1.1998  0.8709
 9185SOL    HW239018   2.013   2.069  15.159  1.3857 -3.6398  1.3736
 9186SOL     OW39019   1.825   1.680   2.344 -1.1909 -0.0620 -0.0669
 9186SOL    HW139020   1.818   1.638   2.258 -3.1649  0.8555 -0.3402
 9186SOL    HW239021   1.809   1.601   2.395  1.0811 -1.1119 -0.9568
 9187SOL     OW39022   2.202   2.107  10.870  0.4539  0.6529 -0.7229
 9187SOL    HW139023   2.227   2.133  10.959  0.4455 -1.0272 -0.2406
 9187SOL    HW239024   2.184   2.015  10.888 -0.6775  1.0662  0.3206
 9188SOL     OW39025   0.866   0.312  15.749  0.2786  0.0395  0.2627
 9188SOL    HW139026   0.867   0.345  15.659  0.7917  0.5910  0.4662
 9188SOL    HW239027   0.787   0.259  15.747  0.6112 -0.6281  4.0326
 9189SOL     OW39028   0.605   2.242   8.538 -0.3052 -0.4216  0.4661
 9189SOL    HW139029   0.660   2.297   8.596 -1.7993  0.6158  0.9058
 9189SOL    HW239030   0.518   2.267   8.568 -0.8394 -1.7921  0.0556
 9190SOL     OW39031   1.090   2.056   7.493 -0.3005  0.6870 -0.7662
 9190SOL    HW139032   1.005   2.099   7.495 -0.1755  0.8845  0.2994
 9190SOL    HW239033   1.061   1.966   7.512 -0.1972  1.4607  3.0652
 9191SOL     OW39034   4.708   2.071  13.444 -0.3029 -0.2780  0.5201
 9191SOL    HW139035   0.072   2.104  13.415 -0.9392 -0.7198 -1.8109
 9191SOL    HW239036   4.709   1.976  13.439  0.0022 -0.2128 -0.5473
 9192SOL     OW39037   4.471   0.719  16.208 -0.5100 -1.0702  0.0773
 9192SOL    HW139038   4.484   0.700  16.301 -0.6389 -0.7597  0.1582
 9192SOL    HW239039   4.556   0.690  16.176 -0.5306 -0.4635 -0.5060
 9193SOL     OW39040   1.237   2.238   3.695  0.1007  0.4269 -0.7082
 9193SOL    HW139041   1.289   2.171   3.740 -1.7235 -0.4757  0.0949
 9193SOL    HW239042   1.240   2.308   3.761 -1.7397  0.6695 -0.8837
 9194SOL     OW39043   0.991   2.336   0.607 -0.3690 -0.3868 -0.8105
 9194SOL    HW139044   1.065   2.278   0.594 -1.0659 -1.5000  0.2094
 9194SOL    HW239045   0.924   2.271   0.628  1.0202 -0.9004  1.9887
 9195SOL     OW39046   0.771   4.188   9.514  0.2923  0.0853 -0.2441
 9195SOL    HW139047   0.716   4.142   9.451  0.8504  0.7601 -1.2172
 9195SOL    HW239048   0.819   4.109   9.538 -0.3946 -0.4683 -0.6886
 9196SOL     OW39049   1.977   4.622  11.176  0.0270  0.3081  0.3875
 9196SOL    HW139050   1.910   4.670  11.126 -0.1232 -1.1789 -0.8353
 9196SOL    HW239051   2.058   4.668  11.154  0.2660 -0.3456 -0.0708
 9197SOL     OW39052   1.215   0.898   8.581  0.2384  0.4936  0.0819
 9197SOL    HW139053   1.137   0.917   8.529  1.0462 -0.2817 -1.4003
 9197SOL    HW239054   1.182   0.830   8.641 -0.3936  1.7743  1.1944
 9198SOL     OW39055   1.788   0.243  11.277  0.1667  0.2156  0.2273
 9198SOL    HW139056   1.807   0.240  11.371  0.8901 -2.2052  0.0153
 9198SOL    HW239057   1.874   0.242  11.235  0.7122 -0.7145  1.3453
 9199SOL     OW39058   1.489   2.894   6.155  0.1860  0.0712 -0.6286
 9199SOL    HW139059   1.579   2.866   6.173 -0.7379 -1.4942  1.5661
 9199SOL    HW239060   1.484   2.942   6.238 -0.2645  0.3336 -0.8055
 9200SOL     OW39061   1.229   4.105   5.814  0.2536  0.5260  0.4551
 9200SOL    HW139062   1.193   4.184   5.773  0.2751  1.1481  1.6435
 9200SOL    HW239063   1.321   4.124   5.797 -0.7228  4.6670 -0.3201
 9201SOL     OW39064   4.109   4.642   7.402  0.1504  0.2348 -0.5733
 9201SOL    HW139065   4.177   4.588   7.362 -1.3041 -1.4630 -0.7283
 9201SOL    HW239066   4.060   4.667   7.324 -2.0596  2.9193  1.6462
 9202SOL     OW39067   0.390   2.618   7.792  0.0082  0.4716 -0.3518
 9202SOL    HW139068   0.338   2.698   7.795  0.4949  0.6402  3.6473
 9202SOL    HW239069   0.472   2.661   7.817 -0.5807  1.0001  0.6586
 9203SOL     OW39070   1.465   0.505   9.221  0.6516 -0.1747  0.1112
 9203SOL    HW139071   1.431   0.592   9.242  0.3766 -1.0482  3.1896
 9203SOL    HW239072   1.455   0.463   9.307  1.2970  0.4529  0.4863
 9204SOL     OW39073   4.135   1.001  15.617  0.1333  0.3045  0.0661
 9204SOL    HW139074   4.129   1.004  15.522  0.9695 -1.0691 -0.0363
 9204SOL    HW239075   4.135   1.093  15.641  3.8705 -0.2784  2.3140
 9205SOL     OW39076   0.050   0.195   8.877  0.4028 -0.3667  0.0160
 9205SOL    HW139077   0.094   0.160   8.954  0.0838 -1.6203 -0.3575
 9205SOL    HW239078   0.129   0.219   8.829  0.8356 -0.6228  0.6034
 9206SOL     OW39079   0.221   2.430   4.293 -0.2895  0.1450  0.2492
 9206SOL    HW139080   0.301   2.466   4.332 -0.8072  0.7028  0.7919
 9206SOL    HW239081   0.249   2.346   4.257 -0.4733  0.6714 -1.1017
 9207SOL     OW39082   3.129   0.483  16.210 -0.0680 -0.3039 -0.0341
 9207SOL    HW139083   3.133   0.573  16.242 -1.6999 -0.1646 -0.2071
 9207SOL    HW239084   3.067   0.440  16.269  0.3486 -0.5439  0.2316
 9208SOL     OW39085   1.949   1.053  17.344 -0.4481  0.1709 -0.3461
 9208SOL    HW139086   1.990   1.140  17.346  1.0515 -0.5911  1.2102
 9208SOL    HW239087   1.952   1.031  17.437  0.1738  0.7437 -0.2318
 9209SOL     OW39088   1.914   0.994   4.088  0.2060  0.3708 -0.1467
 9209SOL    HW139089   1.887   0.917   4.137  0.5260 -0.3631 -1.1229
 9209SOL    HW239090   1.852   1.000   4.015  1.7118  1.4424 -1.3495
 9210SOL     OW39091   2.214   0.482   5.100  0.3521  0.4521  0.7157
 9210SOL    HW139092   2.125   0.509   5.121  1.1182  2.6307  1.2337
 9210SOL    HW239093   2.231   0.550   5.034 -0.2966 -0.5356 -0.4642
 9211SOL     OW39094   3.056   3.817   5.888  0.4323 -0.2944 -0.0041
 9211SOL    HW139095   3.028   3.737   5.843  0.6388  0.2797 -1.1466
 9211SOL    HW239096   3.073   3.780   5.975 -1.3070  0.9036  0.8462
 9212SOL     OW39097   1.314   2.517   4.840 -0.2845  0.1241  0.0668
 9212SOL    HW139098   1.284   2.589   4.897 -1.9760 -0.2810 -0.2969
 9212SOL    HW239099   1.407   2.522   4.858 -0.2403 -3.8940  0.9463
 9213SOL     OW39100   2.566   3.034   6.011  0.5113  0.2176 -0.4253
 9213SOL    HW139101   2.475   3.034   6.041  0.7212  0.8231  0.1906
 9213SOL    HW239102   2.573   2.942   5.985  0.8825 -0.0387  0.6159
 9214SOL     OW39103   3.202   1.711   6.433 -0.1614  0.7830 -0.2374
 9214SOL    HW139104   3.138   1.691   6.501  1.0315  0.5091  0.8015
 9214SOL    HW239105   3.239   1.623   6.430  0.2279  0.9329  0.1016
 9215SOL     OW39106   4.030   0.266   5.419  0.1562 -0.3997 -0.4176
 9215SOL    HW139107   3.951   0.285   5.368  0.0609  0.6061  0.1054
 9215SOL    HW239108   4.094   0.325   5.378 -1.7798  1.6256 -0.5568
 9216SOL     OW39109   0.599   3.341   1.206 -0.2014 -0.3251  0.4748
 9216SOL    HW139110   0.684   3.379   1.229  0.5253 -1.1395 -0.8156
 9216SOL    HW239111   0.610   3.254   1.245  1.9777 -1.7384 -3.1782
 9217SOL     OW39112   4.604   4.141  10.246 -0.0680 -0.6884  0.1844
 9217SOL    HW139113   4.618   4.229  10.281 -0.3564 -0.9168  0.8683
 9217SOL    HW239114   4.576   4.091  10.323  0.5491 -0.2824  0.6769
 9218SOL     OW39115   4.378   3.322   7.340 -0.1451 -0.3376 -0.0290
 9218SOL    HW139116   4.284   3.341   7.338 -0.3535 -1.2333  1.3410
 9218SOL    HW239117   4.416   3.381   7.274  2.4754 -1.3868  0.5743
 9219SOL     OW39118   4.357   1.692  15.182 -0.0093 -0.0314  0.1696
 9219SOL    HW139119   4.385   1.773  15.224 -1.8697  0.2322  0.8735
 9219SOL    HW239120   4.434   1.635  15.179 -0.6752 -0.9711  0.6729
 9220SOL     OW39121   3.204   2.564   8.721 -0.3165  0.1542  0.3269
 9220SOL    HW139122   3.229   2.490   8.776  1.9621  1.0566  0.5363
 9220SOL    HW239123   3.125   2.583   8.771  0.5527  0.3867  1.6056
 9221SOL     OW39124   2.893   0.634   4.661  0.0571  0.6781  0.4486
 9221SOL    HW139125   2.815   0.600   4.617  1.6769 -3.5308  0.7558
 9221SOL    HW239126   2.961   0.595   4.605  0.4273  1.1837  0.5527
 9222SOL     OW39127   0.573   4.210   6.678 -0.1308 -0.4166 -0.2109
 9222SOL    HW139128   0.493   4.238   6.722  0.7271  0.0793  1.0425
 9222SOL    HW239129   0.637   4.248   6.737  1.9384 -2.0503 -1.4041
 9223SOL     OW39130   3.536   3.395   9.469 -0.0325 -0.7188 -0.4045
 9223SOL    HW139131   3.586   3.338   9.528 -0.0325 -0.3184 -0.0137
 9223SOL    HW239132   3.533   3.472   9.526 -1.0258 -1.2823  0.2966
 9224SOL     OW39133   0.082   2.716   2.045  0.0895 -0.5983  0.6814
 9224SOL    HW139134   0.014   2.649   2.037 -1.0701  0.7713 -0.7048
 9224SOL    HW239135   0.139   2.694   1.971  0.4237  0.6655  0.5705
 9225SOL     OW39136   2.159   3.164   3.177  0.2769 -0.2324 -0.3147
 9225SOL    HW139137   2.234   3.105   3.168 -0.9596 -1.7097 -1.0603
 9225SOL    HW239138   2.138   3.189   3.087 -0.0905 -2.0561 -0.7563
 9226SOL     OW39139   2.920   3.515   7.140 -1.0085  0.3039  0.1359
 9226SOL    HW139140   2.912   3.570   7.218  1.2351  1.7143 -0.6219
 9226SOL    HW239141   2.949   3.584   7.080  0.4605 -2.4507 -2.2849
 9227SOL     OW39142   2.316   2.806  16.730 -0.0223 -0.0546  0.5154
 9227SOL    HW139143   2.267   2.887  16.742  1.0789  0.5981  0.6251
 9227SOL    HW239144   2.386   2.812  16.795  1.4262 -1.1518 -0.9285
 9228SOL     OW39145   0.238   3.743  10.454 -0.7302 -0.1875  0.5602
 9228SOL    HW139146   0.162   3.753  10.512 -1.1876 -1.0773  0.1203
 9228SOL    HW239147   0.315   3.724  10.507 -0.2429  1.3691  0.4159
 9229SOL     OW39148   1.999   0.648  10.623  0.7190 -0.0230  0.3218
 9229SOL    HW139149   1.962   0.616  10.541  0.6598  0.7779  0.0366
 9229SOL    HW239150   1.945   0.604  10.688 -1.4135 -0.4136 -1.7286
 9230SOL     OW39151   2.025   3.900   6.917  0.4258 -0.3734 -0.3316
 9230SOL    HW139152   2.004   3.838   6.988 -0.5976 -0.8674 -1.0722
 9230SOL    HW239153   2.057   3.976   6.967 -0.0320  0.9316 -2.0419
 9231SOL     OW39154   4.285   2.448   3.437 -0.0721  0.3777 -0.3340
 9231SOL    HW139155   4.269   2.538   3.408 -0.4277  0.3666 -0.1717
 9231SOL    HW239156   4.374   2.439   3.473 -0.1904 -0.5625 -0.2758
 9232SOL     OW39157   4.482   0.406   3.506 -0.0684  0.0940 -0.4739
 9232SOL    HW139158   4.417   0.345   3.470 -1.2027  1.0766 -0.1043
 9232SOL    HW239159   4.561   0.365   3.471 -0.6114 -0.7467 -0.7276
 9233SOL     OW39160   1.387   4.632  12.214 -0.1783  0.4080  0.0183
 9233SOL    HW139161   1.388   4.537  12.224 -0.8335  0.2002 -1.8804
 9233SOL    HW239162   1.323   4.655  12.281 -1.1764 -0.2289 -0.7166
 9234SOL     OW39163   0.123   2.667   7.311  0.8019 -0.1580  0.2250
 9234SOL    HW139164   0.099   2.632   7.396  0.8051 -0.4245  0.1153
 9234SOL    HW239165   0.192   2.610   7.278  0.3403  0.0744 -1.1624
 9235SOL     OW39166   0.483   0.746   3.122 -0.2483 -0.6364  0.4630
 9235SOL    HW139167   0.462   0.794   3.202 -1.5202  0.4480 -0.5069
 9235SOL    HW239168   0.420   0.674   3.119 -0.1993 -0.6753  0.3575
 9236SOL     OW39169   4.353   4.603   1.185 -0.1937  0.6824 -0.2191
 9236SOL    HW139170   4.412   4.671   1.219  0.2885 -1.1531  2.6726
 9236SOL    HW239171   4.356   4.535   1.253  0.2479 -0.0779 -1.0002
 9237SOL     OW39172   1.769   3.582   3.043 -0.0088  0.2186  0.3559
 9237SOL    HW139173   1.758   3.674   3.021  1.8884 -0.2170 -2.3114
 9237SOL    HW239174   1.832   3.585   3.115 -1.2954 -1.5227  1.5853
 9238SOL     OW39175   0.275   4.299   6.426  0.4655  0.3862 -0.3880
 9238SOL    HW139176   0.351   4.293   6.484  1.1720 -0.5133 -1.3889
 9238SOL    HW239177   0.234   4.215   6.447  0.5818  0.6054  0.7029
 9239SOL     OW39178   3.592   3.986   6.745 -0.1125 -0.3160  0.4417
 9239SOL    HW139179   3.553   4.001   6.659  1.3535 -0.0753 -0.1863
 9239SOL    HW239180   3.544   4.052   6.795 -0.6947 -0.3737 -0.0465
 9240SOL     OW39181   2.966   3.918  11.760  0.3636  0.1211  0.1418
 9240SOL    HW139182   3.062   3.915  11.765  0.4745  1.0435 -1.3839
 9240SOL    HW239183   2.939   3.839  11.805 -0.3888  0.4461  0.2592
 9241SOL     OW39184   2.105   0.007   7.088  0.2240  0.6190 -0.2566
 9241SOL    HW139185   2.107   0.089   7.039 -0.2260 -0.1665 -1.5813
 9241SOL    HW239186   2.031   0.033   7.144  0.3136  1.7814 -0.6774
 9242SOL     OW39187   3.480   2.819   8.168  0.1385  0.2208 -0.1207
 9242SOL    HW139188   3.412   2.844   8.105 -0.5577  0.3425  0.6814
 9242SOL    HW239189   3.457   2.729   8.189 -0.9448  0.5194 -0.0052
 9243SOL     OW39190   2.268   1.507  17.585 -0.2028  0.4587 -0.1829
 9243SOL    HW139191   2.229   1.458  17.657  1.9414 -1.4122 -0.2796
 9243SOL    HW239192   2.329   1.554  17.641 -0.8564 -0.6605  1.4628
 9244SOL     OW39193   2.319   2.186  17.610  0.0288  0.1674  0.0007
 9244SOL    HW139194   2.298   2.118  17.675 -1.1942 -0.4440 -1.0276
 9244SOL    HW239195   2.292   2.159  17.522 -1.0014  1.5275 -0.0942
 9245SOL     OW39196   3.113   2.186  15.580 -0.0237 -0.5130  0.3695
 9245SOL    HW139197   3.138   2.239  15.504 -0.6065 -0.1331  0.4434
 9245SOL    HW239198   3.137   2.230  15.662  2.1504  1.8358 -1.4994
 9246SOL     OW39199   3.467   3.223   7.251 -0.5281  0.0042  0.2816
 9246SOL    HW139200   3.550   3.210   7.297 -0.8145 -1.3284  0.4373
 9246SOL    HW239201   3.429   3.293   7.304  0.8176  0.5346  0.5243
 9247SOL     OW39202   0.810   1.741   6.049  0.2356  0.9158 -0.7120
 9247SOL    HW139203   0.821   1.648   6.028  0.3473  0.4860  1.2586
 9247SOL    HW239204   0.828   1.781   5.964  0.2338 -0.7491 -1.4928
 9248SOL     OW39205   1.606   3.949   5.948 -0.0083 -0.0259 -0.1576
 9248SOL    HW139206   1.613   4.044   5.943  1.5394  0.0161  2.5432
 9248SOL    HW239207   1.687   3.925   5.994  0.7082  1.8341 -0.4547
 9249SOL     OW39208   1.504   1.784   4.812 -0.0356  0.2506 -0.0238
 9249SOL    HW139209   1.536   1.697   4.788  2.4786  0.7245  1.6515
 9249SOL    HW239210   1.484   1.805   4.721 -2.8273 -0.7324  0.3460
 9250SOL     OW39211   1.197   2.502   3.789 -0.1308 -0.6559  0.3879
 9250SOL    HW139212   1.131   2.541   3.733 -0.3219  0.8684  1.6673
 9250SOL    HW239213   1.256   2.577   3.795  0.1762 -0.9073  0.5955
 9251SOL     OW39214   0.791   0.131   8.104  0.0324 -0.1815 -0.4298
 9251SOL    HW139215   0.727   0.171   8.044 -0.2762  2.3209  1.5344
 9251SOL    HW239216   0.867   0.179   8.071 -0.9596  2.4422  1.0574
 9252SOL     OW39217   1.314   4.354   6.999  0.1052  0.4144 -0.1477
 9252SOL    HW139218   1.378   4.419   7.028 -2.4168  2.2968  1.1049
 9252SOL    HW239219   1.359   4.274   7.027 -0.8063  0.9250  2.7842
 9253SOL     OW39220   1.269   1.057  13.737  0.0713  0.1434 -0.0119
 9253SOL    HW139221   1.183   1.037  13.701 -0.1358 -0.4024  0.7830
 9253SOL    HW239222   1.286   0.967  13.764  0.5806 -0.4994 -2.4154
 9254SOL     OW39223   2.374   4.184  14.740 -0.1805  0.5826  0.4305
 9254SOL    HW139224   2.391   4.105  14.790 -1.0949 -0.3900 -0.8044
 9254SOL    HW239225   2.463   4.189  14.706  0.0323 -1.3896  0.7416
 9255SOL     OW39226   4.189   2.980   6.491 -1.0947 -1.0543 -0.1326
 9255SOL    HW139227   4.192   3.066   6.449  0.6133 -0.6665  0.7839
 9255SOL    HW239228   4.206   2.988   6.584  1.9456 -1.9368 -0.6291
 9256SOL     OW39229   1.359   3.028   4.939 -0.3152  1.0909  0.5475
 9256SOL    HW139230   1.436   3.072   4.902 -0.5222  1.1650  0.2082
 9256SOL    HW239231   1.291   3.090   4.912 -1.8930 -0.6016  0.6489
 9257SOL     OW39232   0.558   3.435   1.723 -0.2412  0.3459  0.4272
 9257SOL    HW139233   0.642   3.470   1.754 -0.1362  2.6096 -2.4594
 9257SOL    HW239234   0.561   3.345   1.756 -0.2722  0.2091  0.0480
 9258SOL     OW39235   4.244   1.047  15.947 -0.1018 -0.3047  0.5725
 9258SOL    HW139236   4.336   1.066  15.967  0.9297 -1.1385 -3.3804
 9258SOL    HW239237   4.233   0.953  15.957  1.6718 -0.2669  2.9841
 9259SOL     OW39238   0.721   1.203   8.188  0.3524  0.1048 -0.1301
 9259SOL    HW139239   0.721   1.281   8.132 -1.5261  0.2940  0.1496
 9259SOL    HW239240   0.660   1.144   8.144 -0.1222  1.4338 -1.2579
 9260SOL     OW39241   4.430   3.089   3.571 -0.1696 -0.1838  0.2835
 9260SOL    HW139242   4.366   3.024   3.542 -1.1627  1.2941 -0.7486
 9260SOL    HW239243   4.502   3.028   3.590  1.8613  2.3739  0.7695
 9261SOL     OW39244   0.592   0.401   9.899  0.1274 -0.1310 -0.1912
 9261SOL    HW139245   0.547   0.328   9.941 -0.6682 -0.4812 -1.6277
 9261SOL    HW239246   0.675   0.372   9.861 -0.8653  0.0577 -2.5505
 9262SOL     OW39247   3.009   2.840  15.426  0.7493  0.5337 -0.0551
 9262SOL    HW139248   3.031   2.789  15.504  0.2215  0.4640  0.0523
 9262SOL    HW239249   3.054   2.923  15.442  1.2561  0.2891 -0.2046
 9263SOL     OW39250   4.420   1.505   5.121  0.1539 -0.3242 -0.2642
 9263SOL    HW139251   4.453   1.420   5.093 -0.7822 -0.4535 -1.0128
 9263SOL    HW239252   4.341   1.507   5.066  0.0483  1.4502 -0.0273
 9264SOL     OW39253   0.645   1.486  13.616 -0.1136 -0.4108  0.0031
 9264SOL    HW139254   0.669   1.547  13.686 -2.7144  3.2742 -2.3136
 9264SOL    HW239255   0.607   1.419  13.671  0.2135 -2.9015 -2.8118
 9265SOL     OW39256   0.695   3.100   8.368  0.4187 -0.1158  0.1572
 9265SOL    HW139257   0.676   3.102   8.462  0.1013 -1.5701  0.1212
 9265SOL    HW239258   0.764   3.034   8.369  0.4709 -0.0754 -1.4594
 9266SOL     OW39259   4.579   3.249  15.896  0.1006  0.0349  0.5909
 9266SOL    HW139260   4.632   3.207  15.829 -1.4375  0.6128 -0.9846
 9266SOL    HW239261   4.614   3.337  15.882 -0.2505  0.0404 -0.2622
 9267SOL     OW39262   0.130   2.359  15.667  0.1296  0.0779 -0.3794
 9267SOL    HW139263   0.216   2.398  15.687  2.0502 -4.8342  0.8863
 9267SOL    HW239264   0.118   2.390  15.577 -1.3797 -1.8820 -0.8410
 9268SOL     OW39265   3.895   1.973   0.386 -0.3345 -0.5211  0.1520
 9268SOL    HW139266   3.905   2.063   0.416  0.3007 -1.3004  2.2786
 9268SOL    HW239267   3.986   1.964   0.355 -0.1138  0.6130  0.4633
 9269SOL     OW39268   3.709   3.959   7.009  0.2656 -0.2184 -0.2460
 9269SOL    HW139269   3.716   4.009   6.928 -0.6908  0.6134  0.1780
 9269SOL    HW239270   3.778   3.895   6.991 -0.9464 -2.2727  2.3875
 9270SOL     OW39271   1.756   4.307   2.204 -0.3124  0.1546  0.0575
 9270SOL    HW139272   1.779   4.394   2.236 -0.7544  0.8595 -1.5637
 9270SOL    HW239273   1.661   4.316   2.201 -0.2471  1.0347  0.5910
 9271SOL     OW39274   3.307   4.074  16.947 -0.0376 -0.0924  0.4482
 9271SOL    HW139275   3.218   4.040  16.935 -0.1996  0.3152  0.5200
 9271SOL    HW239276   3.324   4.123  16.867  2.6198 -1.2276  0.2939
 9272SOL     OW39277   2.464   2.982   5.543  0.2534 -0.1281 -0.2192
 9272SOL    HW139278   2.530   2.927   5.500  0.8628  1.1064 -0.8514
 9272SOL    HW239279   2.486   2.962   5.634 -2.3632 -1.3221  0.1338
 9273SOL     OW39280   3.857   1.516  13.414  0.1171 -0.3432  0.2208
 9273SOL    HW139281   3.866   1.611  13.426 -0.2281 -0.3165  0.2706
 9273SOL    HW239282   3.917   1.491  13.343 -1.9699 -0.6322 -1.4276
 9274SOL     OW39283   0.356   2.364  14.706  0.0378  0.2503  1.2347
 9274SOL    HW139284   0.311   2.436  14.749  1.0768  1.2159  0.7279
 9274SOL    HW239285   0.423   2.421  14.667 -0.0668  0.3525  1.2056
 9275SOL     OW39286   0.988   1.874   6.186  0.2717  0.5572  0.2710
 9275SOL    HW139287   0.952   1.959   6.160  2.2271  1.1025 -0.6289
 9275SOL    HW239288   0.931   1.809   6.145 -1.6844  1.0683  2.1684
 9276SOL     OW39289   1.259   1.818  14.520 -0.7431  0.1933  0.2084
 9276SOL    HW139290   1.314   1.739  14.520  0.4885  1.0472 -0.9383
 9276SOL    HW239291   1.225   1.804  14.431  0.5320 -0.6586 -0.1481
 9277SOL     OW39292   3.281   2.484   8.309  0.5789 -0.7786  0.0076
 9277SOL    HW139293   3.253   2.573   8.291 -0.4697 -1.6786 -2.9766
 9277SOL    HW239294   3.192   2.450   8.321  0.2552 -0.1905 -0.7320
 9278SOL     OW39295   1.736   0.093   3.061 -0.0261 -0.4485 -0.5648
 9278SOL    HW139296   1.652   0.137   3.069 -0.2354 -1.1082  0.8337
 9278SOL    HW239297   1.715   0.018   3.117 -0.9069 -0.3065 -0.7137
 9279SOL     OW39298   1.814   1.451   9.617  0.1998 -0.3195 -0.6816
 9279SOL    HW139299   1.767   1.534   9.622 -0.1956 -0.6754  1.6397
 9279SOL    HW239300   1.832   1.427   9.708  0.4933  0.9023 -0.4221
 9280SOL     OW39301   0.087   4.046  16.059 -0.7279 -0.0054 -0.1954
 9280SOL    HW139302   0.149   3.980  16.091  0.1687  1.0046  0.1363
 9280SOL    HW239303   0.083   4.099  16.138  1.3939 -0.6287  0.3252
 9281SOL     OW39304   3.434   4.484   5.773  0.2484 -0.1363  0.3437
 9281SOL    HW139305   3.408   4.402   5.730  0.3134  1.0870 -2.0465
 9281SOL    HW239306   3.520   4.499   5.733 -1.6977  2.6396 -2.7677
 9282SOL     OW39307   1.028   0.606   5.205  0.7660  0.0565 -0.8307
 9282SOL    HW139308   1.000   0.683   5.254  1.5909  0.0959 -0.4108
 9282SOL    HW239309   0.946   0.557   5.200 -0.8613  2.7963 -0.8654
 9283SOL     OW39310   0.271   2.376   7.893  0.2663  0.8604 -0.0070
 9283SOL    HW139311   0.312   2.461   7.876  0.4699  0.9023  0.6674
 9283SOL    HW239312   0.176   2.390   7.900 -0.2741 -2.0609 -1.6666
 9284SOL     OW39313   1.496   3.701   7.223  0.4635 -0.6041 -0.5954
 9284SOL    HW139314   1.505   3.626   7.282 -1.3690 -0.0600  0.3949
 9284SOL    HW239315   1.405   3.724   7.240  1.1969  1.0969  1.0764
 9285SOL     OW39316   4.536   2.236   5.272 -0.4715 -0.4138 -0.9015
 9285SOL    HW139317   4.525   2.296   5.198 -0.6140  0.7559  0.0745
 9285SOL    HW239318   4.513   2.296   5.343  4.0720  1.6716 -1.2306
 9286SOL     OW39319   1.531   4.383  10.056 -0.0662  0.1790  0.0275
 9286SOL    HW139320   1.583   4.302  10.061 -0.5415 -0.2668 -2.2705
 9286SOL    HW239321   1.606   4.440  10.072  0.5533 -0.5725 -0.2193
 9287SOL     OW39322   3.236   3.066   3.229 -0.0377  0.3912 -0.1219
 9287SOL    HW139323   3.296   3.107   3.167  2.7019 -0.8602  1.7250
 9287SOL    HW239324   3.157   3.071   3.175  0.1035 -1.3947 -0.4917
 9288SOL     OW39325   3.169   2.564   3.254 -0.0323  0.0643 -0.3788
 9288SOL    HW139326   3.106   2.578   3.184  0.7494 -0.3605 -1.1606
 9288SOL    HW239327   3.170   2.654   3.288  0.6053 -0.3402  0.6694
 9289SOL     OW39328   0.150   1.664   3.215  0.2478 -0.8700 -0.0587
 9289SOL    HW139329   0.181   1.575   3.234  1.0228 -0.2193  1.7191
 9289SOL    HW239330   0.085   1.632   3.153  0.6824 -0.8056 -0.5414
 9290SOL     OW39331   3.397   1.232   8.156  0.2292 -0.1078  0.4223
 9290SOL    HW139332   3.433   1.320   8.165  0.5222 -0.1171 -0.6672
 9290SOL    HW239333   3.386   1.220   8.250  1.3945  0.9051  0.6854
 9291SOL     OW39334   4.630   4.239  10.778  0.0525 -0.1945 -0.4681
 9291SOL    HW139335   4.609   4.171  10.714  3.5678 -2.3170  0.6248
 9291SOL    HW239336   0.004   4.233  10.790 -0.0865 -3.4602 -0.9191
 9292SOL     OW39337   2.043   0.919   5.413  0.1296  0.8787  0.8831
 9292SOL    HW139338   2.087   1.004   5.401  0.2226  0.5396 -1.1235
 9292SOL    HW239339   1.974   0.951   5.472 -0.4122 -1.4591  1.5192
 9293SOL     OW39340   0.380   3.900   2.098  0.0355 -0.3920 -0.0668
 9293SOL    HW139341   0.435   3.976   2.119 -0.0316 -0.0891 -0.9680
 9293SOL    HW239342   0.447   3.834   2.084 -0.0149 -0.5210  0.3177
 9294SOL     OW39343   0.151   1.939   4.340 -0.3374  0.0925 -0.3090
 9294SOL    HW139344   0.119   1.938   4.430  1.0817  1.9229  0.2097
 9294SOL    HW239345   0.073   1.913   4.290  0.8708 -1.5737 -1.3310
 9295SOL     OW39346   0.646   4.495  15.568  0.0010 -0.1744 -0.0333
 9295SOL    HW139347   0.691   4.415  15.541 -1.0791 -0.5286 -0.7843
 9295SOL    HW239348   0.721   4.554  15.567  0.5283 -0.8322  0.5500
 9296SOL     OW39349   2.184   3.005   1.695  0.4139  0.4804 -0.2847
 9296SOL    HW139350   2.204   3.085   1.742 -0.6681  0.7540 -0.2996
 9296SOL    HW239351   2.118   2.962   1.750 -0.4952  0.7648 -1.1584
 9297SOL     OW39352   3.499   0.713  13.150 -0.8266 -0.8105  0.3609
 9297SOL    HW139353   3.570   0.774  13.127 -1.2017 -0.7693 -0.7138
 9297SOL    HW239354   3.534   0.628  13.124 -1.5296 -0.2912 -2.3324
 9298SOL     OW39355   1.063   2.824   8.099 -0.0315 -0.5862  0.4412
 9298SOL    HW139356   0.977   2.848   8.064  0.2641  0.3963  0.3823
 9298SOL    HW239357   1.050   2.730   8.113  1.4074 -0.5447  2.0735
 9299SOL     OW39358   3.400   2.064  11.449 -0.2558 -0.3548  0.3094
 9299SOL    HW139359   3.456   2.007  11.396  0.6016  0.7707 -0.0081
 9299SOL    HW239360   3.424   2.036  11.537 -2.1530  1.6654  1.4598
 9300SOL     OW39361   2.029   1.298   2.055  0.7824 -0.1016 -0.0027
 9300SOL    HW139362   2.087   1.270   2.127  1.1116 -0.2847 -0.3376
 9300SOL    HW239363   2.072   1.378   2.022 -1.2799  1.3404  0.8280
 9301SOL     OW39364   3.994   3.287  10.392 -0.3267 -0.0811 -0.0047
 9301SOL    HW139365   4.012   3.341  10.469  0.1039 -0.6758  0.3145
 9301SOL    HW239366   4.039   3.337  10.323  1.8764 -0.7187  0.9728
 9302SOL     OW39367   2.366   3.318  14.552 -0.4143 -0.3946 -0.1564
 9302SOL    HW139368   2.316   3.246  14.590  0.2115 -0.7760 -0.0685
 9302SOL    HW239369   2.443   3.327  14.608 -0.5003 -2.8195  0.3392
 9303SOL     OW39370   2.036   0.280   1.179  0.2027  0.2744  0.1554
 9303SOL    HW139371   2.026   0.354   1.120  1.4849 -1.2304 -1.9818
 9303SOL    HW239372   2.129   0.290   1.200 -0.0981  0.6588  1.2745
 9304SOL     OW39373   0.450   2.279   6.471 -0.3002  0.0532 -0.0225
 9304SOL    HW139374   0.448   2.195   6.516 -0.4572  0.6873  1.1669
 9304SOL    HW239375   0.360   2.290   6.440 -0.5378 -1.5895  0.0850
 9305SOL     OW39376   2.100   0.780  13.720 -0.3637  0.1930 -0.1576
 9305SOL    HW139377   2.122   0.694  13.684 -0.3025  0.1517 -0.0244
 9305SOL    HW239378   2.026   0.803  13.665  0.3586  2.2745 -0.2625
 9306SOL     OW39379   4.291   0.470  11.290 -0.1372  0.8934  0.0707
 9306SOL    HW139380   4.225   0.404  11.315  0.1286  1.0069  1.0870
 9306SOL    HW239381   4.250   0.510  11.213 -0.9275  1.2595  0.6739
 9307SOL     OW39382   3.227   2.230  13.506  0.4775 -0.3072 -0.2854
 9307SOL    HW139383   3.150   2.216  13.451  2.5568 -0.3598 -3.1987
 9307SOL    HW239384   3.180   2.255  13.585  0.8902  0.4679 -0.2834
 9308SOL     OW39385   4.247   4.356   4.778  0.4085 -0.4260 -0.0062
 9308SOL    HW139386   4.332   4.400   4.782  0.1554  0.1488 -1.1250
 9308SOL    HW239387   4.270   4.287   4.715 -1.8370 -0.2156 -1.0637
 9309SOL     OW39388   1.145   3.827   5.553  0.4859 -0.1465 -0.4298
 9309SOL    HW139389   1.105   3.794   5.473  2.4304 -0.5596 -1.2294
 9309SOL    HW239390   1.214   3.880   5.514 -1.1105  2.6777  0.5261
 9310SOL     OW39391   1.232   1.779   6.279 -0.1427 -0.1961 -0.3945
 9310SOL    HW139392   1.236   1.791   6.374 -0.5445 -1.2820 -0.2348
 9310SOL    HW239393   1.157   1.832   6.253 -0.1201 -0.3533 -0.7833
 9311SOL     OW39394   2.086   0.951   2.557 -0.3802 -0.4668 -0.0337
 9311SOL    HW139395   2.105   1.034   2.601  2.9273 -0.5105 -1.3400
 9311SOL    HW239396   2.133   0.952   2.473 -1.1621  0.1847 -0.4626
 9312SOL     OW39397   1.796   0.907  17.153 -0.2615 -0.1942  0.2213
 9312SOL    HW139398   1.832   0.973  17.212 -0.7515  0.8435 -0.6360
 9312SOL    HW239399   1.878   0.878  17.112 -0.9164 -2.3868  0.4666
 9313SOL     OW39400   0.621   1.250   7.627  0.3508  0.7543  0.4077
 9313SOL    HW139401   0.559   1.321   7.644 -1.9027 -1.3214  0.7984
 9313SOL    HW239402   0.603   1.193   7.702  1.2467  1.8472  1.4576
 9314SOL     OW39403   4.398   4.175   1.995  0.2668 -0.0001 -0.3822
 9314SOL    HW139404   4.391   4.087   1.959 -0.3819  0.7201 -2.0047
 9314SOL    HW239405   4.305   4.179   2.018  0.4722 -1.0138  0.6286
 9315SOL     OW39406   2.146   1.873   3.765  0.0639  0.0464 -0.1226
 9315SOL    HW139407   2.116   1.805   3.826  0.6866 -0.7248 -0.6640
 9315SOL    HW239408   2.132   1.954   3.813 -0.8659  0.5837 -1.2891
 9316SOL     OW39409   0.789   3.345   9.170  0.3877 -0.5290 -0.3052
 9316SOL    HW139410   0.837   3.408   9.116 -1.6149  1.7861  0.5996
 9316SOL    HW239411   0.702   3.380   9.150 -0.5039 -2.5841  0.0634
 9317SOL     OW39412   3.153   3.141   8.527  0.4588 -0.3115  0.0842
 9317SOL    HW139413   3.218   3.206   8.502  0.1817  0.7812  2.2466
 9317SOL    HW239414   3.210   3.098   8.590  0.8001  1.3197  0.8700
 9318SOL     OW39415   2.893   4.627   5.074  0.0122  0.2556 -0.3638
 9318SOL    HW139416   2.847   4.686   5.015 -2.5449 -2.5207 -1.1777
 9318SOL    HW239417   2.830   4.597   5.139 -1.8693  1.7597 -1.4823
 9319SOL     OW39418   0.986   3.541  17.582 -0.1826 -0.3998  0.2044
 9319SOL    HW139419   0.947   3.455  17.596  0.0265 -0.6983 -1.0745
 9319SOL    HW239420   1.078   3.515  17.573  0.6650  2.5849  0.3955
 9320SOL     OW39421   2.867   4.442  16.853  0.7029 -0.3278 -0.0891
 9320SOL    HW139422   2.790   4.385  16.861 -0.1235  0.8119  0.0407
 9320SOL    HW239423   2.824   4.499  16.789  0.6009 -1.0461 -0.6644
 9321SOL     OW39424   3.240   4.359   0.379  0.2540 -0.0624 -0.1106
 9321SOL    HW139425   3.331   4.367   0.408  0.0811  3.7344 -0.6143
 9321SOL    HW239426   3.253   4.275   0.335 -2.5753 -1.0878  1.0318
 9322SOL     OW39427   2.972   1.585  14.526  0.1482  0.0093 -0.3000
 9322SOL    HW139428   3.013   1.526  14.463  0.3833 -1.6384  1.3877
 9322SOL    HW239429   3.044   1.595  14.589  0.4319 -0.4346 -0.5545
 9323SOL     OW39430   2.292   2.976   5.063  0.3819  0.0773 -0.0314
 9323SOL    HW139431   2.352   3.050   5.053 -1.1245  1.0587 -1.9113
 9323SOL    HW239432   2.309   2.931   4.980 -1.5254 -1.3642  0.3632
 9324SOL     OW39433   4.692   0.198   2.395  0.0569  0.5692 -0.2607
 9324SOL    HW139434   0.042   0.134   2.404  1.7082  2.4057 -0.1807
 9324SOL    HW239435   4.694   0.245   2.478 -0.9676  2.7831 -1.5108
 9325SOL     OW39436   2.765   3.826  13.350 -0.5193  0.5132  0.8207
 9325SOL    HW139437   2.755   3.760  13.419 -1.2200 -0.0462  0.1840
 9325SOL    HW239438   2.842   3.785  13.311 -0.7341  0.5782  0.3355
 9326SOL     OW39439   4.699   1.933   9.336  0.1163  0.6772  0.4542
 9326SOL    HW139440   4.711   1.929   9.431  3.2924 -0.7919 -0.0010
 9326SOL    HW239441   4.715   1.843   9.307  0.1816  0.4862  1.0898
 9327SOL     OW39442   0.693   1.586   5.261  0.7260 -0.1745 -0.0556
 9327SOL    HW139443   0.624   1.581   5.328  0.7572  0.4693  0.0188
 9327SOL    HW239444   0.694   1.677   5.233  1.6938 -0.3889 -0.7019
 9328SOL     OW39445   2.710   4.533  14.759 -0.0390 -0.0332  0.0478
 9328SOL    HW139446   2.709   4.454  14.704  1.4794 -1.8180  2.5485
 9328SOL    HW239447   2.736   4.489  14.840  0.2431  1.3812  0.7255
 9329SOL     OW39448   0.647   1.391   4.162 -0.2486 -0.3095  0.6922
 9329SOL    HW139449   0.701   1.436   4.228 -0.2890 -1.5442  1.5644
 9329SOL    HW239450   0.633   1.308   4.208 -0.8244 -0.5677  0.0446
 9330SOL     OW39451   3.428   1.584   4.725 -0.4272  0.5256 -0.5513
 9330SOL    HW139452   3.334   1.573   4.710 -0.7926  3.3577 -0.2622
 9330SOL    HW239453   3.457   1.500   4.689  0.5644  0.6693 -0.0884
 9331SOL     OW39454   1.656   2.729   5.589 -0.0086  0.2877  0.9478
 9331SOL    HW139455   1.597   2.655   5.572 -1.0083  1.6589 -1.5338
 9331SOL    HW239456   1.698   2.715   5.674  0.6029  0.3406  0.6489
 9332SOL     OW39457   4.622   4.540  13.768 -0.1883  0.2244 -0.1196
 9332SOL    HW139458   4.648   4.616  13.819  0.3593 -0.7758  1.1030
 9332SOL    HW239459   4.632   4.581  13.682 -0.0782 -1.7767 -1.0675
 9333SOL     OW39460   0.248   0.990   3.897  0.0903  0.4213  0.2799
 9333SOL    HW139461   0.252   0.945   3.981  1.3259  2.5813  1.3944
 9333SOL    HW239462   0.326   1.046   3.901 -0.5539  1.2690  0.9488
 9334SOL     OW39463   2.755   0.221   4.050  0.1811  0.3942  0.1181
 9334SOL    HW139464   2.817   0.277   4.097 -0.0318  0.8478 -0.1377
 9334SOL    HW239465   2.673   0.270   4.055  0.5078  0.7546  2.0821
 9335SOL     OW39466   3.582   2.197   3.123  0.4724  0.1157 -0.0724
 9335SOL    HW139467   3.601   2.266   3.059 -2.0911  1.8979  1.1349
 9335SOL    HW239468   3.489   2.186   3.107  0.3074  0.4862  0.6875
 9336SOL     OW39469   2.817   1.405   6.991 -0.4190 -0.2157  0.9242
 9336SOL    HW139470   2.775   1.323   7.015  0.4325 -0.0726  2.8963
 9336SOL    HW239471   2.754   1.448   6.932  1.1322  0.8502  0.0286
 9337SOL     OW39472   0.831   3.844   7.007 -0.0988 -0.1999 -0.2194
 9337SOL    HW139473   0.803   3.878   6.923 -2.5810 -0.3666  0.5517
 9337SOL    HW239474   0.846   3.926   7.054 -0.1341  0.2246 -0.9450
 9338SOL     OW39475   0.323   1.556   3.434  0.0683 -0.0092  0.4883
 9338SOL    HW139476   0.327   1.522   3.523 -2.6357 -0.1777  0.5537
 9338SOL    HW239477   0.262   1.488   3.404  0.4927  0.0737 -0.5781
 9339SOL     OW39478   0.144   0.358  16.181 -0.3191  0.1278  0.0294
 9339SOL    HW139479   0.102   0.279  16.213 -3.1298  2.3954  1.9444
 9339SOL    HW239480   0.107   0.358  16.093 -0.6300 -1.3991  0.1659
 9340SOL     OW39481   4.126   2.020   4.884  0.3724 -0.2582  0.2832
 9340SOL    HW139482   4.098   2.027   4.975  1.4024 -2.2514  0.7583
 9340SOL    HW239483   4.065   1.952   4.858  1.1809 -1.0152  0.3585
 9341SOL     OW39484   4.313   1.850   5.481  0.2135 -0.1831  0.2910
 9341SOL    HW139485   4.289   1.860   5.572 -0.6822  0.5623 -0.0335
 9341SOL    HW239486   4.245   1.904   5.442 -0.6237 -0.1803  1.7779
 9342SOL     OW39487   3.415   3.970   4.296  0.3969  0.2092  0.2686
 9342SOL    HW139488   3.488   3.975   4.234  1.0136  1.5259  1.1128
 9342SOL    HW239489   3.359   3.906   4.253 -0.7430  1.7578 -0.5690
 9343SOL     OW39490   1.493   2.253   4.249  0.0400 -0.2186  0.2231
 9343SOL    HW139491   1.472   2.286   4.162 -0.8141 -0.8160  0.1986
 9343SOL    HW239492   1.438   2.305   4.307  0.2124  1.1994 -0.8777
 9344SOL     OW39493   3.830   2.300   2.880 -0.6412  0.0945 -0.4592
 9344SOL    HW139494   3.790   2.265   2.800  0.9077 -1.9304 -0.3459
 9344SOL    HW239495   3.859   2.384   2.843 -0.3879  0.2765  0.1483
 9345SOL     OW39496   3.847   0.222   7.728  0.2131  0.3847  0.2597
 9345SOL    HW139497   3.851   0.160   7.655  0.6645  0.4966  0.1907
 9345SOL    HW239498   3.771   0.274   7.700  0.3325  0.2514 -0.3200
 9346SOL     OW39499   4.531   4.339   1.445  0.3290 -0.3743  0.3282
 9346SOL    HW139500   4.522   4.286   1.366 -3.9498 -0.4124  0.8352
 9346SOL    HW239501   4.464   4.292   1.495 -0.3711  0.0196 -0.2494
 9347SOL     OW39502   1.190   2.305   5.452  0.2122  0.0016 -0.0604
 9347SOL    HW139503   1.202   2.395   5.482 -0.3928  0.2424 -0.5498
 9347SOL    HW239504   1.205   2.257   5.533  1.8116 -1.1317 -1.0188
 9348SOL     OW39505   3.559   1.019   5.910  0.6471  0.5688  0.1987
 9348SOL    HW139506   3.533   1.006   5.818 -2.7623 -0.1671  1.2708
 9348SOL    HW239507   3.654   1.007   5.906  0.4000 -1.0488 -0.9614
 9349SOL     OW39508   3.453   0.298   0.665 -0.0514 -0.1248  0.2188
 9349SOL    HW139509   3.473   0.319   0.756  2.0879  2.3949 -0.8328
 9349SOL    HW239510   3.514   0.355   0.619  0.9150 -1.6534 -0.4035
 9350SOL     OW39511   4.160   4.149  12.806 -0.1088  0.1135 -0.0927
 9350SOL    HW139512   4.226   4.211  12.835 -0.4782  1.3655 -1.8948
 9350SOL    HW239513   4.130   4.182  12.721  0.6536 -0.3071 -0.5192
 9351SOL     OW39514   1.065   4.624   7.725  0.2037  0.1953  0.3357
 9351SOL    HW139515   1.024   4.577   7.798 -1.6310  0.7996 -0.3045
 9351SOL    HW239516   1.118   4.695   7.761 -0.0364 -0.5046  2.0875
 9352SOL     OW39517   4.415   1.142   7.967 -0.7209 -0.2192 -0.1977
 9352SOL    HW139518   4.507   1.166   7.956 -0.2600 -1.9489 -0.0614
 9352SOL    HW239519   4.369   1.225   7.955 -1.1790 -0.4035  0.2878
 9353SOL     OW39520   4.153   2.210   8.392  0.1071 -0.6483 -0.3758
 9353SOL    HW139521   4.058   2.223   8.398  0.2603  1.1257 -1.9171
 9353SOL    HW239522   4.155   2.275   8.321  2.3339 -0.9778 -0.6290
 9354SOL     OW39523   3.397   0.907   9.248 -0.6550 -0.0687 -0.0118
 9354SOL    HW139524   3.347   0.980   9.285 -2.1253 -0.8226 -0.4670
 9354SOL    HW239525   3.323   0.846   9.253 -1.0013  0.5877  3.4641
 9355SOL     OW39526   1.335   0.257   4.965  0.1395  0.4242 -0.0770
 9355SOL    HW139527   1.313   0.329   5.024 -0.1818  0.5930 -0.3996
 9355SOL    HW239528   1.249   0.232   4.932 -0.1022 -1.0143  1.6442
 9356SOL     OW39529   1.661   3.136   1.354 -0.1147 -0.1338  0.4308
 9356SOL    HW139530   1.684   3.068   1.292  0.9150  1.2700 -0.7296
 9356SOL    HW239531   1.616   3.201   1.300  1.1028 -1.0744 -1.7022
 9357SOL     OW39532   4.712   2.316   6.218  0.3866 -0.5232 -0.0866
 9357SOL    HW139533   4.661   2.334   6.140  1.2130  1.0315 -0.2859
 9357SOL    HW239534   4.648   2.303   6.288 -0.8920 -0.5641 -1.2773
 9358SOL     OW39535   0.855   3.193   1.543  0.0601 -1.0197  0.2402
 9358SOL    HW139536   0.908   3.257   1.495  0.5002 -1.4113  0.2025
 9358SOL    HW239537   0.855   3.235   1.629 -0.6682 -3.8077  1.6090
 9359SOL     OW39538   3.466   1.034   4.217  0.1762 -0.1715  0.0820
 9359SOL    HW139539   3.409   1.074   4.283  2.2386  1.6195  0.7721
 9359SOL    HW239540   3.520   0.980   4.274 -1.6445 -2.7894 -0.6304
 9360SOL     OW39541   1.985   3.619  12.279 -0.1210 -0.6952 -0.3267
 9360SOL    HW139542   1.934   3.623  12.360  0.4712  0.6635 -0.0068
 9360SOL    HW239543   1.965   3.533  12.243  1.0535 -0.8504 -0.5947
 9361SOL     OW39544   4.436   1.681  12.644  0.1385 -0.2927 -0.1761
 9361SOL    HW139545   4.427   1.586  12.645  1.4710 -0.4147 -0.1086
 9361SOL    HW239546   4.449   1.701  12.737  1.9244 -1.3997 -0.1884
 9362SOL     OW39547   3.902   3.856   9.491 -0.6252  0.4731 -0.6094
 9362SOL    HW139548   3.959   3.899   9.428 -0.8259  0.1222 -1.0363
 9362SOL    HW239549   3.923   3.764   9.471 -1.1438  0.1644  0.2405
 9363SOL     OW39550   1.029   1.610   3.804 -0.2390 -0.3549  0.4101
 9363SOL    HW139551   1.092   1.587   3.736  3.5910 -0.1549  3.8717
 9363SOL    HW239552   0.962   1.542   3.794  0.2933 -1.1899  2.5269
 9364SOL     OW39553   1.525   3.040   1.801 -0.3230  0.0342 -0.8065
 9364SOL    HW139554   1.511   3.126   1.842  0.7202 -1.2075  2.1644
 9364SOL    HW239555   1.471   3.053   1.723 -1.6649 -0.5723  0.0081
 9365SOL     OW39556   2.725   0.748   2.980 -0.2529 -0.5028 -0.1765
 9365SOL    HW139557   2.730   0.834   3.022 -0.8973 -0.2831 -0.5532
 9365SOL    HW239558   2.817   0.732   3.003 -1.0404 -2.0355  1.8872
 9366SOL     OW39559   2.382   0.873  12.536  0.1786 -0.1046  0.0135
 9366SOL    HW139560   2.409   0.793  12.582  0.7678  0.6966  1.0563
 9366SOL    HW239561   2.288   0.877  12.521  0.3767  1.0977 -0.8798
 9367SOL     OW39562   1.104   4.029   6.247 -0.4204 -0.3482  0.0688
 9367SOL    HW139563   1.198   4.019   6.255 -0.1409  3.0310  0.9795
 9367SOL    HW239564   1.067   3.975   6.316  0.1125 -0.0945  0.5553
 9368SOL     OW39565   2.129   4.602  11.411 -0.1366 -0.0566  0.0707
 9368SOL    HW139566   2.088   4.605  11.325 -1.3675 -0.0558  0.6595
 9368SOL    HW239567   2.053   4.621  11.466 -0.3929 -1.5215  0.2173
 9369SOL     OW39568   3.794   4.469   5.964 -0.2796  0.3488 -0.3857
 9369SOL    HW139569   3.700   4.460   5.954 -0.3568  2.7859 -1.7749
 9369SOL    HW239570   3.824   4.457   5.874  2.2633 -0.5173  0.5742
 9370SOL     OW39571   1.793   2.811   9.152  0.6435  0.9988 -0.0161
 9370SOL    HW139572   1.738   2.861   9.211  3.1260  1.3917  1.9869
 9370SOL    HW239573   1.750   2.821   9.067  0.0526  3.0188  0.5148
 9371SOL     OW39574   2.074   1.740   1.774 -0.4437  0.1141  0.3501
 9371SOL    HW139575   2.125   1.690   1.838 -0.1878 -1.2463 -0.9045
 9371SOL    HW239576   2.126   1.818   1.759 -1.2118  0.6076  0.2236
 9372SOL     OW39577   3.501   2.574  15.827  0.2429  1.2573  0.4763
 9372SOL    HW139578   3.440   2.519  15.778  0.8038  2.7382 -1.8786
 9372SOL    HW239579   3.569   2.508  15.839  0.9432  1.7331 -0.9147
 9373SOL     OW39580   3.286   0.429   5.071 -0.6493 -0.0679  0.1549
 9373SOL    HW139581   3.250   0.340   5.065 -4.1277  1.3671 -0.5595
 9373SOL    HW239582   3.209   0.480   5.097 -0.2388  0.0477  1.1281
 9374SOL     OW39583   2.262   4.408   3.463  0.2691  0.0955  0.6408
 9374SOL    HW139584   2.340   4.438   3.510  0.6147 -1.9295  1.3793
 9374SOL    HW239585   2.282   4.440   3.375  0.7406 -1.3562  0.2148
 9375SOL     OW39586   1.691   0.975   6.038 -0.4269 -0.5744  0.0146
 9375SOL    HW139587   1.624   1.034   6.004 -0.6079 -0.0038  1.3597
 9375SOL    HW239588   1.769   1.020   6.006 -1.8966  1.0796 -1.2581
 9376SOL     OW39589   0.717   1.091   9.108 -0.3127  0.3064  0.0612
 9376SOL    HW139590   0.811   1.074   9.120 -0.5487 -0.3171  0.9978
 9376SOL    HW239591   0.715   1.182   9.079  1.7848  0.4020  0.2172
 9377SOL     OW39592   2.832   2.813  12.501 -0.4576  0.1539  0.0958
 9377SOL    HW139593   2.842   2.806  12.407 -0.9721 -1.1249  0.1422
 9377SOL    HW239594   2.811   2.721  12.518 -0.8484  0.3686  0.8032
 9378SOL     OW39595   0.576   2.734   3.240  0.0436  0.0240 -0.5175
 9378SOL    HW139596   0.497   2.762   3.285 -0.0551 -2.5609  0.8531
 9378SOL    HW239597   0.542   2.693   3.161  3.6414 -2.3023 -0.8648
 9379SOL     OW39598   4.530   2.382  12.075  0.2156  0.2202  0.1925
 9379SOL    HW139599   4.610   2.369  12.125  0.2448 -1.2383 -0.2396
 9379SOL    HW239600   4.513   2.295  12.039  1.2872 -0.9366  2.4978
 9380SOL     OW39601   4.395   0.097  17.411 -0.5156 -0.3608  0.3157
 9380SOL    HW139602   4.485   0.070  17.430  0.0771 -0.4098 -2.5711
 9380SOL    HW239603   4.361   0.092  17.501 -1.4025 -1.1323 -0.0563
 9381SOL     OW39604   2.870   2.485  16.452 -0.8057  0.1361 -0.5741
 9381SOL    HW139605   2.849   2.403  16.408 -1.5396 -0.0770  0.1717
 9381SOL    HW239606   2.787   2.533  16.448 -0.7242  0.2671 -0.6662
 9382SOL     OW39607   2.621   3.011   7.727  0.1011 -0.1459  0.3492
 9382SOL    HW139608   2.534   3.035   7.760 -0.3414 -0.7600 -0.3773
 9382SOL    HW239609   2.632   3.084   7.666 -3.2385  0.8311  0.9001
 9383SOL     OW39610   1.417   1.834   5.046  0.6566  0.5580  0.0415
 9383SOL    HW139611   1.354   1.905   5.058  1.4448  1.1511  0.6405
 9383SOL    HW239612   1.442   1.830   4.954  2.3759  4.3302  0.3404
 9384SOL     OW39613   4.105   3.829  12.941  0.1579  0.0077 -0.4304
 9384SOL    HW139614   4.148   3.753  12.978  0.0341 -0.5805 -1.5006
 9384SOL    HW239615   4.015   3.800  12.929 -0.1781  1.9228 -2.6629
 9385SOL     OW39616   2.439   4.022   9.181 -0.1057  0.3537  0.4109
 9385SOL    HW139617   2.380   4.055   9.114 -0.0106 -1.9210 -0.7646
 9385SOL    HW239618   2.450   4.102   9.234  2.9180  0.0832  0.2163
 9386SOL     OW39619   4.659   0.621   4.687 -0.7105 -0.1324  0.5305
 9386SOL    HW139620   0.026   0.588   4.667  0.9570  4.4898  0.1845
 9386SOL    HW239621   4.690   0.699   4.733 -0.9222  0.4961 -0.3896
 9387SOL     OW39622   3.000   2.005   5.347 -0.1488  0.0278 -0.1773
 9387SOL    HW139623   3.068   2.072   5.354 -0.3010  0.0994  0.5253
 9387SOL    HW239624   2.989   2.005   5.251  0.3698 -1.5871 -0.2374
 9388SOL     OW39625   3.059   0.908   5.015  0.2551  0.0635 -0.4230
 9388SOL    HW139626   2.997   0.839   5.039 -1.2978  0.8670 -2.1341
 9388SOL    HW239627   3.118   0.860   4.957 -0.7832  0.5692 -1.8932
 9389SOL     OW39628   1.630   3.306   3.214 -0.7466 -0.0509  0.1101
 9389SOL    HW139629   1.718   3.345   3.219  0.7728 -3.5824  1.0837
 9389SOL    HW239630   1.621   3.289   3.308 -0.5271 -0.4669  0.0565
 9390SOL     OW39631   2.903   3.172   8.611  0.4455  0.0372  0.2901
 9390SOL    HW139632   2.987   3.154   8.567 -0.0651 -0.6671 -0.3847
 9390SOL    HW239633   2.937   3.201   8.695  0.6670 -1.8847  0.8710
 9391SOL     OW39634   3.497   1.343   4.599  0.5409  1.0445 -0.5257
 9391SOL    HW139635   3.584   1.381   4.587  2.1373 -2.0286  1.3090
 9391SOL    HW239636   3.513   1.250   4.616 -1.0206  1.0066  0.7174
 9392SOL     OW39637   3.956   2.025   8.542  0.3243 -0.1571 -0.3375
 9392SOL    HW139638   3.868   2.017   8.505  0.3617  0.3507 -0.5320
 9392SOL    HW239639   3.967   2.120   8.530 -0.9306 -0.1650 -1.5411
 9393SOL     OW39640   1.802   3.605  16.484  0.5738  0.4351 -0.4085
 9393SOL    HW139641   1.751   3.677  16.522  0.7367  0.4267 -0.1764
 9393SOL    HW239642   1.749   3.596  16.404 -1.1661 -2.1663  1.0566
 9394SOL     OW39643   1.679   1.017   8.012  0.5332  0.2435  0.4847
 9394SOL    HW139644   1.675   0.947   7.946 -1.2143  0.6548  0.1459
 9394SOL    HW239645   1.665   0.968   8.093  2.1410  1.1427  1.3049
 9395SOL     OW39646   4.072   2.343   3.039  0.3426 -0.3286  0.2292
 9395SOL    HW139647   4.108   2.264   2.998  0.1079 -0.8193  0.9702
 9395SOL    HW239648   3.979   2.343   3.018  0.3961 -0.2669 -0.0145
 9396SOL     OW39649   1.245   4.161  11.808 -0.0114 -0.4014 -0.1375
 9396SOL    HW139650   1.311   4.111  11.759 -0.5112 -2.4006  1.2108
 9396SOL    HW239651   1.302   4.226  11.849  0.6183  0.0593 -1.7094
 9397SOL     OW39652   3.708   3.697   4.178  0.1831 -0.3492 -0.1002
 9397SOL    HW139653   3.669   3.750   4.108  2.2017  0.1110 -0.8631
 9397SOL    HW239654   3.633   3.680   4.234  0.1938 -0.7372 -0.2045
 9398SOL     OW39655   3.758   0.058   4.865 -0.9542  0.2597  0.2426
 9398SOL    HW139656   3.763   0.100   4.779  0.0111 -0.9397 -0.2808
 9398SOL    HW239657   3.664   0.044   4.854 -0.4826 -2.2212 -0.7134
 9399SOL     OW39658   2.863   2.197  10.277 -0.0700  0.3188  0.7080
 9399SOL    HW139659   2.916   2.275  10.289  1.2662 -0.6667  1.1245
 9399SOL    HW239660   2.825   2.214  10.190  0.7062  0.9675  0.4996
 9400SOL     OW39661   0.542   0.031   2.645 -0.1171 -0.9601  0.0604
 9400SOL    HW139662   0.565   4.692   2.574  1.3665  1.9052 -1.8803
 9400SOL    HW239663   0.626   0.070   2.670 -0.2194  0.0730 -1.1922
 9401SOL     OW39664   4.562   0.349   8.825 -0.2002 -0.2450  0.1147
 9401SOL    HW139665   4.597   0.334   8.737  1.5098 -0.6831  0.8906
 9401SOL    HW239666   4.590   0.275   8.877  1.9855 -0.3022 -1.1597
 9402SOL     OW39667   3.306   1.670  16.935 -0.4520  0.4380  0.1862
 9402SOL    HW139668   3.353   1.589  16.915 -1.2740  0.1790 -0.7343
 9402SOL    HW239669   3.375   1.715  16.984  1.7835 -2.4090 -0.4119
 9403SOL     OW39670   2.678   4.074  16.482  0.5599  0.3389 -0.7921
 9403SOL    HW139671   2.684   4.143  16.416 -0.6894  1.4882  0.3150
 9403SOL    HW239672   2.651   3.999  16.430 -2.1359  1.0838 -0.4427
 9404SOL     OW39673   1.412   0.971  15.789 -0.0897 -0.2085 -0.2603
 9404SOL    HW139674   1.348   0.933  15.729 -0.6230  0.6301 -0.2225
 9404SOL    HW239675   1.489   0.968  15.733  1.0699 -2.7022  1.4442
 9405SOL     OW39676   0.455   0.601   2.142 -0.2606  0.4478 -0.2540
 9405SOL    HW139677   0.510   0.550   2.201  0.4341  2.2709  0.6677
 9405SOL    HW239678   0.383   0.620   2.202 -1.6569 -2.2053 -1.0388
 9406SOL     OW39679   1.204   2.793   0.333 -0.0369 -0.5017 -0.1362
 9406SOL    HW139680   1.152   2.873   0.335 -2.5262 -2.1696  0.8580
 9406SOL    HW239681   1.290   2.817   0.299 -0.6305  1.7370 -0.0082
 9407SOL     OW39682   2.767   2.685   8.868  0.2066 -0.9541  0.0417
 9407SOL    HW139683   2.720   2.715   8.946  2.1063  1.3387  0.2799
 9407SOL    HW239684   2.715   2.618   8.824  2.0865 -0.3939 -3.0046
 9408SOL     OW39685   4.448   4.045  14.718 -0.1030 -0.2021 -0.0282
 9408SOL    HW139686   4.486   3.980  14.778  0.6386  0.8477  0.6452
 9408SOL    HW239687   4.382   4.083  14.776 -0.4742 -0.4115 -0.3185
 9409SOL     OW39688   1.968   2.553   0.496  0.7233  0.0357  0.2258
 9409SOL    HW139689   1.880   2.575   0.464  0.3117  0.0587  1.3778
 9409SOL    HW239690   2.027   2.606   0.442  1.0393 -1.0257 -0.4515
 9410SOL     OW39691   3.139   4.025  14.908 -0.0355  0.5411 -0.0610
 9410SOL    HW139692   3.224   3.984  14.892 -0.0035  0.6057 -0.0571
 9410SOL    HW239693   3.112   3.988  14.992 -0.3333  1.0407  0.0613
 9411SOL     OW39694   2.375   1.846   4.856  0.0298 -0.5629 -0.3571
 9411SOL    HW139695   2.400   1.799   4.777 -0.4209 -0.8964 -0.3031
 9411SOL    HW239696   2.369   1.776   4.921  3.3996 -0.0081  0.5693
 9412SOL     OW39697   2.863   4.252   3.485  0.2056 -0.0686  0.1022
 9412SOL    HW139698   2.847   4.209   3.401  1.7771 -0.8176  0.1819
 9412SOL    HW239699   2.958   4.266   3.483 -0.2533  3.0372  0.4094
 9413SOL     OW39700   2.839   3.828  10.941 -0.4395  0.1385 -0.1599
 9413SOL    HW139701   2.774   3.898  10.930 -0.9108 -0.2944 -0.1352
 9413SOL    HW239702   2.848   3.836  11.036  1.6546  2.3150 -0.5571
 9414SOL     OW39703   1.621   4.083  15.187 -0.0454 -0.1155  0.3143
 9414SOL    HW139704   1.577   4.104  15.105 -0.7888 -2.4384  0.1055
 9414SOL    HW239705   1.638   3.991  15.166 -2.7992 -0.3334 -0.9272
 9415SOL     OW39706   3.975   2.947   5.914  0.5438  0.5547 -0.4441
 9415SOL    HW139707   4.004   2.963   5.824 -0.4744 -1.7518 -1.1797
 9415SOL    HW239708   4.039   2.884   5.946 -1.1854 -0.9860 -0.0582
 9416SOL     OW39709   0.433   0.826   0.580  0.3350 -0.3867 -0.2953
 9416SOL    HW139710   0.459   0.821   0.488  1.0339 -2.3545  0.0265
 9416SOL    HW239711   0.398   0.915   0.584 -0.7274 -0.7789 -0.7862
 9417SOL     OW39712   0.550   4.273   7.678 -0.5741  0.4523 -0.4329
 9417SOL    HW139713   0.565   4.364   7.702 -2.6048  0.4350  0.9825
 9417SOL    HW239714   0.576   4.270   7.586  1.8399 -1.0589  0.3123
 9418SOL     OW39715   3.663   2.770   9.140 -0.0984 -0.5862 -0.3672
 9418SOL    HW139716   3.730   2.831   9.169 -0.6378 -0.9370  1.5955
 9418SOL    HW239717   3.582   2.789   9.187  0.5742  0.4764  0.3468
 9419SOL     OW39718   2.550   0.725   4.597  0.2578  0.0118 -1.1440
 9419SOL    HW139719   2.536   0.630   4.596  1.2022 -0.1369 -0.6292
 9419SOL    HW239720   2.465   0.756   4.627  1.8079  1.2592  1.9314
 9420SOL     OW39721   0.029   3.926   6.435 -0.7840 -0.4656  0.2171
 9420SOL    HW139722   0.009   3.933   6.342  0.6924 -1.0514 -0.1487
 9420SOL    HW239723   0.121   3.954   6.429 -0.0957 -2.5609  1.0207
 9421SOL     OW39724   3.839   1.545   0.608 -0.2301 -0.1432 -0.0711
 9421SOL    HW139725   3.899   1.613   0.577  0.1031 -0.6589 -0.5482
 9421SOL    HW239726   3.857   1.547   0.702  2.2612  2.1320 -0.5879
 9422SOL     OW39727   4.405   3.906   1.608  0.1974 -0.4352  0.4756
 9422SOL    HW139728   4.477   3.862   1.653  1.2437  1.3462  0.5104
 9422SOL    HW239729   4.330   3.884   1.664 -0.2385  1.1928  0.5188
 9423SOL     OW39730   2.643   3.467   5.824 -0.2774 -0.2624 -0.2331
 9423SOL    HW139731   2.589   3.542   5.848  1.3680  0.5036  1.0998
 9423SOL    HW239732   2.576   3.401   5.806  0.4352 -0.6288 -1.5947
 9424SOL     OW39733   3.592   0.793   6.294 -0.4350  0.0431 -0.3181
 9424SOL    HW139734   3.656   0.865   6.296  0.5032 -0.7846 -0.6113
 9424SOL    HW239735   3.515   0.832   6.336 -0.0169 -0.6126  1.0517
 9425SOL     OW39736   1.392   4.196   1.666  0.6559  0.1378  1.1432
 9425SOL    HW139737   1.380   4.240   1.582  0.8086  0.3853  1.2526
 9425SOL    HW239738   1.399   4.271   1.725 -0.2492  0.2256  1.1472
 9426SOL     OW39739   2.461   2.303   0.149 -0.6654 -0.2189  0.0829
 9426SOL    HW139740   2.426   2.255   0.073  4.1854 -1.7983 -1.1818
 9426SOL    HW239741   2.506   2.228   0.188  0.1614  0.1323 -0.1995
 9427SOL     OW39742   2.307   0.973   1.057  0.3584 -0.8161  0.0737
 9427SOL    HW139743   2.353   1.008   0.980 -2.0802  1.1786 -0.5145
 9427SOL    HW239744   2.354   1.010   1.131  0.0614 -1.5004  0.6010
 9428SOL     OW39745   4.270   1.114  15.001  0.6751 -0.0097 -0.1249
 9428SOL    HW139746   4.279   1.178  15.071 -3.9820 -1.2667  1.6425
 9428SOL    HW239747   4.357   1.114  14.961  0.3660 -1.6910 -0.8059
 9429SOL     OW39748   3.557   2.543   8.341 -0.4129  0.1997 -0.6220
 9429SOL    HW139749   3.467   2.532   8.371 -0.3358  1.1940 -0.0423
 9429SOL    HW239750   3.571   2.626   8.386  2.3667 -2.0565  2.7345
 9430SOL     OW39751   2.250   3.804  10.937 -0.0038  0.1840  0.6111
 9430SOL    HW139752   2.177   3.744  10.953  0.0397 -0.0730 -0.1606
 9430SOL    HW239753   2.221   3.894  10.947 -0.0529 -0.1278  3.3362
 9431SOL     OW39754   2.427   0.973   7.200  0.2850 -0.3318  0.2274
 9431SOL    HW139755   2.427   1.047   7.261  1.9889 -0.5747  0.5198
 9431SOL    HW239756   2.355   0.922   7.235  0.9508 -0.7864  0.9323
 9432SOL     OW39757   4.481   0.395   5.543 -0.5594  0.0726  0.2913
 9432SOL    HW139758   4.516   0.394   5.454  0.2480  2.2775  0.5711
 9432SOL    HW239759   4.559   0.397   5.598 -1.3030  0.5040  1.3285
 9433SOL     OW39760   2.496   1.377   4.468 -0.1530  0.3951 -0.1278
 9433SOL    HW139761   2.405   1.408   4.463 -1.1109 -2.2387  0.8197
 9433SOL    HW239762   2.490   1.301   4.411 -0.5841  0.0189  0.4213
 9434SOL     OW39763   2.636   1.259  13.450 -0.2940 -0.2429  0.7072
 9434SOL    HW139764   2.545   1.268  13.420 -0.5554  0.6414  1.7663
 9434SOL    HW239765   2.662   1.346  13.419 -2.4885  0.9800  2.2630
 9435SOL     OW39766   1.974   4.349   5.767  0.3103 -0.6660  0.5856
 9435SOL    HW139767   2.056   4.396   5.782  1.4993 -2.2256 -0.9335
 9435SOL    HW239768   1.988   4.289   5.694 -0.7046  0.1280 -0.2830
 9436SOL     OW39769   1.617   1.406  16.323  0.8200 -0.3970  0.1348
 9436SOL    HW139770   1.567   1.328  16.297 -0.5995  0.1986  1.0606
 9436SOL    HW239771   1.680   1.407  16.251  0.3266  0.4440 -0.2863
 9437SOL     OW39772   0.719   3.336   2.512 -0.3060 -0.0087  0.0189
 9437SOL    HW139773   0.647   3.368   2.566 -0.7633  2.0122 -1.8330
 9437SOL    HW239774   0.769   3.416   2.499  1.3384 -1.3295 -1.8742
 9438SOL     OW39775   1.323   4.645   1.340  0.5682  0.6686 -0.3275
 9438SOL    HW139776   1.240   4.600   1.356  0.6399  0.9444  0.8253
 9438SOL    HW239777   1.294   0.015   1.345 -1.1038  0.1199 -0.2975
 9439SOL     OW39778   1.111   3.733   0.219  0.4054  0.6060  0.2710
 9439SOL    HW139779   1.026   3.691   0.229  0.6253  0.7410  2.6299
 9439SOL    HW239780   1.167   3.665   0.181  0.3733 -0.6275  2.4506
 9440SOL     OW39781   2.168   0.310   9.216  0.3010  0.4223  0.2138
 9440SOL    HW139782   2.221   0.384   9.184  1.7291  0.6069  2.9770
 9440SOL    HW239783   2.222   0.284   9.290 -1.6719 -0.7782  1.1921
 9441SOL     OW39784   3.626   1.730   2.887  0.1785  0.2694 -0.2901
 9441SOL    HW139785   3.589   1.809   2.927 -0.2967 -0.4276  0.6641
 9441SOL    HW239786   3.559   1.700   2.825  0.1994 -0.4539  0.0387
 9442SOL     OW39787   3.470   2.008  11.699  0.3914  0.1295  0.8326
 9442SOL    HW139788   3.418   1.928  11.705 -0.8508  1.1360  3.7333
 9442SOL    HW239789   3.544   2.004  11.760 -0.1967 -0.9458  1.4814
 9443SOL     OW39790   0.056   0.745   4.007 -0.2311 -0.0036 -0.3742
 9443SOL    HW139791   0.025   0.656   4.027 -1.6317  0.6764  0.4665
 9443SOL    HW239792   0.108   0.724   3.930  1.7007 -1.0559  1.2070
 9444SOL     OW39793   1.785   3.079  11.392 -0.1092  0.3529  0.0351
 9444SOL    HW139794   1.752   3.155  11.344 -2.7307 -0.5311  0.4910
 9444SOL    HW239795   1.850   3.052  11.328  0.1623  0.9286  0.0598
 9445SOL     OW39796   4.443   0.577   5.156 -0.1048  0.1475 -0.1558
 9445SOL    HW139797   4.385   0.543   5.089 -0.0337  1.1493 -0.7301
 9445SOL    HW239798   4.523   0.525   5.147  0.8546  1.2130  1.9820
 9446SOL     OW39799   1.006   1.973   2.508 -0.2028  0.2343  0.0874
 9446SOL    HW139800   1.071   1.908   2.535  0.3264  1.0978  0.9269
 9446SOL    HW239801   1.024   1.983   2.415  1.5329  1.5441  0.5680
 9447SOL     OW39802   1.087   1.925   3.796 -0.2519 -0.0523 -0.1057
 9447SOL    HW139803   1.033   1.849   3.818 -1.0703  0.4222 -0.4775
 9447SOL    HW239804   1.037   1.970   3.728 -0.4575  0.5263  0.4229
 9448SOL     OW39805   2.181   3.061   7.420 -0.0607 -0.0837  0.3484
 9448SOL    HW139806   2.177   3.101   7.333 -1.1461  1.0010  0.8957
 9448SOL    HW239807   2.134   2.978   7.415 -1.6221  0.7145  1.8684
 9449SOL     OW39808   2.995   1.951  15.643  0.1471 -0.0700  0.5959
 9449SOL    HW139809   3.051   2.024  15.616 -0.8335  0.8116  0.9545
 9449SOL    HW239810   2.933   1.950  15.570  0.6445 -0.4645  0.1802
 9450SOL     OW39811   3.986   0.181   8.485  0.0914 -0.2846  0.1521
 9450SOL    HW139812   3.898   0.220   8.485  0.6667  1.0128 -0.5884
 9450SOL    HW239813   4.039   0.249   8.443  0.9794 -1.7420 -1.1028
 9451SOL     OW39814   2.325   1.101   1.936  0.1842 -0.2043  0.0919
 9451SOL    HW139815   2.388   1.046   1.984  1.2277 -0.1846 -1.2547
 9451SOL    HW239816   2.252   1.119   1.995 -0.8129 -0.8691 -0.9453
 9452SOL     OW39817   4.586   4.232  14.473 -0.2434  0.0362 -0.3569
 9452SOL    HW139818   4.498   4.234  14.512  0.5563 -1.5241  1.4990
 9452SOL    HW239819   4.561   4.245  14.382 -0.1238  0.3739 -0.3396
 9453SOL     OW39820   3.467   2.905   3.474  0.0444  0.7674 -0.3097
 9453SOL    HW139821   3.471   2.869   3.385 -0.2127 -1.2184  0.4910
 9453SOL    HW239822   3.556   2.884   3.501 -0.5952 -0.0199  1.1416
 9454SOL     OW39823   1.976   0.593   7.713 -0.1419 -0.1401 -0.0268
 9454SOL    HW139824   2.031   0.552   7.646  2.3628  0.0661  1.9158
 9454SOL    HW239825   1.890   0.558   7.687  0.1198  0.4234 -1.6290
 9455SOL     OW39826   1.820   2.612  16.837 -0.2438  0.9592 -0.3005
 9455SOL    HW139827   1.725   2.622  16.838 -0.3107  0.1709  0.7099
 9455SOL    HW239828   1.842   2.519  16.831 -3.3690  0.1530  0.7081
 9456SOL     OW39829   3.156   3.460   7.358  0.3898 -0.1330 -0.7252
 9456SOL    HW139830   3.078   3.512   7.378  1.6580  1.6564 -0.5009
 9456SOL    HW239831   3.203   3.508   7.289 -0.3464  1.2715 -0.2426
 9457SOL     OW39832   3.674   4.519  15.487 -0.1109 -0.5633 -0.1435
 9457SOL    HW139833   3.767   4.532  15.505  0.1148 -1.1519 -0.8521
 9457SOL    HW239834   3.661   4.611  15.465  0.1655 -0.2904  0.8546
 9458SOL     OW39835   4.281   2.018   2.321  0.4693  0.4841  0.2127
 9458SOL    HW139836   4.310   1.928   2.334  1.5852  0.8556  0.2969
 9458SOL    HW239837   4.249   2.031   2.410  1.5034 -1.4657  0.8612
 9459SOL     OW39838   2.458   2.485   2.598 -0.0793  0.3002 -0.0422
 9459SOL    HW139839   2.483   2.406   2.646 -0.5346 -0.1295 -0.5121
 9459SOL    HW239840   2.519   2.551   2.629  1.5644 -0.6527 -1.2477
 9460SOL     OW39841   2.252   3.592  14.655 -0.7282 -0.3698  0.3443
 9460SOL    HW139842   2.204   3.531  14.599  0.0653 -2.3860  1.8759
 9460SOL    HW239843   2.322   3.541  14.695  1.1141  0.9232 -1.2424
 9461SOL     OW39844   3.767   4.097   3.350 -0.3382 -0.2407  0.2630
 9461SOL    HW139845   3.729   4.181   3.374 -1.0464  0.3370 -2.9025
 9461SOL    HW239846   3.765   4.055   3.436  1.6431  1.9257  1.3976
 9462SOL     OW39847   1.257   2.819   6.000  0.1458  0.3881  0.0914
 9462SOL    HW139848   1.341   2.846   6.037  0.2015 -0.6799  0.7423
 9462SOL    HW239849   1.229   2.907   5.973 -0.3698 -0.2872 -1.5810
 9463SOL     OW39850   0.375   0.427   7.315 -0.7420  0.1252 -0.3311
 9463SOL    HW139851   0.458   0.396   7.279  0.1436  1.6110  0.4356
 9463SOL    HW239852   0.382   0.521   7.299  0.6713  0.0110 -0.3030
 9464SOL     OW39853   0.004   2.563   4.774 -0.4560  0.6526 -0.5751
 9464SOL    HW139854   4.682   2.491   4.729 -0.8961  1.2957 -1.1759
 9464SOL    HW239855   0.095   2.557   4.745 -0.1225  0.3053  0.5445
 9465SOL     OW39856   3.518   0.322   8.942 -0.2734  0.5246 -0.0886
 9465SOL    HW139857   3.520   0.333   9.037  2.6869 -0.1286 -0.0986
 9465SOL    HW239858   3.578   0.250   8.925 -0.4742  0.3277  0.0379
 9466SOL     OW39859   0.553   2.487   8.925 -0.0493  0.1170 -0.4451
 9466SOL    HW139860   0.606   2.554   8.882  1.2100  1.1162  2.6591
 9466SOL    HW239861   0.615   2.414   8.930 -0.8455 -0.5263  0.1633
 9467SOL     OW39862   0.457   2.430   5.403 -0.3664 -0.2782  0.1355
 9467SOL    HW139863   0.547   2.405   5.421  0.0224  0.2064 -1.1329
 9467SOL    HW239864   0.468   2.525   5.394 -2.2391  0.1973  2.9189
 9468SOL     OW39865   3.081   0.043  17.113  0.0445  0.1289  1.2751
 9468SOL    HW139866   2.991   0.029  17.143  0.5864 -1.5934  2.1403
 9468SOL    HW239867   3.068   0.057  17.019 -1.6319 -2.4587  1.0951
 9469SOL     OW39868   4.536   4.095   5.265  0.1079 -0.2231 -0.2049
 9469SOL    HW139869   4.482   4.122   5.190 -2.2120 -0.8717  1.2569
 9469SOL    HW239870   4.616   4.074   5.217  0.7452  2.9738 -0.5311
 9470SOL     OW39871   3.685   0.651  13.518  0.2598  0.3478 -0.2021
 9470SOL    HW139872   3.758   0.699  13.558  0.6008 -2.2663  2.2858
 9470SOL    HW239873   3.614   0.715  13.509 -0.8862 -0.8450  0.4200
 9471SOL     OW39874   1.791   3.975   7.655  0.7244 -0.9875  0.5059
 9471SOL    HW139875   1.811   3.953   7.746  2.1692  0.6397  0.5884
 9471SOL    HW239876   1.789   4.070   7.665  1.6936 -0.8629 -0.5197
 9472SOL     OW39877   0.482   3.371   2.646 -0.0592  0.3255  0.2026
 9472SOL    HW139878   0.467   3.287   2.603  1.1735 -0.7638  1.8923
 9472SOL    HW239879   0.450   3.431   2.579  2.2707  2.0549  0.6332
 9473SOL     OW39880   0.025   3.291   9.628 -0.3372  0.2838  0.8344
 9473SOL    HW139881   4.714   3.341   9.553 -1.6487 -1.3930  0.2703
 9473SOL    HW239882   0.083   3.353   9.672 -0.8825 -0.9564  3.3504
 9474SOL     OW39883   1.377   0.653   4.206 -0.5811  0.6714  0.2228
 9474SOL    HW139884   1.315   0.615   4.268  1.6187 -1.0879  1.3607
 9474SOL    HW239885   1.444   0.585   4.216 -0.6994  0.4609 -0.4490
 9475SOL     OW39886   2.541   2.708   9.058 -0.0673 -0.6137  0.1693
 9475SOL    HW139887   2.454   2.726   9.095  0.0046 -0.6218  0.3393
 9475SOL    HW239888   2.530   2.765   8.982 -0.9063  1.8023  2.0763
 9476SOL     OW39889   0.727   1.201   6.367 -0.5189  0.3305 -0.1386
 9476SOL    HW139890   0.738   1.268   6.435  1.3361  1.9792 -2.0343
 9476SOL    HW239891   0.643   1.162   6.388 -0.8318  0.9651 -0.1987
 9477SOL     OW39892   2.397   3.454   7.294  0.0023  0.7873  0.5283
 9477SOL    HW139893   2.471   3.506   7.326  0.7898  0.0701 -0.1094
 9477SOL    HW239894   2.336   3.525   7.274 -1.4265  0.2385  2.8974
 9478SOL     OW39895   3.301   1.445   3.246  0.1623 -0.2980 -0.2404
 9478SOL    HW139896   3.212   1.443   3.209 -0.0248 -2.5407  0.3284
 9478SOL    HW239897   3.351   1.444   3.164  2.2047 -1.0354  1.0341
 9479SOL     OW39898   3.735   1.496   0.295 -0.1759 -0.0263  0.1911
 9479SOL    HW139899   3.700   1.469   0.211  2.5865 -0.2162 -0.9045
 9479SOL    HW239900   3.730   1.410   0.337 -2.7566  0.3710  0.6887
 9480SOL     OW39901   1.756   0.632   1.462  0.7118 -0.6343  0.0344
 9480SOL    HW139902   1.815   0.701   1.494 -0.6609  1.3198 -1.6062
 9480SOL    HW239903   1.705   0.617   1.542 -1.1665  1.7593 -0.7120
 9481SOL     OW39904   4.341   2.263   4.371 -0.7042  0.1972 -0.3569
 9481SOL    HW139905   4.293   2.342   4.347  0.4244 -0.8294 -6.0468
 9481SOL    HW239906   4.285   2.217   4.434 -0.6661 -0.7210 -1.0014
 9482SOL     OW39907   4.553   4.218   8.151  0.2021 -0.0439  0.3914
 9482SOL    HW139908   4.496   4.212   8.228 -1.5527 -1.0550 -0.9735
 9482SOL    HW239909   4.518   4.142   8.105 -1.0637  1.5221 -1.2077
 9483SOL     OW39910   2.931   2.211   3.415 -0.0764  0.1399 -0.1252
 9483SOL    HW139911   2.879   2.153   3.470  0.5923 -0.7645 -0.4438
 9483SOL    HW239912   2.930   2.294   3.463  1.2598 -0.1361  0.3684
 9484SOL     OW39913   2.730   2.836   7.430  0.3810  0.3146 -0.2823
 9484SOL    HW139914   2.663   2.901   7.412  0.0721  0.0091 -0.2374
 9484SOL    HW239915   2.681   2.758   7.456  0.3849  0.6076  0.6017
 9485SOL     OW39916   4.653   3.668  16.112 -0.3409  0.0885 -0.2380
 9485SOL    HW139917   4.701   3.688  16.032 -0.0800  3.1390  0.6971
 9485SOL    HW239918   4.573   3.717  16.092 -0.1500  0.7306  0.5795
 9486SOL     OW39919   3.812   2.758   6.749  0.3503  1.1546  0.4209
 9486SOL    HW139920   3.799   2.851   6.770  0.8399  1.0733  1.0476
 9486SOL    HW239921   3.839   2.721   6.833  0.4906  0.5296  0.0981
 9487SOL     OW39922   1.763   3.008  12.078  0.3039  0.3419  0.3242
 9487SOL    HW139923   1.693   2.950  12.107  0.3561 -0.2177 -0.6582
 9487SOL    HW239924   1.813   2.942  12.030 -0.6294 -2.7237  3.6378
 9488SOL     OW39925   3.890   2.631   8.876 -0.0406 -0.5948 -0.1275
 9488SOL    HW139926   3.850   2.710   8.839 -0.0978 -1.0005 -0.9329
 9488SOL    HW239927   3.827   2.616   8.946 -1.1641 -1.6225 -1.3394
 9489SOL     OW39928   2.117   1.818   5.194 -0.2499  0.1668  0.2011
 9489SOL    HW139929   2.156   1.743   5.151  1.0717  1.5338 -0.9682
 9489SOL    HW239930   2.141   1.796   5.284 -0.8127 -0.2672  0.2469
 9490SOL     OW39931   3.301   3.368  16.842  0.0838  0.1323  0.2685
 9490SOL    HW139932   3.264   3.368  16.754 -1.0593 -1.3689  0.7642
 9490SOL    HW239933   3.305   3.458  16.874 -0.9644  0.6513 -1.0807
 9491SOL     OW39934   2.424   1.272  10.369  0.8578 -0.4499 -0.0897
 9491SOL    HW139935   2.431   1.246  10.277 -0.8989  0.4802 -0.4937
 9491SOL    HW239936   2.514   1.248  10.391  1.2640 -0.0626 -1.3313
 9492SOL     OW39937   1.238   0.346  17.631  0.8239  0.0201 -0.0260
 9492SOL    HW139938   1.150   0.311  17.620  0.3983  1.4636 -1.2780
 9492SOL    HW239939   1.236   0.428  17.680 -0.8641  0.0122 -0.0923
 9493SOL     OW39940   1.381   4.623  13.433 -0.2179  0.3106 -0.0940
 9493SOL    HW139941   1.427   4.659  13.356  1.1411  3.2303  2.0814
 9493SOL    HW239942   1.330   4.553  13.393 -1.0897 -0.6492  2.7157
 9494SOL     OW39943   2.078   1.751   4.674  0.6120 -0.1897  0.1116
 9494SOL    HW139944   2.149   1.695   4.641  0.6409 -0.1996  0.1910
 9494SOL    HW239945   2.039   1.678   4.722 -2.5110  1.2953 -0.2019
 9495SOL     OW39946   0.554   0.689   3.910 -0.0262  0.3328  0.0254
 9495SOL    HW139947   0.481   0.698   3.849  0.9497 -1.0137 -1.3301
 9495SOL    HW239948   0.619   0.748   3.873  1.8831 -1.0527  1.1879
 9496SOL     OW39949   3.600   2.802   8.432  0.3599 -0.2495 -0.0798
 9496SOL    HW139950   3.589   2.858   8.355 -1.0426  1.0005  1.0380
 9496SOL    HW239951   3.511   2.781   8.458  0.5691  2.9453  3.1690
 9497SOL     OW39952   0.331   1.358   5.446  0.0546 -0.3133  0.2678
 9497SOL    HW139953   0.298   1.269   5.461  2.0593 -1.1531 -0.2720
 9497SOL    HW239954   0.399   1.343   5.380  0.6997 -3.0584  1.5529
 9498SOL     OW39955   2.073   1.426   0.132  0.2236  0.2002  0.2322
 9498SOL    HW139956   1.987   1.411   0.171 -0.4518 -0.6044 -1.5747
 9498SOL    HW239957   2.120   1.350   0.167  0.1755  0.1156  0.1127
 9499SOL     OW39958   2.744   0.771   6.183 -0.0130  0.4116 -0.1493
 9499SOL    HW139959   2.795   0.847   6.213  0.4557  0.3597 -0.8305
 9499SOL    HW239960   2.793   0.757   6.102  1.1244 -1.7304  0.9160
 9500SOL     OW39961   3.401   3.141   5.856  0.1442  0.4823  0.1762
 9500SOL    HW139962   3.416   3.049   5.878  1.2018  1.3978  3.3331
 9500SOL    HW239963   3.463   3.188   5.912  0.3281 -0.0177  0.3977
 9501SOL     OW39964   0.592   0.991   1.008 -0.0637 -0.0356 -0.0473
 9501SOL    HW139965   0.629   0.972   0.921  0.8892 -1.2484  0.6224
 9501SOL    HW239966   0.671   0.997   1.061 -1.1279  0.0873  1.5112
 9502SOL     OW39967   3.125   4.506  16.924  0.4875  0.3511 -0.7997
 9502SOL    HW139968   3.037   4.479  16.895  0.2827  1.5584 -1.3179
 9502SOL    HW239969   3.101   4.558  17.000 -0.7133 -0.7127 -0.4396
 9503SOL     OW39970   0.937   0.406  14.505  0.2535  0.0577  0.0680
 9503SOL    HW139971   0.859   0.449  14.538  0.7301  1.0346 -0.0977
 9503SOL    HW239972   0.898   0.318  14.512  2.4108 -0.9758 -0.8009
 9504SOL     OW39973   0.211   4.623   3.786  0.7018 -0.2151  0.1290
 9504SOL    HW139974   0.287   4.568   3.800  0.6223 -0.3654 -0.0329
 9504SOL    HW239975   0.139   4.580   3.832 -0.1840  2.1096  0.9642
 9505SOL     OW39976   2.169   4.159  16.884 -0.2694 -0.4651  0.4119
 9505SOL    HW139977   2.087   4.111  16.885  1.7520 -3.8671  2.2086
 9505SOL    HW239978   2.132   4.230  16.832  2.2302  0.9609  0.5763
 9506SOL     OW39979   1.791   3.396   8.762 -0.3929 -0.5211  0.0134
 9506SOL    HW139980   1.825   3.334   8.698  0.9645  1.3955 -1.1076
 9506SOL    HW239981   1.853   3.465   8.740 -2.0199  1.8547  2.7761
 9507SOL     OW39982   3.729   1.023   1.226 -0.0408 -0.0337  0.2757
 9507SOL    HW139983   3.761   1.013   1.137 -1.7206  3.4290 -0.7017
 9507SOL    HW239984   3.748   1.116   1.241  0.0103  0.0235 -0.1477
 9508SOL     OW39985   0.033   3.040   1.637 -0.2616 -0.1950 -0.1482
 9508SOL    HW139986   0.085   2.999   1.706  1.8617  1.7286 -0.6063
 9508SOL    HW239987   0.087   3.027   1.560 -1.3761 -0.8459 -0.8214
 9509SOL     OW39988   3.276   2.194  14.793  0.5545 -0.4495  0.3301
 9509SOL    HW139989   3.282   2.277  14.839 -1.1681  0.9524 -2.0196
 9509SOL    HW239990   3.201   2.151  14.833  2.2386 -0.7202  3.2014
 9510SOL     OW39991   2.447   2.860   6.612  0.0378  0.0476 -0.1164
 9510SOL    HW139992   2.452   2.882   6.519  1.3415 -0.6471 -0.2250
 9510SOL    HW239993   2.438   2.765   6.604 -1.0975  0.0055  1.9434
 9511SOL     OW39994   0.965   3.923   2.063 -0.6187  0.0331 -0.5342
 9511SOL    HW139995   0.949   3.941   1.970  1.3677  3.1209 -0.2638
 9511SOL    HW239996   1.038   3.862   2.062 -1.2340 -0.6610 -3.6084
 9512SOL     OW39997   3.144   1.956  12.784 -0.3822  0.2169 -0.2571
 9512SOL    HW139998   3.080   1.977  12.853 -3.3967 -1.6234 -2.5026
 9512SOL    HW239999   3.203   2.031  12.790  0.9183 -0.8739  0.3544
 9513SOL     OW40000   2.387   2.700  15.533 -0.6546 -0.4328  0.2464
 9513SOL    HW140001   2.439   2.775  15.561 -1.5243  0.6294 -0.9717
 9513SOL    HW240002   2.404   2.690  15.439 -1.7158  1.0004 -0.0945
 9514SOL     OW40003   2.126   3.452   6.713  0.6065  0.0097 -0.5453
 9514SOL    HW140004   2.180   3.445   6.793  1.4244 -1.6202 -1.2430
 9514SOL    HW240005   2.045   3.420   6.752  2.3266 -2.8438  0.7399
 9515SOL     OW40006   2.300   1.081   8.738  0.1913 -0.3662 -0.2181
 9515SOL    HW140007   2.220   1.028   8.736 -1.2406  1.7108  2.4813
 9515SOL    HW240008   2.367   1.020   8.708  1.0217  0.1752  0.5720
 9516SOL     OW40009   1.524   2.420   3.481 -0.4861  0.7333  0.1461
 9516SOL    HW140010   1.473   2.492   3.444  0.8544  1.4631 -0.2588
 9516SOL    HW240011   1.502   2.421   3.574 -2.0160  1.7115 -0.2217
 9517SOL     OW40012   1.022   2.752   5.176 -0.2421 -0.1186  0.1514
 9517SOL    HW140013   1.064   2.771   5.260 -1.5615  1.8805  0.3436
 9517SOL    HW240014   0.935   2.787   5.194 -0.5439 -1.2819  0.9903
 9518SOL     OW40015   0.628   3.137   9.431 -0.0342  0.3176  0.7733
 9518SOL    HW140016   0.550   3.192   9.429 -0.3824 -0.2111 -0.0706
 9518SOL    HW240017   0.634   3.121   9.525  1.9073 -0.9262  0.4375
 9519SOL     OW40018   0.901   2.078   2.818  0.0398  0.2561  0.2741
 9519SOL    HW140019   0.821   2.123   2.848  1.3144  2.6847  0.0290
 9519SOL    HW240020   0.901   1.993   2.860  2.0373 -0.6860 -1.6478
 9520SOL     OW40021   1.325   0.624   3.399 -0.7212 -0.5277  0.2364
 9520SOL    HW140022   1.396   0.591   3.454  1.4155  1.1165 -1.5576
 9520SOL    HW240023   1.365   0.644   3.314  0.6776 -1.1651  0.7410
 9521SOL     OW40024   3.767   4.592   8.514 -0.1616  0.1340  0.2955
 9521SOL    HW140025   3.760   4.536   8.591 -1.5541 -0.2247 -0.0968
 9521SOL    HW240026   3.730   4.676   8.543  0.7196 -0.5013  3.2160
 9522SOL     OW40027   2.141   2.869   6.054  0.6250 -0.4211  0.1076
 9522SOL    HW140028   2.150   2.796   5.993 -2.2343  0.2065 -1.0739
 9522SOL    HW240029   2.154   2.831   6.141 -0.7270 -0.7414  0.1741
 9523SOL     OW40030   4.652   1.252   6.984  0.3428 -0.4358  0.0980
 9523SOL    HW140031   4.672   1.276   7.075  0.5541  2.8499 -0.8138
 9523SOL    HW240032   4.599   1.323   6.947 -1.4273 -0.8482  1.8443
 9524SOL     OW40033   2.329   2.082   2.614  0.0003 -0.0566 -0.6465
 9524SOL    HW140034   2.406   2.029   2.596 -0.8400 -1.6080  0.3191
 9524SOL    HW240035   2.337   2.165   2.567 -0.8254  0.3470 -0.0822
 9525SOL     OW40036   3.136   2.694  16.144  0.3122 -0.2680  0.3484
 9525SOL    HW140037   3.223   2.658  16.161  0.6669  0.3182 -0.1975
 9525SOL    HW240038   3.098   2.693  16.232 -0.9897 -0.7623 -0.2105
 9526SOL     OW40039   0.439   2.053  10.989  0.0020  0.1659 -0.3490
 9526SOL    HW140040   0.370   2.055  10.923 -0.4854  1.0907  0.1899
 9526SOL    HW240041   0.400   2.102  11.062 -0.2788  1.5237 -1.4174
 9527SOL     OW40042   0.559   1.370  11.659  0.1379 -0.0097 -0.1071
 9527SOL    HW140043   0.494   1.338  11.722  1.0963 -0.8473  0.4377
 9527SOL    HW240044   0.516   1.386  11.574 -0.5363  1.0275  0.4204
 9528SOL     OW40045   0.743   4.637   6.798  0.4684 -0.4158 -0.1384
 9528SOL    HW140046   0.680   4.704   6.825 -2.1522 -2.8072 -0.4106
 9528SOL    HW240047   0.795   4.687   6.734  1.5684 -0.9121  0.3611
 9529SOL     OW40048   1.254   0.022  13.953 -0.2053  0.3197 -0.3637
 9529SOL    HW140049   1.277   0.012  13.861  0.6939  0.3548 -0.1426
 9529SOL    HW240050   1.179   0.081  13.946 -1.9110 -2.0503 -2.0790
 9530SOL     OW40051   4.557   3.323   5.860  0.2090 -0.0293  0.4614
 9530SOL    HW140052   4.512   3.374   5.927 -0.3833 -1.9475  1.5305
 9530SOL    HW240053   4.644   3.299   5.892 -0.3101 -2.0722  0.3394
 9531SOL     OW40054   0.297   2.208   2.576  0.5284  0.4672 -0.3304
 9531SOL    HW140055   0.311   2.196   2.482 -1.6762 -0.0592 -0.5885
 9531SOL    HW240056   0.378   2.170   2.610  0.5289 -0.3206 -1.2043
 9532SOL     OW40057   2.163   1.409   7.538  0.7153 -0.1068  0.0824
 9532SOL    HW140058   2.218   1.487   7.541  1.2998 -0.5546  1.0787
 9532SOL    HW240059   2.121   1.425   7.453  2.7217  0.8011 -0.7535
 9533SOL     OW40060   1.954   3.076   2.271 -0.2693  0.2367 -0.1498
 9533SOL    HW140061   1.948   3.127   2.352  0.0988  0.2320 -0.1185
 9533SOL    HW240062   2.041   3.038   2.269 -0.7889 -0.8734 -1.4693
 9534SOL     OW40063   4.193   2.826  13.222 -0.1513 -0.2605 -0.2822
 9534SOL    HW140064   4.134   2.900  13.241 -1.0887 -0.9553 -0.4952
 9534SOL    HW240065   4.279   2.867  13.228  0.5970 -1.8667 -0.2333
 9535SOL     OW40066   3.301   2.272   2.220  0.1584  0.3136 -1.2778
 9535SOL    HW140067   3.249   2.337   2.267 -0.8770 -0.2131 -1.6777
 9535SOL    HW240068   3.390   2.307   2.223 -0.3275  1.6578 -2.5266
 9536SOL     OW40069   0.309   0.962   9.489  0.0655 -0.3559 -0.1564
 9536SOL    HW140070   0.373   0.900   9.525  0.3960 -0.9192 -1.7042
 9536SOL    HW240071   0.238   0.903   9.463  0.6874 -0.5624 -1.4155
 9537SOL     OW40072   3.140   0.199   5.403  0.1790 -0.1265 -0.2672
 9537SOL    HW140073   3.125   0.104   5.395 -1.3792  0.0895  0.1922
 9537SOL    HW240074   3.225   0.198   5.448  1.8416 -0.5239 -3.3859
 9538SOL     OW40075   2.677   2.670   9.320 -0.8181 -0.0417  0.1205
 9538SOL    HW140076   2.617   2.712   9.258  0.9794  2.2436 -0.0720
 9538SOL    HW240077   2.756   2.655   9.269 -0.0209 -0.9859  1.6651
 9539SOL     OW40078   1.118   2.708   6.315 -0.5947  0.3420  0.5766
 9539SOL    HW140079   1.120   2.804   6.322  0.9096  0.0094  4.5823
 9539SOL    HW240080   1.210   2.683   6.303 -1.2928 -0.3982 -3.4720
 9540SOL     OW40081   1.333   4.151   6.568  0.1278  0.3161 -0.0465
 9540SOL    HW140082   1.395   4.091   6.608 -2.3812 -1.0059  1.8522
 9540SOL    HW240083   1.270   4.177   6.635 -0.4109 -0.0275 -0.4188
 9541SOL     OW40084   0.598   4.373   5.930 -0.2450 -0.1105  0.6742
 9541SOL    HW140085   0.508   4.386   5.901 -0.1253 -0.3302  0.2062
 9541SOL    HW240086   0.628   4.301   5.875 -2.0691 -1.1963  1.1017
 9542SOL     OW40087   0.169   0.696  10.968  0.1155  0.0683 -0.1623
 9542SOL    HW140088   0.171   0.604  10.993 -0.6899 -0.5075 -2.1520
 9542SOL    HW240089   0.136   0.692  10.878  1.9846  0.8586 -0.8984
 9543SOL     OW40090   4.345   3.928  10.236  0.2499  0.1092 -0.4789
 9543SOL    HW140091   4.422   3.929  10.293 -0.9941  1.5862  1.1732
 9543SOL    HW240092   4.358   3.836  10.215  0.2163  0.1831 -0.8329
 9544SOL     OW40093   3.005   2.389  13.047 -0.5855 -0.6274  0.4914
 9544SOL    HW140094   2.930   2.352  13.000 -1.6571  1.0204  0.8963
 9544SOL    HW240095   3.023   2.312  13.102  1.6432  0.1961  0.9142
 9545SOL     OW40096   2.574   0.243  17.528  0.0784  0.0145 -0.7433
 9545SOL    HW140097   2.497   0.258  17.583  1.3257  0.3876  0.9076
 9545SOL    HW240098   2.552   0.170  17.470 -2.1829  1.0121 -1.1608
 9546SOL     OW40099   3.421   2.688   5.067  0.2776 -0.3136  0.0400
 9546SOL    HW140100   3.336   2.728   5.047  0.5964  0.9162  1.1039
 9546SOL    HW240101   3.461   2.699   4.981 -1.0549  0.8406 -0.4255
 9547SOL     OW40102   4.448   4.551   4.342  0.3087 -0.1912 -0.3365
 9547SOL    HW140103   4.505   4.610   4.292 -0.6447  0.5841 -0.5061
 9547SOL    HW240104   4.481   4.464   4.321 -0.9578 -0.4854 -1.0974
 9548SOL     OW40105   2.199   4.412   4.721 -0.4821  0.3065  0.3283
 9548SOL    HW140106   2.166   4.476   4.658 -1.5835 -1.9695 -1.4489
 9548SOL    HW240107   2.120   4.408   4.774 -0.5405  0.7975  0.2778
 9549SOL     OW40108   0.577   3.846   3.907  0.2416 -0.2643  0.7114
 9549SOL    HW140109   0.608   3.934   3.930 -0.1379  0.3073 -0.9326
 9549SOL    HW240110   0.504   3.872   3.850  1.1100  0.1168 -0.2433
 9550SOL     OW40111   4.108   2.405   6.288 -0.0718  0.2643  0.2706
 9550SOL    HW140112   4.183   2.464   6.285  0.9180 -0.9994  0.1499
 9550SOL    HW240113   4.035   2.463   6.268 -0.3986  0.3822  1.8438
 9551SOL     OW40114   3.540   2.405   2.159 -0.1774 -0.0501  0.0829
 9551SOL    HW140115   3.609   2.340   2.158  0.1154  0.2739 -0.8126
 9551SOL    HW240116   3.587   2.477   2.201 -1.2092 -0.4298  1.8644
 9552SOL     OW40117   4.690   0.346  10.805 -0.4631 -0.2864  0.0153
 9552SOL    HW140118   0.027   0.301  10.868 -0.4475 -1.1587 -0.6255
 9552SOL    HW240119   0.014   0.430  10.798 -0.3157 -0.1043  3.1993
 9553SOL     OW40120   3.415   2.727   7.406  0.1948 -0.0035 -0.2371
 9553SOL    HW140121   3.330   2.690   7.428 -0.9799  2.2284 -0.9700
 9553SOL    HW240122   3.392   2.793   7.340  1.5565 -1.5516 -2.2520
 9554SOL     OW40123   1.830   2.555   6.506  0.3821  0.3893 -0.2491
 9554SOL    HW140124   1.812   2.536   6.413 -2.5713  0.0155  0.3958
 9554SOL    HW240125   1.815   2.470   6.547  0.2557  0.2055 -0.6763
 9555SOL     OW40126   0.193   4.706   5.407 -0.7984 -0.2316 -0.3577
 9555SOL    HW140127   0.203   4.692   5.501 -1.6993  1.9392  0.0776
 9555SOL    HW240128   0.200   0.081   5.407  0.8675 -0.3490 -2.2424
 9556SOL     OW40129   3.367   0.581   4.362 -0.1138 -0.1477 -0.1405
 9556SOL    HW140130   3.326   0.543   4.284  0.0036  2.0711 -1.2930
 9556SOL    HW240131   3.449   0.615   4.327 -0.4070 -0.8946 -1.5665
 9557SOL     OW40132   2.203   0.087  13.402 -0.6215  0.0899 -0.0683
 9557SOL    HW140133   2.298   0.096  13.403 -0.6812  0.6345  0.7523
 9557SOL    HW240134   2.177   0.117  13.315  2.3805 -0.8645 -1.2776
 9558SOL     OW40135   1.857   3.343   1.825 -0.6392  0.6754 -0.3939
 9558SOL    HW140136   1.865   3.257   1.865  3.4575  1.1828 -0.2154
 9558SOL    HW240137   1.804   3.313   1.751  0.7414 -0.4621 -0.9129
 9559SOL     OW40138   4.133   2.880   9.995 -0.2302  0.6413  0.2229
 9559SOL    HW140139   4.095   2.951   9.943 -1.4854  1.3013  2.0497
 9559SOL    HW240140   4.108   2.902  10.085 -1.7950 -0.0531 -0.0502
 9560SOL     OW40141   3.226   3.733   3.909  0.1579 -0.4945 -0.1122
 9560SOL    HW140142   3.283   3.676   3.961  2.2021  3.2627  1.7529
 9560SOL    HW240143   3.280   3.753   3.832  2.4017  1.6023  2.0052
 9561SOL     OW40144   1.583   4.681   0.346 -0.0021 -0.2390 -0.9588
 9561SOL    HW140145   1.527   4.606   0.366 -0.6212  0.2688 -0.7930
 9561SOL    HW240146   1.536   0.030   0.392 -1.7749 -2.0879  0.0299
 9562SOL     OW40147   3.804   4.601   5.098  0.0637 -0.0627 -0.5890
 9562SOL    HW140148   3.711   4.600   5.121  0.4675  0.9244  1.0796
 9562SOL    HW240149   3.811   4.644   5.013  1.7739 -0.8887 -0.8810
 9563SOL     OW40150   1.556   2.140   1.426 -0.3640  0.4286  0.2444
 9563SOL    HW140151   1.551   2.198   1.350 -0.8467  0.4209  0.2686
 9563SOL    HW240152   1.625   2.077   1.406 -2.0705 -1.4845  0.3341
 9564SOL     OW40153   2.671   1.087  13.724  0.1529 -0.1344  0.5435
 9564SOL    HW140154   2.600   1.149  13.742  0.6366  0.7275 -0.5225
 9564SOL    HW240155   2.629   1.002  13.713 -0.0367 -0.1708  1.5295
 9565SOL     OW40156   0.583   0.187   5.566 -0.4229 -0.5714  0.2821
 9565SOL    HW140157   0.583   0.277   5.534 -0.4376  0.0742  2.0576
 9565SOL    HW240158   0.633   0.147   5.496 -1.1707 -1.6221  0.3576
 9566SOL     OW40159   2.983   2.908   5.121 -0.5091 -0.1906 -0.5741
 9566SOL    HW140160   3.014   2.876   5.206 -1.4073 -0.5072 -0.3695
 9566SOL    HW240161   2.929   2.983   5.147  0.3058 -0.3598  1.6603
 9567SOL     OW40162   1.927   1.901   0.302  0.1213  0.3433  0.3366
 9567SOL    HW140163   1.968   1.959   0.238  1.9743 -0.7848  0.5360
 9567SOL    HW240164   1.833   1.919   0.299 -0.1613 -1.1452  0.3429
 9568SOL     OW40165   3.563   3.054  12.620  0.0381  0.4601 -0.0071
 9568SOL    HW140166   3.589   3.075  12.710 -0.3938  0.5974  0.0886
 9568SOL    HW240167   3.511   3.133  12.603  0.0151  0.2266 -0.9848
   4.72086   4.72086  17.68589
