Membrane in water
40167
    1TCq1    O1    1   1.785   3.680  10.980 -0.3416 -0.3795 -1.0443
    1TCq1    C1    2   1.817   3.601  11.087  0.7253 -0.7467  0.0527
    1TCq1    O2    3   1.919   3.608  11.157 -0.0089 -0.1673  0.3770
    1TCq1    C2    4   1.690   3.570  11.157 -0.3104  0.0197 -0.2667
    1TCq1    C3    5   1.576   3.532  11.089 -0.0591  0.4077  0.0247
    1TCq1    C4    6   1.468   3.494  11.162  0.3007 -0.5496 -0.2141
    1TCq1    C5    7   1.481   3.477  11.298  0.7017 -0.0537 -0.1551
    1TCq1    C6    8   1.594   3.514  11.360  0.5268  0.4132  0.0370
    1TCq1    C7    9   1.701   3.561  11.291 -0.3301 -0.2727 -0.2052
    1TCq1    C8   10   1.609   3.453  11.492  0.2931  0.0784 -0.0362
    1TCq1    O4   11   1.518   3.386  11.534  0.0864 -0.6558 -0.7237
    1TCq1    C9   12   1.343   3.443  11.107 -0.1084 -0.4873  0.0885
    1TCq1    O5   13   1.312   3.482  10.992 -0.4213  0.0951  0.2698
    1TCq1    O6   14   1.265   3.381  11.191 -0.0458  0.1672 -0.1950
    1TCq1    H1   15   1.698   3.724  10.990 -0.2167 -0.4582  0.4271
    1TCq1    H2   16   1.560   3.546  10.983  2.4604  1.8204 -0.1912
    1TCq1    H3   17   1.391   3.446  11.350  0.8498  0.8807  0.6566
    1TCq1    H4   18   1.788   3.614  11.330 -1.4154  0.2878  1.4337
    2MPD2     C   19   1.871   3.425  11.917 -0.0791  0.4001  0.2179
    2MPD2    C1   20   1.735   3.403  11.892 -0.1983  0.8244  0.6643
    2MPD2    C2   21   1.686   3.416  11.763  0.0124 -0.3147 -0.9849
    2MPD2    C3   22   1.780   3.419  11.664 -0.3958 -0.0256  0.3784
    2MPD2    C4   23   1.914   3.405  11.687  0.0255  0.4430  0.1946
    2MPD2    C5   24   1.958   3.413  11.815 -0.0549  0.1546 -0.7272
    2MPD2     H   25   1.578   3.425  11.749 -0.2839  1.8057  2.8337
    2MPD2    H1   26   1.995   3.407  11.615 -1.2142  2.0780 -1.1415
    2MPD2    H2   27   1.917   3.449  12.012 -0.6595 -0.1728  0.6387
    2MPD2    H3   28   2.064   3.425  11.833  0.4938 -1.1914 -2.9795
    2MPD2     N   29   1.742   3.443  11.533  0.3090  0.5955  0.1140
    2MPD2    H5   30   1.821   3.461  11.472  1.3243 -0.6094  1.0598
    2MPD2    N1   31   1.640   3.407  11.993  0.2574  0.5178 -0.9331
    2MPD2    H7   32   1.541   3.410  11.971  0.3985 -0.9169 -1.7752
    3TCq1    O1   33   0.609   4.292  10.150 -0.2572 -0.4129  0.3913
    3TCq1    C1   34   0.603   4.172  10.216 -0.0005 -0.1828 -0.0774
    3TCq1    O2   35   0.687   4.079  10.212 -0.2804  0.5786 -0.4434
    3TCq1    C2   36   0.483   4.166  10.308 -0.2116 -0.3512 -0.7019
    3TCq1    C3   37   0.395   4.271  10.324  0.1139 -0.2321 -0.8517
    3TCq1    C4   38   0.288   4.258  10.406  0.0433 -0.2646  0.0842
    3TCq1    C5   39   0.270   4.144  10.472  0.5964 -0.4744  0.5391
    3TCq1    C6   40   0.361   4.043  10.465 -0.3466 -0.1747  0.1795
    3TCq1    C7   41   0.472   4.051  10.387  0.5503  0.2858  0.2820
    3TCq1    C8   42   0.337   3.917  10.536 -0.1479  0.1077  0.0645
    3TCq1    O4   43   0.419   3.824  10.521 -0.1527  0.0442 -0.1292
    3TCq1    C9   44   0.190   4.364  10.420 -0.2210  0.2184  0.1811
    3TCq1    O5   45   0.141   4.374  10.532 -0.2453  0.5827 -0.2100
    3TCq1    O6   46   0.183   4.445  10.321  0.1602 -0.2112  0.1923
    3TCq1    H1   47   0.519   4.332  10.150 -1.0245 -2.1154  1.0348
    3TCq1    H2   48   0.416   4.366  10.277  3.0083 -1.3143 -1.7455
    3TCq1    H3   49   0.173   4.132  10.520 -0.3527  1.4424 -0.9341
    3TCq1    H4   50   0.537   3.964  10.378  0.0157  0.0489 -1.3160
    4MPD2     C   51   0.052   3.656  10.869  0.1642  0.3529  0.2412
    4MPD2    C1   52   0.047   3.790  10.903  1.2040  0.0951  0.0929
    4MPD2    C2   53   0.120   3.878  10.831 -0.8530  0.2688 -0.3904
    4MPD2    C3   54   0.193   3.836  10.722  0.2795 -0.4682 -0.6140
    4MPD2    C4   55   0.208   3.703  10.693 -0.0562 -0.1896  0.4726
    4MPD2    C5   56   0.143   3.614  10.775  0.7924  0.0175 -0.8115
    4MPD2     H   57   0.107   3.984  10.847  2.2836  0.7690 -1.1037
    4MPD2    H1   58   0.266   3.665  10.610  0.5206  0.7980  0.4311
    4MPD2    H2   59   4.721   3.577  10.918 -3.0660  1.4583 -1.6835
    4MPD2    H3   60   0.160   3.509  10.751  1.7475  0.6707 -2.9785
    4MPD2     N   61   0.258   3.940  10.644 -0.1434 -0.3792  0.1465
    4MPD2    H5   62   0.228   4.036  10.662  1.6234 -0.2555  2.3779
    4MPD2    N1   63   4.695   3.840  11.012 -0.0265 -1.2654  0.6131
    4MPD2    H7   64   4.698   3.941  11.024  0.7618 -0.8891 -2.7700
    5TCq1    O1   65   1.648   1.246  11.475 -0.3029 -0.1533  0.2315
    5TCq1    C1   66   1.777   1.233  11.518 -0.1769 -0.6266  0.3419
    5TCq1    O2   67   1.811   1.263  11.629 -0.2542 -0.8991  0.5635
    5TCq1    C2   68   1.826   1.106  11.471  0.8394 -0.0243 -0.5900
    5TCq1    C3   69   1.962   1.086  11.472 -0.9689  0.0580 -0.7070
    5TCq1    C4   70   2.007   0.983  11.389 -0.0401  0.1419 -0.0422
    5TCq1    C5   71   1.929   0.890  11.332 -0.1837  0.4431 -0.3273
    5TCq1    C6   72   1.794   0.904  11.341 -0.1495 -0.8127  0.6755
    5TCq1    C7   73   1.741   1.012  11.409  0.4350 -0.5211 -0.5010
    5TCq1    C8   74   1.700   0.821  11.266 -0.3761 -0.3185 -0.2128
    5TCq1    O4   75   1.589   0.866  11.244 -0.4842 -0.2133  0.1544
    5TCq1    C9   76   2.153   0.964  11.385 -0.2056 -0.1228 -0.0140
    5TCq1    O5   77   2.227   1.056  11.430  0.2262 -0.1380  0.3315
    5TCq1    O6   78   2.188   0.862  11.324 -0.1629 -0.1641  0.3613
    5TCq1    H1   79   1.650   1.245  11.377 -0.3906 -1.8680  0.2456
    5TCq1    H2   80   2.031   1.148  11.529 -1.2284  0.1486 -0.4904
    5TCq1    H3   81   1.978   0.818  11.267  1.8184  2.5620 -1.1701
    5TCq1    H4   82   1.635   1.032  11.397  0.7728  2.5988  1.6420
    6MPD2     C   83   1.704   0.460  11.251  0.0670 -0.6536  0.3361
    6MPD2    C1   84   1.680   0.585  11.201 -0.4078  0.2288 -0.5344
    6MPD2    C2   85   1.568   0.601  11.120 -0.1913 -0.9015  0.0120
    6MPD2    C3   86   1.487   0.492  11.088 -0.0265  0.0817  0.6326
    6MPD2    C4   87   1.520   0.365  11.131 -0.8059  0.0822  0.8863
    6MPD2    C5   88   1.630   0.348  11.212 -0.5824 -0.5471 -0.3240
    6MPD2     H   89   1.540   0.698  11.081  2.7323 -1.1941 -2.8657
    6MPD2    H1   90   1.465   0.278  11.099  0.3950 -0.5436  0.5361
    6MPD2    H2   91   1.785   0.448  11.322  0.2022 -0.1605  0.2620
    6MPD2    H3   92   1.650   0.252  11.259  0.1894 -0.1200  0.2140
    6MPD2     N   93   1.367   0.518  11.015  0.4024 -0.1166  0.3440
    6MPD2    H5   94   1.346   0.617  11.004 -0.2778 -0.1471  1.4054
    6MPD2    N1   95   1.745   0.698  11.263 -0.5734  0.0108 -0.2590
    6MPD2    H7   96   1.834   0.675  11.307 -1.2650 -0.1514  1.0660
    7TCq1    O1   97   2.226   0.103  14.397  0.3597  0.2527 -0.5843
    7TCq1    C1   98   2.274   0.024  14.301 -0.3409 -0.4305  0.0778
    7TCq1    O2   99   2.297   0.064  14.185 -0.0010 -0.3080  1.0733
    7TCq1    C2  100   2.346   4.647  14.371  0.4996 -0.1206 -0.7179
    7TCq1    C3  101   2.410   4.657  14.494 -0.5483  0.2298 -0.1415
    7TCq1    C4  102   2.508   4.570  14.527 -0.1690  0.9214 -0.1309
    7TCq1    C5  103   2.554   4.471  14.440  0.9133 -0.3855 -0.0663
    7TCq1    C6  104   2.492   4.465  14.320 -0.1062  0.5193 -0.7938
    7TCq1    C7  105   2.385   4.546  14.282  0.4675  0.4913 -0.0469
    7TCq1    C8  106   2.564   4.412  14.205  0.5959 -0.3233  0.0842
    7TCq1    O4  107   2.686   4.423  14.209 -0.1102 -0.0167 -0.2898
    7TCq1    C9  108   2.571   4.584  14.654  0.2560 -0.3162 -0.0303
    7TCq1    O5  109   2.675   4.520  14.663 -0.0158 -0.1422 -0.0141
    7TCq1    O6  110   2.513   4.656  14.741 -0.6580 -0.1101  0.3154
    7TCq1    H1  111   2.191   0.056  14.475  1.5223 -0.4910 -0.5086
    7TCq1    H2  112   2.381   0.010  14.564  0.5852  0.2758  0.2784
    7TCq1    H3  113   2.649   4.420  14.452 -0.4181 -3.1981 -1.5154
    7TCq1    H4  114   2.339   4.551  14.184  2.1441  2.6884 -0.7259
    8MPD2     C  115   2.565   4.181  13.749  0.7642  0.3397 -0.7229
    8MPD2    C1  116   2.675   4.220  13.827  0.8785  0.0856  0.1541
    8MPD2    C2  117   2.640   4.294  13.942  0.0252 -0.1345  0.3620
    8MPD2    C3  118   2.512   4.321  13.981 -0.9867 -0.7261  0.3499
    8MPD2    C4  119   2.415   4.268  13.907 -1.0765 -0.2685 -0.5605
    8MPD2    C5  120   2.439   4.209  13.790  0.1145  0.6001 -0.0840
    8MPD2     H  121   2.719   4.320  14.012  0.6389  0.8402 -0.7029
    8MPD2    H1  122   2.312   4.261  13.942 -0.4780 -1.5631  0.9490
    8MPD2    H2  123   2.585   4.117  13.663  0.3351 -1.1561  0.2832
    8MPD2    H3  124   2.353   4.171  13.736 -0.8844  2.6408  0.0835
    8MPD2     N  125   2.476   4.374  14.106  0.0564 -0.4992 -0.2028
    8MPD2    H5  126   2.377   4.371  14.127  0.6234  0.3739  2.4975
    8MPD2    N1  127   2.802   4.177  13.794  0.0342  0.0743 -0.6538
    8MPD2    H7  128   2.805   4.099  13.729 -1.8274  1.1896 -2.0901
    9TCq1    O1  129   0.172   4.254  10.755  0.0724 -0.5397 -0.0832
    9TCq1    C1  130   0.247   4.290  10.860 -0.1437 -0.0278  0.6145
    9TCq1    O2  131   0.267   4.211  10.948  0.0443  0.2373 -0.0865
    9TCq1    C2  132   0.353   4.348  10.785 -0.0515  0.8159  0.3572
    9TCq1    C3  133   0.336   4.463  10.722 -0.9702  0.4787 -0.1761
    9TCq1    C4  134   0.433   4.509  10.633  0.3862 -0.4898  0.6670
    9TCq1    C5  135   0.539   4.428  10.619 -0.0178  0.8715 -0.2363
    9TCq1    C6  136   0.552   4.300  10.679  0.5395 -0.9750 -0.1893
    9TCq1    C7  137   0.464   4.260  10.776 -0.8997 -0.4944 -0.1261
    9TCq1    C8  138   0.675   4.228  10.645 -0.6832 -0.3414  0.0173
    9TCq1    O4  139   0.725   4.245  10.539  0.4798  0.4978  0.8280
    9TCq1    C9  140   0.420   4.639  10.571  0.0248 -0.8388 -0.2634
    9TCq1    O5  141   0.305   4.694  10.589  0.2044  0.0872 -0.0460
    9TCq1    O6  142   0.495   4.647  10.472  0.0456  0.2450  0.5070
    9TCq1    H1  143   0.178   4.312  10.676  0.2850 -0.0775  0.2715
    9TCq1    H2  144   0.253   4.528  10.747  0.6095  1.7640  1.8333
    9TCq1    H3  145   0.621   4.463  10.558 -0.8734 -1.3472 -2.6674
    9TCq1    H4  146   0.458   4.167  10.831  0.2748  0.1068  1.0272
   10MPD2     C  147   0.927   4.056  10.656 -0.5993  0.0780  0.4488
   10MPD2    C1  148   0.835   4.061  10.761  0.4559  0.5884 -0.4254
   10MPD2    C2  149   0.856   3.986  10.869 -0.4686  0.0644 -0.5253
   10MPD2    C3  150   0.968   3.902  10.882  0.0917 -0.7043  0.5574
   10MPD2    C4  151   1.062   3.904  10.785 -1.0380 -0.0878  0.4812
   10MPD2    C5  152   1.035   3.975  10.669  0.1038  0.3838  0.3464
   10MPD2     H  153   0.784   3.999  10.949  0.2461  1.2842 -0.0872
   10MPD2    H1  154   1.148   3.838  10.793 -1.7921 -1.2314 -0.9412
   10MPD2    H2  155   0.911   4.107  10.562  1.3039 -0.1329 -0.0019
   10MPD2    H3  156   1.115   3.983  10.597 -0.5190 -0.4268 -0.4262
   10MPD2     N  157   0.988   3.827  10.997 -0.2733 -0.8806  0.1329
   10MPD2    H5  158   1.078   3.781  11.008 -0.1424 -0.2105  1.7826
   10MPD2    N1  159   0.715   4.139  10.748 -0.2941 -0.3727  0.2092
   10MPD2    H7  160   0.654   4.128  10.828 -1.2354 -2.0773 -0.7422
   11TCq1    O1  161   1.607   3.789  14.038  0.0480 -0.0420 -0.2185
   11TCq1    C1  162   1.483   3.770  14.093  0.9967  1.0122 -0.4326
   11TCq1    O2  163   1.382   3.716  14.049  0.4679 -1.0712 -0.5034
   11TCq1    C2  164   1.475   3.861  14.209 -0.0130  0.0320 -0.1902
   11TCq1    C3  165   1.557   3.966  14.232  0.3087 -0.2262 -0.3313
   11TCq1    C4  166   1.560   4.033  14.351 -0.9207  0.0805  0.4414
   11TCq1    C5  167   1.467   4.002  14.447  0.4186 -0.4692  0.3160
   11TCq1    C6  168   1.379   3.898  14.418  0.0816  0.2476  0.1052
   11TCq1    C7  169   1.380   3.826  14.300 -0.1511  0.5467 -0.4807
   11TCq1    C8  170   1.278   3.856  14.516 -0.5176 -0.3869  0.3776
   11TCq1    O4  171   1.304   3.850  14.636  0.7681 -0.0672  0.4089
   11TCq1    C9  172   1.661   4.127  14.392  0.2502 -0.0264  0.7029
   11TCq1    O5  173   1.690   4.123  14.520 -0.1696  0.4715 -0.1294
   11TCq1    O6  174   1.714   4.211  14.313 -0.3414 -0.2798  0.8132
   11TCq1    H1  175   1.680   3.821  14.094  1.2894 -1.0415 -1.2839
   11TCq1    H2  176   1.638   3.988  14.164  1.4588  1.2213  1.4946
   11TCq1    H3  177   1.468   4.056  14.541  4.4897 -0.1085  0.0559
   11TCq1    H4  178   1.302   3.756  14.273 -1.8142  2.0841  0.3169
   12MPD2     C  179   1.058   3.685  14.636 -0.3642 -0.4410  1.2936
   12MPD2    C1  180   1.060   3.735  14.510 -0.1662  0.5262  0.2079
   12MPD2    C2  181   0.955   3.705  14.428  0.4943 -0.0100  0.8921
   12MPD2    C3  182   0.851   3.620  14.468  0.8583 -0.0687 -0.8257
   12MPD2    C4  183   0.848   3.577  14.596 -0.5128 -0.1168  0.2542
   12MPD2    C5  184   0.946   3.621  14.679  0.0574  0.5575  0.9562
   12MPD2     H  185   0.957   3.744  14.327  1.5806 -0.1853  0.8495
   12MPD2    H1  186   0.777   3.502  14.630  1.0273 -0.8272  1.9238
   12MPD2    H2  187   1.141   3.700  14.705 -0.2617  0.0338  1.0690
   12MPD2    H3  188   0.955   3.577  14.778 -1.0393 -0.0315  0.7889
   12MPD2     N  189   0.754   3.574  14.374 -0.3012  0.0592  0.0503
   12MPD2    H5  190   0.712   3.484  14.395  1.7723 -1.1254 -0.8188
   12MPD2    N1  191   1.170   3.806  14.454 -0.1283  0.4969  0.2970
   12MPD2    H7  192   1.162   3.828  14.356  0.4895  2.4533  0.6875
   13TCq1    O1  193   1.059   3.498  10.993 -0.1280  0.8997 -0.2450
   13TCq1    C1  194   0.986   3.456  10.888  0.6991  0.4774  0.4142
   13TCq1    O2  195   1.027   3.393  10.789 -0.3609  0.0823 -0.1623
   13TCq1    C2  196   0.843   3.448  10.942  0.4188 -0.3581 -0.2932
   13TCq1    C3  197   0.755   3.385  10.859 -0.0707  0.2777  0.2066
   13TCq1    C4  198   0.626   3.374  10.894 -0.3511 -0.3926  0.7550
   13TCq1    C5  199   0.574   3.428  11.003  0.2198 -0.2552  0.0353
   13TCq1    C6  200   0.662   3.485  11.088  0.5363 -0.1003  0.4205
   13TCq1    C7  201   0.795   3.502  11.057  0.9102  1.0056  0.1494
   13TCq1    C8  202   0.622   3.539  11.214 -0.5007  0.4165  0.0961
   13TCq1    O4  203   0.682   3.514  11.316  0.6202  0.6353 -0.3274
   13TCq1    C9  204   0.535   3.305  10.801  0.2632 -0.9263  0.3415
   13TCq1    O5  205   0.576   3.279  10.687  0.1681  0.3934 -0.1602
   13TCq1    O6  206   0.423   3.264  10.842 -0.2028 -0.1816 -0.2003
   13TCq1    H1  207   1.156   3.495  10.981  0.3012  0.7808  3.3454
   13TCq1    H2  208   0.792   3.339  10.768 -0.7228 -1.2864  0.7354
   13TCq1    H3  209   0.470   3.417  11.033 -0.7219  2.1116 -2.4472
   13TCq1    H4  210   0.868   3.547  11.123  2.4093 -1.1322 -0.0630
   14MPD2     C  211   0.308   3.714  11.264  0.1690 -0.2999  0.1185
   14MPD2    C1  212   0.439   3.674  11.291 -0.6189 -0.8847  0.9073
   14MPD2    C2  213   0.488   3.706  11.416  0.0919  0.3178  0.4309
   14MPD2    C3  214   0.431   3.777  11.517 -0.3297  0.2334  0.2753
   14MPD2    C4  215   0.302   3.812  11.492 -1.2207 -0.5236 -0.0829
   14MPD2    C5  216   0.241   3.791  11.362  0.1002  0.5917  0.3568
   14MPD2     H  217   0.593   3.692  11.438  1.0161  2.8727 -2.4003
   14MPD2    H1  218   0.243   3.866  11.567 -1.0998  0.7330 -0.8915
   14MPD2    H2  219   0.262   3.690  11.168 -1.6224  0.1960  0.8489
   14MPD2    H3  220   0.135   3.811  11.355  0.0394  0.2372  0.3027
   14MPD2     N  221   0.507   3.814  11.634 -0.7196 -0.3955  0.4833
   14MPD2    H5  222   0.605   3.790  11.629 -0.6692  0.7030 -3.3157
   14MPD2    N1  223   0.513   3.613  11.190  0.1694 -0.2774  0.3832
   14MPD2    H7  224   0.477   3.614  11.095 -0.1923  0.1321  0.5228
   15TCq1    O1  225   2.972   3.582   2.455  0.0275  0.0101 -0.0517
   15TCq1    C1  226   2.902   3.695   2.474 -0.4006  0.1602  0.5711
   15TCq1    O2  227   2.912   3.780   2.563  0.3602 -0.7358  0.5466
   15TCq1    C2  228   2.777   3.689   2.385  0.1758 -0.1534 -0.7051
   15TCq1    C3  229   2.667   3.746   2.444  0.1963  0.1906 -0.0334
   15TCq1    C4  230   2.546   3.718   2.383  0.2360  0.2594  0.4874
   15TCq1    C5  231   2.538   3.644   2.270 -0.3504 -0.0072 -0.1116
   15TCq1    C6  232   2.648   3.586   2.217  0.6364 -0.4283 -0.1707
   15TCq1    C7  233   2.772   3.606   2.278  1.5138 -0.4510 -0.2895
   15TCq1    C8  234   2.643   3.535   2.078  0.4540  0.4435 -0.6387
   15TCq1    O4  235   2.752   3.512   2.025 -0.3442 -0.0901 -0.7334
   15TCq1    C9  236   2.426   3.778   2.437 -0.8149  0.0258 -0.5100
   15TCq1    O5  237   2.314   3.722   2.430 -0.6417 -0.0405 -0.3310
   15TCq1    O6  238   2.453   3.875   2.515  0.0007  0.1536  0.6976
   15TCq1    H1  239   2.937   3.520   2.387  1.3909 -0.0435 -0.7022
   15TCq1    H2  240   2.671   3.801   2.538  1.4610  0.3369 -0.1692
   15TCq1    H3  241   2.436   3.637   2.231 -0.7620  4.5680  0.1079
   15TCq1    H4  242   2.864   3.568   2.233  1.7217  1.3290 -1.3653
   16MPD2     C  243   2.347   3.455   1.860 -0.1806  0.2496  0.1159
   16MPD2    C1  244   2.480   3.457   1.902 -0.2689  0.7562 -0.2299
   16MPD2    C2  245   2.561   3.389   1.814 -0.3614 -0.8824 -0.2215
   16MPD2    C3  246   2.520   3.329   1.691 -0.5547  0.4037  0.1883
   16MPD2    C4  247   2.390   3.335   1.651  0.1011  0.1175  0.4349
   16MPD2    C5  248   2.305   3.392   1.740  0.8017  0.0134  0.7157
   16MPD2     H  249   2.662   3.365   1.846 -1.3217  0.6786  3.8510
   16MPD2    H1  250   2.352   3.301   1.555 -0.6103 -1.6548  1.3329
   16MPD2    H2  251   2.275   3.507   1.922  0.0621  0.1984  0.4412
   16MPD2    H3  252   2.199   3.398   1.718  1.4107  2.6557 -1.5265
   16MPD2     N  253   2.616   3.261   1.607  0.2981  0.1906  0.1726
   16MPD2    H5  254   2.715   3.273   1.627  0.8217 -1.5515 -1.3689
   16MPD2    N1  255   2.517   3.511   2.032 -0.1650  0.1765 -0.2702
   16MPD2    H7  256   2.441   3.550   2.087  0.5002 -0.0885  0.8298
   17TCq1    O1  257   0.590   3.471  11.590 -0.4226  0.0898  0.1648
   17TCq1    C1  258   0.660   3.394  11.677  0.8123  0.6930  0.1393
   17TCq1    O2  259   0.634   3.366  11.796 -0.6379 -0.2705  0.3103
   17TCq1    C2  260   0.795   3.352  11.614 -0.2054 -0.2463 -0.5931
   17TCq1    C3  261   0.894   3.308  11.693  0.5170  0.0474 -0.0902
   17TCq1    C4  262   0.999   3.239  11.637  0.1644  0.1278  0.2271
   17TCq1    C5  263   1.003   3.215  11.501  0.3069  0.3812  0.3216
   17TCq1    C6  264   0.893   3.231  11.431  0.0809 -0.2252  0.3468
   17TCq1    C7  265   0.790   3.301  11.484  0.0965 -0.5037  0.0794
   17TCq1    C8  266   0.870   3.172  11.304 -0.1010  0.0424 -0.7724
   17TCq1    O4  267   0.754   3.176  11.267 -0.2024 -0.1298 -0.4388
   17TCq1    C9  268   1.116   3.200  11.704  0.1950 -1.0121 -0.4150
   17TCq1    O5  269   1.093   3.185  11.830  0.0877 -0.1411 -0.0742
   17TCq1    O6  270   1.231   3.222  11.645  0.6950 -0.2091 -0.3888
   17TCq1    H1  271   0.648   3.502  11.517 -0.3631  0.4978  0.3827
   17TCq1    H2  272   0.898   3.355  11.791 -2.2689 -1.4407  0.7420
   17TCq1    H3  273   1.086   3.159  11.461 -0.2792 -2.0977  2.5460
   17TCq1    H4  274   0.697   3.314  11.429 -0.4184  3.2922  1.8136
   18MPD2     C  275   0.904   3.077  11.015 -0.0938 -0.1677 -0.1648
   18MPD2    C1  276   1.011   3.112  11.100  0.2212  0.4018  0.7685
   18MPD2    C2  277   1.140   3.124  11.049  0.4290  0.2626  0.2744
   18MPD2    C3  278   1.166   3.110  10.914 -0.6874 -0.2081  0.3416
   18MPD2    C4  279   1.060   3.084  10.831  0.5102  0.5629  0.2684
   18MPD2    C5  280   0.925   3.069  10.876 -0.4108 -0.3414  0.4318
   18MPD2     H  281   1.222   3.143  11.117 -0.2720 -0.0600  1.2110
   18MPD2    H1  282   1.074   3.063  10.725  1.3498 -1.8805  0.8658
   18MPD2    H2  283   0.802   3.062  11.047 -0.7751  2.7111 -0.9580
   18MPD2    H3  284   0.850   3.022  10.813 -0.9089  0.6710  0.2765
   18MPD2     N  285   1.294   3.130  10.852 -0.8619 -0.0156  0.8005
   18MPD2    H5  286   1.295   3.112  10.752  0.0060 -0.3540  0.8727
   18MPD2    N1  287   0.990   3.139  11.236 -0.0239 -0.7354  0.4478
   18MPD2    H7  288   1.079   3.155  11.281 -0.1617 -1.5211  0.9996
   19TMC2    C1  289   2.401   3.322  13.507  0.0157 -0.2714 -0.4159
   19TMC2    C2  290   2.450   3.327  13.377  0.6998 -0.7389  0.2335
   19TMC2    C3  291   2.380   3.250  13.286  0.1922  0.3835 -0.1800
   19TMC2    C4  292   2.303   3.232  13.543  0.8780 -0.5127  0.1411
   19TMC2    C5  293   2.241   3.151  13.450  0.0092  0.3161 -0.6032
   19TMC2    C6  294   2.283   3.158  13.317 -0.6504  0.2149  0.3337
   19TMC2     C  295   2.454   3.426  13.599 -0.2254  0.7771 -0.1126
   19TMC2     O  296   2.493   3.523  13.533  0.2118  0.6010  0.1841
   19TMC2     H  297   2.539   3.386  13.359  0.2172 -0.3814 -0.9782
   19TMC2    H1  298   2.258   3.230  13.641  0.4991 -1.2359 -0.0466
   19TMC2    H2  299   2.233   3.101  13.240  0.5051  0.9060 -0.9282
   19TMC2    C7  300   2.108   3.104  13.482 -0.2679  0.2237 -0.0033
   19TMC2    C8  301   2.430   3.251  13.154  0.4310 -0.1877 -0.6249
   19TMC2    O1  302   2.044   3.167  13.561 -0.3672  0.2499 -0.0623
   19TMC2    O2  303   2.429   3.153  13.082  0.5107  0.0246  0.1009
   19TMC2    O5  304   2.480   3.374  13.130  0.1913 -0.4418  0.1245
   19TMC2    H5  305   2.438   3.428  13.199  1.2558 -1.6719  1.7222
   20MPD2     C  306   2.573   3.582  13.812  0.6222 -0.0471 -0.0873
   20MPD2    C1  307   2.526   3.456  13.829  0.2066 -0.6413 -0.7291
   20MPD2    C2  308   2.536   3.399  13.955  0.1429 -0.0520  0.1565
   20MPD2    C3  309   2.605   3.468  14.058 -0.5145  0.5983 -0.2290
   20MPD2    C4  310   2.659   3.598  14.040 -0.7645  0.2288  0.5710
   20MPD2    C5  311   2.643   3.649  13.912  0.5351 -1.2670 -0.0804
   20MPD2     H  312   2.507   3.295  13.961 -1.8737  0.5643  0.8688
   20MPD2    H1  313   2.716   3.660  14.108  1.3128  1.8649 -2.6959
   20MPD2    H2  314   2.578   3.623  13.711 -3.4250  0.4203 -0.0720
   20MPD2    H3  315   2.693   3.744  13.897  0.8937 -1.3263  0.7148
   20MPD2     N  316   2.621   3.413  14.187  0.6831  0.5137 -0.0561
   20MPD2    H5  317   2.634   3.482  14.260 -0.5831  0.6223  0.0583
   20MPD2    N1  318   2.449   3.391  13.735  0.1887 -0.2014 -0.2594
   20MPD2    H7  319   2.422   3.296  13.757  1.8384 -1.4439 -3.5912
   21MPD2     C  320   0.533   3.475  14.821  0.6722 -0.9477 -0.5113
   21MPD2    C1  321   0.498   3.348  14.784 -0.3774 -0.5648  0.0591
   21MPD2    C2  322   0.396   3.325  14.687  0.2069 -0.3267  0.0608
   21MPD2    C3  323   0.356   3.428  14.613  0.2761  0.5443 -0.0120
   21MPD2    C4  324   0.384   3.559  14.650 -0.2877 -0.0946 -0.0921
   21MPD2    C5  325   0.476   3.579  14.749 -0.5405  0.0261  0.0329
   21MPD2     H  326   0.380   3.224  14.651  0.0638 -0.8734  1.6432
   21MPD2    H1  327   0.333   3.643  14.604 -1.9813  0.4976  2.8134
   21MPD2    H2  328   0.610   3.497  14.894 -0.4578  0.0310  0.4099
   21MPD2    H3  329   0.490   3.683  14.775  2.4234 -0.5324  0.5844
   21MPD2     N  330   0.260   3.417  14.506 -0.4454 -0.0344 -0.0320
   21MPD2    H5  331   0.210   3.501  14.481  2.3337  1.0258 -2.0062
   21MPD2    N1  332   0.542   3.236  14.858  0.3496 -0.5489 -0.1127
   21MPD2    H7  333   0.525   3.142  14.826 -0.4231  0.0133 -1.3417
   22TCq2    C1  334   0.211   3.305  14.449 -0.6092  0.6163 -0.6676
   22TCq2    O2  335   0.257   3.189  14.438  0.1465  0.4723  0.0085
   22TCq2    C2  336   0.083   3.336  14.396 -0.4936  0.0833 -0.0402
   22TCq2    C3  337   0.081   3.359  14.265  0.5697  0.5361 -0.4265
   22TCq2    C4  338   4.698   3.429  14.213  0.3373 -0.6756 -1.2086
   22TCq2    C5  339   4.602   3.477  14.297 -0.7116 -0.5567  0.2368
   22TCq2    C6  340   4.614   3.447  14.431  0.8018  0.6940 -0.3966
   22TCq2    C7  341   4.719   3.382  14.477 -0.1246 -0.2342  0.5262
   22TCq2    C8  342   4.508   3.469  14.529 -0.2800 -0.5535 -0.0500
   22TCq2    O4  343   4.526   3.430  14.644 -0.7100 -0.2246  0.0524
   22TCq2    C9  344   4.686   3.437  14.069  0.7665 -0.7663  0.2272
   22TCq2    O5  345   4.609   3.520  14.018 -0.2226  0.2387 -0.3364
   22TCq2    O6  346   0.033   3.362  14.001  0.5047  0.1324  0.3968
   22TCq2    H2  347   0.163   3.316  14.208  1.6155  0.4908  1.1213
   22TCq2    H3  348   4.512   3.516  14.250  0.2408 -0.4098 -1.4887
   22TCq2    H4  349   0.002   3.363  14.584  1.6727  0.6252  0.5369
   23MPD2     C  350   1.928   0.271  15.074  0.5183 -0.0007  0.1634
   23MPD2    C1  351   1.830   0.213  15.160  0.3291 -0.4820 -0.0180
   23MPD2    C2  352   1.694   0.216  15.129 -0.0807 -0.0034 -0.1481
   23MPD2    C3  353   1.654   0.267  15.011  0.3260 -0.1263  1.1337
   23MPD2    C4  354   1.743   0.336  14.935  0.0936 -0.6398 -0.2117
   23MPD2    C5  355   1.880   0.330  14.965  0.4358 -0.0652 -0.4000
   23MPD2     H  356   1.614   0.177  15.192  2.3555 -0.8224  2.4327
   23MPD2    H1  357   1.719   0.380  14.838 -0.8246  2.1083  1.2418
   23MPD2    H2  358   2.035   0.261  15.082  0.4951  0.4361  1.0459
   23MPD2    H3  359   1.948   0.379  14.896 -0.4917  1.7283 -0.0541
   23MPD2     N  360   1.516   0.265  14.970 -0.4650 -0.0205 -0.3461
   23MPD2    H5  361   1.484   0.293  14.878 -2.1491  0.5066  0.3846
   23MPD2    N1  362   1.872   0.146  15.281 -0.3876  0.0236  0.0305
   23MPD2    H7  363   1.805   0.079  15.319  0.0968 -1.4121 -1.6792
   24TCq2    C1  364   1.415   0.202  15.033 -0.4409  0.4440 -0.6856
   24TCq2    O2  365   1.399   0.158  15.147  0.2009  0.7444 -0.3927
   24TCq2    C2  366   1.308   0.183  14.940 -0.4420 -0.5622  0.4948
   24TCq2    C3  367   1.320   0.241  14.814  0.2932  0.4033 -0.1290
   24TCq2    C4  368   1.239   0.187  14.717 -0.0266  0.2145 -0.0145
   24TCq2    C5  369   1.149   0.078  14.735 -0.0491  0.4048 -0.0212
   24TCq2    C6  370   1.147   0.020  14.858  0.0616  0.4226  0.1872
   24TCq2    C7  371   1.223   0.078  14.963  0.3463 -0.6825  0.4772
   24TCq2    C8  372   1.056   4.639  14.902 -0.0782 -0.6532  0.5311
   24TCq2    O4  373   1.048   4.622  15.026  0.4381 -0.5346  0.6244
   24TCq2    C9  374   1.221   0.256  14.596  0.0836  0.4350  0.8893
   24TCq2    O5  375   1.278   0.366  14.582  0.3026  0.5012 -0.0826
   24TCq2    O6  376   1.121   0.218  14.526  0.3811 -0.1683  0.8908
   24TCq2    H2  377   1.361   0.338  14.791 -2.2021  1.2156 -1.1455
   24TCq2    H3  378   1.081   0.042  14.659 -1.1781 -1.2516  1.7652
   24TCq2    H4  379   1.231   0.023  15.056  2.3377 -2.7619 -0.9046
   25TMC2    C1  380   0.951   2.391  11.114 -0.4560 -0.2333  0.1288
   25TMC2    C2  381   1.082   2.435  11.106 -0.1740  0.7009  0.3470
   25TMC2    C3  382   1.151   2.445  11.222  0.0582  0.2864 -1.2406
   25TMC2    C4  383   0.890   2.375  11.235  0.2352 -0.6241  0.1647
   25TMC2    C5  384   0.959   2.401  11.350 -0.4506 -0.7991 -0.6229
   25TMC2    C6  385   1.089   2.430  11.350 -0.2703  1.1567 -0.4258
   25TMC2     C  386   0.889   2.369  10.987  0.5324 -0.0539 -0.0059
   25TMC2     O  387   0.936   2.420  10.887 -0.4773 -0.0530  0.1599
   25TMC2     H  388   1.131   2.425  11.010  0.3544  3.2868  0.3554
   25TMC2    H1  389   0.784   2.351  11.240  0.0907  0.1986  1.0382
   25TMC2    H2  390   1.141   2.454  11.443 -1.3057  0.9487  0.2021
   25TMC2    C7  391   0.896   2.365  11.483 -0.3310 -0.0076 -0.0666
   25TMC2    C8  392   1.289   2.488  11.222 -0.3589  0.1232 -0.4602
   25TMC2    O1  393   0.932   2.430  11.582 -0.4176 -0.4948  0.1566
   25TMC2    O2  394   1.324   2.594  11.272 -0.3434  0.1678  0.3445
   25TMC2    O5  395   1.330   2.436  11.105  0.1169  0.5666  0.2461
   25TMC2    H5  396   1.296   2.345  11.098  1.1979  0.1986 -0.1422
   26MPD2     C  397   0.536   2.173  10.678  0.0097 -0.1077  0.1029
   26MPD2    C1  398   0.514   2.115  10.805  0.1430  0.6059  0.6557
   26MPD2    C2  399   0.603   2.156  10.903 -0.0490  0.1368  0.2073
   26MPD2    C3  400   0.701   2.248  10.879 -0.7738  0.2486  0.4966
   26MPD2    C4  401   0.729   2.296  10.752  0.2513  0.0305  0.6733
   26MPD2    C5  402   0.643   2.259  10.655  0.5549 -0.0196  0.8550
   26MPD2     H  403   0.576   2.125  11.004  0.7044  1.7694  0.9194
   26MPD2    H1  404   0.797   2.375  10.724 -0.1132 -0.2112 -0.9293
   26MPD2    H2  405   0.464   2.144  10.602 -0.6038 -2.4732  1.5895
   26MPD2    H3  406   0.659   2.292  10.553 -1.8253 -0.4371  0.3606
   26MPD2     N  407   0.780   2.290  10.992 -0.3171  0.0658 -0.1791
   26MPD2    H5  408   0.773   2.236  11.078 -0.5253 -0.3599 -0.4625
   26MPD2    N1  409   0.406   2.027  10.821 -0.4489  0.3629 -0.4338
   26MPD2    H7  410   0.336   2.019  10.748  1.1457  1.3564 -2.0502
   27TMC2    C1  411   3.903   4.648  11.863  0.7940  0.7100 -0.0135
   27TMC2    C2  412   3.993   0.022  11.904 -0.3802  0.6923 -0.0520
   27TMC2    C3  413   3.939   0.146  11.903 -0.3130 -0.8380 -0.3288
   27TMC2    C4  414   3.775   4.665  11.827 -0.0204 -0.4064  0.6147
   27TMC2    C5  415   3.730   0.067  11.835  0.6368  0.2770  0.2354
   27TMC2    C6  416   3.808   0.176  11.865 -0.0062  0.0131 -0.3325
   27TMC2     C  417   3.911   4.540  11.957 -0.4327  0.2062 -0.2704
   27TMC2     O  418   4.024   4.508  11.999 -0.1337 -0.1434  0.3938
   27TMC2     H  419   4.096   4.720  11.925 -1.0486 -3.0493 -1.6717
   27TMC2    H1  420   3.709   4.585  11.793  0.4402 -0.7376  0.5085
   27TMC2    H2  421   3.772   0.277  11.851  0.7574  0.7890  3.2617
   27TMC2    C7  422   3.603   0.063  11.898  0.5183  0.3294 -0.2920
   27TMC2    C8  423   4.021   0.246  11.847 -0.8533 -0.5738 -0.4126
   27TMC2    O1  424   3.564   4.678  11.945  0.0381  0.5998  0.1580
   27TMC2    O2  425   3.984   0.319  11.755 -0.0434  0.0217 -0.1899
   27TMC2    O5  426   4.142   0.249  11.909  0.0705 -0.2155 -0.5579
   27TMC2    H5  427   4.127   0.184  11.980  0.0268 -0.4530 -0.7826
   28MPD2     C  428   3.688   4.229  12.304 -0.8101 -0.9851 -0.4001
   28MPD2    C1  429   3.599   4.325  12.261 -0.3481  0.5773 -0.4627
   28MPD2    C2  430   3.630   4.408  12.157  0.7842  0.0735 -0.3472
   28MPD2    C3  431   3.757   4.407  12.101  0.3634  0.3445  0.1595
   28MPD2    C4  432   3.847   4.315  12.151  0.4525 -0.5111  0.7583
   28MPD2    C5  433   3.815   4.230  12.252  0.3851 -0.6163 -0.8840
   28MPD2     H  434   3.557   4.480  12.122 -0.0380 -0.7068 -0.2529
   28MPD2    H1  435   3.949   4.309  12.117 -0.7022 -2.3550 -2.3740
   28MPD2    H2  436   3.665   4.165  12.388  1.1244 -1.7244 -0.4421
   28MPD2    H3  437   3.895   4.166  12.287  1.5500  0.7228 -1.0603
   28MPD2     N  438   3.787   4.506  12.001 -0.0239 -0.1862  0.2929
   28MPD2    H5  439   3.711   4.566  11.970  1.9964  0.8560 -2.6368
   28MPD2    N1  440   3.471   4.325  12.327 -0.6161 -1.3947  0.7346
   28MPD2    H7  441   3.444   4.241  12.377 -1.7504 -1.9282 -0.7587
   29MPD2     C  442   3.348   1.392  14.043 -0.4387  0.1852 -0.3342
   29MPD2    C1  443   3.396   1.461  14.146 -0.3418  0.0199  0.2851
   29MPD2    C2  444   3.430   1.593  14.138 -0.3937 -0.3597 -0.2679
   29MPD2    C3  445   3.406   1.661  14.015 -0.0955 -0.5492  0.4012
   29MPD2    C4  446   3.350   1.589  13.909  0.0550 -0.4764  0.6441
   29MPD2    C5  447   3.320   1.457  13.923  0.1207  0.2382 -0.3236
   29MPD2     H  448   3.454   1.648  14.228  1.3503 -2.4977  0.5560
   29MPD2    H1  449   3.332   1.641  13.815  2.1965 -1.7391 -0.4524
   29MPD2    H2  450   3.318   1.288  14.044  1.0470 -0.2213  1.3010
   29MPD2    H3  451   3.276   1.398  13.844  0.4505  0.0128 -0.3359
   29MPD2     N  452   3.435   1.796  13.980  0.5942  0.4978 -1.0432
   29MPD2    H5  453   3.404   1.831  13.889  1.8948  1.8594 -0.9595
   29MPD2    N1  454   3.410   1.403  14.270 -0.0827 -0.1455  0.1155
   29MPD2    H7  455   3.451   1.465  14.340  2.8973  0.4117 -2.0923
   30TCq2    C1  456   3.498   1.881  14.057 -0.6059 -0.6538  0.3305
   30TCq2    O2  457   3.548   1.855  14.164 -0.2074 -0.2035 -0.7479
   30TCq2    C2  458   3.507   2.007  13.995  0.5424 -0.4150  0.2758
   30TCq2    C3  459   3.404   2.053  13.919  0.0757  0.0985  0.2641
   30TCq2    C4  460   3.403   2.191  13.898 -0.6338 -0.0725 -0.2645
   30TCq2    C5  461   3.494   2.272  13.952 -0.1863 -0.4901  0.4347
   30TCq2    C6  462   3.601   2.218  14.018  0.1985 -0.1054 -0.1920
   30TCq2    C7  463   3.608   2.085  14.044  0.5361 -0.5677  0.7926
   30TCq2    C8  464   3.711   2.308  14.047  0.1621 -0.3098 -0.2270
   30TCq2    O4  465   3.778   2.295  14.147 -0.5001 -0.0535  0.1580
   30TCq2    C9  466   3.309   2.249  13.810 -0.0610 -0.2607  0.0293
   30TCq2    O5  467   3.226   2.166  13.765 -0.0975  0.1809 -0.1429
   30TCq2    O6  468   3.332   2.364  13.769  0.5260  0.4660 -0.0226
   30TCq2    H2  469   3.339   1.988  13.862  1.3456  1.4332 -2.6892
   30TCq2    H3  470   3.487   2.379  13.937 -1.8635 -0.7621 -0.7658
   30TCq2    H4  471   3.689   2.043  14.102 -0.8295 -2.4780  1.2896
   31MPD2     C  472   1.820   0.918  14.801  0.2703 -0.6657 -0.4291
   31MPD2    C1  473   1.692   0.912  14.750 -0.0622 -0.9999 -0.1308
   31MPD2    C2  474   1.607   0.814  14.802 -0.2194 -0.2291 -0.0225
   31MPD2    C3  475   1.649   0.734  14.909 -0.4106 -0.2676  0.6269
   31MPD2    C4  476   1.780   0.733  14.950 -0.1566 -0.7171  0.4774
   31MPD2    C5  477   1.862   0.834  14.901 -0.0974 -0.6844 -0.1376
   31MPD2     H  478   1.511   0.796  14.753 -2.4061  2.5995  3.2158
   31MPD2    H1  479   1.824   0.681  15.034 -2.8642 -0.8032  1.8334
   31MPD2    H2  480   1.896   0.988  14.768  2.0340 -1.7888  1.1706
   31MPD2    H3  481   1.964   0.831  14.937  0.2216 -5.2800 -1.3702
   31MPD2     N  482   1.559   0.657  14.986  0.4370 -0.2666 -0.1338
   31MPD2    H5  483   1.588   0.619  15.075  2.3928  0.4336 -0.4701
   31MPD2    N1  484   1.644   1.021  14.674 -0.0023  0.2923  0.6325
   31MPD2    H7  485   1.703   1.103  14.665 -0.5444  0.4254 -1.6943
   32TCq2    C1  486   1.430   0.629  14.944 -0.3194  0.1722 -0.7328
   32TCq2    O2  487   1.398   0.626  14.827  0.0975 -0.6839  0.0506
   32TCq2    C2  488   1.352   0.556  15.040 -0.0252  0.3256  0.7677
   32TCq2    C3  489   1.228   0.504  15.009 -0.2659  0.0715  0.5204
   32TCq2    C4  490   1.146   0.454  15.108 -0.3576 -0.5415  0.5168
   32TCq2    C5  491   1.185   0.460  15.244  0.1085  0.1785 -0.7812
   32TCq2    C6  492   1.313   0.513  15.265 -0.2540  0.1252  0.1097
   32TCq2    C7  493   1.393   0.567  15.175  0.2873 -0.2396 -0.1343
   32TCq2    C8  494   1.360   0.522  15.409 -0.3551  0.5331  0.1830
   32TCq2    O4  495   1.479   0.515  15.418  0.1207  0.2046  0.4999
   32TCq2    C9  496   1.015   0.397  15.075 -0.0062  0.1147 -0.2080
   32TCq2    O5  497   0.947   0.365  15.176 -0.8975 -0.2840 -0.5205
   32TCq2    O6  498   0.972   0.402  14.957  0.7348  0.7890  0.2205
   32TCq2    H2  499   1.189   0.501  14.908  0.3265 -0.2475  0.2960
   32TCq2    H3  500   1.125   0.418  15.324 -1.4996  1.9547 -1.0572
   32TCq2    H4  501   1.481   0.620  15.210  0.8537 -0.0100 -1.9382
   33MPD2     C  502   1.809   3.154  10.168 -0.9665  0.4561 -0.0995
   33MPD2    C1  503   1.696   3.190  10.237  0.0103  0.4314  0.5547
   33MPD2    C2  504   1.582   3.221  10.160  0.1133  0.2836  0.3354
   33MPD2    C3  505   1.574   3.207  10.023 -0.0095  0.2847  0.1019
   33MPD2    C4  506   1.687   3.169   9.958 -0.7092  0.4156  0.1731
   33MPD2    C5  507   1.804   3.148  10.029 -0.0278  0.4200 -0.0066
   33MPD2     H  508   1.499   3.274  10.206  0.5024  0.2797  1.0448
   33MPD2    H1  509   1.692   3.167   9.850  2.0393 -0.8801  0.3252
   33MPD2    H2  510   1.897   3.132  10.227 -1.2989  0.7025  0.4884
   33MPD2    H3  511   1.889   3.116   9.970 -0.6214 -1.3074  0.0814
   33MPD2     N  512   1.467   3.245   9.936  0.2317 -0.0806 -0.2019
   33MPD2    H5  513   1.485   3.261   9.837 -0.3897  2.2288  0.0707
   33MPD2    N1  514   1.696   3.181  10.378  0.0256  0.4616 -0.6608
   33MPD2    H7  515   1.778   3.148  10.427 -0.0361  0.5843 -0.4736
   34TCq2    C1  516   1.336   3.277   9.977  0.5794 -0.2562 -0.3022
   34TCq2    O2  517   1.284   3.268  10.089 -0.6743  0.0679 -0.3183
   34TCq2    C2  518   1.264   3.338   9.869 -0.2923  0.1397 -0.2315
   34TCq2    C3  519   1.129   3.353   9.891  0.5303 -0.4346  0.3785
   34TCq2    C4  520   1.058   3.444   9.821  0.2074  0.0990  0.4844
   34TCq2    C5  521   1.115   3.532   9.738  0.0395  0.1784  0.5709
   34TCq2    C6  522   1.248   3.514   9.716  0.4165 -0.4434  1.1069
   34TCq2    C7  523   1.323   3.419   9.773 -0.7337 -0.0436  0.2907
   34TCq2    C8  524   1.318   3.630   9.662 -0.9461  0.4377 -0.7033
   34TCq2    O4  525   1.442   3.641   9.675 -0.3413 -0.2015  0.1302
   34TCq2    C9  526   0.924   3.474   9.863  0.1388 -0.6753 -0.3335
   34TCq2    O5  527   0.863   3.402   9.947  0.6321  0.3874  0.8017
   34TCq2    O6  528   0.891   3.590   9.842  0.2263 -0.0683  0.4662
   34TCq2    H2  529   1.081   3.296   9.970  1.1258 -3.3541 -1.3594
   34TCq2    H3  530   1.047   3.602   9.690 -0.1547 -0.5418 -0.2090
   34TCq2    H4  531   1.430   3.426   9.754 -0.5629 -0.8005  0.9699
   35MPD2     C  532   3.256   0.188  11.397  0.4575  0.9650 -0.1058
   35MPD2    C1  533   3.198   0.076  11.447  0.0629  0.0059 -0.1567
   35MPD2    C2  534   3.076   0.042  11.394  0.0068  0.3211 -0.0356
   35MPD2    C3  535   3.019   0.112  11.292  0.1975  0.0506  0.6652
   35MPD2    C4  536   3.085   0.225  11.242 -0.7863 -0.3097 -0.3083
   35MPD2    C5  537   3.211   0.260  11.291  0.0594  0.2703 -0.2490
   35MPD2     H  538   3.018   4.679  11.421 -0.0358  0.9723  1.9929
   35MPD2    H1  539   3.048   0.277  11.154  1.9002 -0.3226 -1.4466
   35MPD2    H2  540   3.358   0.203  11.432  0.4774 -0.2127  0.3065
   35MPD2    H3  541   3.269   0.342  11.251  2.4425 -1.0995  0.3879
   35MPD2     N  542   2.900   0.066  11.237 -0.2874  0.1840  0.3801
   35MPD2    H5  543   2.856   4.712  11.281 -1.9091 -0.1869 -1.9178
   35MPD2    N1  544   3.268   0.010  11.550 -0.0804 -0.2538 -0.0828
   35MPD2    H7  545   3.346   0.059  11.592 -1.8636  1.6388  0.9911
   36TCq2    C1  546   2.834   0.117  11.120  0.8281 -0.0479  0.0634
   36TCq2    O2  547   2.863   0.203  11.040 -0.3706 -0.1735 -0.1866
   36TCq2    C2  548   2.713   0.045  11.078 -0.4939  0.3409  0.3313
   36TCq2    C3  549   2.661   0.059  10.952 -0.2159 -0.4564  0.3252
   36TCq2    C4  550   2.544   4.718  10.931 -0.3287 -0.0142 -0.5076
   36TCq2    C5  551   2.475   4.646  11.017 -0.9364  0.1895 -0.0785
   36TCq2    C6  552   2.526   4.644  11.143  0.4077 -0.0214  0.6377
   36TCq2    C7  553   2.640   4.698  11.175 -0.1142 -0.1206 -0.0960
   36TCq2    C8  554   2.447   4.571  11.244  0.7001  0.6624  0.2053
   36TCq2    O4  555   2.334   4.539  11.207 -0.1238  0.3029  0.0603
   36TCq2    C9  556   2.503   4.717  10.795 -0.6200 -0.0989 -0.5680
   36TCq2    O5  557   2.407   4.647  10.757  0.0771  0.0170 -0.3801
   36TCq2    O6  558   2.587   0.028  10.704 -0.0910  0.1790 -0.0243
   36TCq2    H2  559   2.708   0.119  10.874 -0.7515 -0.6912 -0.1719
   36TCq2    H3  560   2.385   4.596  10.983 -0.2975 -1.0780  0.0621
   36TCq2    H4  561   2.671   4.686  11.278  2.2987  0.2390 -0.7680
   37TMC2    C1  562   0.301   4.547  11.902 -0.8788 -0.4903 -0.2425
   37TMC2    C2  563   0.364   4.444  11.835 -0.0127  0.3284 -0.6592
   37TMC2    C3  564   0.502   4.430  11.857 -0.7032 -0.3909 -0.1171
   37TMC2    C4  565   0.368   4.638  11.973 -0.8143 -0.6699 -0.5390
   37TMC2    C5  566   0.506   4.620  11.986  0.1272 -0.1405 -0.3334
   37TMC2    C6  567   0.575   4.527  11.918  0.1308 -0.3684 -0.1727
   37TMC2     C  568   0.153   4.543  11.883 -0.9371  0.2852  0.2364
   37TMC2     O  569   0.114   4.457  11.805 -0.9351  0.1626 -0.5300
   37TMC2     H  570   0.309   4.382  11.765 -1.5385 -0.4609  1.2370
   37TMC2    H1  571   0.332   4.715  12.040  0.1462 -1.1516  0.5474
   37TMC2    H2  572   0.681   4.515  11.934  0.0440 -1.1752 -0.1974
   37TMC2    C7  573   0.586   0.002  12.040 -0.3613 -0.1515  0.3299
   37TMC2    C8  574   0.580   4.333  11.793  0.6140  0.6047 -0.3600
   37TMC2    O1  575   0.523   0.104  12.070 -0.4568  0.0803 -0.0367
   37TMC2    O2  576   0.700   4.332  11.782  0.1626  0.5407  0.0076
   37TMC2    O5  577   0.501   4.232  11.747  0.1479 -0.4870 -0.0206
   37TMC2    H5  578   0.408   4.234  11.777  0.2224  2.1245  0.0719
   38MPD2     C  579   4.417   0.011  11.961 -0.2589  0.3761  0.4420
   38MPD2    C1  580   4.500   0.053  12.063 -0.3059 -0.0904  0.0217
   38MPD2    C2  581   4.638   0.019  12.059  0.4796  0.6665 -0.1891
   38MPD2    C3  582   4.681   4.671  11.960 -0.4863  0.2564  0.6124
   38MPD2    C4  583   4.597   4.636  11.851 -0.3395 -0.1783 -0.7179
   38MPD2    C5  584   4.465   4.671  11.854  0.0786 -0.5811  0.3056
   38MPD2     H  585   4.709   0.049  12.135 -1.6882 -0.5906  2.3015
   38MPD2    H1  586   4.640   4.589  11.764  0.2918 -0.1703 -0.4148
   38MPD2    H2  587   4.316   0.046  11.946 -0.2187  0.4324  0.3041
   38MPD2    H3  588   4.389   4.651  11.780  0.3069  0.0168 -0.0895
   38MPD2     N  589   0.095   4.647  11.947  0.4350 -0.2823  0.3420
   38MPD2    H5  590   0.150   4.707  12.007  2.0934 -0.6764 -0.7911
   38MPD2    N1  591   4.455   0.127  12.178 -0.2344 -0.0418  0.5000
   38MPD2    H7  592   4.530   0.140  12.245  0.6283 -1.0395 -0.2956
   39MPD2     C  593   2.848   2.638   1.633 -0.0306  0.7530 -0.1869
   39MPD2    C1  594   2.723   2.690   1.633 -0.2147 -0.1779  1.0325
   39MPD2    C2  595   2.644   2.671   1.519  0.0043  0.0383  0.5251
   39MPD2    C3  596   2.673   2.586   1.420 -0.1736 -0.2237  0.0638
   39MPD2    C4  597   2.794   2.514   1.435 -0.7299 -0.6260  0.3943
   39MPD2    C5  598   2.880   2.540   1.536 -0.7157 -0.1466  0.4333
   39MPD2     H  599   2.546   2.717   1.517 -0.4600 -0.8683  2.1226
   39MPD2    H1  600   2.811   2.432   1.365  0.8913 -1.2119  1.4681
   39MPD2    H2  601   2.916   2.677   1.708  1.6708 -2.0088 -0.3058
   39MPD2    H3  602   2.980   2.498   1.524  0.0115  1.8578 -0.7017
   39MPD2     N  603   2.594   2.561   1.305  0.1415  0.1013  0.5110
   39MPD2    H5  604   2.627   2.498   1.233  1.1091  1.2098 -0.0304
   39MPD2    N1  605   2.675   2.771   1.739 -0.6823  0.1885 -0.1251
   39MPD2    H7  606   2.740   2.788   1.816 -1.7542  2.5440  0.2621
   40TCq2    C1  607   2.555   2.834   1.751  0.1134  0.5217  0.1717
   40TCq2    O2  608   2.456   2.816   1.683  0.0630 -0.1204  0.2661
   40TCq2    C2  609   2.543   2.929   1.865 -0.3547 -0.4059 -0.2881
   40TCq2    C3  610   2.417   2.944   1.911 -0.0905 -0.5948 -0.4711
   40TCq2    C4  611   2.405   3.044   2.010 -0.3793 -0.7196 -0.4519
   40TCq2    C5  612   2.505   3.121   2.053  0.1492 -0.0898 -0.6754
   40TCq2    C6  613   2.631   3.097   1.992 -0.3750 -0.9785  0.1708
   40TCq2    C7  614   2.653   2.997   1.902  0.2990 -0.0627  0.4174
   40TCq2    C8  615   2.753   3.139   2.067  0.2271  0.2663  0.0331
   40TCq2    O4  616   2.745   3.169   2.187 -0.0246 -0.1695  0.1118
   40TCq2    C9  617   2.272   3.066   2.077  0.3421 -0.3343 -0.1011
   40TCq2    O5  618   2.168   3.045   2.012 -0.0303 -0.1390  0.8174
   40TCq2    O6  619   2.280   3.103   2.197 -0.1248  0.8761  0.7066
   40TCq2    H2  620   2.332   2.887   1.878 -0.6877  0.0060  0.0204
   40TCq2    H3  621   2.493   3.199   2.127  2.3180 -0.3492 -0.0466
   40TCq2    H4  622   2.751   2.964   1.867  0.3840 -0.0204  0.6145
   41TMC2    C1  623   2.172   0.275  13.246  0.7232 -0.3139  0.1194
   41TMC2    C2  624   2.156   0.384  13.324 -0.7736 -0.0008 -0.0474
   41TMC2    C3  625   2.210   0.499  13.268  0.2801  0.1241  0.5011
   41TMC2    C4  626   2.237   0.279  13.125  0.6548 -0.2320  0.1133
   41TMC2    C5  627   2.306   0.392  13.082 -0.2376 -0.0938 -0.1403
   41TMC2    C6  628   2.285   0.503  13.156 -0.0821 -0.7527 -0.6855
   41TMC2     C  629   2.191   0.145  13.320 -0.6594  0.4604  0.0194
   41TMC2     O  630   2.250   0.055  13.268 -0.1833  0.6919  0.2911
   41TMC2     H  631   2.098   0.387  13.416  2.5152 -3.7138  2.1169
   41TMC2    H1  632   2.250   0.184  13.074  1.8479  0.6773 -1.2678
   41TMC2    H2  633   2.315   0.600  13.117  1.2191 -0.2726  1.5348
   41TMC2    C7  634   2.343   0.423  12.940  0.0159  0.5983  0.2295
   41TMC2    C8  635   2.176   0.619  13.330  0.7070 -0.0325 -0.2530
   41TMC2    O1  636   2.383   0.535  12.926 -0.1750 -0.1607  0.1041
   41TMC2    O2  637   2.065   0.633  13.376 -0.3307 -0.1797 -0.4160
   41TMC2    O5  638   2.284   0.673  13.381 -0.5695 -0.0321 -0.0439
   41TMC2    H5  639   2.358   0.622  13.342 -1.6128 -1.7902  0.2960
   42MPD2     C  640   2.241   4.672  13.530  0.3569  0.1907 -0.0803
   42MPD2    C1  641   2.155   0.054  13.548  0.0847 -0.0992  0.0982
   42MPD2    C2  642   2.093   0.059  13.671  0.6575  0.0998 -0.1399
   42MPD2    C3  643   2.122   4.692  13.770 -0.1448 -0.2045 -0.4949
   42MPD2    C4  644   2.210   4.589  13.745  0.1379 -0.3236 -0.0164
   42MPD2    C5  645   2.268   4.576  13.624 -0.5008 -0.2360  0.2935
   42MPD2     H  646   2.025   0.141  13.688 -1.6416 -2.1017  1.3357
   42MPD2    H1  647   2.218   4.503  13.811  0.3396  1.4640  2.2589
   42MPD2    H2  648   2.300   4.660  13.439  1.5129 -0.0325  0.6987
   42MPD2    H3  649   2.328   4.491  13.592  1.0794  0.5088  1.2422
   42MPD2     N  650   2.060   4.696  13.898  1.1865  0.2958 -0.6990
   42MPD2    H5  651   2.090   4.632  13.971 -0.6732 -0.9462 -1.0264
   42MPD2    N1  652   2.140   0.146  13.443  0.4828  0.0301  0.1928
   42MPD2    H7  653   2.071   0.220  13.455 -0.0830 -0.7945  2.0047
   43MPD2     C  654   3.070   3.242   0.502  0.2035  0.5228 -0.1109
   43MPD2    C1  655   3.196   3.242   0.560 -0.4609 -0.0202  0.3857
   43MPD2    C2  656   3.219   3.318   0.672 -0.6524  0.2458 -0.1307
   43MPD2    C3  657   3.114   3.371   0.743  0.2143  0.2448 -0.2116
   43MPD2    C4  658   2.990   3.359   0.693  0.0797 -0.2478  0.3001
   43MPD2    C5  659   2.965   3.299   0.567  0.6698 -0.7212  0.1512
   43MPD2     H  660   3.319   3.333   0.712 -0.6788 -0.2712  0.1274
   43MPD2    H1  661   2.908   3.401   0.749  0.5640  0.5294  0.4336
   43MPD2    H2  662   3.046   3.187   0.412 -2.7637  1.3078  0.2000
   43MPD2    H3  663   2.864   3.300   0.528 -0.2187  0.2513  2.4753
   43MPD2     N  664   3.132   3.444   0.868  0.0064 -0.2749 -0.0794
   43MPD2    H5  665   3.047   3.474   0.914  0.2557  1.7195 -0.9403
   43MPD2    N1  666   3.298   3.155   0.526 -0.9655 -0.4202 -0.2421
   43MPD2    H7  667   3.377   3.158   0.589 -1.2926  0.7383  0.1076
   44TCq2    C1  668   3.413   3.565   1.357 -0.8093 -0.2307  0.0458
   44TCq2    O2  669   3.524   3.540   1.309 -0.4610 -0.2429  0.0970
   44TCq2    C2  670   3.308   3.589   1.261  0.1963 -0.4376  0.4869
   44TCq2    C3  671   3.203   3.673   1.283 -0.3386  0.0920  0.0278
   44TCq2    C4  672   3.114   3.694   1.183  0.7543 -0.1758  0.3583
   44TCq2    C5  673   3.118   3.624   1.069  0.0197  0.1341 -0.7301
   44TCq2    C6  674   3.240   3.569   1.045 -0.6389  0.5859 -0.9100
   44TCq2    C7  675   3.339   3.543   1.132 -0.6024  0.0201  0.9256
   44TCq2    C8  676   3.253   3.495   0.922  0.4932 -0.4121 -0.0987
   44TCq2    O4  677   3.366   3.499   0.873  0.2085 -0.1527 -0.2110
   44TCq2    C9  678   3.020   3.808   1.194 -0.4055 -1.0107 -0.2017
   44TCq2    O5  679   2.974   3.847   1.082  0.1524 -0.7274  0.2086
   44TCq2    O6  680   2.993   3.862   1.304 -0.2701  0.7996 -0.2168
   44TCq2    H2  681   3.196   3.730   1.375  0.9915 -0.6854  0.6036
   44TCq2    H3  682   3.035   3.632   0.999 -0.1114  0.5601 -0.5242
   44TCq2    H4  683   3.414   3.468   1.111 -0.9734 -0.1831  0.3216
   45TMC2    C1  684   4.539   0.690   9.322 -0.2811 -0.0455 -0.0721
   45TMC2    C2  685   4.453   0.691   9.217  0.1985 -0.4578  0.5657
   45TMC2    C3  686   4.410   0.816   9.177 -0.3914  0.3871  0.3183
   45TMC2    C4  687   4.563   0.799   9.400  0.2728 -0.0693 -0.3688
   45TMC2    C5  688   4.522   0.921   9.351 -0.2757 -0.1537  0.7781
   45TMC2    C6  689   4.442   0.932   9.244  0.5245  0.2531  0.3058
   45TMC2     C  690   4.601   0.562   9.362 -0.3737 -0.2356  0.2546
   45TMC2     O  691   4.693   0.572   9.437 -0.3973 -0.0734 -0.4203
   45TMC2     H  692   4.435   0.611   9.145  1.0324 -0.9172  0.8665
   45TMC2    H1  693   4.615   0.793   9.495 -0.8417  1.6543  0.3752
   45TMC2    H2  694   4.402   1.025   9.207  0.7297 -0.3046 -1.3538
   45TMC2    C7  695   4.544   1.044   9.426  0.5325 -0.4028 -0.0405
   45TMC2    C8  696   4.366   0.838   9.038  0.2313 -0.8128 -0.8329
   45TMC2    O1  697   4.558   1.030   9.546 -0.4858  0.2401  0.6416
   45TMC2    O2  698   4.399   0.765   8.942  0.0616 -0.6200 -0.5277
   45TMC2    O5  699   4.258   0.918   9.041  0.0253  0.9987 -0.1302
   45TMC2    H5  700   4.215   0.932   9.128 -0.7416  0.3617 -0.4067
   46MPD2     C  701   4.670   0.288   9.424 -0.1875 -0.4118 -0.2951
   46MPD2    C1  702   4.568   0.315   9.336 -0.3202  0.1637  0.0137
   46MPD2    C2  703   4.505   0.207   9.273  0.2921 -0.4893 -0.0346
   46MPD2    C3  704   4.544   0.080   9.297 -0.0971  0.2621  0.2666
   46MPD2    C4  705   4.645   0.056   9.383  0.1741 -0.2971  0.0687
   46MPD2    C5  706   4.707   0.159   9.448  0.1418 -0.4141 -0.1605
   46MPD2     H  707   4.425   0.224   9.201 -0.0662  2.0733  0.9664
   46MPD2    H1  708   4.676   4.686   9.423 -1.5952  0.2780  2.8345
   46MPD2    H2  709   4.723   0.363   9.483 -0.2919  0.2311 -1.0220
   46MPD2    H3  710   0.055   0.134   9.524  0.7001 -2.6357 -1.4144
   46MPD2     N  711   4.483   4.703   9.217 -0.7399 -0.0925 -1.2958
   46MPD2    H5  712   4.410   4.721   9.149 -1.6116  0.6368 -0.1733
   46MPD2    N1  713   4.537   0.454   9.309 -0.2352 -0.8647  0.3969
   46MPD2    H7  714   4.461   0.471   9.243  0.3488 -0.5427 -0.1850
   47TMC2    C1  715   1.849   1.398   9.684  0.3833 -0.5478 -0.2283
   47TMC2    C2  716   1.780   1.463   9.774  0.4951  0.7879  0.6193
   47TMC2    C3  717   1.645   1.465   9.772  0.5091 -0.6428 -0.2514
   47TMC2    C4  718   1.789   1.313   9.598 -0.2469 -0.4098 -0.0773
   47TMC2    C5  719   1.649   1.303   9.602  0.2518 -0.1158 -0.3066
   47TMC2    C6  720   1.575   1.389   9.691  0.3036 -0.6474  0.1187
   47TMC2     C  721   1.982   1.372   9.720 -0.2459 -0.2122  0.6260
   47TMC2     O  722   2.043   1.459   9.781  0.4961  0.2456  0.4058
   47TMC2     H  723   1.834   1.525   9.845 -0.2771 -0.7791  2.5705
   47TMC2    H1  724   1.840   1.267   9.514  0.6199  0.1925  0.1158
   47TMC2    H2  725   1.469   1.373   9.708  0.3172 -1.2447 -0.3380
   47TMC2    C7  726   1.599   1.179   9.547 -0.5398 -0.1648 -0.7754
   47TMC2    C8  727   1.581   1.521   9.887 -0.2159 -0.4723  0.8352
   47TMC2    O1  728   1.674   1.081   9.553  0.5160  0.1345  0.2207
   47TMC2    O2  729   1.489   1.598   9.885 -0.3285 -0.4985  0.4519
   47TMC2    O5  730   1.608   1.428   9.988  0.3172  0.7481  0.0069
   47TMC2    H5  731   1.671   1.357   9.962  0.5464  0.6748  0.7585
   48MPD2     C  732   2.236   1.225   9.787  0.0346  0.3639  0.1528
   48MPD2    C1  733   2.131   1.161   9.724 -0.5939 -0.4684 -0.1491
   48MPD2    C2  734   2.140   1.033   9.683 -0.4606 -0.2869  0.0642
   48MPD2    C3  735   2.256   0.959   9.713  0.2710  0.1884  0.2729
   48MPD2    C4  736   2.356   1.023   9.779 -0.4446  0.3154  0.0285
   48MPD2    C5  737   2.349   1.154   9.813 -0.1952  1.3244 -0.0443
   48MPD2     H  738   2.065   0.987   9.620 -0.5348 -0.3730  0.2153
   48MPD2    H1  739   2.450   0.981   9.812 -0.7433 -1.7212 -1.6652
   48MPD2    H2  740   2.236   1.332   9.808  1.5965  0.5281 -0.6375
   48MPD2    H3  741   2.439   1.196   9.857  0.8632 -0.3362 -0.6617
   48MPD2     N  742   2.258   0.827   9.667  0.0359 -0.1991 -0.4204
   48MPD2    H5  743   2.178   0.788   9.618 -2.0862  0.5994  2.4173
   48MPD2    N1  744   2.011   1.238   9.693 -0.5336  0.2600 -0.4222
   48MPD2    H7  745   1.941   1.187   9.640  1.8744 -3.8366  0.4106
   49MPD2     C  746   0.898   2.993  10.215 -0.0744  0.1031  1.0839
   49MPD2    C1  747   0.822   2.894  10.270  0.2288  0.7168 -0.0131
   49MPD2    C2  748   0.881   2.818  10.369  0.0075  0.3377 -0.1395
   49MPD2    C3  749   1.012   2.844  10.415  0.3184  0.0405 -0.4237
   49MPD2    C4  750   1.089   2.925  10.338  0.1134 -0.3814 -0.7263
   49MPD2    C5  751   1.035   2.998  10.236  0.5979 -0.3000  0.1386
   49MPD2     H  752   0.816   2.743  10.412  0.0685  0.8346  0.8223
   49MPD2    H1  753   1.193   2.944  10.361 -0.2459  0.8835 -0.1591
   49MPD2    H2  754   0.855   3.059  10.141 -0.1977 -1.3967 -0.1792
   49MPD2    H3  755   1.096   3.077  10.196 -0.2171  0.7552  0.9717
   49MPD2     N  756   1.071   2.788  10.530 -0.2939 -0.5469  0.6685
   49MPD2    H5  757   1.163   2.820  10.559 -0.2557 -0.4453  0.4355
   49MPD2    N1  758   0.687   2.882  10.241 -0.0155 -0.8306  0.9992
   49MPD2    H7  759   0.637   2.804  10.283 -0.0235 -1.3765 -0.0277
   50TCq2    C1  760   0.616   2.948  10.139  0.1799 -0.2924  0.1190
   50TCq2    O2  761   0.658   3.037  10.065  0.2411 -0.4791 -0.8177
   50TCq2    C2  762   0.483   2.894  10.117 -0.8296  0.6342 -0.1827
   50TCq2    C3  763   0.426   2.917   9.992 -0.3645  0.0877 -0.0591
   50TCq2    C4  764   0.302   2.867   9.968  0.5497  0.2490  0.8305
   50TCq2    C5  765   0.238   2.793  10.063  0.1799  0.3897  0.2527
   50TCq2    C6  766   0.288   2.777  10.189 -0.5226  0.4014 -0.0335
   50TCq2    C7  767   0.416   2.827  10.218 -0.4355 -0.4192 -0.9383
   50TCq2    C8  768   0.236   2.673  10.277 -1.0580 -0.1250  0.7293
   50TCq2    O4  769   0.274   2.672  10.391  0.5382  0.3164  0.1289
   50TCq2    C9  770   0.243   2.877   9.837  0.4435  0.2787  0.1252
   50TCq2    O5  771   0.136   2.808   9.816  0.0981 -0.8007  0.3586
   50TCq2    O6  772   0.301   2.952   9.752 -0.2004 -0.0909  0.6630
   50TCq2    H2  773   0.472   2.970   9.910  1.3620 -1.1716  0.0886
   50TCq2    H3  774   0.139   2.753  10.042 -0.4454  1.0881  1.8689
   50TCq2    H4  775   0.464   2.809  10.314  0.4001  1.4262 -1.0079
   51MPD2     C  776   0.005   1.488   1.479 -0.5800 -0.1169 -1.0215
   51MPD2    C1  777   0.090   1.408   1.553  0.5673  0.1124  0.1623
   51MPD2    C2  778   0.164   1.464   1.652  0.2445  0.1706  0.2694
   51MPD2    C3  779   0.165   1.600   1.682  0.4254  0.2769 -0.4817
   51MPD2    C4  780   0.087   1.673   1.598 -0.6044 -0.5319  0.2136
   51MPD2    C5  781   0.005   1.624   1.501  0.0488 -0.7631  0.0878
   51MPD2     H  782   0.235   1.404   1.707  1.1282  1.2237  0.2962
   51MPD2    H1  783   0.075   1.781   1.603 -0.8285 -0.5380 -0.1913
   51MPD2    H2  784   4.663   1.457   1.399  0.0336 -0.2790 -1.4679
   51MPD2    H3  785   4.673   1.692   1.439 -0.9039 -0.1992  1.5722
   51MPD2     N  786   0.252   1.665   1.767  0.7427 -0.1050 -0.2144
   51MPD2    H5  787   0.252   1.766   1.761 -0.0468  0.0563  2.2850
   51MPD2    N1  788   0.105   1.271   1.538 -0.2466  0.1402  0.5258
   51MPD2    H7  789   0.171   1.228   1.602  1.0832 -0.8524 -1.5623
   52TCq2    C1  790   0.327   1.603   1.866 -0.2355  0.9726  0.1283
   52TCq2    O2  791   0.288   1.505   1.928 -0.9274 -0.2586 -0.4493
   52TCq2    C2  792   0.430   1.683   1.916 -0.9275 -0.1189 -0.0544
   52TCq2    C3  793   0.473   1.657   2.041 -0.7039 -0.5553  0.3989
   52TCq2    C4  794   0.588   1.718   2.089  0.3236 -0.3418  0.3201
   52TCq2    C5  795   0.658   1.796   2.004  1.2307 -0.1323 -1.0072
   52TCq2    C6  796   0.612   1.817   1.875 -0.0638  0.3862 -0.4095
   52TCq2    C7  797   0.496   1.764   1.829  0.1012  0.2875 -0.0972
   52TCq2    C8  798   0.684   1.910   1.785  0.3203  0.0730 -0.3652
   52TCq2    O4  799   0.661   1.901   1.665  0.0095 -0.0641  0.0170
   52TCq2    C9  800   0.621   1.710   2.231  0.9939  0.0544  0.1252
   52TCq2    O5  801   0.726   1.781   2.259 -0.1668  0.2306 -0.2958
   52TCq2    O6  802   0.540   1.652   2.303  0.2767 -1.0617  0.0547
   52TCq2    H2  803   0.413   1.605   2.114  1.1531  1.6029  3.4380
   52TCq2    H3  804   0.748   1.846   2.037  0.8022  0.0226 -0.0888
   52TCq2    H4  805   0.444   1.803   1.742 -0.3808  3.5950  1.6821
   53TMC2    C1  806   0.870   0.641  12.176 -0.4887  0.1386 -0.0048
   53TMC2    C2  807   0.927   0.764  12.160  0.5552  0.2620 -0.1204
   53TMC2    C3  808   0.847   0.873  12.181  0.4918  0.0442  0.7332
   53TMC2    C4  809   0.734   0.628  12.212  0.6746  0.1744 -0.1599
   53TMC2    C5  810   0.657   0.740  12.228  0.0374 -0.0427 -0.9716
   53TMC2    C6  811   0.714   0.860  12.207  0.8828  0.0516  0.2323
   53TMC2     C  812   0.959   0.529  12.157 -0.2372 -0.1563 -0.0338
   53TMC2     O  813   1.079   0.543  12.135 -0.0570  0.5486 -0.4614
   53TMC2     H  814   1.031   0.778  12.132  1.3299 -3.2972  0.9730
   53TMC2    H1  815   0.694   0.529  12.233 -1.9801  1.6661  1.8150
   53TMC2    H2  816   0.657   0.952  12.202  1.2203  0.2542  0.0906
   53TMC2    C7  817   0.516   0.721  12.253  0.1237 -0.2485  0.2709
   53TMC2    C8  818   0.883   0.999  12.114  0.4094 -0.2489 -0.2068
   53TMC2    O1  819   0.467   0.613  12.237 -0.7171  0.8414  0.1766
   53TMC2    O2  820   0.924   1.008  12.002 -0.7714 -0.4313 -1.1620
   53TMC2    O5  821   0.885   1.089  12.218  0.9401  0.1371 -0.3641
   53TMC2    H5  822   0.871   1.037  12.300  0.6310 -1.1666 -1.2361
   54MPD2     C  823   1.017   0.252  12.172  0.3579  0.1758 -0.7768
   54MPD2    C1  824   0.897   0.295  12.131 -0.4801 -0.3078  0.3823
   54MPD2    C2  825   0.797   0.210  12.090  0.2560 -0.3239 -0.4743
   54MPD2    C3  826   0.819   0.078  12.091  0.2227 -0.0944  0.7888
   54MPD2    C4  827   0.945   0.033  12.117 -0.4525  0.3185 -0.6226
   54MPD2    C5  828   1.038   0.119  12.163  0.1873  0.5570 -0.5863
   54MPD2     H  829   0.706   0.253  12.050 -1.6518 -2.0030  2.0635
   54MPD2    H1  830   0.978   4.658  12.091  1.4291  1.1741 -1.5192
   54MPD2    H2  831   1.100   0.312  12.208  1.9596 -1.5672 -1.5642
   54MPD2    H3  832   1.137   0.083  12.189 -0.2201 -0.1854 -0.0464
   54MPD2     N  833   0.719   4.705  12.055 -0.7150  0.1457 -0.4870
   54MPD2    H5  834   0.749   4.608  12.048  0.3526  0.4427 -0.1530
   54MPD2    N1  835   0.870   0.428  12.126 -0.2471 -0.5094  0.4271
   54MPD2    H7  836   0.771   0.443  12.108  0.0601  0.6660 -0.3153
   55MPD2     C  837   1.839   2.956  16.881 -0.5355 -0.2946 -0.4500
   55MPD2    C1  838   1.805   2.925  17.011 -0.1728 -0.1412  0.3522
   55MPD2    C2  839   1.680   2.960  17.063 -1.0201  0.0529 -0.4172
   55MPD2    C3  840   1.581   3.014  16.986 -0.1355 -0.3646  0.0068
   55MPD2    C4  841   1.617   3.058  16.857  0.4144 -0.3988  0.1815
   55MPD2    C5  842   1.744   3.023  16.809  0.5327 -0.2419  0.2859
   55MPD2     H  843   1.641   2.931  17.160 -2.1546  0.0970 -0.8554
   55MPD2    H1  844   1.550   3.119  16.797 -0.1349 -1.6251 -0.4553
   55MPD2    H2  845   1.935   2.942  16.833 -1.2294 -0.6211 -1.7482
   55MPD2    H3  846   1.775   3.064  16.713  2.7268 -0.5727  0.8775
   55MPD2     N  847   1.461   3.035  17.047 -0.1501  0.4887  0.1795
   55MPD2    H5  848   1.455   2.994  17.139  1.3012  0.3450  0.2007
   55MPD2    N1  849   1.899   2.847  17.083  0.1301  0.3182 -0.2594
   55MPD2    H7  850   1.966   2.798  17.025 -1.8556 -1.2742 -1.2141
   56TCq2    C1  851   1.904   2.842  17.217 -0.7616 -1.5122 -0.3231
   56TCq2    O2  852   1.854   2.914  17.299 -0.2467 -0.0832  0.1489
   56TCq2    C2  853   1.994   2.742  17.273  0.5031 -0.1948  0.1840
   56TCq2    C3  854   2.089   2.685  17.193 -0.0366 -0.5176 -0.9197
   56TCq2    C4  855   2.168   2.584  17.249  0.0502  0.0463 -0.1936
   56TCq2    C5  856   2.151   2.547  17.378  0.0823 -0.2282  0.5388
   56TCq2    C6  857   2.057   2.604  17.459 -0.0459  0.5372  0.4170
   56TCq2    C7  858   1.972   2.697  17.400 -0.1814 -0.5375  0.6431
   56TCq2    C8  859   2.039   2.551  17.586  0.4033 -0.1822 -0.5133
   56TCq2    O4  860   2.131   2.474  17.627 -1.0499 -0.4062  0.1784
   56TCq2    C9  861   2.269   2.520  17.167  0.1373  0.2540  0.3523
   56TCq2    O5  862   2.331   2.420  17.213 -0.7329 -0.2067  0.3763
   56TCq2    O6  863   2.293   2.579  17.061  0.0874  0.1564  0.0187
   56TCq2    H2  864   2.110   2.713  17.090  1.6249  0.7069 -0.2664
   56TCq2    H3  865   2.225   2.471  17.402 -0.6052 -1.5063 -1.3150
   56TCq2    H4  866   1.890   2.742  17.455  0.3011  3.3955 -1.8493
   57TMC2    C1  867   0.726   4.148  14.231  0.0307 -0.3274 -0.1296
   57TMC2    C2  868   0.789   4.222  14.331 -0.7588 -0.3241 -0.5529
   57TMC2    C3  869   0.918   4.203  14.346 -0.7151  0.3065  0.3657
   57TMC2    C4  870   0.791   4.065  14.147  0.2817 -0.0559 -0.1732
   57TMC2    C5  871   0.928   4.055  14.159  0.3981  0.6396  0.0213
   57TMC2    C6  872   0.989   4.117  14.266  0.6309 -0.2237  0.3398
   57TMC2     C  873   0.580   4.132  14.230  0.5670 -0.1371  0.6822
   57TMC2     O  874   0.526   4.074  14.141 -0.1381  0.7993 -0.0933
   57TMC2     H  875   0.742   4.305  14.381 -1.0024 -0.5559 -0.3986
   57TMC2    H1  876   0.741   4.005  14.072 -0.5332  1.1014 -0.5489
   57TMC2    H2  877   1.096   4.109  14.281  0.4780 -0.0968  1.4925
   57TMC2    C7  878   1.001   3.938  14.112 -0.0426  0.1630  0.3987
   57TMC2    C8  879   0.989   4.306  14.414 -0.1329 -0.1440 -0.1973
   57TMC2    O1  880   1.085   3.893  14.194 -0.2289 -0.0761 -0.3481
   57TMC2    O2  881   0.931   4.381  14.493 -0.7303  0.1009 -0.0938
   57TMC2    O5  882   1.086   4.349  14.329  0.7437  0.4735 -0.0754
   57TMC2    H5  883   1.082   4.295  14.247 -0.7596 -1.6137  1.3806
   58MPD2     C  884   0.118   4.251  14.407  0.1934  0.1714  0.0683
   58MPD2    C1  885   0.161   4.215  14.277  0.0265 -0.5579  0.0553
   58MPD2    C2  886   0.296   4.195  14.264 -0.6547  0.2213  0.7042
   58MPD2    C3  887   0.385   4.193  14.372  0.1864  0.1507 -0.2430
   58MPD2    C4  888   0.341   4.222  14.496  0.3464 -0.1228  0.0257
   58MPD2    C5  889   0.203   4.250  14.512  0.5858 -0.2408 -0.4848
   58MPD2     H  890   0.327   4.179  14.161  1.5668 -1.0799  1.5655
   58MPD2    H1  891   0.403   4.223  14.585 -1.9343  2.0575  1.5752
   58MPD2    H2  892   0.015   4.277  14.431 -0.5766 -1.9151 -0.9840
   58MPD2    H3  893   0.165   4.280  14.610 -0.6071  1.2283 -1.4023
   58MPD2     N  894   0.524   4.174  14.350  0.4435  0.1822 -0.1687
   58MPD2    H5  895   0.581   4.201  14.429 -0.4289  0.1667  0.4728
   58MPD2    N1  896   0.084   4.220  14.160 -0.1394 -0.4097  0.1116
   58MPD2    H7  897   0.127   4.212  14.069 -0.4920 -1.0376 -0.0003
   59MPD2     C  898   3.384   3.560  13.031  0.5666 -0.2309  0.2104
   59MPD2    C1  899   3.364   3.676  12.953 -0.3185 -0.5989 -0.3826
   59MPD2    C2  900   3.352   3.799  13.023  0.7686  0.4900 -0.0805
   59MPD2    C3  901   3.369   3.811  13.157  0.0730  0.5619  0.2012
   59MPD2    C4  902   3.416   3.703  13.224  0.0108  0.7387  0.5754
   59MPD2    C5  903   3.426   3.581  13.162  1.2456 -0.4205  0.4649
   59MPD2     H  904   3.321   3.880  12.958 -1.1544 -0.3843 -0.2565
   59MPD2    H1  905   3.436   3.713  13.330  0.3552  1.8132  0.4099
   59MPD2    H2  906   3.401   3.457  13.000 -1.2977  0.0134 -1.6185
   59MPD2    H3  907   3.457   3.498  13.224  0.7264 -1.1082 -0.1901
   59MPD2     N  908   3.353   3.934  13.231 -0.9363 -0.4855  0.3637
   59MPD2    H5  909   3.346   3.931  13.332  1.7212  2.7211  0.6304
   59MPD2    N1  910   3.345   3.674  12.811 -0.4918  0.2297 -0.4802
   59MPD2    H7  911   3.334   3.761  12.761  0.9718  0.0104 -1.1815
   60TCq2    C1  912   3.337   3.559  12.736 -0.0151  0.1633 -0.1701
   60TCq2    O2  913   3.312   3.444  12.774  0.5413  0.6978 -0.4932
   60TCq2    C2  914   3.316   3.586  12.595  0.7870  0.4100  0.2586
   60TCq2    C3  915   3.231   3.509  12.525  0.2211  0.5523  0.4529
   60TCq2    C4  916   3.198   3.550  12.398 -0.1428  0.7148 -0.1195
   60TCq2    C5  917   3.245   3.678  12.357  0.1024  0.4183 -0.4902
   60TCq2    C6  918   3.337   3.744  12.426 -0.0009  0.7380 -0.0385
   60TCq2    C7  919   3.379   3.693  12.546  0.0008  0.1268  0.2072
   60TCq2    C8  920   3.431   3.821  12.338  0.5048 -0.0209  0.2819
   60TCq2    O4  921   3.544   3.823  12.384 -0.0521  0.0510 -0.1050
   60TCq2    C9  922   3.110   3.478  12.309  0.1892  1.0593  0.0638
   60TCq2    O5  923   3.132   3.489  12.184 -0.3173  0.3454 -0.0366
   60TCq2    O6  924   3.056   3.383  12.372  0.1630  0.2892 -0.0757
   60TCq2    H2  925   3.183   3.421  12.566  0.5829  0.4484  0.6595
   60TCq2    H3  926   3.219   3.708  12.256  0.7102  0.5982 -0.5891
   60TCq2    H4  927   3.451   3.745  12.608  3.0115 -1.6195 -1.8094
   61MPD2     C  928   2.453   0.456  14.561  0.2410  0.0310  0.0685
   61MPD2    C1  929   2.488   0.584  14.596  0.8178  0.0864  0.1125
   61MPD2    C2  930   2.502   0.674  14.496  0.7571 -0.1163  0.3212
   61MPD2    C3  931   2.484   0.643  14.364 -0.4011  0.4278  0.2830
   61MPD2    C4  932   2.445   0.515  14.334 -0.0821  0.3787 -0.1035
   61MPD2    C5  933   2.439   0.423  14.429  0.1444  1.0149  0.6625
   61MPD2     H  934   2.519   0.777  14.525  1.1894 -0.0604 -0.1494
   61MPD2    H1  935   2.406   0.488  14.236 -1.4427  0.5817  0.3752
   61MPD2    H2  936   2.435   0.369  14.624 -1.6413 -0.1215 -0.6783
   61MPD2    H3  937   2.389   0.329  14.408  2.1100  0.1451 -0.1434
   61MPD2     N  938   2.473   0.739  14.265 -0.0655  0.3349 -0.1891
   61MPD2    H5  939   2.439   0.711  14.173 -3.2201 -1.7468  1.6128
   61MPD2    N1  940   2.501   0.630  14.728 -0.2741 -0.2745 -0.0326
   61MPD2    H7  941   2.530   0.726  14.745 -0.2254 -0.9788  3.9664
   62TCq2    C1  942   2.499   0.555  14.844  0.2381 -0.2840 -0.6841
   62TCq2    O2  943   2.493   0.433  14.864 -0.7564 -0.4314  0.0123
   62TCq2    C2  944   2.519   0.642  14.955  0.0816 -0.6289 -0.7225
   62TCq2    C3  945   2.477   0.590  15.081  0.0221  0.4004  0.0001
   62TCq2    C4  946   2.440   0.677  15.184  0.1190  0.2110  0.1345
   62TCq2    C5  947   2.442   0.812  15.166  0.1719  0.6255 -0.4234
   62TCq2    C6  948   2.493   0.858  15.044  0.0394 -0.6919  0.2556
   62TCq2    C7  949   2.535   0.776  14.943  0.1535  0.4426 -0.0368
   62TCq2    C8  950   2.481   1.000  15.012 -0.4018  0.2024 -0.4339
   62TCq2    O4  951   2.580   1.050  14.965  0.4707 -0.5938  0.5796
   62TCq2    C9  952   2.402   0.619  15.309 -0.0282  0.3601  0.1224
   62TCq2    O5  953   2.374   0.707  15.395  0.5233 -0.3897  0.6493
   62TCq2    O6  954   2.381   0.493  15.315 -0.2274 -0.1085  0.1941
   62TCq2    H2  955   2.479   0.484  15.100  1.3218  0.4528  0.1610
   62TCq2    H3  956   2.407   0.876  15.246 -0.6181 -0.3520  0.0138
   62TCq2    H4  957   2.584   0.828  14.860 -0.0214 -0.8257 -0.9252
   63TMC2    C1  958   2.187   0.645  10.982  0.2514 -0.3668  0.0908
   63TMC2    C2  959   2.244   0.695  11.094  0.0022 -0.0165  0.4786
   63TMC2    C3  960   2.358   0.767  11.073  0.0202 -0.3539 -0.4313
   63TMC2    C4  961   2.229   0.664  10.855 -0.5810  0.1987  0.3978
   63TMC2    C5  962   2.340   0.743  10.838  0.5795  0.7472 -0.4299
   63TMC2    C6  963   2.409   0.792  10.945 -0.7612  0.2957 -0.1252
   63TMC2     C  964   2.070   0.567  11.001 -0.0155 -0.0295 -0.4309
   63TMC2     O  965   1.993   0.597  11.092  0.2881  0.2792 -0.0168
   63TMC2     H  966   2.209   0.661  11.190  0.0688  0.2062  0.5806
   63TMC2    H1  967   2.170   0.643  10.767  2.8148 -2.3964 -1.2718
   63TMC2    H2  968   2.505   0.840  10.928 -1.2712  1.9961  1.8106
   63TMC2    C7  969   2.361   0.803  10.705  0.0800  0.1322 -0.2890
   63TMC2    C8  970   2.462   0.764  11.169  0.2998 -0.5882 -0.1551
   63TMC2    O1  971   2.254   0.801  10.643  0.8254  0.0540  0.1750
   63TMC2    O2  972   2.576   0.734  11.141  0.1341 -0.1597  0.4141
   63TMC2    O5  973   2.410   0.743  11.293  0.1730 -0.1817 -0.0473
   63TMC2    H5  974   2.319   0.779  11.287  0.2752  0.1940  0.6300
   64MPD2     C  975   1.734   0.287  10.715 -0.0066  0.8757 -0.5165
   64MPD2    C1  976   1.865   0.261  10.682 -0.0701  0.3146 -0.5460
   64MPD2    C2  977   1.975   0.321  10.748 -0.9276 -0.6597  0.1650
   64MPD2    C3  978   1.949   0.400  10.859  0.4262  0.5476  0.4017
   64MPD2    C4  979   1.820   0.432  10.895 -0.0474  0.4766  0.2689
   64MPD2    C5  980   1.715   0.377  10.823  0.0466 -0.0457 -0.5293
   64MPD2     H  981   2.074   0.291  10.714 -1.6621 -1.9231 -0.8713
   64MPD2    H1  982   1.786   0.502  10.970  1.8683  1.1455  0.5109
   64MPD2    H2  983   1.652   0.249  10.656 -0.7757  0.8569  0.5608
   64MPD2    H3  984   1.616   0.414  10.844 -0.4034 -1.3126 -0.4421
   64MPD2     N  985   2.061   0.468  10.905 -0.4313  0.0890 -0.1731
   64MPD2    H5  986   2.143   0.444  10.849  1.1885 -3.1449  3.5637
   64MPD2    N1  987   1.900   0.163  10.579  0.0924 -0.2717  0.2386
   64MPD2    H7  988   1.996   0.132  10.572  0.3152  0.6124 -0.6379
   65MPD2     C  989   3.237   4.688  15.911  0.1598  0.7207  0.0204
   65MPD2    C1  990   3.271   4.689  15.778  0.1104  0.4011 -0.1423
   65MPD2    C2  991   3.266   4.574  15.692 -0.3563 -0.3643  0.2753
   65MPD2    C3  992   3.220   4.462  15.751  0.1011 -0.5273  0.1435
   65MPD2    C4  993   3.177   4.463  15.880  1.1354  0.1301 -0.0773
   65MPD2    C5  994   3.198   4.565  15.964  0.1083 -0.4715  0.4936
   65MPD2     H  995   3.291   4.582  15.586 -1.6634 -0.7647 -0.0607
   65MPD2    H1  996   3.135   4.373  15.924 -0.1977  0.4195 -0.7548
   65MPD2    H2  997   3.237   0.048  15.978  1.2965  0.0337  0.8943
   65MPD2    H3  998   3.162   4.554  16.066  2.8063 -0.9500  1.3804
   65MPD2     N  999   3.191   4.342  15.681  0.4845  0.3348  0.1633
   65MPD2    H5 1000   3.131   4.277  15.729 -0.8585  0.5461 -1.2267
   65MPD2    N1 1001   3.291   0.081  15.702  0.1483  0.0414  0.4133
   65MPD2    H7 1002   3.327   0.063  15.609  0.7633  1.2392  0.4158
   66TCq2    C1 1003   3.274   0.213  15.738 -0.4351 -0.0731 -0.6714
   66TCq2    O2 1004   3.215   0.255  15.840 -0.6640 -0.0110  0.5442
   66TCq2    C2 1005   3.319   0.309  15.638  0.2068 -0.5141 -0.2865
   66TCq2    C3 1006   3.396   0.265  15.528 -0.3512  0.2228 -0.3221
   66TCq2    C4 1007   3.411   0.351  15.424  0.0407  0.3097  0.0940
   66TCq2    C5 1008   3.337   0.470  15.420  0.6533  0.6504  0.2499
   66TCq2    C6 1009   3.264   0.516  15.526  0.7497 -0.3024 -0.2619
   66TCq2    C7 1010   3.253   0.432  15.631 -0.4802  0.5735 -0.5202
   66TCq2    C8 1011   3.175   0.628  15.506 -0.6107  0.1294 -0.3132
   66TCq2    O4 1012   3.141   0.660  15.391  0.4365 -0.7684 -0.0658
   66TCq2    C9 1013   3.473   0.284  15.308  0.9987  0.3694  0.6952
   66TCq2    O5 1014   3.472   0.343  15.195  0.3999 -0.4983 -0.6719
   66TCq2    O6 1015   3.503   0.168  15.319  0.2456  0.6298  0.6801
   66TCq2    H2 1016   3.451   0.172  15.532 -0.0186  0.3980 -0.8104
   66TCq2    H3 1017   3.338   0.529  15.329 -3.5208  0.6809  0.1912
   66TCq2    H4 1018   3.190   0.465  15.713  1.7078  0.9378  1.0200
   67MPD2     C 1019   3.040   3.971  14.156  0.2478  0.0110  0.4620
   67MPD2    C1 1020   2.961   4.021  14.259 -0.1698  0.0817  0.8008
   67MPD2    C2 1021   2.825   4.030  14.241  0.5700 -0.4446  0.3079
   67MPD2    C3 1022   2.767   3.985  14.127  0.3609  0.5524 -0.0057
   67MPD2    C4 1023   2.841   3.940  14.020  0.1427  0.2294  0.0233
   67MPD2    C5 1024   2.976   3.932  14.042  0.0070 -0.7737 -0.7970
   67MPD2     H 1025   2.769   4.075  14.322 -0.1520 -0.2688 -0.2859
   67MPD2    H1 1026   2.800   3.911  13.924  2.0801 -1.7471 -0.2306
   67MPD2    H2 1027   3.148   3.976  14.147  0.3266 -1.5944  0.5548
   67MPD2    H3 1028   3.040   3.893  13.964  1.2692 -1.5908  0.6403
   67MPD2     N 1029   2.629   3.988  14.102  0.2766 -0.0081 -0.1379
   67MPD2    H5 1030   2.604   3.954  14.010 -2.4643 -0.4792  0.7734
   67MPD2    N1 1031   3.018   4.083  14.367 -0.0508 -0.4913  0.0707
   67MPD2    H7 1032   2.961   4.151  14.417 -2.0320 -0.5296 -2.1719
   68TCq2    C1 1033   3.150   4.055  14.409  0.7236 -0.0935 -0.2416
   68TCq2    O2 1034   3.217   3.957  14.368  0.0381  0.5575  0.0262
   68TCq2    C2 1035   3.199   4.134  14.520 -0.5626  0.4525  0.4694
   68TCq2    C3 1036   3.124   4.230  14.580  0.8045 -0.4172  0.1319
   68TCq2    C4 1037   3.163   4.276  14.703 -0.5163 -0.3113  0.3440
   68TCq2    C5 1038   3.278   4.241  14.770  0.0401 -0.0415 -0.0904
   68TCq2    C6 1039   3.363   4.168  14.696  0.6330 -0.5158  0.2456
   68TCq2    C7 1040   3.327   4.104  14.576  0.6173  0.2087 -0.1835
   68TCq2    C8 1041   3.493   4.155  14.758 -0.0733 -0.0209 -0.4155
   68TCq2    O4 1042   3.582   4.101  14.690  0.6126 -0.4044  0.0831
   68TCq2    C9 1043   3.067   4.363  14.770 -0.1774  0.7599  0.2156
   68TCq2    O5 1044   2.952   4.377  14.713 -0.4198 -0.3124  0.9733
   68TCq2    O6 1045   3.104   4.417  14.881 -0.0689 -0.5687  0.2842
   68TCq2    H2 1046   3.041   4.275  14.527  0.0766 -0.3041  1.3661
   68TCq2    H3 1047   3.288   4.269  14.874 -1.3094 -0.3741  0.1305
   68TCq2    H4 1048   3.392   4.045  14.512  1.2626  0.5247  0.1850
   69TMC2    C1 1049   1.015   1.211  12.783 -0.3042 -0.7317 -0.3110
   69TMC2    C2 1050   0.957   1.323  12.834  0.1723 -0.0392 -0.4798
   69TMC2    C3 1051   0.995   1.443  12.771  0.1744 -0.1276  0.0740
   69TMC2    C4 1052   1.086   1.207  12.668 -0.8576  0.5036 -0.0210
   69TMC2    C5 1053   1.109   1.322  12.600  0.5538 -0.4054 -0.0147
   69TMC2    C6 1054   1.074   1.447  12.662  0.2126 -0.3103 -0.0167
   69TMC2     C 1055   0.978   1.074  12.811 -0.6656  0.3670 -0.1559
   69TMC2     O 1056   1.058   0.984  12.800 -0.0145 -0.3987 -0.6584
   69TMC2     H 1057   0.901   1.309  12.925  0.7259  1.4805  0.1009
   69TMC2    H1 1058   1.128   1.113  12.631 -0.7501  0.3136  0.5939
   69TMC2    H2 1059   1.097   1.544  12.622  1.3830  0.6513  3.0047
   69TMC2    C7 1060   1.140   1.314  12.456 -0.0492 -0.8117  0.2472
   69TMC2    C8 1061   0.946   1.575  12.817  0.3372  0.0419  0.3886
   69TMC2    O1 1062   1.163   1.200  12.416 -0.0132  0.4171  0.3168
   69TMC2    O2 1063   1.020   1.670  12.828 -0.5480  0.0599  0.0414
   69TMC2    O5 1064   0.840   1.559  12.897  0.2255  1.0225  0.3923
   69TMC2    H5 1065   0.777   1.488  12.870  0.4929  0.9381 -0.0100
   70MPD2     C 1066   0.646   0.992  12.954 -0.4713  0.0360 -0.8527
   70MPD2    C1 1067   0.772   0.963  12.898 -0.3283 -0.7522 -0.8442
   70MPD2    C2 1068   0.811   0.834  12.892  0.1092  0.4356  0.1061
   70MPD2    C3 1069   0.740   0.729  12.934 -0.5535  0.2292 -0.5393
   70MPD2    C4 1070   0.619   0.757  12.995  0.0956 -0.2078  0.5126
   70MPD2    C5 1071   0.568   0.888  12.996 -0.4687 -0.2546  0.3419
   70MPD2     H 1072   0.903   0.813  12.838  0.1971 -2.1624  1.2365
   70MPD2    H1 1073   0.564   0.676  13.042 -0.8596 -0.8138 -1.6457
   70MPD2    H2 1074   0.611   1.095  12.957 -0.9101 -0.0738 -2.1652
   70MPD2    H3 1075   0.474   0.915  13.042 -0.7822  2.7581 -2.0160
   70MPD2     N 1076   0.777   0.593  12.928  0.0110  0.7602  0.4908
   70MPD2    H5 1077   0.715   0.526  12.973  0.0310  0.5682  0.2314
   70MPD2    N1 1078   0.845   1.068  12.844  0.2816  0.1410 -0.4469
   70MPD2    H7 1079   0.796   1.156  12.849 -1.0782 -0.4180 -3.9250
   71TMC2    C1 1080   3.614   2.523   0.939  0.1231  0.1545  0.2695
   71TMC2    C2 1081   3.740   2.545   0.888  0.1536 -0.6343 -0.6664
   71TMC2    C3 1082   3.843   2.537   0.974 -0.9094  0.2426  0.4936
   71TMC2    C4 1083   3.588   2.511   1.073  0.2385  0.2090 -0.5008
   71TMC2    C5 1084   3.692   2.512   1.158  0.0145  0.7798 -0.3564
   71TMC2    C6 1085   3.822   2.525   1.112 -0.4237  0.6191  0.6219
   71TMC2     C 1086   3.512   2.499   0.842  0.6250  0.3118 -0.1130
   71TMC2     O 1087   3.403   2.553   0.865  0.1668  0.1611 -0.5004
   71TMC2     H 1088   3.748   2.560   0.781 -1.1367 -2.5194 -1.0419
   71TMC2    H1 1089   3.484   2.504   1.101  0.6512 -0.9645  0.7366
   71TMC2    H2 1090   3.909   2.508   1.174 -0.0741 -1.4205 -0.4203
   71TMC2    C7 1091   3.669   2.496   1.304  0.0092 -0.1254  0.5426
   71TMC2    C8 1092   3.979   2.552   0.926  0.4237  0.2277  1.0319
   71TMC2    O1 1093   3.760   2.528   1.380  0.0147 -0.5361 -0.1736
   71TMC2    O2 1094   4.077   2.592   0.990 -0.3568 -0.4366 -0.4703
   71TMC2    O5 1095   3.980   2.496   0.806 -0.4539  0.4418 -0.1333
   71TMC2    H5 1096   3.896   2.445   0.796 -0.3749  0.3243 -0.2059
   72MPD2     C 1097   3.328   2.379   0.388  0.4171 -0.5862  0.2172
   72MPD2    C1 1098   3.261   2.405   0.504 -0.6272  0.3179 -0.1779
   72MPD2    C2 1099   3.334   2.411   0.622  0.0125 -0.2407  0.4532
   72MPD2    C3 1100   3.479   2.410   0.614 -0.7359  0.4655  0.2398
   72MPD2    C4 1101   3.541   2.379   0.493  0.4028  0.5688 -0.0790
   72MPD2    C5 1102   3.466   2.359   0.380 -0.0531 -0.7700 -0.0017
   72MPD2     H 1103   3.281   2.422   0.716 -3.5090  0.8985 -1.6531
   72MPD2    H1 1104   3.649   2.380   0.485  0.5987 -0.5611  2.5604
   72MPD2    H2 1105   3.290   2.367   0.287  2.9649 -0.5121 -0.7709
   72MPD2    H3 1106   3.516   2.342   0.286  0.2515 -2.5979  0.4901
   72MPD2     N 1107   3.554   2.442   0.725 -0.0397 -0.1796  0.3587
   72MPD2    H5 1108   3.648   2.404   0.729 -0.2678 -0.5395  2.4163
   72MPD2    N1 1109   3.121   2.401   0.512 -0.0912 -0.0471  0.1510
   72MPD2    H7 1110   3.075   2.414   0.601 -0.0848  1.6366 -0.0943
   73TMC2    C1 1111   2.790   3.156  13.895 -0.5631  0.1377  0.3320
   73TMC2    C2 1112   2.835   3.025  13.929  0.3936  0.2369  1.0262
   73TMC2    C3 1113   2.961   3.014  13.974 -0.4875  0.0264 -0.1232
   73TMC2    C4 1114   2.868   3.265  13.912  0.5513  0.4711  0.7468
   73TMC2    C5 1115   3.000   3.243  13.944 -0.2323 -0.2496 -0.3730
   73TMC2    C6 1116   3.046   3.124  13.982 -0.1698 -0.0876 -0.2446
   73TMC2     C 1117   2.718   3.152  13.773  0.2920 -0.2620  0.5951
   73TMC2     O 1118   2.761   3.227  13.688 -0.7757  0.7439  0.3246
   73TMC2     H 1119   2.798   2.933  13.885 -0.5352 -0.0364  2.3982
   73TMC2    H1 1120   2.833   3.363  13.883 -0.1688 -0.1917 -0.6416
   73TMC2    H2 1121   3.154   3.123  13.996 -0.6020  2.2075  3.3839
   73TMC2    C7 1122   3.101   3.299  13.854 -0.0439 -0.1175 -0.3252
   73TMC2    C8 1123   3.029   2.895  14.023  0.0442 -0.3578  0.0276
   73TMC2    O1 1124   3.209   3.341  13.901 -0.1075  0.2592  0.4441
   73TMC2    O2 1125   3.146   2.894  14.050  0.3250  0.6746 -0.3037
   73TMC2    O5 1126   2.933   2.806  14.066 -0.2643 -0.8362 -0.4599
   73TMC2    H5 1127   2.836   2.822  14.057 -0.1203  0.1518 -0.2777
   74MPD2     C 1128   2.454   2.899  13.420  0.1610 -0.7466  0.1571
   74MPD2    C1 1129   2.568   2.975  13.402 -0.2768  0.1172 -0.3417
   74MPD2    C2 1130   2.616   3.026  13.519  0.2304  0.5000 -0.4340
   74MPD2    C3 1131   2.559   3.007  13.644 -0.0991 -0.2203 -0.1516
   74MPD2    C4 1132   2.448   2.937  13.657 -0.0653 -0.2005 -0.0462
   74MPD2    C5 1133   2.394   2.881  13.541 -0.3872  0.2797 -0.1401
   74MPD2     H 1134   2.699   3.096  13.515  2.2808 -1.9980 -1.3259
   74MPD2    H1 1135   2.413   2.901  13.753  3.0361 -0.1622  1.0981
   74MPD2    H2 1136   2.414   2.843  13.336  0.6909 -2.1227  0.8142
   74MPD2    H3 1137   2.318   2.803  13.550 -0.5943  0.0081 -3.8448
   74MPD2     N 1138   2.615   3.062  13.764 -0.4739  0.0641  0.1597
   74MPD2    H5 1139   2.581   3.035  13.856 -0.5770  0.1935  0.1588
   74MPD2    N1 1140   2.622   2.998  13.276 -0.0926  0.1577 -0.0900
   74MPD2    H7 1141   2.577   2.952  13.197 -1.2041 -2.2547  1.9188
   75TCq2    C1 1142   2.536   4.010  14.195 -0.0482  0.2740 -0.0248
   75TCq2    O2 1143   2.547   4.046  14.309 -0.2592  0.4678 -0.5311
   75TCq2    C2 1144   2.399   3.994  14.142  0.2702  0.3149 -0.9250
   75TCq2    C3 1145   2.297   4.046  14.214 -0.0193 -0.1833 -0.0522
   75TCq2    C4 1146   2.165   4.036  14.161  0.3121 -0.2533 -0.2654
   75TCq2    C5 1147   2.145   3.980  14.038 -0.1847  0.4068 -0.4028
   75TCq2    C6 1148   2.254   3.927  13.970 -0.4868 -0.2134  0.1661
   75TCq2    C7 1149   2.380   3.936  14.019  0.6714 -0.6364 -0.4185
   75TCq2    C8 1150   2.242   3.900  13.825  0.5551 -0.4821  0.2896
   75TCq2    O4 1151   2.333   3.931  13.753  0.4050 -0.1507 -0.3592
   75TCq2    C9 1152   2.055   4.084  14.236 -0.1402  0.1906  0.4582
   75TCq2    O5 1153   2.066   4.112  14.361  0.2003  0.2033 -0.6647
   75TCq2    O6 1154   1.944   4.069  14.181 -0.0407  0.5447  0.0533
   75TCq2    H2 1155   2.324   4.100  14.304  0.0048 -0.8625  0.3516
   75TCq2    H3 1156   2.040   3.966  14.013 -0.6727  0.0276  1.9060
   75TCq2    H4 1157   2.458   3.894  13.957  1.3523  1.1035 -0.7280
   76MPD2     C 1158   2.039   0.937  11.788  0.2779 -0.1434  0.1966
   76MPD2    C1 1159   1.942   0.864  11.722  0.1893 -0.5291 -0.2822
   76MPD2    C2 1160   1.981   0.756  11.649  0.5372 -0.1241 -0.4842
   76MPD2    C3 1161   2.118   0.716  11.634 -0.7422  0.7509 -0.1819
   76MPD2    C4 1162   2.212   0.806  11.688 -0.0159  0.2708  0.3176
   76MPD2    C5 1163   2.169   0.904  11.770  0.3622  0.1881 -0.5492
   76MPD2     H 1164   1.905   0.698  11.599  0.8657 -2.2133  1.4162
   76MPD2    H1 1165   2.319   0.788  11.688 -0.4700 -2.3515  1.2929
   76MPD2    H2 1166   2.028   1.031  11.842  0.8432  1.5912 -2.6915
   76MPD2    H3 1167   2.249   0.970  11.801 -0.3245 -0.1078  1.9035
   76MPD2     N 1168   2.162   0.606  11.548 -0.7968 -0.1530  0.0368
   76MPD2    H5 1169   2.260   0.581  11.559 -0.0917  1.4313 -2.5699
   76MPD2    N1 1170   1.806   0.893  11.715 -0.2948 -0.7596  0.3350
   76MPD2    H7 1171   1.752   0.833  11.653  2.7768 -1.9550 -1.1889
   77TCq2    C1 1172   2.079   0.534  11.464 -0.9910 -0.1925 -0.7127
   77TCq2    O2 1173   1.961   0.542  11.438  0.1126  0.2721  0.4528
   77TCq2    C2 1174   2.155   0.433  11.398  0.1538 -0.7731  0.2444
   77TCq2    C3 1175   2.081   0.356  11.316  0.3200  0.8023 -0.4361
   77TCq2    C4 1176   2.137   0.251  11.248 -0.2938  0.8259 -0.3917
   77TCq2    C5 1177   2.271   0.225  11.256 -0.2331  0.9783  0.5357
   77TCq2    C6 1178   2.345   0.317  11.331  0.0964  0.2242 -0.2355
   77TCq2    C7 1179   2.288   0.415  11.409  0.2633  0.9500 -0.1623
   77TCq2    C8 1180   2.470   0.259  11.377  1.3076 -0.0026  0.0056
   77TCq2    O4 1181   2.555   0.230  11.294 -0.5523  0.5523  0.2582
   77TCq2    C9 1182   2.053   0.155  11.184 -0.7477  0.6948 -0.2551
   77TCq2    O5 1183   2.107   0.046  11.152  0.6882 -0.3444 -0.0887
   77TCq2    O6 1184   1.926   0.173  11.188  0.0796  0.2244  0.0017
   77TCq2    H2 1185   1.974   0.363  11.305  0.3144 -0.4876 -1.2049
   77TCq2    H3 1186   2.324   0.138  11.219  0.0044  1.1074  0.5680
   77TCq2    H4 1187   2.360   0.466  11.472  1.1336  0.3987 -0.7109
   78MPD1     C 1188   4.403   2.503   0.328 -0.8322  0.4328 -0.0256
   78MPD1    C1 1189   4.465   2.402   0.398  0.2822  0.3713 -0.2552
   78MPD1    C2 1190   4.408   2.354   0.513 -0.0777 -0.2391  0.6223
   78MPD1    C3 1191   4.276   2.394   0.550 -0.4092 -0.2583  0.1808
   78MPD1    C4 1192   4.215   2.489   0.474  0.8371  0.2065 -0.0289
   78MPD1    C5 1193   4.275   2.536   0.361 -0.0664 -0.0831  0.5511
   78MPD1     H 1194   4.464   2.289   0.578 -0.0321  0.3345  1.1595
   78MPD1    H1 1195   4.110   2.516   0.487  0.7233  0.1698 -0.9271
   78MPD1    H2 1196   4.457   2.553   0.248 -3.3722  3.0946 -0.0835
   78MPD1    H3 1197   4.209   2.595   0.298 -2.8630 -2.1472  1.5538
   78MPD1     N 1198   4.207   2.348   0.664 -0.4526  0.3264 -1.1934
   78MPD1    H5 1199   4.122   2.393   0.697  0.6886  0.0455  2.1642
   78MPD1    N1 1200   4.610   2.383   0.382  0.5511  0.2798 -0.6052
   78MPD1    H6 1201   4.633   2.286   0.404  1.0765  0.1027 -1.9524
   78MPD1    H7 1202   4.636   2.408   0.287 -0.3271  1.9691 -0.3854
   79TCq2    C1 1203   4.246   2.225   0.732  0.0302 -0.4489 -0.4635
   79TCq2    O2 1204   4.355   2.170   0.741 -0.1684  0.0351 -0.6146
   79TCq2    C2 1205   4.140   2.184   0.829  0.2677 -0.2328 -0.0450
   79TCq2    C3 1206   4.008   2.209   0.796 -1.0481  0.0089 -0.4763
   79TCq2    C4 1207   3.908   2.179   0.894  0.1000  0.2017  0.1196
   79TCq2    C5 1208   3.937   2.118   1.011 -0.4386  0.6013 -0.8635
   79TCq2    C6 1209   4.066   2.097   1.037  0.5674 -0.0289  0.4578
   79TCq2    C7 1210   4.166   2.125   0.947 -0.0394 -0.3466  0.2997
   79TCq2    C8 1211   4.104   1.982   1.123 -0.3095 -0.3084  0.3981
   79TCq2    O4 1212   4.220   1.964   1.143  0.1120 -0.2310 -0.3214
   79TCq2    C9 1213   3.773   2.211   0.865 -0.1689 -0.1999  1.2167
   79TCq2    O5 1214   3.681   2.173   0.942 -0.3153  0.5318 -0.4226
   79TCq2    O6 1215   3.764   2.291   0.768 -0.3865  0.3176 -0.1195
   79TCq2    H2 1216   3.969   2.251   0.704 -2.1226  0.4792  0.1829
   79TCq2    H3 1217   3.852   2.092   1.073  1.5867 -0.9801  1.2464
   79TCq2    H4 1218   4.268   2.118   0.982 -0.0892  0.1752  0.5475
   80MPD2     C 1219   0.102   0.715  12.855  0.0050  0.0525  0.1837
   80MPD2    C1 1220   0.145   0.648  12.745  0.1362 -0.2775 -0.1356
   80MPD2    C2 1221   0.060   0.572  12.671 -0.1845  0.2922  0.3714
   80MPD2    C3 1222   4.647   0.559  12.703  0.1489  0.1264 -0.6217
   80MPD2    C4 1223   4.614   0.620  12.822 -0.0054  0.2790 -0.5143
   80MPD2    C5 1224   4.696   0.699  12.893  0.4909  0.4260  0.7372
   80MPD2     H 1225   0.097   0.531  12.578 -0.9493  0.3899  0.0307
   80MPD2    H1 1226   4.510   0.616  12.855 -0.0765  0.1275 -0.7556
   80MPD2    H2 1227   0.166   0.778  12.916  0.5507  0.0036 -0.3428
   80MPD2    H3 1228   4.658   0.749  12.982  2.4550  0.9252  1.3154
   80MPD2     N 1229   4.550   0.482  12.625 -0.2880  0.0701  0.5314
   80MPD2    H5 1230   4.455   0.486  12.661 -0.1813  2.6609  0.5707
   80MPD2    N1 1231   0.279   0.661  12.699  0.7588  0.0298 -0.1124
   80MPD2    H7 1232   0.303   0.590  12.630 -0.5253 -0.2543 -0.2695
   81TCq2    C1 1233   0.366   0.768  12.728 -0.1038  0.0217  0.3313
   81TCq2    O2 1234   0.334   0.877  12.769 -0.3714  0.0562 -0.2607
   81TCq2    C2 1235   0.499   0.762  12.667 -0.0900 -1.0500 -0.0721
   81TCq2    C3 1236   0.558   0.879  12.642  0.4899  0.4843  0.3929
   81TCq2    C4 1237   0.669   0.877  12.556 -0.1782 -0.9698  0.8512
   81TCq2    C5 1238   0.730   0.761  12.523  0.4097  0.1939  0.0653
   81TCq2    C6 1239   0.675   0.637  12.566 -0.2441 -0.2124  0.4199
   81TCq2    C7 1240   0.551   0.642  12.635 -0.5101 -0.0689 -0.5737
   81TCq2    C8 1241   0.751   0.520  12.536  0.1930  0.1738 -1.2571
   81TCq2    O4 1242   0.868   0.527  12.505 -0.5991  0.4849  0.4650
   81TCq2    C9 1243   0.729   1.003  12.509 -1.1330  0.6457 -0.3677
   81TCq2    O5 1244   0.650   1.102  12.495  0.6044  0.5801  0.3035
   81TCq2    O6 1245   0.841   0.998  12.451  0.0024  0.2874 -0.7197
   81TCq2    H2 1246   0.510   0.970  12.676  1.5670  1.0474  0.4011
   81TCq2    H3 1247   0.824   0.764  12.470 -0.4138 -0.1497 -1.3957
   81TCq2    H4 1248   0.503   0.558  12.684  0.0836 -0.3550 -0.4768
   82MPD2     C 1249   3.691   4.269  10.136  0.0663 -0.2370 -0.3440
   82MPD2    C1 1250   3.684   4.128  10.114  0.9061 -0.6179 -0.1327
   82MPD2    C2 1251   3.753   4.040  10.199  0.5431 -0.3112  0.4653
   82MPD2    C3 1252   3.813   4.090  10.309 -0.5026  0.3309 -0.3625
   82MPD2    C4 1253   3.808   4.220  10.336 -0.2222 -0.0594  0.0351
   82MPD2    C5 1254   3.741   4.305  10.257  0.2164 -0.4762  0.5689
   82MPD2     H 1255   3.759   3.935  10.171 -0.0526  0.8914 -4.1797
   82MPD2    H1 1256   3.856   4.262  10.423  1.3945 -1.4286 -0.2153
   82MPD2    H2 1257   3.646   4.342  10.070 -0.7038 -0.2793  0.1368
   82MPD2    H3 1258   3.742   4.410  10.284 -0.0654 -0.9823  2.5809
   82MPD2     N 1259   3.879   4.005  10.396 -0.1379 -0.2029  0.1709
   82MPD2    H5 1260   3.912   4.046  10.483  0.1290  0.4017 -0.2210
   82MPD2    N1 1261   3.592   4.091  10.014 -0.4061  0.5192 -0.2743
   82MPD2    H7 1262   3.536   4.169   9.982  0.3299  0.3581 -1.9578
   83TCq2    C1 1263   3.866   3.867  10.407 -0.7039 -0.0316  1.0656
   83TCq2    O2 1264   3.798   3.793  10.340 -0.4854  0.0733  0.7789
   83TCq2    C2 1265   3.931   3.814  10.528 -0.4673 -0.8114 -0.4963
   83TCq2    C3 1266   4.038   3.886  10.572  0.3384  0.3169 -0.2411
   83TCq2    C4 1267   4.086   3.863  10.696 -0.1369 -0.3719 -0.4068
   83TCq2    C5 1268   4.024   3.773  10.776  0.5949  0.6671 -0.1996
   83TCq2    C6 1269   3.911   3.709  10.735 -0.0675  0.2423 -0.6822
   83TCq2    C7 1270   3.853   3.729  10.610 -0.2361  0.5017  0.2028
   83TCq2    C8 1271   3.863   3.604  10.827 -0.1429  0.1118  0.1927
   83TCq2    O4 1272   3.895   3.604  10.944  0.2579 -0.6321 -0.1909
   83TCq2    C9 1273   4.205   3.936  10.741  0.2456 -0.5757  1.3673
   83TCq2    O5 1274   4.251   3.922  10.861  0.1520 -0.9511  0.7194
   83TCq2    O6 1275   4.225   4.050  10.681  0.5049 -0.1697  0.1251
   83TCq2    H2 1276   4.085   3.957  10.505 -1.3081  0.4827 -1.2177
   83TCq2    H3 1277   4.062   3.749  10.875  1.2245 -0.9088 -0.8277
   83TCq2    H4 1278   3.764   3.678  10.575  0.5049 -0.6224 -0.0468
   84TCq2    C1 1279   1.009   2.701  10.618 -0.6105  0.6355 -0.2662
   84TCq2    O2 1280   0.893   2.677  10.629  0.5812 -0.2879 -0.1416
   84TCq2    C2 1281   1.091   2.704  10.742  0.1536 -0.2955  0.2333
   84TCq2    C3 1282   1.227   2.729  10.742 -0.1955 -0.9886 -0.1293
   84TCq2    C4 1283   1.284   2.765  10.861  0.0703 -0.7608 -0.1589
   84TCq2    C5 1284   1.221   2.759  10.978 -0.0138  0.2519  0.1733
   84TCq2    C6 1285   1.086   2.744  10.970 -0.2729 -0.3922 -0.1130
   84TCq2    C7 1286   1.019   2.725  10.855  0.3013 -0.0365  0.0460
   84TCq2    C8 1287   1.003   2.760  11.088 -0.4588  0.2615  0.0129
   84TCq2    O4 1288   0.879   2.748  11.082  0.4685  0.4109 -0.1878
   84TCq2    C9 1289   1.428   2.802  10.867  0.6527 -0.7159  0.3616
   84TCq2    O5 1290   1.491   2.767  10.973 -0.5777  0.3078  0.4141
   84TCq2    O6 1291   1.478   2.837  10.754 -0.1832 -0.3746 -0.2632
   84TCq2    H2 1292   1.290   2.723  10.654 -0.4126 -0.4153 -0.3283
   84TCq2    H3 1293   1.279   2.780  11.067 -0.0099  1.0836 -0.0294
   84TCq2    H4 1294   0.910   2.724  10.864  0.4188  0.6139  1.5515
   85MPD2     C 1295   0.976   1.048  16.383  0.3190  0.0070  0.4865
   85MPD2    C1 1296   0.879   1.074  16.284  0.2161  0.1165 -0.6376
   85MPD2    C2 1297   0.903   1.181  16.196  0.0390 -0.1484  0.3206
   85MPD2    C3 1298   1.010   1.268  16.213  1.0463 -0.4148  0.4883
   85MPD2    C4 1299   1.103   1.240  16.316  0.5460 -0.3092  0.2787
   85MPD2    C5 1300   1.080   1.130  16.402  0.3414 -0.0889  0.2879
   85MPD2     H 1301   0.846   1.201  16.107 -0.8155 -0.4125  0.8127
   85MPD2    H1 1302   1.190   1.299  16.341  1.6509 -1.9160  0.2153
   85MPD2    H2 1303   0.973   0.964  16.452  2.0262 -0.9743 -0.6187
   85MPD2    H3 1304   1.158   1.106  16.474  2.5375  3.6816 -0.8019
   85MPD2     N 1305   1.029   1.375  16.121  0.6118  0.0559  0.5059
   85MPD2    H5 1306   0.965   1.388  16.044  0.3482 -1.2997  0.4859
   85MPD2    N1 1307   0.769   0.992  16.260  0.2520  0.3362  0.1583
   85MPD2    H7 1308   0.703   1.025  16.189  0.3877  0.6085  0.1609
   86TCq2    C1 1309   1.129   1.473  16.124 -0.0707 -0.4374  0.5657
   86TCq2    O2 1310   1.208   1.507  16.211 -0.0482  0.4485 -0.1625
   86TCq2    C2 1311   1.127   1.553  16.003  0.7802  0.1618  0.2262
   86TCq2    C3 1312   1.187   1.670  16.022  0.3080 -0.0268  0.6417
   86TCq2    C4 1313   1.207   1.750  15.907 -0.2149  0.5445 -0.0074
   86TCq2    C5 1314   1.171   1.705  15.780 -1.0543  0.4095  0.0410
   86TCq2    C6 1315   1.116   1.580  15.774 -0.0351  0.1661  0.3439
   86TCq2    C7 1316   1.096   1.502  15.889 -0.2090  0.1305 -0.0986
   86TCq2    C8 1317   1.112   1.514  15.645  0.1386  0.0189 -0.4947
   86TCq2    O4 1318   1.053   1.407  15.652  0.5659 -1.0333 -0.3331
   86TCq2    C9 1319   1.261   1.884  15.912  0.7092  0.4759  0.8043
   86TCq2    O5 1320   1.271   1.934  16.025  0.2011 -0.7517  0.4710
   86TCq2    O6 1321   1.304   1.930  15.800 -0.1659 -0.3039  0.5647
   86TCq2    H2 1322   1.233   1.699  16.116 -2.7369  1.1354  1.7481
   86TCq2    H3 1323   1.161   1.780  15.703  0.6491 -0.7973 -1.3443
   86TCq2    H4 1324   1.068   1.398  15.879 -1.3005  0.2548  1.5841
   87MPD2     C 1325   2.866   4.422   1.331 -0.3014  0.3896  0.0281
   87MPD2    C1 1326   2.973   4.450   1.419 -0.1729  0.6664  0.4677
   87MPD2    C2 1327   2.983   4.575   1.473  0.0245  0.1550  0.0413
   87MPD2    C3 1328   2.885   4.676   1.444 -0.0771 -0.3262 -0.8844
   87MPD2    C4 1329   2.777   4.632   1.377 -0.4234  0.2630  0.1669
   87MPD2    C5 1330   2.767   4.509   1.333 -0.2215 -0.1201  0.4444
   87MPD2     H 1331   3.068   4.605   1.534  1.5098 -0.1404 -1.8776
   87MPD2    H1 1332   2.695   4.702   1.366  0.6590  1.3684 -0.7954
   87MPD2    H2 1333   2.858   4.329   1.275  1.2160  0.1440  0.2103
   87MPD2    H3 1334   2.681   4.482   1.273 -1.4508  3.7184  0.4990
   87MPD2     N 1335   2.882   0.088   1.487  0.6391  0.0628  0.8203
   87MPD2    H5 1336   2.794   0.139   1.490  0.9091  0.4257  2.7119
   87MPD2    N1 1337   3.071   4.359   1.440  0.2101 -0.0920  0.0104
   87MPD2    H7 1338   3.079   4.280   1.376  0.6745  1.0548 -1.3397
   88TCq2    C1 1339   3.173   4.371   1.535  0.4433  0.4792  0.2392
   88TCq2    O2 1340   3.186   4.450   1.624 -0.9687  0.7747 -0.4113
   88TCq2    C2 1341   3.284   4.290   1.503 -0.4880  0.0165  0.8387
   88TCq2    C3 1342   3.395   4.304   1.585  0.5636 -0.0731 -0.3914
   88TCq2    C4 1343   3.524   4.293   1.543 -0.0716  0.2729 -0.1731
   88TCq2    C5 1344   3.538   4.271   1.408 -0.2256  0.3331 -0.0861
   88TCq2    C6 1345   3.428   4.250   1.328 -0.0094  0.1577 -0.3006
   88TCq2    C7 1346   3.300   4.263   1.368  0.0909 -0.6015 -0.9414
   88TCq2    C8 1347   3.456   4.233   1.189 -0.1611  0.0096  0.0327
   88TCq2    O4 1348   3.533   4.315   1.146 -0.0994 -0.0748 -0.2043
   88TCq2    C9 1349   3.627   4.333   1.638  0.2235 -0.4516  0.4399
   88TCq2    O5 1350   3.743   4.348   1.592  0.0318 -0.0328 -0.0455
   88TCq2    O6 1351   3.588   4.341   1.763  0.5499 -0.1919 -1.1201
   88TCq2    H2 1352   3.377   4.337   1.686  0.3112  1.4363 -0.9263
   88TCq2    H3 1353   3.632   4.270   1.356  0.0610  0.0785  0.4350
   88TCq2    H4 1354   3.226   4.259   1.288  0.0249  2.6504 -1.0297
   89MPD2     C 1355   3.021   3.079   2.166 -0.2931 -0.5205  0.2483
   89MPD2    C1 1356   2.990   3.118   2.035 -0.8670 -0.2009  0.3669
   89MPD2    C2 1357   3.097   3.153   1.950 -0.1850 -0.2234  0.5697
   89MPD2    C3 1358   3.222   3.159   1.999  0.3577  0.4174  0.0933
   89MPD2    C4 1359   3.254   3.117   2.133  0.5451  0.1155 -0.4955
   89MPD2    C5 1360   3.147   3.082   2.215  0.2836  0.1326  0.1916
   89MPD2     H 1361   3.085   3.170   1.844  1.1066  0.9183  0.6114
   89MPD2    H1 1362   3.355   3.131   2.169  0.3522  0.1012  0.0573
   89MPD2    H2 1363   2.942   3.057   2.238 -1.1685 -2.2369 -1.2560
   89MPD2    H3 1364   3.173   3.053   2.316 -2.9087  0.9966  1.2290
   89MPD2     N 1365   3.313   3.206   1.905  0.1354 -0.0072 -0.2800
   89MPD2    H5 1366   3.269   3.228   1.816  0.0555 -0.1596 -0.2776
   89MPD2    N1 1367   2.859   3.131   1.989  0.0013  0.1146  0.6980
   89MPD2    H7 1368   2.841   3.137   1.889 -1.2495  1.9940  1.0563
   90TCq2    C1 1369   3.448   3.201   1.920 -0.1153  0.1813 -0.9360
   90TCq2    O2 1370   3.513   3.180   2.018 -0.4599  0.0844 -0.0798
   90TCq2    C2 1371   3.519   3.197   1.788 -0.2120 -0.3347  0.2195
   90TCq2    C3 1372   3.656   3.210   1.791 -0.2743 -0.3529 -0.4131
   90TCq2    C4 1373   3.724   3.213   1.673  0.5789  0.0454 -0.2532
   90TCq2    C5 1374   3.652   3.202   1.556  0.1535 -0.5767 -0.3991
   90TCq2    C6 1375   3.517   3.189   1.559 -0.2093 -0.4498  0.2040
   90TCq2    C7 1376   3.443   3.183   1.678 -0.0336 -0.7617  0.6966
   90TCq2    C8 1377   3.440   3.184   1.434  0.0951 -0.2684 -0.4186
   90TCq2    O4 1378   3.322   3.165   1.444  0.1528  0.2760  0.0872
   90TCq2    C9 1379   3.861   3.237   1.668  0.0565 -0.3624  0.3038
   90TCq2    O5 1380   3.913   3.243   1.556 -0.6047 -0.0580  1.0333
   90TCq2    O6 1381   3.915   3.251   1.785 -0.1541 -0.1377 -0.0671
   90TCq2    H2 1382   3.706   3.219   1.887 -1.3377  0.5060  0.0525
   90TCq2    H3 1383   3.713   3.215   1.467 -0.4080  1.6814 -0.4326
   90TCq2    H4 1384   3.343   3.144   1.669 -0.2916  0.2858 -0.8915
   91TMC2    C1 1385   0.927   1.916  16.642  0.3225  0.3922  0.9938
   91TMC2    C2 1386   0.977   1.876  16.523  0.4353  0.5808  0.1257
   91TMC2    C3 1387   0.890   1.841  16.423 -0.1694 -0.3261  0.3232
   91TMC2    C4 1388   0.796   1.903  16.670  0.2556  0.6626  1.0934
   91TMC2    C5 1389   0.712   1.860  16.575 -0.2659  0.4083  0.0402
   91TMC2    C6 1390   0.755   1.840  16.445  0.2364 -0.0200 -0.4384
   91TMC2     C 1391   1.020   1.944  16.748 -1.5458  0.4050  0.0678
   91TMC2     O 1392   0.986   1.940  16.867  0.0951 -0.5182 -0.1837
   91TMC2     H 1393   1.082   1.859  16.502 -0.3143  0.0069 -3.1352
   91TMC2    H1 1394   0.754   1.926  16.767 -0.6307  2.5592  0.2677
   91TMC2    H2 1395   0.694   1.783  16.376 -0.6116 -2.1029  2.0346
   91TMC2    C7 1396   0.569   1.879  16.607  0.3387  0.1217  0.4286
   91TMC2    C8 1397   0.944   1.819  16.291  0.3323  0.3123 -0.1769
   91TMC2    O1 1398   0.524   1.864  16.720  0.2611 -0.1684 -0.1420
   91TMC2    O2 1399   1.064   1.816  16.270 -0.4573  0.0089 -0.2296
   91TMC2    O5 1400   0.853   1.854  16.199 -0.5052  0.0983  0.4742
   91TMC2    H5 1401   0.759   1.858  16.224 -1.3942 -0.5309 -2.7654
   92MPD2     C 1402   1.255   2.015  16.891 -0.7808 -0.0825 -0.1240
   92MPD2    C1 1403   1.256   2.012  16.754 -0.5625  0.0378 -0.1922
   92MPD2    C2 1404   1.372   2.035  16.685 -0.3428  0.0284  1.0117
   92MPD2    C3 1405   1.487   2.063  16.754 -0.8505  0.3394  0.3874
   92MPD2    C4 1406   1.490   2.052  16.888 -0.6153  0.3999  0.3421
   92MPD2    C5 1407   1.375   2.026  16.952  0.2804 -0.1421  0.3967
   92MPD2     H 1408   1.362   2.043  16.578  1.9955 -0.9806  0.7106
   92MPD2    H1 1409   1.585   2.063  16.940 -0.0015  2.1775 -1.1219
   92MPD2    H2 1410   1.172   2.016  16.960 -2.2214 -2.2206 -1.7903
   92MPD2    H3 1411   1.367   2.038  17.060  0.4410 -0.1886  0.4134
   92MPD2     N 1412   1.600   2.087  16.681 -0.6339  0.3061 -0.5873
   92MPD2    H5 1413   1.584   2.085  16.581 -0.5640  0.6227 -0.6043
   92MPD2    N1 1414   1.137   1.990  16.691 -0.1798 -0.0332 -0.1239
   92MPD2    H7 1415   1.131   2.008  16.591 -1.4056 -1.1955 -0.2563
   93MPD2     C 1416   2.216   2.271  13.569  0.2222 -0.2337 -0.2159
   93MPD2    C1 1417   2.187   2.394  13.630 -0.3550 -0.0625 -0.0424
   93MPD2    C2 1418   2.062   2.406  13.691  0.4045  0.3583  0.1092
   93MPD2    C3 1419   1.968   2.304  13.704 -0.4304 -1.1416  0.1042
   93MPD2    C4 1420   1.997   2.193  13.632 -0.7259  0.1580 -1.1086
   93MPD2    C5 1421   2.113   2.179  13.556  0.4699 -0.5093 -0.0138
   93MPD2     H 1422   2.055   2.502  13.741 -1.7380  0.9630 -1.3455
   93MPD2    H1 1423   1.922   2.115  13.637  3.0071 -3.2972  1.2984
   93MPD2    H2 1424   2.316   2.257  13.530 -0.4176 -1.5040 -1.4138
   93MPD2    H3 1425   2.126   2.088  13.498 -0.8442 -0.6219 -0.1359
   93MPD2     N 1426   1.840   2.312  13.761  0.2156  0.3350  0.0240
   93MPD2    H5 1427   1.776   2.233  13.753  1.0325 -0.2121 -1.1016
   93MPD2    N1 1428   2.286   2.489  13.659  0.4420  0.4769  0.6305
   93MPD2    H7 1429   2.258   2.567  13.717  0.1671  0.5787  0.3667
   94TCq2    C1 1430   2.403   2.505  13.581  0.1655 -0.1600 -0.8242
   94TCq2    O2 1431   2.444   2.443  13.484 -0.1164  0.4907  0.5081
   94TCq2    C2 1432   2.513   2.573  13.644 -0.3846  0.3796  0.4355
   94TCq2    C3 1433   2.504   2.589  13.783  1.1308 -0.3191 -0.3478
   94TCq2    C4 1434   2.617   2.637  13.847 -0.1282 -0.0058 -0.3447
   94TCq2    C5 1435   2.736   2.657  13.786 -0.2206 -0.5433  0.3886
   94TCq2    C6 1436   2.748   2.628  13.652 -0.2212  0.3575 -0.3947
   94TCq2    C7 1437   2.635   2.589  13.582  0.3942  0.1090 -0.2769
   94TCq2    C8 1438   2.884   2.590  13.606 -0.1300 -0.0351 -0.3147
   94TCq2    O4 1439   2.972   2.583  13.689  0.2126 -0.2628  0.2833
   94TCq2    C9 1440   2.605   2.692  13.987 -0.8310 -0.9320 -0.0821
   94TCq2    O5 1441   2.500   2.653  14.040  0.1509 -0.0532  0.3160
   94TCq2    O6 1442   2.682   2.782  14.034  0.1063  0.1020 -0.3335
   94TCq2    H2 1443   2.411   2.586  13.839  1.5180  0.1408  0.3106
   94TCq2    H3 1444   2.828   2.675  13.840  0.9028  1.3902 -2.1302
   94TCq2    H4 1445   2.634   2.566  13.476 -2.0382 -0.9886  0.0010
   95TMC2    C1 1446   2.281   3.731  15.722 -0.0533  0.2805  0.2186
   95TMC2    C2 1447   2.332   3.608  15.746  0.3417 -0.3642  0.2197
   95TMC2    C3 1448   2.248   3.507  15.762  0.2631  0.2839  0.4494
   95TMC2    C4 1449   2.150   3.747  15.691  0.9605 -0.0846  0.3712
   95TMC2    C5 1450   2.066   3.644  15.723  0.2967 -0.5089  0.3764
   95TMC2    C6 1451   2.113   3.519  15.755 -0.3845  0.3130 -0.3514
   95TMC2     C 1452   2.386   3.828  15.679 -0.5892 -0.0138  0.6503
   95TMC2     O 1453   2.504   3.797  15.672  0.4578 -0.3702  0.1267
   95TMC2     H 1454   2.436   3.596  15.773  0.2367 -0.4346  0.5838
   95TMC2    H1 1455   2.112   3.847  15.678 -2.5407 -1.6104 -1.0017
   95TMC2    H2 1456   2.045   3.436  15.775 -1.3279  1.5214  1.4898
   95TMC2    C7 1457   1.922   3.662  15.744  0.2190 -0.3944 -0.6519
   95TMC2    C8 1458   2.308   3.371  15.775 -0.3834 -0.5961  0.1322
   95TMC2    O1 1459   1.854   3.563  15.734 -0.0590  0.1408  0.0163
   95TMC2    O2 1460   2.407   3.351  15.843 -0.2906 -0.0136 -0.1885
   95TMC2    O5 1461   2.217   3.277  15.729  0.2278 -0.3037  0.0769
   95TMC2    H5 1462   2.161   3.324  15.663 -0.9947 -0.7463  0.7941
   96MPD2     C 1463   2.545   4.310  15.591 -0.7644 -0.4613  0.7488
   96MPD2    C1 1464   2.608   4.189  15.565 -0.7024  0.3651  0.2816
   96MPD2    C2 1465   2.541   4.067  15.589 -0.1235  0.4553 -0.3746
   96MPD2    C3 1466   2.413   4.066  15.645 -0.7826  0.6130 -0.4996
   96MPD2    C4 1467   2.357   4.196  15.678 -0.1525 -0.1997 -0.0672
   96MPD2    C5 1468   2.430   4.308  15.651  0.1081 -0.9613 -0.4797
   96MPD2     H 1469   2.590   3.973  15.567 -0.1200  0.0572  1.3183
   96MPD2    H1 1470   2.255   4.211  15.711  0.9668  0.7709  2.8999
   96MPD2    H2 1471   2.602   4.402  15.585 -0.8959 -0.3556  1.1117
   96MPD2    H3 1472   2.376   4.401  15.659 -0.1851 -1.0235 -1.7603
   96MPD2     N 1473   2.335   3.954  15.682 -0.3640 -0.1595 -0.4128
   96MPD2    H5 1474   2.245   3.974  15.724  0.3740  1.1303  0.5487
   96MPD2    N1 1475   2.741   4.198  15.520 -0.3496  0.0552  0.1500
   96MPD2    H7 1476   2.778   4.293  15.523  0.0774 -0.1238  0.6145
   97MPD2     C 1477   0.009   1.620   0.935 -0.3350 -0.6103 -0.0470
   97MPD2    C1 1478   0.005   1.749   0.882  0.7366  0.3959 -0.4873
   97MPD2    C2 1479   4.705   1.767   0.749  0.4432 -0.0702 -0.1343
   97MPD2    C3 1480   4.689   1.663   0.661  0.0028  0.1718  0.4520
   97MPD2    C4 1481   4.692   1.540   0.715  0.6493 -0.1951 -0.4629
   97MPD2    C5 1482   4.715   1.516   0.847 -0.1094  0.6278 -0.4020
   97MPD2     H 1483   4.715   1.867   0.708  1.5151 -0.5530 -1.0531
   97MPD2    H1 1484   4.676   1.448   0.661  1.7132 -0.9251  0.4469
   97MPD2    H2 1485   0.035   1.600   1.038  0.6291  0.2355 -0.1220
   97MPD2    H3 1486   4.720   1.414   0.885 -2.9296  0.5622 -0.2380
   97MPD2     N 1487   4.667   1.672   0.522 -0.1884  0.5176 -0.6263
   97MPD2    H5 1488   4.644   1.589   0.469  0.2689 -0.3609  0.5648
   97MPD2    N1 1489   0.013   1.862   0.971  0.5006  0.6758 -0.2448
   97MPD2    H7 1490   0.049   1.852   1.066 -0.1593  1.6293  0.1025
   98TCq2    C1 1491   4.698   1.785   0.449  0.2880 -0.1515  0.2270
   98TCq2    O2 1492   0.040   1.879   0.484  0.2941  0.8375  0.0469
   98TCq2    C2 1493   4.681   1.769   0.302 -0.3179  0.1912 -0.1445
   98TCq2    C3 1494   4.576   1.699   0.254 -0.5779 -0.4991  0.1372
   98TCq2    C4 1495   4.529   1.729   0.132 -0.0175  0.3313 -0.3235
   98TCq2    C5 1496   4.569   1.837   0.058 -0.7903  0.0395  0.7313
   98TCq2    C6 1497   4.674   1.906   0.109 -0.3890 -0.6426  0.0736
   98TCq2    C7 1498   0.016   1.864   0.220  0.4333 -0.4267 -0.0864
   98TCq2    C8 1499   4.708   2.033   0.050 -0.2234  0.9248  0.4277
   98TCq2    O4 1500   0.100   2.062   0.013  0.5000  0.2362  0.8343
   98TCq2    C9 1501   4.431   1.644   0.070  0.4867  0.2459  0.2350
   98TCq2    O5 1502   4.347   1.588   0.136 -0.3534  0.0602 -0.2025
   98TCq2    O6 1503   4.423   1.660  17.645  0.0476 -0.4463 -0.5480
   98TCq2    H2 1504   4.528   1.618   0.308  0.3477  0.1135  1.8604
   98TCq2    H3 1505   4.532   1.859  17.660 -1.1545 -0.3650  0.7777
   98TCq2    H4 1506   0.084   1.935   0.267 -2.8575  1.1850  2.2285
   99MPD2     C 1507   3.622   3.602   1.824 -0.0544 -0.1409 -0.0695
   99MPD2    C1 1508   3.491   3.643   1.831  0.1046  0.0220 -0.0386
   99MPD2    C2 1509   3.414   3.630   1.717 -0.1557 -0.6588 -0.9750
   99MPD2    C3 1510   3.457   3.576   1.597 -0.0686 -0.2695 -0.6606
   99MPD2    C4 1511   3.587   3.527   1.599 -0.5965 -0.3042  0.4647
   99MPD2    C5 1512   3.666   3.540   1.708 -0.2988 -0.4861 -0.2415
   99MPD2     H 1513   3.310   3.662   1.723 -0.9232 -3.1322 -1.2179
   99MPD2    H1 1514   3.634   3.486   1.510 -1.5116 -0.7464  0.1855
   99MPD2    H2 1515   3.690   3.621   1.906 -0.6585  2.1410 -0.0758
   99MPD2    H3 1516   3.771   3.515   1.700 -0.5638 -2.0296  1.1577
   99MPD2     N 1517   3.375   3.586   1.484 -0.1303 -0.0918 -0.0772
   99MPD2    H5 1518   3.275   3.600   1.495 -0.4085 -2.4619  0.4426
   99MPD2    N1 1519   3.431   3.703   1.947 -0.6767 -0.0746 -0.5613
   99MPD2    H7 1520   3.334   3.735   1.945 -0.3807  0.5465 -4.9566
  100TCq2    C1 1521   3.504   3.733   2.061 -0.3291 -0.0169 -0.9521
  100TCq2    O2 1522   3.623   3.734   2.080 -0.5311  0.5902  0.1067
  100TCq2    C2 1523   3.418   3.787   2.170  0.3133  0.1062 -0.1912
  100TCq2    C3 1524   3.469   3.791   2.297 -0.1146  0.2622 -0.2676
  100TCq2    C4 1525   3.397   3.836   2.401 -0.4938  0.1201 -0.2736
  100TCq2    C5 1526   3.269   3.879   2.377  0.2455 -0.3528 -0.0325
  100TCq2    C6 1527   3.214   3.866   2.246 -0.1339 -0.3762 -0.2188
  100TCq2    C7 1528   3.292   3.837   2.139  0.4340  0.0054  0.8100
  100TCq2    C8 1529   3.081   3.932   2.230 -0.2871  0.2320  0.3900
  100TCq2    O4 1530   3.062   4.022   2.308  0.1711 -0.3652 -0.7576
  100TCq2    C9 1531   3.450   3.823   2.537  0.6197 -0.4450 -0.6099
  100TCq2    O5 1532   3.559   3.770   2.564  1.1860  0.0371 -0.5274
  100TCq2    O6 1533   3.368   3.854   2.627 -0.0686  0.1465 -0.2633
  100TCq2    H2 1534   3.567   3.757   2.325  0.1447  0.4520 -0.9615
  100TCq2    H3 1535   3.209   3.912   2.460 -0.9751 -3.1928  0.1987
  100TCq2    H4 1536   3.249   3.852   2.040 -0.0083  0.0945  1.0153
  101MPD2     C 1537   3.795   4.694  12.851  0.1280  0.0011  0.4383
  101MPD2    C1 1538   3.667   0.008  12.868 -0.0020 -0.0515 -0.3596
  101MPD2    C2 1539   3.592   4.675  12.973 -0.5652 -0.1884 -0.0730
  101MPD2    C3 1540   3.656   4.577  13.048 -0.2350  0.1822 -0.0325
  101MPD2    C4 1541   3.785   4.538  13.018 -0.1150 -0.7922 -0.0257
  101MPD2    C5 1542   3.854   4.595  12.916  0.3954 -0.0979 -0.2659
  101MPD2     H 1543   3.485   4.696  12.975 -0.6338 -0.5675  0.1582
  101MPD2    H1 1544   3.833   4.455  13.069  1.2189  0.3721  0.6050
  101MPD2    H2 1545   3.861   0.002  12.771 -1.1124  0.0963 -0.5508
  101MPD2    H3 1546   3.950   4.556  12.885 -0.5266 -0.0092 -3.2124
  101MPD2     N 1547   3.584   4.500  13.143 -0.0084  0.0232 -0.1986
  101MPD2    H5 1548   3.645   4.437  13.194  0.6670  0.7109 -0.1711
  101MPD2    N1 1549   3.626   0.109  12.780 -0.0048 -0.4546 -0.6454
  101MPD2    H7 1550   3.696   0.138  12.713  2.1724 -4.0242  0.0618
  102TCq2    C1 1551   3.715   0.424  12.425 -0.3538 -0.1810 -0.1250
  102TCq2    O2 1552   3.828   0.429  12.468  0.0844  0.4539 -0.3293
  102TCq2    C2 1553   3.602   0.407  12.509  0.0929  0.3009 -0.3994
  102TCq2    C3 1554   3.494   0.486  12.489 -0.1294  0.3259 -0.0917
  102TCq2    C4 1555   3.386   0.468  12.571  0.3399  0.0015  0.1971
  102TCq2    C5 1556   3.396   0.374  12.677  0.2567 -0.1495  0.0849
  102TCq2    C6 1557   3.508   0.299  12.693  0.2105  0.3788  0.3158
  102TCq2    C7 1558   3.616   0.324  12.615  0.1097  0.1432  0.5608
  102TCq2    C8 1559   3.514   0.182  12.787 -0.4459 -0.0370  0.1387
  102TCq2    O4 1560   3.425   0.169  12.866 -0.0444 -0.1271 -0.5876
  102TCq2    C9 1561   3.261   0.532  12.551  0.1883  0.9910 -0.9063
  102TCq2    O5 1562   3.257   0.626  12.465 -0.0443  0.4351  0.6548
  102TCq2    O6 1563   3.163   0.515  12.630  0.0590  0.1754  0.1187
  102TCq2    H2 1564   3.485   0.555  12.406 -0.8107 -0.5482 -0.7489
  102TCq2    H3 1565   3.314   0.371  12.748  0.4940  2.0065  0.4521
  102TCq2    H4 1566   3.713   0.281  12.636  0.2139 -0.2250 -0.6399
  103TMC2    C1 1567   2.461   4.624  12.094 -0.7437 -0.0852 -0.2728
  103TMC2    C2 1568   2.551   4.517  12.112 -0.5394  0.2143 -0.5113
  103TMC2    C3 1569   2.568   4.470  12.243 -0.1170 -0.0807  0.7183
  103TMC2    C4 1570   2.413   4.688  12.204  0.2401 -0.3526 -0.5460
  103TMC2    C5 1571   2.438   4.635  12.330  0.7273 -0.6488 -0.0872
  103TMC2    C6 1572   2.508   4.520  12.349  0.9714 -1.2022 -0.1449
  103TMC2     C 1573   2.456   4.683  11.959  0.3225 -0.1824 -0.5388
  103TMC2     O 1574   2.359   0.024  11.936 -0.2990 -0.2830  0.0078
  103TMC2     H 1575   2.565   4.442  12.035  0.0901  0.1637 -0.3445
  103TMC2    H1 1576   2.354   0.052  12.184  1.5082  0.1380 -2.0805
  103TMC2    H2 1577   2.541   4.495  12.449  0.6544  2.0031  0.7567
  103TMC2    C7 1578   2.395   4.708  12.443  0.7316 -0.2663  0.0751
  103TMC2    C8 1579   2.663   4.375  12.277 -0.3321 -0.3039  0.5851
  103TMC2    O1 1580   2.377   4.648  12.546 -0.4768  0.4319 -0.4449
  103TMC2    O2 1581   2.657   4.304  12.376  0.1270 -0.0860  0.0566
  103TMC2    O5 1582   2.773   4.425  12.221  0.2576 -0.2352  0.3654
  103TMC2    H5 1583   2.759   4.492  12.151  0.9716 -1.4796 -0.9642
  104MPD2     C 1584   2.739   0.000  11.725  1.0196 -0.1221  0.8615
  104MPD2    C1 1585   2.609   0.022  11.773  0.9067  0.1791  0.1973
  104MPD2    C2 1586   2.535   0.116  11.707 -0.4673 -0.0636 -0.1427
  104MPD2    C3 1587   2.558   0.152  11.582 -0.2725  0.2901 -0.7233
  104MPD2    C4 1588   2.682   0.119  11.531 -0.0006  0.1878 -0.3256
  104MPD2    C5 1589   2.776   0.046  11.602  0.4870  0.1553 -0.1209
  104MPD2     H 1590   2.437   0.135  11.750 -0.5597 -1.1277  0.1104
  104MPD2    H1 1591   2.712   0.151  11.432 -1.8538  1.4155 -0.4989
  104MPD2    H2 1592   2.805   4.660  11.779  0.3882 -1.1197  0.4411
  104MPD2    H3 1593   2.873   0.013  11.565  0.3641  0.6862 -0.9200
  104MPD2     N 1594   2.457   0.223  11.508 -0.9798 -0.0255  0.3044
  104MPD2    H5 1595   2.371   0.247  11.555 -1.6542 -1.0357 -0.4037
  104MPD2    N1 1596   2.578   4.683  11.897 -0.2898  0.4888  0.1967
  104MPD2    H7 1597   2.659   4.637  11.938  0.1655  1.1460  0.0504
  105MPD2     C 1598   4.264   4.079  17.510 -0.0716 -0.2364 -0.1502
  105MPD2    C1 1599   4.170   4.183  17.513  0.2176 -0.2244  0.3346
  105MPD2    C2 1600   4.109   4.210  17.632  0.7176  0.0354  0.1839
  105MPD2    C3 1601   4.136   4.141   0.050  0.4412  0.4654 -0.6805
  105MPD2    C4 1602   4.240   4.046   0.047 -0.3160 -0.3545  0.4280
  105MPD2    C5 1603   4.301   4.021  17.630 -0.0435  0.2284 -0.4585
  105MPD2     H 1604   4.024   4.277  17.636 -0.9492 -1.9277 -2.4003
  105MPD2    H1 1605   4.281   4.002   0.137  0.7134 -0.0819  0.0921
  105MPD2    H2 1606   4.322   4.054  17.422 -2.2810 -0.3321 -1.5900
  105MPD2    H3 1607   4.382   3.950  17.620 -1.7132 -1.3368 -2.8474
  105MPD2     N 1608   4.055   4.166   0.165 -0.9051 -0.9120  0.3626
  105MPD2    H5 1609   3.978   4.231   0.160  0.6789  0.5989 -4.6837
  105MPD2    N1 1610   4.117   4.244  17.393  0.3183  0.6238  0.0710
  105MPD2    H7 1611   4.047   4.317  17.406 -2.9734 -2.4824 -0.3859
  106TCq2    C1 1612   4.071   4.096   0.280 -0.3330 -0.0664 -0.5985
  106TCq2    O2 1613   4.115   3.984   0.307 -0.2188  0.1914 -0.0488
  106TCq2    C2 1614   3.988   4.159   0.379  0.4256 -0.2879 -0.4667
  106TCq2    C3 1615   3.967   4.293   0.379  0.0902 -0.4518  0.4601
  106TCq2    C4 1616   3.876   4.350   0.464 -0.0260  0.2032  0.1647
  106TCq2    C5 1617   3.798   4.274   0.546  0.1597 -0.8658 -0.1392
  106TCq2    C6 1618   3.820   4.136   0.553  0.0528 -0.0898  0.6275
  106TCq2    C7 1619   3.917   4.083   0.471 -0.0223 -0.2223 -0.3613
  106TCq2    C8 1620   3.744   4.044   0.632 -0.1829 -0.0596  0.8051
  106TCq2    O4 1621   3.755   3.924   0.602  0.2907 -0.6775 -0.5492
  106TCq2    C9 1622   3.862   4.495   0.471  0.7262 -0.0629  0.2452
  106TCq2    O5 1623   3.748   4.543   0.498  0.1879  0.1561 -0.3719
  106TCq2    O6 1624   3.941   4.564   0.404  0.0939  0.1840 -0.1480
  106TCq2    H2 1625   4.032   4.356   0.320  0.0645  0.6903  1.6319
  106TCq2    H3 1626   3.704   4.319   0.576 -0.1263 -0.2121 -1.9778
  106TCq2    H4 1627   3.933   3.976   0.469  1.1447 -0.0647  0.9351
  107TMC2    C1 1628   0.360   3.101  11.703  0.4941  0.0068  0.4045
  107TMC2    C2 1629   0.274   3.054  11.608  0.1359  0.2484  0.5646
  107TMC2    C3 1630   0.338   2.964  11.526 -0.2104  0.5995 -0.2330
  107TMC2    C4 1631   0.489   3.078  11.723 -0.3995  0.2951 -0.1865
  107TMC2    C5 1632   0.541   2.986  11.633 -0.1065  0.2440  0.3192
  107TMC2    C6 1633   0.471   2.927  11.531  0.4893  0.3236  0.0272
  107TMC2     C 1634   0.286   3.191  11.792 -0.6788  0.4820  0.4968
  107TMC2     O 1635   0.164   3.181  11.799 -0.0417  0.5685 -0.8485
  107TMC2     H 1636   0.169   3.076  11.592  0.0925  1.2166  2.1885
  107TMC2    H1 1637   0.552   3.117  11.803 -0.0161 -1.0437  0.1654
  107TMC2    H2 1638   0.504   2.837  11.479  2.5575  0.6764  0.7344
  107TMC2    C7 1639   0.687   2.976  11.637  0.0783 -0.0354  0.2235
  107TMC2    C8 1640   0.259   2.928  11.410  0.7690  0.2422  0.7366
  107TMC2    O1 1641   0.739   3.017  11.739 -0.0004 -0.8575 -0.1261
  107TMC2    O2 1642   0.141   2.899  11.417  0.8066  0.1559 -0.3846
  107TMC2    O5 1643   0.341   2.890  11.309  0.1922 -0.4683 -1.1375
  107TMC2    H5 1644   0.432   2.926  11.317 -0.2228  0.6657 -1.6402
  108MPD2     C 1645   0.400   3.497  11.947 -0.0516  0.1402  0.2555
  108MPD2    C1 1646   0.317   3.382  11.934 -0.4765  0.2005  0.0906
  108MPD2    C2 1647   0.199   3.375  12.007 -0.3312 -0.3660 -0.3906
  108MPD2    C3 1648   0.155   3.490  12.077 -0.6606 -0.1842 -0.3526
  108MPD2    C4 1649   0.239   3.593  12.095 -0.5185  0.4753 -0.5994
  108MPD2    C5 1650   0.363   3.599  12.034  0.0784  0.0787  0.1599
  108MPD2     H 1651   0.133   3.289  12.006 -1.9961  0.8840  3.0412
  108MPD2    H1 1652   0.202   3.665  12.166  2.7825  0.6537  0.9319
  108MPD2    H2 1653   0.495   3.514  11.897 -0.4714  1.4402 -0.1224
  108MPD2    H3 1654   0.426   3.684  12.059 -0.3060  0.3943  0.0606
  108MPD2     N 1655   0.033   3.483  12.149  0.0696  0.1996  0.0391
  108MPD2    H5 1656   0.012   3.564  12.207 -1.5957 -0.0430 -0.2359
  108MPD2    N1 1657   0.366   3.282  11.852  0.4679 -0.0438 -0.0639
  108MPD2    H7 1658   0.462   3.290  11.823  0.6088  0.5438  0.5492
  109MPD2     C 1659   0.042   1.608   2.219 -0.1441 -1.0856  0.1404
  109MPD2    C1 1660   0.013   1.682   2.104  0.5212 -0.6413  0.4410
  109MPD2    C2 1661   0.086   1.802   2.082 -0.3904 -0.6955 -0.7910
  109MPD2    C3 1662   0.195   1.838   2.161 -0.2076 -0.2889  0.4205
  109MPD2    C4 1663   0.225   1.761   2.272  0.1745  0.5609 -0.4456
  109MPD2    C5 1664   0.145   1.649   2.304 -0.0248  0.2082  1.2091
  109MPD2     H 1665   0.069   1.860   1.992  1.1298  2.3303  0.8698
  109MPD2    H1 1666   0.316   1.779   2.328 -1.3041  0.2864  2.0360
  109MPD2    H2 1667   4.717   1.514   2.236 -1.4118 -0.0861  1.9829
  109MPD2    H3 1668   0.183   1.581   2.380  2.7461  0.4380  0.0485
  109MPD2     N 1669   0.271   1.954   2.121 -0.4015  0.5629  0.2458
  109MPD2    H5 1670   0.252   1.989   2.028 -2.9814 -0.4335  0.3953
  109MPD2    N1 1671   4.649   1.632   2.002  0.4835 -0.1334  0.1507
  109MPD2    H7 1672   4.611   1.541   2.026 -1.2294  1.2531  2.7982
  110TCq2    C1 1673   0.373   2.018   2.197  0.5451  0.4808  0.9737
  110TCq2    O2 1674   0.402   2.017   2.318  0.6074  0.2323 -0.0299
  110TCq2    C2 1675   0.469   2.088   2.104 -1.0581 -0.8086 -0.2655
  110TCq2    C3 1676   0.543   2.182   2.169  0.0219  0.1684  0.2255
  110TCq2    C4 1677   0.580   2.289   2.096  0.4277  0.0915 -0.4788
  110TCq2    C5 1678   0.559   2.315   1.967  0.0106 -0.8496 -0.0070
  110TCq2    C6 1679   0.492   2.213   1.897  0.5010  0.7504  0.0928
  110TCq2    C7 1680   0.444   2.102   1.967 -0.3623 -0.7479  0.0413
  110TCq2    C8 1681   0.431   2.238   1.768 -0.9502 -0.0440 -0.9190
  110TCq2    O4 1682   0.371   2.143   1.711 -0.4251  0.1138  0.2733
  110TCq2    C9 1683   0.661   2.382   2.173 -0.3012 -0.0866 -0.2527
  110TCq2    O5 1684   0.688   2.493   2.123 -1.1960  0.5538 -0.6775
  110TCq2    O6 1685   0.667   2.360   2.295  0.1446  0.1675  0.0755
  110TCq2    H2 1686   0.572   2.163   2.272 -2.5761  0.3000  0.9836
  110TCq2    H3 1687   0.581   2.416   1.935 -1.2632 -0.4915  0.2361
  110TCq2    H4 1688   0.389   2.024   1.915 -0.7837  0.8481 -1.8997
  111TMC2    C1 1689   4.704   0.113  11.160 -0.2137 -0.6670  0.0460
  111TMC2    C2 1690   0.096   0.063  11.112 -0.8350 -0.3328 -0.0159
  111TMC2    C3 1691   0.171   4.721  11.204  0.3975  0.0938  0.7857
  111TMC2    C4 1692   4.659   0.099  11.287  0.2137 -0.5544  0.0489
  111TMC2    C5 1693   0.013   0.024  11.371 -0.1914 -0.0186 -0.5484
  111TMC2    C6 1694   0.132   4.695  11.330  0.2369 -0.2388 -0.6227
  111TMC2     C 1695   4.665   0.242  11.096  0.3727  0.6855  0.9147
  111TMC2     O 1696   4.651   0.244  10.974  0.1119  0.0483 -0.3918
  111TMC2     H 1697   0.124   0.087  11.010  0.2447 -0.6236  0.2205
  111TMC2    H1 1698   4.563   0.140  11.316  0.3092 -0.9634  0.9318
  111TMC2    H2 1699   0.189   4.620  11.382 -2.5427  0.0567  2.8461
  111TMC2    C7 1700   4.715   0.061  11.510 -0.7509 -0.5275  0.4627
  111TMC2    C8 1701   0.258   4.628  11.142 -0.0920 -0.0804 -0.4672
  111TMC2    O1 1702   4.607   0.114  11.533  0.1115 -0.5884  0.5631
  111TMC2    O2 1703   0.268   4.509  11.168  0.0400  0.1487 -0.7840
  111TMC2    O5 1704   0.337   4.693  11.055  0.2294  0.3116  0.8893
  111TMC2    H5 1705   0.334   0.065  11.064  2.1647  0.0829  4.0549
  112MPD2     C 1706   4.512   0.724  11.187 -0.2773 -0.2694  0.2083
  112MPD2    C1 1707   4.502   0.648  11.068  0.0684  0.0203  0.4269
  112MPD2    C2 1708   4.552   0.521  11.071  0.0604  0.1628  0.8283
  112MPD2    C3 1709   4.616   0.468  11.187  0.4365 -0.0081  0.4706
  112MPD2    C4 1710   4.616   0.548  11.298 -0.1469 -0.8582 -0.0593
  112MPD2    C5 1711   4.567   0.676  11.299  0.2846 -0.2627 -0.1362
  112MPD2     H 1712   4.561   0.460  10.982 -1.8561  1.6791 -0.4058
  112MPD2    H1 1713   4.678   0.521  11.382 -0.6875 -0.4736  0.4612
  112MPD2    H2 1714   4.478   0.826  11.182  1.2066  0.1976 -0.4354
  112MPD2    H3 1715   4.584   0.736  11.388  2.1706 -0.1217 -0.5970
  112MPD2     N 1716   4.660   0.338  11.198  0.2396  0.1557 -0.4246
  112MPD2    H5 1717   4.715   0.323  11.282 -0.5510  0.1082  0.0790
  112MPD2    N1 1718   4.472   0.697  10.939 -0.1592 -0.7365 -0.2443
  112MPD2    H7 1719   4.498   0.650  10.853  1.3101  0.2939 -0.3592
  113MPD2     C 1720   2.396   3.720   1.039 -0.6440 -0.4884  0.0784
  113MPD2    C1 1721   2.388   3.862   1.030  0.1792  0.1877 -0.3926
  113MPD2    C2 1722   2.309   3.922   0.934  0.4320 -0.0514 -0.5565
  113MPD2    C3 1723   2.218   3.831   0.870  0.6165 -0.3018  0.2597
  113MPD2    C4 1724   2.209   3.699   0.902 -0.3510 -0.0050  0.1235
  113MPD2    C5 1725   2.301   3.641   0.984 -0.1608 -0.1081  0.1726
  113MPD2     H 1726   2.313   4.028   0.915 -0.5550 -0.1083 -1.1072
  113MPD2    H1 1727   2.134   3.634   0.860 -1.7148 -0.0809  2.6760
  113MPD2    H2 1728   2.480   3.668   1.083 -0.4953  0.3144  0.7432
  113MPD2    H3 1729   2.299   3.537   1.015  2.9078 -0.1535  0.1497
  113MPD2     N 1730   2.133   3.881   0.769 -0.3856  0.2911  0.5138
  113MPD2    H5 1731   2.077   3.815   0.716 -0.8895 -0.9349  2.5784
  113MPD2    N1 1732   2.475   3.938   1.106  0.6317  0.6966  0.9763
  113MPD2    H7 1733   2.477   4.040   1.101 -1.3196  0.7200  0.4938
  114TCq2    C1 1734   2.105   4.014   0.742 -0.1770 -0.6268  0.3222
  114TCq2    O2 1735   2.120   4.100   0.829  0.2759  0.1563  0.2715
  114TCq2    C2 1736   2.015   4.036   0.633 -0.5563 -0.5559  1.1498
  114TCq2    C3 1737   2.002   4.169   0.599  0.1114  0.1593 -0.1768
  114TCq2    C4 1738   1.937   4.195   0.483 -0.5761 -0.7299  0.5629
  114TCq2    C5 1739   1.882   4.095   0.407  0.3984  0.1503  0.2759
  114TCq2    C6 1740   1.894   3.964   0.444  0.3521 -0.5772  0.2339
  114TCq2    C7 1741   1.958   3.933   0.562  0.4358  0.0158 -0.1363
  114TCq2    C8 1742   1.803   3.866   0.385 -0.1702 -0.5699  0.1033
  114TCq2    O4 1743   1.752   3.900   0.279 -0.1475 -0.6192 -0.0536
  114TCq2    C9 1744   1.926   4.336   0.439 -0.6624 -0.1374 -0.3206
  114TCq2    O5 1745   1.889   4.353   0.320  0.2012  0.4421  0.7333
  114TCq2    O6 1746   1.944   4.425   0.522  0.1709  0.3419  0.4838
  114TCq2    H2 1747   2.034   4.254   0.658  1.4006  0.7174 -1.6733
  114TCq2    H3 1748   1.839   4.110   0.308  1.8936  0.6504 -0.3046
  114TCq2    H4 1749   1.976   3.827   0.576 -0.8500 -0.2114 -0.1743
  115TMC2    C1 1750   3.380   1.211   0.235 -0.3440 -0.8672  0.1179
  115TMC2    C2 1751   3.434   1.181   0.359 -0.2953  0.1302  0.1977
  115TMC2    C3 1752   3.384   1.240   0.469 -0.1957  0.4314 -0.6556
  115TMC2    C4 1753   3.277   1.303   0.226 -0.6475  0.3882 -0.3463
  115TMC2    C5 1754   3.241   1.367   0.342  0.9039 -0.8078 -0.1742
  115TMC2    C6 1755   3.295   1.347   0.465  0.3861 -0.0605  0.5195
  115TMC2     C 1756   3.385   1.107   0.138  0.1715  0.2026 -0.4513
  115TMC2     O 1757   3.280   1.078   0.087  0.3371 -0.3679 -0.1018
  115TMC2     H 1758   3.496   1.094   0.372  2.2534  1.7228 -1.3423
  115TMC2    H1 1759   3.220   1.305   0.133 -0.9325 -0.0375 -0.1833
  115TMC2    H2 1760   3.248   1.385   0.555  1.5294  2.1574  0.1593
  115TMC2    C7 1761   3.178   1.489   0.326  0.8293  0.2414  0.0080
  115TMC2    C8 1762   3.420   1.186   0.597 -1.0032 -0.0438 -0.1855
  115TMC2    O1 1763   3.147   1.545   0.431  0.3166  0.0985 -0.5315
  115TMC2    O2 1764   3.524   1.122   0.610  0.0321  0.6520 -0.1420
  115TMC2    O5 1765   3.314   1.177   0.675  0.2088  0.0441 -0.6058
  115TMC2    H5 1766   3.233   1.204   0.628 -0.9603 -3.1354 -0.3704
  116MPD2     C 1767   3.610   0.667  17.691  1.0168  0.9679  0.3363
  116MPD2    C1 1768   3.481   0.712  17.678  0.1966  0.2854  0.2852
  116MPD2    C2 1769   3.432   0.834   0.030 -0.0485 -0.1770  0.3330
  116MPD2    C3 1770   3.528   0.916   0.091 -0.0521  0.2365 -0.7219
  116MPD2    C4 1771   3.656   0.874   0.103 -0.1463  0.3002  0.8597
  116MPD2    C5 1772   3.695   0.748   0.059 -0.5235 -0.3092 -0.2392
  116MPD2     H 1773   3.329   0.866   0.022 -0.5622 -1.4378  1.8052
  116MPD2    H1 1774   3.732   0.937   0.147  0.8696 -0.5598  0.3181
  116MPD2    H2 1775   3.646   0.575  17.646 -3.5489 -0.2336 -0.8662
  116MPD2    H3 1776   3.801   0.727   0.060 -0.9466 -2.3813  0.2276
  116MPD2     N 1777   3.504   1.045   0.138  0.4369 -0.1653  0.0138
  116MPD2    H5 1778   3.572   1.089   0.199 -2.3232  3.3014  0.5700
  116MPD2    N1 1779   3.392   0.625  17.614  0.4075  0.5569  0.6005
  116MPD2    H7 1780   3.435   0.537  17.588  0.3852  0.2562  1.5618
  117TMC2    C1 1781   1.390   2.816  13.907  0.1480 -0.1561  0.2263
  117TMC2    C2 1782   1.451   2.756  14.020  0.1261  0.1654 -0.2578
  117TMC2    C3 1783   1.583   2.797  14.044  0.1311 -0.2072  0.4937
  117TMC2    C4 1784   1.452   2.912  13.832  0.5261  0.3480 -0.0691
  117TMC2    C5 1785   1.584   2.944  13.862 -0.7816 -0.5108 -0.2372
  117TMC2    C6 1786   1.652   2.885  13.967  0.3964 -0.0144  0.4175
  117TMC2     C 1787   1.252   2.782  13.876  0.3846  0.0030 -0.2382
  117TMC2     O 1788   1.223   2.665  13.890 -0.1809  0.3125 -0.0736
  117TMC2     H 1789   1.404   2.680  14.082 -0.6594  0.3105 -0.6834
  117TMC2    H1 1790   1.408   2.946  13.739 -0.2113 -1.3008 -0.3307
  117TMC2    H2 1791   1.756   2.913  13.980  0.6017  0.0670 -1.4558
  117TMC2    C7 1792   1.679   2.962  13.754 -0.3019  0.1085  0.0896
  117TMC2    C8 1793   1.643   2.724  14.151  0.8482 -0.6898 -0.3002
  117TMC2    O1 1794   1.778   3.019  13.788 -0.1016 -0.5220 -0.4043
  117TMC2    O2 1795   1.603   2.614  14.177 -0.7107 -0.9448  0.1127
  117TMC2    O5 1796   1.692   2.821  14.230 -0.3258 -0.0843 -0.0465
  117TMC2    H5 1797   1.712   2.902  14.178 -0.6050 -0.0429 -0.0923
  118MPD2     C 1798   1.781   2.712  13.510  0.3418 -0.1907  0.0546
  118MPD2    C1 1799   1.774   2.834  13.571  0.7374 -0.2158 -0.2766
  118MPD2    C2 1800   1.877   2.923  13.547 -0.4009  0.0816  0.2794
  118MPD2    C3 1801   1.982   2.884  13.459  0.0162  0.4295 -0.1899
  118MPD2    C4 1802   1.975   2.762  13.394 -0.4715 -0.7358 -0.4221
  118MPD2    C5 1803   1.872   2.673  13.420 -0.2984  0.5289  0.1127
  118MPD2     H 1804   1.861   3.025  13.580 -1.4265  0.4479 -1.3562
  118MPD2    H1 1805   2.054   2.728  13.328  0.3572 -1.3516  0.8745
  118MPD2    H2 1806   1.704   2.638  13.529  1.0099 -1.1387 -1.0013
  118MPD2    H3 1807   1.866   2.574  13.375  1.0560  0.5826 -0.1990
  118MPD2     N 1808   2.088   2.977  13.423  0.0929 -0.1041  0.1037
  118MPD2    H5 1809   2.160   2.929  13.371  0.3966  0.0075  0.4236
  118MPD2    N1 1810   1.668   2.865  13.658 -0.8194 -0.2350  0.4660
  118MPD2    H7 1811   1.583   2.810  13.656 -1.8779  1.4524 -0.1545
  119MPD2     C 1812   0.290   4.071  13.605 -0.1821  0.3855  0.8830
  119MPD2    C1 1813   0.191   4.161  13.569 -0.0673 -0.3601  0.6002
  119MPD2    C2 1814   0.174   4.187  13.438  0.3346 -0.1050 -0.2067
  119MPD2    C3 1815   0.243   4.114  13.340  0.5187 -0.3336  0.1516
  119MPD2    C4 1816   0.350   4.033  13.380 -0.2433  0.0421 -0.0763
  119MPD2    C5 1817   0.369   4.014  13.518 -0.5765  0.2881  0.2523
  119MPD2     H 1818   0.093   4.254  13.412 -0.2210  0.0031  1.8658
  119MPD2    H1 1819   0.418   3.987  13.308  1.0678 -0.2327  1.3369
  119MPD2    H2 1820   0.315   4.053  13.709  0.5936 -2.3272  0.2105
  119MPD2    H3 1821   0.446   3.947  13.554  0.3642  0.4411 -1.4226
  119MPD2     N 1822   0.203   4.104  13.206 -0.3622  0.2182 -0.4302
  119MPD2    H5 1823   0.240   4.027  13.152 -1.0484 -1.0945  0.9930
  119MPD2    N1 1824   0.114   4.211  13.674  0.4417  0.7200  0.1033
  119MPD2    H7 1825   0.130   4.155  13.757 -1.7721 -0.2361 -0.1271
  120TCq2    C1 1826   0.113   4.191  13.144  0.4920 -0.4470 -0.1149
  120TCq2    O2 1827   0.072   4.293  13.193 -0.1436 -0.2039  0.6759
  120TCq2    C2 1828   0.042   4.139  13.028  0.6693 -0.0751 -0.1689
  120TCq2    C3 1829   0.091   4.020  12.984 -0.6871  0.0843 -0.2167
  120TCq2    C4 1830   0.005   3.918  12.943  0.0563 -0.1229 -0.4813
  120TCq2    C5 1831   4.596   3.919  12.964 -0.4061  0.2909 -0.1663
  120TCq2    C6 1832   4.549   4.041  13.011 -0.3859 -0.7246  0.1220
  120TCq2    C7 1833   4.628   4.150  13.040 -0.2615  0.4881 -0.0015
  120TCq2    C8 1834   4.417   4.037  13.068 -0.6295 -0.0267  0.4359
  120TCq2    O4 1835   4.347   4.136  13.054 -0.0982  0.5778  0.2888
  120TCq2    C9 1836   0.072   3.802  12.891  0.7500  0.6017  1.0914
  120TCq2    O5 1837   0.195   3.791  12.921  0.3373 -0.2037  0.4162
  120TCq2    O6 1838   0.001   3.706  12.843 -0.3781  0.6265 -0.6771
  120TCq2    H2 1839   0.198   4.006  12.970 -0.7667  1.5085 -2.2258
  120TCq2    H3 1840   4.539   3.829  12.945 -1.0478  0.5213  0.7420
  120TCq2    H4 1841   4.586   4.245  13.070 -0.7349 -0.6066  2.7966
  121TMC2    C1 1842   1.199   0.819  13.487 -0.5092 -0.3586 -0.4437
  121TMC2    C2 1843   1.237   0.782  13.363  0.6434 -0.7295  0.1764
  121TMC2    C3 1844   1.157   0.693  13.289 -0.6529  0.2979  0.1430
  121TMC2    C4 1845   1.092   0.759  13.548  0.5309  0.6603 -0.5931
  121TMC2    C5 1846   1.008   0.683  13.466  0.5884 -0.3044  0.1154
  121TMC2    C6 1847   1.039   0.639  13.338 -0.5002  0.1819 -0.3611
  121TMC2     C 1848   1.268   0.923  13.564 -0.5854  0.3407 -0.1199
  121TMC2     O 1849   1.239   0.948  13.680 -0.0606  0.1984 -0.4546
  121TMC2     H 1850   1.322   0.832  13.317  1.6295  0.1673  2.9291
  121TMC2    H1 1851   1.056   0.796  13.643  0.2467 -1.5008  0.1397
  121TMC2    H2 1852   0.973   0.581  13.275  1.0860 -2.3910  0.3610
  121TMC2    C7 1853   0.870   0.657  13.508 -0.2133 -0.5815  0.0332
  121TMC2    C8 1854   1.152   0.716  13.150 -0.5035  0.0325 -0.5002
  121TMC2    O1 1855   0.815   0.571  13.442  0.0567 -0.1239 -0.3400
  121TMC2    O2 1856   1.243   0.679  13.076 -0.6747 -0.5908  0.3629
  121TMC2    O5 1857   1.028   0.749  13.115  0.0340  0.0965 -0.0122
  121TMC2    H5 1858   0.968   0.783  13.184 -3.3430 -1.0933 -2.3520
  122MPD2     C 1859   1.471   1.131  13.642  0.1242  0.0182  0.7299
  122MPD2    C1 1860   1.435   1.101  13.507  0.1285 -0.2735 -0.2274
  122MPD2    C2 1861   1.498   1.167  13.405  0.1377 -0.2138 -0.5701
  122MPD2    C3 1862   1.595   1.266  13.433  0.5017 -0.6825 -0.0755
  122MPD2    C4 1863   1.630   1.298  13.558 -0.5720 -0.0560 -0.0975
  122MPD2    C5 1864   1.566   1.230  13.655 -0.0182  0.1018 -0.0664
  122MPD2     H 1865   1.468   1.147  13.302 -1.4294 -0.5330 -0.0483
  122MPD2    H1 1866   1.691   1.384  13.583  0.2321 -1.7022  3.5370
  122MPD2    H2 1867   1.424   1.083  13.728 -1.2194  0.0970  0.0408
  122MPD2    H3 1868   1.593   1.253  13.758  1.1783 -0.5173 -0.2454
  122MPD2     N 1869   1.666   1.330  13.330  0.0950  0.4189  0.3801
  122MPD2    H5 1870   1.726   1.408  13.352  0.5094  0.4750 -0.9615
  122MPD2    N1 1871   1.337   1.003  13.471 -0.2223 -0.1281  0.5820
  122MPD2    H7 1872   1.319   0.990  13.372 -2.7069 -0.1317  1.0446
  123MPD2     C 1873   3.787   3.418   9.487 -0.2626 -0.0095  0.2189
  123MPD2    C1 1874   3.897   3.379   9.559 -0.0556  1.3299  0.4746
  123MPD2    C2 1875   4.012   3.463   9.548  0.5707 -0.7543 -0.9675
  123MPD2    C3 1876   4.006   3.572   9.464  0.1056  0.0982 -0.6593
  123MPD2    C4 1877   3.896   3.604   9.386 -0.2138 -0.0503  0.7594
  123MPD2    C5 1878   3.786   3.526   9.401 -0.1206 -0.6518  0.2212
  123MPD2     H 1879   4.088   3.452   9.624  0.6938  3.3346 -0.4981
  123MPD2    H1 1880   3.894   3.688   9.317  1.0436 -0.6949 -0.0434
  123MPD2    H2 1881   3.699   3.356   9.503  0.6222 -1.5229 -0.8176
  123MPD2    H3 1882   3.696   3.555   9.348  1.2606  1.6816 -0.8224
  123MPD2     N 1883   4.128   3.654   9.463  0.8036  0.3714 -0.0806
  123MPD2    H5 1884   4.211   3.615   9.506 -0.1506 -0.2871  1.1658
  123MPD2    N1 1885   3.877   3.283   9.665 -0.0644 -0.7395 -0.4444
  123MPD2    H7 1886   3.783   3.252   9.687 -1.3908  2.5478 -1.4294
  124TCq2    C1 1887   4.129   3.780   9.404  0.4022 -0.5960  0.5828
  124TCq2    O2 1888   4.042   3.847   9.347 -0.2419  0.2720 -0.2422
  124TCq2    C2 1889   4.256   3.846   9.425  1.0488 -0.3541  0.2610
  124TCq2    C3 1890   4.260   3.974   9.380 -0.1405 -1.1839 -0.4017
  124TCq2    C4 1891   4.374   4.054   9.411 -0.0620  0.0400 -0.5365
  124TCq2    C5 1892   4.475   4.010   9.490  0.5421 -0.1197 -0.3640
  124TCq2    C6 1893   4.468   3.873   9.522  0.4443 -0.4746  0.1713
  124TCq2    C7 1894   4.364   3.789   9.487 -0.3450 -0.5602 -0.2587
  124TCq2    C8 1895   4.588   3.813   9.574 -0.1652 -0.1391  0.6381
  124TCq2    O4 1896   4.578   3.699   9.620  0.1168 -0.0515 -0.2768
  124TCq2    C9 1897   4.374   4.198   9.387 -0.9138  0.2328 -0.0788
  124TCq2    O5 1898   4.475   4.261   9.432  0.5580 -0.0689 -0.3317
  124TCq2    O6 1899   4.261   4.250   9.357 -0.0403 -0.0105  0.2419
  124TCq2    H2 1900   4.178   4.022   9.328  0.9428  1.1329  0.0366
  124TCq2    H3 1901   4.554   4.071   9.532 -0.3847  0.2526  0.8215
  124TCq2    H4 1902   4.375   3.684   9.510  1.5879  0.2641  2.5805
  125TMC2    C1 1903   1.423   0.284   9.167 -0.7345  1.5919  0.0532
  125TMC2    C2 1904   1.529   0.315   9.089  0.1722 -0.0532 -0.3152
  125TMC2    C3 1905   1.603   0.429   9.125  0.6520 -0.1698 -0.0642
  125TMC2    C4 1906   1.377   0.368   9.269 -0.4432  0.4719  0.3347
  125TMC2    C5 1907   1.441   0.489   9.291 -0.2358  0.4828  0.7774
  125TMC2    C6 1908   1.555   0.516   9.216  1.0960  0.1099  0.1968
  125TMC2     C 1909   1.367   0.150   9.144 -0.1986  0.0773  1.3422
  125TMC2     O 1910   1.401   0.097   9.043  0.0736  0.2072  0.3152
  125TMC2     H 1911   1.566   0.257   9.006 -1.4625  0.8953 -1.6900
  125TMC2    H1 1912   1.284   0.354   9.323 -1.1833 -1.8983 -1.5632
  125TMC2    H2 1913   1.602   0.614   9.220 -0.7374  0.9508  1.0457
  125TMC2    C7 1914   1.358   0.599   9.333  0.8085  0.4146  0.7069
  125TMC2    C8 1915   1.689   0.474   9.014 -1.2602  0.1649  0.3252
  125TMC2    O1 1916   1.245   0.569   9.347  0.7647  0.2364  0.4399
  125TMC2    O2 1917   1.644   0.455   8.902 -0.5222 -0.1236  0.1684
  125TMC2    O5 1918   1.764   0.582   9.046  0.4532  0.6904 -0.4594
  125TMC2    H5 1919   1.812   0.566   9.130  1.0346  0.6576 -0.7926
  126MPD1     C 1920   1.128   4.461   9.299  0.2237  0.6436 -0.1295
  126MPD1    C1 1921   1.145   4.548   9.413 -0.1992  0.1443  0.4567
  126MPD1    C2 1922   1.211   4.668   9.392  0.3486  0.4609 -0.1778
  126MPD1    C3 1923   1.237   4.706   9.268 -0.5104  0.0264  0.0493
  126MPD1    C4 1924   1.213   4.636   9.155  0.4641 -0.6011  1.2614
  126MPD1    C5 1925   1.165   4.509   9.172  0.4296  0.5512  0.2502
  126MPD1     H 1926   1.246   0.002   9.475 -1.2570  0.0573  0.7857
  126MPD1    H1 1927   1.235   4.665   9.053 -1.5757 -1.3580  0.6210
  126MPD1    H2 1928   1.080   4.364   9.296  0.4151  0.6398 -2.5853
  126MPD1    H3 1929   1.149   4.436   9.094  0.0978 -1.5512  2.2870
  126MPD1     N 1930   1.307   0.102   9.257 -0.7308  0.2593 -0.1782
  126MPD1    H5 1931   1.322   0.161   9.338  1.8825  1.7498 -1.7637
  126MPD1    N1 1932   1.123   4.490   9.540  0.1927  0.5854 -0.5623
  126MPD1    H6 1933   1.079   4.557   9.603  3.0153  2.7715 -0.9048
  126MPD1    H7 1934   1.068   4.405   9.537  2.7904 -1.1338  0.7808
  127MPD2     C 1935   1.709   0.073   9.346  0.3769  0.6531  0.4880
  127MPD2    C1 1936   1.826   0.005   9.348 -0.4112 -0.2169  0.6755
  127MPD2    C2 1937   1.944   0.072   9.374  0.4105 -0.7245 -0.3720
  127MPD2    C3 1938   1.939   0.205   9.405 -0.5716  0.5250 -0.3236
  127MPD2    C4 1939   1.820   0.274   9.406  0.7572  0.2071 -0.5627
  127MPD2    C5 1940   1.708   0.209   9.373  0.2009 -0.1370 -0.2239
  127MPD2     H 1941   2.040   0.023   9.383  1.2133  0.7937 -0.5959
  127MPD2    H1 1942   1.816   0.381   9.423  2.5034  0.5124 -2.0115
  127MPD2    H2 1943   1.615   0.028   9.316  0.9776 -0.3437  0.0682
  127MPD2    H3 1944   1.616   0.266   9.375 -0.3919 -1.1042  0.1669
  127MPD2     N 1945   2.062   0.268   9.439  0.2438 -0.3835 -0.0164
  127MPD2    H5 1946   2.142   0.207   9.450  0.2456 -0.4171 -0.2273
  127MPD2    N1 1947   1.818   4.592   9.335  0.3449  0.2749  0.8555
  127MPD2    H7 1948   1.726   4.555   9.313  0.4639 -0.0988  0.9747
  128TCq2    C1 1949   1.916   4.514   9.375  0.2802 -0.3441 -0.0448
  128TCq2    O2 1950   2.035   4.536   9.389  0.2091  0.8127  0.2874
  128TCq2    C2 1951   1.870   4.377   9.394  0.8483 -0.7194  0.3302
  128TCq2    C3 1952   1.960   4.272   9.380 -0.2350  0.2498  0.8319
  128TCq2    C4 1953   1.914   4.141   9.393 -0.5366  0.7063  1.0167
  128TCq2    C5 1954   1.781   4.119   9.418  0.0572  0.1391 -1.1495
  128TCq2    C6 1955   1.699   4.223   9.442 -0.7599 -0.2137 -0.9265
  128TCq2    C7 1956   1.739   4.350   9.427  0.0496 -0.6002 -0.3934
  128TCq2    C8 1957   1.562   4.192   9.424 -0.6439  0.3615 -0.1750
  128TCq2    O4 1958   1.489   4.278   9.379  0.2271 -0.0698  0.5799
  128TCq2    C9 1959   2.014   4.038   9.352 -0.7928  0.3779  0.8968
  128TCq2    O5 1960   2.094   4.076   9.261 -0.4038  0.1730  0.1007
  128TCq2    O6 1961   1.986   3.919   9.381  0.5710  0.5834 -0.1216
  128TCq2    H2 1962   2.062   4.291   9.348 -0.8041  0.6785 -0.7713
  128TCq2    H3 1963   1.746   4.017   9.409 -1.7683  0.4095  3.0666
  128TCq2    H4 1964   1.661   4.424   9.440  1.2214  0.4065  0.8987
  129MPD2     C 1965   0.431   0.858   2.155  0.0575 -0.4564 -0.0944
  129MPD2    C1 1966   0.395   0.745   2.084  0.7149  0.4910 -0.2301
  129MPD2    C2 1967   0.340   0.759   1.957 -0.9944  0.0546  0.0609
  129MPD2    C3 1968   0.336   0.882   1.898  0.3402 -0.0579 -0.0655
  129MPD2    C4 1969   0.382   0.994   1.964  0.0838  0.5388 -0.2348
  129MPD2    C5 1970   0.427   0.977   2.093  0.0121  0.9630  0.4427
  129MPD2     H 1971   0.315   0.662   1.916 -1.1601  0.0952  0.0645
  129MPD2    H1 1972   0.376   1.095   1.924  1.4334  0.5694 -0.3848
  129MPD2    H2 1973   0.480   0.863   2.252 -1.8152 -1.0874  0.8762
  129MPD2    H3 1974   0.453   1.065   2.151  0.2484  0.9354  0.3769
  129MPD2     N 1975   0.288   0.903   1.770 -0.5406  0.4456 -0.4759
  129MPD2    H5 1976   0.286   1.001   1.745  0.9464  0.3660 -0.9120
  129MPD2    N1 1977   0.420   0.612   2.126 -0.2986 -0.6622  0.1008
  129MPD2    H7 1978   0.384   0.537   2.068  0.9737 -0.8315 -0.4723
  130TCq2    C1 1979   0.501   0.576   2.231 -0.7345  0.4850  0.0877
  130TCq2    O2 1980   0.532   0.655   2.317 -0.5062 -0.0925  0.3127
  130TCq2    C2 1981   0.519   0.436   2.258  0.3177  0.8092  0.6914
  130TCq2    C3 1982   0.631   0.411   2.329 -0.1965 -0.1470 -0.2853
  130TCq2    C4 1983   0.630   0.299   2.403 -0.0294  0.0446  0.2394
  130TCq2    C5 1984   0.517   0.225   2.416 -0.1423 -0.8798  0.0440
  130TCq2    C6 1985   0.409   0.250   2.326  0.4790  0.3145 -0.1822
  130TCq2    C7 1986   0.407   0.360   2.249  0.0284 -0.2095 -0.0498
  130TCq2    C8 1987   0.299   0.161   2.303 -0.1550  0.0286 -0.1284
  130TCq2    O4 1988   0.228   0.189   2.207  0.4834  0.0480 -0.1257
  130TCq2    C9 1989   0.748   0.266   2.472  0.6964 -0.8392  0.1304
  130TCq2    O5 1990   0.854   0.324   2.430 -0.0222  0.3567  0.3163
  130TCq2    O6 1991   0.752   0.161   2.544  0.2767 -0.2478 -0.4375
  130TCq2    H2 1992   0.710   0.485   2.324  2.6094 -3.1173  0.1954
  130TCq2    H3 1993   0.525   0.137   2.480  0.1522 -0.6691  0.3002
  130TCq2    H4 1994   0.310   0.390   2.211 -0.1333 -2.6505 -1.5818
  131MPD2     C 1995   4.392   3.185  10.538 -0.7919  0.7494  0.0428
  131MPD2    C1 1996   4.415   3.263  10.429  1.2846  0.2400  0.6782
  131MPD2    C2 1997   4.323   3.268  10.323 -0.1829  1.1600 -0.3043
  131MPD2    C3 1998   4.213   3.189  10.334  0.0829  0.1951  0.2865
  131MPD2    C4 1999   4.189   3.111  10.447  0.1216  0.4305  0.4722
  131MPD2    C5 2000   4.282   3.104  10.545 -0.3576  0.3123  0.2859
  131MPD2     H 2001   4.331   3.328  10.233 -0.9787 -0.5287 -1.5089
  131MPD2    H1 2002   4.093   3.075  10.480 -0.3530  0.0429 -1.3528
  131MPD2    H2 2003   4.462   3.190  10.620 -0.7472 -2.3138  0.1809
  131MPD2    H3 2004   4.267   3.040  10.631  1.7622  1.7821  1.7514
  131MPD2     N 2005   4.120   3.198  10.230  0.2221  0.0618 -0.3607
  131MPD2    H5 2006   4.141   3.258  10.151  1.9829  0.9689  0.7924
  131MPD2    N1 2007   4.525   3.345  10.438  0.2000 -0.5084  0.4238
  131MPD2    H7 2008   4.568   3.340  10.530 -1.1512 -0.3871  1.0677
  132TCq2    C1 2009   0.123   3.796  10.205 -0.0257 -0.0098  0.0175
  132TCq2    O2 2010   0.020   3.862  10.179 -0.0111  0.1856  0.2198
  132TCq2    C2 2011   0.101   3.677  10.295  0.2062  0.6485 -0.3402
  132TCq2    C3 2012   0.209   3.612  10.353 -0.6014 -0.3797 -0.0092
  132TCq2    C4 2013   0.194   3.496  10.420  0.2419 -0.1140 -0.8519
  132TCq2    C5 2014   0.071   3.436  10.421  0.6515  0.6829 -0.1090
  132TCq2    C6 2015   4.685   3.501  10.368 -0.0838 -0.7213 -0.5653
  132TCq2    C7 2016   4.699   3.622  10.302 -0.7127  0.3181 -0.4535
  132TCq2    C8 2017   4.569   3.427  10.338 -0.2518  0.4227  0.0083
  132TCq2    O4 2018   4.536   3.442  10.224 -0.2145  0.8393 -0.1019
  132TCq2    C9 2019   0.321   3.429  10.448 -0.0539  0.0987  0.2858
  132TCq2    O5 2020   0.425   3.497  10.456 -0.3528  0.1530 -0.1744
  132TCq2    O6 2021   0.319   3.305  10.467  0.6350  0.5139 -0.4609
  132TCq2    H2 2022   0.308   3.656  10.345 -0.5704 -0.5470 -0.6071
  132TCq2    H3 2023   0.055   3.340  10.468 -0.7664  1.2912  0.6566
  132TCq2    H4 2024   4.617   3.671  10.251 -1.6797 -0.8003  0.0236
  133MPD2     C 2025   4.648   3.686   9.191  0.4407 -0.2230 -0.1862
  133MPD2    C1 2026   4.516   3.705   9.164 -0.1296 -0.2197  0.5996
  133MPD2    C2 2027   4.470   3.837   9.137 -0.0257  0.0420 -0.7796
  133MPD2    C3 2028   4.566   3.941   9.130 -0.4406  0.7906  0.1742
  133MPD2    C4 2029   4.694   3.921   9.168  0.3782 -0.2169  0.2509
  133MPD2    C5 2030   0.009   3.791   9.185  0.3874 -0.0160 -0.2615
  133MPD2     H 2031   4.366   3.857   9.112  0.9275  0.7512 -4.1275
  133MPD2    H1 2032   0.034   4.007   9.167 -1.3709  1.1273  1.5891
  133MPD2    H2 2033   4.684   3.586   9.214  0.0466  0.0422  1.5176
  133MPD2    H3 2034   0.112   3.775   9.215  0.7258  0.0386 -1.4044
  133MPD2     N 2035   4.536   4.077   9.090 -0.0336 -0.2245 -0.2307
  133MPD2    H5 2036   4.611   4.146   9.099 -0.4995  0.2571 -0.0153
  133MPD2    N1 2037   4.433   3.594   9.184 -0.1959  0.0579  0.4998
  133MPD2    H7 2038   4.467   3.513   9.234  1.2406  0.8313  0.7893
  134TCq2    C1 2039   4.301   3.584   9.140  0.6731  0.4842  0.2391
  134TCq2    O2 2040   4.251   3.656   9.060 -0.6402  0.1162  0.2536
  134TCq2    C2 2041   4.241   3.461   9.163 -0.1640  0.0572 -0.4172
  134TCq2    C3 2042   4.267   3.379   9.267 -0.1392  0.3246 -1.2861
  134TCq2    C4 2043   4.183   3.278   9.297  0.3875  0.2093 -0.4876
  134TCq2    C5 2044   4.075   3.253   9.217  0.4516 -0.0403  0.5290
  134TCq2    C6 2045   4.046   3.343   9.116 -0.0392  0.0607 -0.4651
  134TCq2    C7 2046   4.132   3.440   9.091 -0.1042  0.1124  0.5467
  134TCq2    C8 2047   3.908   3.345   9.060  0.3397 -0.0759 -0.5068
  134TCq2    O4 2048   3.849   3.237   9.070 -0.0770 -0.2969 -0.2140
  134TCq2    C9 2049   4.203   3.202   9.414 -0.0408  0.9779  0.2002
  134TCq2    O5 2050   4.138   3.099   9.428  0.1900  0.3982 -0.1159
  134TCq2    O6 2051   4.283   3.249   9.498 -0.1471  0.5072  0.4216
  134TCq2    H2 2052   4.351   3.397   9.333 -0.9543  0.4657 -0.2916
  134TCq2    H3 2053   3.999   3.181   9.245  1.3836 -1.5929 -0.9103
  134TCq2    H4 2054   4.133   3.494   8.997  2.1389 -0.7980  0.0398
  135MPD2     C 2055   1.976   1.332   9.276  0.2147  0.1467  0.3804
  135MPD2    C1 2056   1.919   1.208   9.253  0.5558 -0.1765 -0.6951
  135MPD2    C2 2057   2.001   1.090   9.269  0.5751 -0.3570 -0.2496
  135MPD2    C3 2058   2.137   1.097   9.298  0.7771  0.2737 -0.0527
  135MPD2    C4 2059   2.188   1.217   9.325 -0.6057  0.0925  0.3038
  135MPD2    C5 2060   2.112   1.333   9.310 -0.1374 -0.0001  0.2743
  135MPD2     H 2061   1.967   0.994   9.233 -0.8956  0.0481  0.0733
  135MPD2    H1 2062   2.294   1.225   9.350 -0.2847  1.7546 -1.6238
  135MPD2    H2 2063   1.924   1.426   9.264  2.0798  1.0138 -1.1197
  135MPD2    H3 2064   2.161   1.428   9.328  0.3202 -1.2164  5.2293
  135MPD2     N 2065   2.231   0.985   9.306 -0.5114  0.0525 -0.2604
  135MPD2    H5 2066   2.327   1.019   9.305 -0.9616  1.3406 -0.4042
  135MPD2    N1 2067   1.781   1.187   9.224 -0.1413  0.1473  0.1870
  135MPD2    H7 2068   1.760   1.091   9.198  0.7244  0.1870 -0.6606
  136TCq2    C1 2069   1.687   1.279   9.204  0.1645  0.2930  0.1574
  136TCq2    O2 2070   1.687   1.399   9.231 -0.1095 -0.0708  0.3202
  136TCq2    C2 2071   1.564   1.216   9.161  0.0114 -0.0109 -0.1530
  136TCq2    C3 2072   1.447   1.270   9.200 -0.0969 -0.4082  0.6103
  136TCq2    C4 2073   1.328   1.203   9.173  0.5252 -0.5925  0.3255
  136TCq2    C5 2074   1.328   1.077   9.111 -0.5118 -0.6611 -0.2284
  136TCq2    C6 2075   1.450   1.031   9.067  0.1791  0.9363 -0.5878
  136TCq2    C7 2076   1.569   1.098   9.097 -0.3006 -0.2888 -0.8703
  136TCq2    C8 2077   1.459   0.905   8.996  0.0264  0.0930  0.3773
  136TCq2    O4 2078   1.540   0.885   8.906 -1.1156 -0.0108  0.2459
  136TCq2    C9 2079   1.203   1.258   9.204 -0.5018  0.7388  0.2617
  136TCq2    O5 2080   1.190   1.342   9.298 -0.2740 -0.1609 -0.2127
  136TCq2    O6 2081   1.108   1.229   9.128 -0.3296 -0.3943 -0.2978
  136TCq2    H2 2082   1.456   1.368   9.245 -2.6333 -0.1274  0.4994
  136TCq2    H3 2083   1.233   1.035   9.078 -1.1205 -0.5661  1.4220
  136TCq2    H4 2084   1.654   1.062   9.041  0.1194 -1.7529  0.6933
  137MPD2     C 2085   2.143   4.461  10.086 -0.6275 -0.5107 -0.2318
  137MPD2    C1 2086   2.019   4.405  10.098  0.2812  0.3276 -0.2448
  137MPD2    C2 2087   1.911   4.490  10.078  0.4547 -0.2762 -0.2715
  137MPD2    C3 2088   1.932   4.628  10.067 -0.3263  0.5444  0.1607
  137MPD2    C4 2089   2.057   4.678  10.057  0.5837 -0.2350 -0.0010
  137MPD2    C5 2090   2.159   4.596  10.068  0.4429 -1.1110  0.1146
  137MPD2     H 2091   1.806   4.463  10.085  0.6083 -0.6011  0.7779
  137MPD2    H1 2092   2.077   0.058  10.039  0.0201 -0.2467 -0.7031
  137MPD2    H2 2093   2.228   4.400  10.115  1.8912  2.3291 -1.6599
  137MPD2    H3 2094   2.252   4.650  10.068 -0.9263  1.2894 -3.5828
  137MPD2     N 2095   1.816   4.706  10.067 -0.4158 -0.0044  0.7000
  137MPD2    H5 2096   1.723   4.665  10.071 -0.3764 -0.0171  1.4319
  137MPD2    N1 2097   2.001   4.269  10.123  0.7802  0.3878 -0.3345
  137MPD2    H7 2098   2.087   4.215  10.125  0.6267  0.1761  0.8420
  138TCq2    C1 2099   1.884   4.203  10.139 -0.0703 -0.3687  0.2424
  138TCq2    O2 2100   1.768   4.239  10.126 -0.4584 -0.4167 -0.0535
  138TCq2    C2 2101   1.905   4.063  10.191  0.5037  0.2944  1.1113
  138TCq2    C3 2102   2.001   4.047  10.279 -0.5268 -1.0589  0.5573
  138TCq2    C4 2103   2.028   3.922  10.329  0.6035 -0.7347  0.5345
  138TCq2    C5 2104   1.950   3.819  10.285  0.1718 -0.7317  0.0736
  138TCq2    C6 2105   1.840   3.841  10.197  0.4613  0.3988 -0.5289
  138TCq2    C7 2106   1.825   3.963  10.143  0.0094  0.0863 -0.2604
  138TCq2    C8 2107   1.733   3.746  10.185 -0.9455  0.0190  0.0673
  138TCq2    O4 2108   1.751   3.632  10.226  0.1690  0.0482 -0.7074
  138TCq2    C9 2109   2.140   3.890  10.419 -0.2687  0.0372 -0.0429
  138TCq2    O5 2110   2.184   3.773  10.434  0.3466  0.2029 -0.5622
  138TCq2    O6 2111   2.195   3.993  10.464 -0.3281 -0.0311  0.2312
  138TCq2    H2 2112   2.068   4.127  10.310 -0.4674 -1.5384  1.6478
  138TCq2    H3 2113   1.972   3.720  10.323 -2.5915 -1.0424  0.8650
  138TCq2    H4 2114   1.759   3.990  10.062  0.4825 -1.3108 -1.1178
  139TMC2    C1 2115   1.814   3.790  13.285 -0.0027  0.1525  0.3955
  139TMC2    C2 2116   1.891   3.898  13.280  0.5130 -0.6193 -0.1001
  139TMC2    C3 2117   1.853   3.994  13.369  0.4811  0.5728  0.2361
  139TMC2    C4 2118   1.703   3.774  13.361  0.2535  0.2494  0.4158
  139TMC2    C5 2119   1.667   3.874  13.447 -0.4582  0.0756 -0.1329
  139TMC2    C6 2120   1.744   3.985  13.454 -0.1512 -0.4510  0.1627
  139TMC2     C 2121   1.873   3.677  13.216 -0.3232 -0.4960 -0.3550
  139TMC2     O 2122   1.934   3.688  13.112  0.9969  0.1344  0.3265
  139TMC2     H 2123   1.958   3.915  13.196  1.1163 -2.3779  0.0229
  139TMC2    H1 2124   1.636   3.689  13.352 -0.3630  0.8861 -0.9864
  139TMC2    H2 2125   1.735   4.068  13.523 -0.4538 -0.8809  0.6413
  139TMC2    C7 2126   1.534   3.886  13.506 -0.1832 -0.0905 -1.5265
  139TMC2    C8 2127   1.893   4.123  13.326  0.4026 -0.6346  0.0636
  139TMC2    O1 2128   1.438   3.822  13.459 -0.2092 -0.5065 -0.2299
  139TMC2    O2 2129   2.008   4.172  13.341 -0.1773  0.0510  0.3774
  139TMC2    O5 2130   1.817   4.144  13.214 -0.0729 -0.0028 -0.4365
  139TMC2    H5 2131   1.739   4.085  13.220  0.2173 -0.5786 -2.1639
  140MPD2     C 2132   1.801   3.330  13.336 -0.3309 -0.2365  0.0370
  140MPD2    C1 2133   1.864   3.436  13.261  0.1194  0.1088  0.4290
  140MPD2    C2 2134   1.957   3.405  13.158  0.0450  0.3305  0.5780
  140MPD2    C3 2135   1.972   3.276  13.127 -0.2364 -0.0421 -0.1760
  140MPD2    C4 2136   1.918   3.178  13.202  0.1988 -0.7264 -0.0364
  140MPD2    C5 2137   1.833   3.201  13.302 -0.2546  0.0254  0.6301
  140MPD2     H 2138   2.012   3.474  13.095 -1.7309  1.4586  0.2720
  140MPD2    H1 2139   1.944   3.074  13.190  0.6009 -0.2098 -3.6943
  140MPD2    H2 2140   1.725   3.341  13.412 -0.9794 -0.5547 -0.5642
  140MPD2    H3 2141   1.775   3.127  13.356 -1.8256 -0.1255 -1.2752
  140MPD2     N 2142   2.057   3.240  13.017 -0.0170  0.8178  0.5332
  140MPD2    H5 2143   2.115   3.317  12.985  1.7170 -0.6199  0.1893
  140MPD2    N1 2144   1.833   3.567  13.289 -0.1268  0.1352 -0.9526
  140MPD2    H7 2145   1.773   3.584  13.369  2.5662  1.6938  0.7405
  141TCq2    C1 2146   1.975   0.069  13.945  0.7205 -0.0508 -0.1777
  141TCq2    O2 2147   1.928   0.170  13.894 -0.5354 -0.4551 -0.5349
  141TCq2    C2 2148   1.927   0.032  14.076  0.0149 -0.2358  0.5023
  141TCq2    C3 2149   1.933   4.624  14.119 -1.0466  0.1729 -0.2887
  141TCq2    C4 2150   1.917   4.603  14.250 -0.2051 -0.5083 -0.3802
  141TCq2    C5 2151   1.898   4.700  14.341 -0.1256 -0.4081  0.2413
  141TCq2    C6 2152   1.902   0.103  14.296  0.3924  0.0039  0.0264
  141TCq2    C7 2153   1.916   0.133  14.163  0.1606  0.4394  0.1082
  141TCq2    C8 2154   1.896   0.205  14.400 -0.1819 -0.1654  0.0414
  141TCq2    O4 2155   1.875   0.175  14.516  0.6628 -0.1261  0.1417
  141TCq2    C9 2156   1.913   4.475  14.298 -0.2710  0.4673  0.4369
  141TCq2    O5 2157   1.913   4.381  14.218  0.1216 -0.5809  0.4226
  141TCq2    O6 2158   1.916   4.461  14.426 -0.3157 -0.0433  0.0898
  141TCq2    H2 2159   1.926   4.539  14.053  0.3371  0.9700 -1.4621
  141TCq2    H3 2160   1.867   4.682  14.444 -1.0046 -0.0409  0.0446
  141TCq2    H4 2161   1.930   0.231  14.118  2.4234 -0.7986 -1.9012
  142MPD2     C 2162   4.659   2.888  10.499  0.3744 -0.2402  0.1985
  142MPD2    C1 2163   4.648   2.866  10.364  0.5618  0.3525 -0.1127
  142MPD2    C2 2164   4.721   2.939  10.274  0.0624 -0.1355 -0.4768
  142MPD2    C3 2165   0.098   3.024  10.317  0.0440 -0.6957  0.0827
  142MPD2    C4 2166   0.123   3.031  10.450 -0.0238 -0.3482  0.0895
  142MPD2    C5 2167   0.036   2.977  10.535 -0.5990 -0.2519 -0.0212
  142MPD2     H 2168   4.711   2.932  10.166  0.1500 -4.8973 -0.1528
  142MPD2    H1 2169   0.212   3.087  10.478  1.5181 -2.7375 -0.0440
  142MPD2    H2 2170   4.593   2.835  10.567 -0.2603 -0.9412 -0.9671
  142MPD2    H3 2171   0.057   3.006  10.637  1.4623  0.3573 -0.6221
  142MPD2     N 2172   0.161   3.120  10.237  0.0272  0.2745  0.2488
  142MPD2    H5 2173   0.236   3.167  10.286 -1.1777  0.1935  2.2062
  142MPD2    N1 2174   4.559   2.770  10.317  0.1074  0.7463  0.1925
  142MPD2    H7 2175   4.520   2.707  10.387  1.8670 -0.3078  0.2410
  143TCq2    C1 2176   0.134   3.152  10.109 -0.1359  0.7272  0.2609
  143TCq2    O2 2177   0.025   3.133  10.059 -0.2907 -0.2895  0.7461
  143TCq2    C2 2178   0.222   3.250  10.061  0.1930  0.2769  0.3442
  143TCq2    C3 2179   0.344   3.261  10.121  0.3473  0.9689  0.3142
  143TCq2    C4 2180   0.414   3.373  10.096 -1.0704  0.0079 -0.3658
  143TCq2    C5 2181   0.364   3.478  10.020 -0.2039 -0.7940  0.1281
  143TCq2    C6 2182   0.252   3.456   9.953  0.0707  0.0770  0.1532
  143TCq2    C7 2183   0.173   3.344   9.970  0.1972 -0.0112 -0.8667
  143TCq2    C8 2184   0.197   3.563   9.883  0.3078 -0.3744 -0.5043
  143TCq2    O4 2185   0.075   3.572   9.890 -0.7393 -0.0220 -0.0808
  143TCq2    C9 2186   0.532   3.395  10.173  0.0351  0.5253 -0.3412
  143TCq2    O5 2187   0.563   3.299  10.251 -0.4245  0.1568  0.0442
  143TCq2    O6 2188   0.603   3.495  10.149  0.0588  0.2748 -0.2401
  143TCq2    H2 2189   0.389   3.190  10.190 -0.2810  0.4310  0.1710
  143TCq2    H3 2190   0.422   3.569  10.024 -1.0901 -0.2417  0.3307
  143TCq2    H4 2191   0.080   3.342   9.914 -0.5846 -0.3062  0.4387
  144MPD2     C 2192   2.001   3.153   0.767 -0.6238 -0.0065  0.0396
  144MPD2    C1 2193   2.056   3.119   0.646 -0.2654  0.3769  0.1871
  144MPD2    C2 2194   2.188   3.129   0.637 -0.8108  0.3425  0.0532
  144MPD2    C3 2195   2.263   3.165   0.738 -0.4657  0.4320 -0.1330
  144MPD2    C4 2196   2.208   3.200   0.859 -0.7137 -0.1834 -0.3041
  144MPD2    C5 2197   2.073   3.188   0.877  0.1183 -1.1257 -0.3086
  144MPD2     H 2198   2.230   3.118   0.538 -1.8021  0.1140 -0.3486
  144MPD2    H1 2199   2.280   3.227   0.936 -0.4639  0.3580 -0.7360
  144MPD2    H2 2200   1.894   3.145   0.782 -0.4676 -0.0969  1.1585
  144MPD2    H3 2201   2.035   3.223   0.973  2.4261  0.6520 -0.0433
  144MPD2     N 2202   2.403   3.179   0.723  0.5659 -0.1001 -0.0929
  144MPD2    H5 2203   2.455   3.200   0.807  3.0329 -1.7429 -1.2056
  144MPD2    N1 2204   1.997   3.094   0.519  0.4204  0.2131  0.6364
  144MPD2    H7 2205   2.061   3.085   0.440  0.8991  2.3177  0.7907
  145TCq2    C1 2206   2.479   3.120   0.622 -0.0205 -0.2713  0.7289
  145TCq2    O2 2207   2.447   3.071   0.512 -0.1136 -0.2412  0.2003
  145TCq2    C2 2208   2.622   3.102   0.658 -0.6883 -0.1765 -0.0530
  145TCq2    C3 2209   2.699   3.022   0.577  0.8914 -0.1523 -0.8362
  145TCq2    C4 2210   2.814   2.966   0.608  0.6994  0.3516 -0.1051
  145TCq2    C5 2211   2.869   2.994   0.732 -0.0671 -0.2037  0.4717
  145TCq2    C6 2212   2.795   3.077   0.815 -0.5278  0.6103  0.0244
  145TCq2    C7 2213   2.672   3.127   0.782 -0.1281 -0.0961 -0.3269
  145TCq2    C8 2214   2.870   3.116   0.935 -0.4192 -0.0090  0.4734
  145TCq2    O4 2215   2.945   3.032   0.980 -0.3543 -0.0288 -0.6031
  145TCq2    C9 2216   2.886   2.882   0.513  0.0030 -0.0087 -0.7578
  145TCq2    O5 2217   3.001   2.838   0.543 -0.4158  0.0956 -0.4081
  145TCq2    O6 2218   2.827   2.853   0.405  0.1066 -0.5637 -0.1533
  145TCq2    H2 2219   2.660   3.011   0.476 -1.5890 -3.8252  0.5137
  145TCq2    H3 2220   2.964   2.954   0.765  0.3684  0.9242  0.5695
  145TCq2    H4 2221   2.627   3.193   0.855 -2.2608 -1.9467  0.0735
  146TMC2    C1 2222   2.873   0.583  12.460  0.0874 -0.4574  0.9529
  146TMC2    C2 2223   2.774   0.495  12.423  0.2151  0.4675  0.4333
  146TMC2    C3 2224   2.780   0.456  12.292  0.0157  0.0283 -0.4827
  146TMC2    C4 2225   2.967   0.629  12.373  0.4978 -0.2267 -0.4267
  146TMC2    C5 2226   2.966   0.585  12.247  0.4620  0.6110 -0.3440
  146TMC2    C6 2227   2.873   0.488  12.204 -0.6908 -0.3178  1.3469
  146TMC2     C 2228   2.848   0.657  12.580 -0.0182 -0.2627 -0.6240
  146TMC2     O 2229   2.731   0.666  12.611 -0.0783  0.4044 -0.5990
  146TMC2     H 2230   2.691   0.476  12.489 -0.7727  1.4155 -0.5229
  146TMC2    H1 2231   3.047   0.689  12.416  1.7713 -0.3820 -2.6032
  146TMC2    H2 2232   2.870   0.439  12.107 -4.1181 -0.8550  1.7088
  146TMC2    C7 2233   3.063   0.636  12.154 -0.1471 -0.0762 -0.0089
  146TMC2    C8 2234   2.672   0.377  12.236  0.2244 -0.3863 -0.1523
  146TMC2    O1 2235   3.041   0.615  12.036  0.0206 -0.2717 -0.1938
  146TMC2    O2 2236   2.579   0.423  12.174 -0.1740  0.1174 -1.1288
  146TMC2    O5 2237   2.685   0.248  12.277  0.3187 -0.2233  0.2057
  146TMC2    H5 2238   2.777   0.244  12.310  0.3493 -0.9016  0.0450
  147MPD2     C 2239   3.528   0.790  12.016 -0.4930  0.7183  0.1022
  147MPD2    C1 2240   3.526   0.790  12.154  0.3295  0.0834 -0.3971
  147MPD2    C2 2241   3.411   0.753  12.217 -0.4195  0.5817 -0.1024
  147MPD2    C3 2242   3.298   0.720  12.144 -0.0176  0.4930 -0.0299
  147MPD2    C4 2243   3.303   0.731  12.009 -0.2331 -0.0278  0.3630
  147MPD2    C5 2244   3.418   0.761  11.945 -0.7866 -0.3086 -0.1409
  147MPD2     H 2245   3.411   0.759  12.325  1.5406 -0.8088 -0.0217
  147MPD2    H1 2246   3.216   0.723  11.945 -0.5984  2.1567  0.5978
  147MPD2    H2 2247   3.624   0.804  11.967 -0.4490  1.9670  0.5661
  147MPD2    H3 2248   3.420   0.747  11.837  2.8548 -2.7594  0.2570
  147MPD2     N 2249   3.182   0.685  12.216 -0.6068  0.2097 -0.5113
  147MPD2    H5 2250   3.200   0.674  12.315  0.6772 -2.2546 -1.0202
  147MPD2    N1 2251   3.648   0.808  12.220  0.0066  0.1045 -0.3458
  147MPD2    H7 2252   3.727   0.823  12.159  0.3857  3.0094  0.8724
  148MPD2     C 2253   4.130   0.312   9.987 -0.3262 -0.8116  0.8942
  148MPD2    C1 2254   4.180   0.216  10.071  0.0669 -0.5158  0.1181
  148MPD2    C2 2255   4.187   0.090  10.009 -0.5624 -0.8604  0.1395
  148MPD2    C3 2256   4.140   0.063   9.880  0.1669 -0.0413 -0.2175
  148MPD2    C4 2257   4.069   0.160   9.811 -0.0808 -0.4005  0.2711
  148MPD2    C5 2258   4.066   0.290   9.869  0.0013  0.2643  0.2729
  148MPD2     H 2259   4.243   0.019  10.067  1.9217  1.8293  1.0432
  148MPD2    H1 2260   4.017   0.151   9.716 -1.2139 -0.0666  0.8665
  148MPD2    H2 2261   4.143   0.416  10.015  1.5422 -1.1928  1.4072
  148MPD2    H3 2262   4.032   0.374   9.809  2.8315  0.6486 -0.7935
  148MPD2     N 2263   4.150   4.659   9.815  0.2084 -0.0233 -0.5107
  148MPD2    H5 2264   4.110   4.652   9.722  1.0379 -0.5822 -0.8231
  148MPD2    N1 2265   4.225   0.229  10.202 -0.5070  0.3047  1.2949
  148MPD2    H7 2266   4.283   0.154  10.238 -1.3320 -0.1059  1.7815
  149TCq2    C1 2267   4.205   0.329  10.295  0.0304  0.0018 -0.5052
  149TCq2    O2 2268   4.117   0.416  10.296 -0.1341  0.3582  0.4812
  149TCq2    C2 2269   4.272   0.301  10.424 -0.2143 -0.1758 -0.7139
  149TCq2    C3 2270   4.252   0.388  10.525 -0.1071 -0.5088  0.3926
  149TCq2    C4 2271   4.311   0.368  10.646 -0.2500  0.0354 -0.6201
  149TCq2    C5 2272   4.379   0.255  10.672  0.3032  0.1086  0.8024
  149TCq2    C6 2273   4.402   0.169  10.567  0.0540  0.0011  0.7540
  149TCq2    C7 2274   4.348   0.191  10.441 -0.4676  0.4797 -0.2133
  149TCq2    C8 2275   4.415   0.023  10.594  0.7072  0.3426 -0.2600
  149TCq2    O4 2276   4.383   4.659  10.516 -0.2060  0.4283 -0.0016
  149TCq2    C9 2277   4.247   0.425  10.758 -0.6196 -0.6013  0.2840
  149TCq2    O5 2278   4.155   0.510  10.741 -0.1455  0.0491  0.3596
  149TCq2    O6 2279   4.296   0.400  10.875 -0.6674 -0.0118 -0.4488
  149TCq2    H2 2280   4.197   0.479  10.510 -0.9933 -1.0351  0.4380
  149TCq2    H3 2281   4.399   0.237  10.777  0.5452 -2.1422  0.3678
  149TCq2    H4 2282   4.362   0.110  10.370 -0.1178  0.1273  0.2543
  150MPD2     C 2283   1.474   3.696  11.691  0.6125 -0.1684  0.5994
  150MPD2    C1 2284   1.469   3.759  11.565 -0.1406  0.8561 -0.0028
  150MPD2    C2 2285   1.569   3.847  11.522 -0.1843 -0.3118 -0.4899
  150MPD2    C3 2286   1.668   3.886  11.611  0.4766  0.0290 -0.9563
  150MPD2    C4 2287   1.682   3.813  11.730 -0.0114 -0.6692 -0.0286
  150MPD2    C5 2288   1.587   3.725  11.768  0.5308 -0.1314  0.3697
  150MPD2     H 2289   1.558   3.894  11.425 -1.0188 -1.2216 -0.8416
  150MPD2    H1 2290   1.759   3.827  11.805 -2.1685 -0.9877  2.2368
  150MPD2    H2 2291   1.404   3.624  11.732  2.0172 -2.6360 -1.3048
  150MPD2    H3 2292   1.585   3.674  11.864  1.9495  1.3686  1.2005
  150MPD2     N 2293   1.744   4.005  11.588  1.0632  0.6545 -0.0561
  150MPD2    H5 2294   1.726   4.049  11.498 -0.6505  1.5796  0.7252
  150MPD2    N1 2295   1.353   3.740  11.493  0.4853 -0.4760  0.9012
  150MPD2    H7 2296   1.292   3.671  11.535 -1.0901  0.7114  0.5870
  151TCq2    C1 2297   1.821   4.073  11.676 -0.4423  0.6779 -0.2472
  151TCq2    O2 2298   1.850   4.034  11.785  0.1369 -0.2285 -0.7939
  151TCq2    C2 2299   1.886   4.194  11.634  0.2399 -0.4238  0.7819
  151TCq2    C3 2300   1.848   4.267  11.520  0.3901  0.4248  0.4406
  151TCq2    C4 2301   1.892   4.397  11.507  1.1192 -0.0256 -0.2084
  151TCq2    C5 2302   1.972   4.457  11.602  0.0848 -0.3758  0.1005
  151TCq2    C6 2303   2.009   4.381  11.711 -0.1837  0.0960 -0.7949
  151TCq2    C7 2304   1.967   4.250  11.731  0.3051  0.1835  0.0674
  151TCq2    C8 2305   2.056   4.456  11.833  0.0301 -0.3957 -0.4099
  151TCq2    O4 2306   2.048   4.578  11.850 -0.8622  0.0517 -0.4208
  151TCq2    C9 2307   1.838   4.481  11.397  0.3697 -0.1578 -0.4180
  151TCq2    O5 2308   1.730   4.448  11.340  0.3614  0.1104  0.3999
  151TCq2    O6 2309   1.903   4.583  11.364 -0.6011  0.2662  0.2936
  151TCq2    H2 2310   1.787   4.231  11.438  1.9253  0.5264 -0.7364
  151TCq2    H3 2311   2.007   4.558  11.588 -1.4835 -0.0016 -1.0274
  151TCq2    H4 2312   2.001   4.194  11.818 -0.3634  0.5552  0.5661
  152MPD2     C 2313   0.832   3.959  13.114  0.2312  0.1027 -0.6398
  152MPD2    C1 2314   0.883   4.024  13.008 -0.3857  0.3885 -0.4754
  152MPD2    C2 2315   0.813   4.124  12.938 -0.5149 -0.0217  0.2623
  152MPD2    C3 2316   0.678   4.140  12.968 -0.1387 -0.1951 -0.4811
  152MPD2    C4 2317   0.628   4.078  13.078 -0.0707  0.7697 -0.1868
  152MPD2    C5 2318   0.706   3.988  13.153  0.2460  0.0746  0.4249
  152MPD2     H 2319   0.854   4.179  12.854 -0.6313 -0.0726  0.1712
  152MPD2    H1 2320   0.524   4.083  13.108  0.0298  0.4432  0.2202
  152MPD2    H2 2321   0.892   3.890  13.172 -1.0931  0.4447  1.1386
  152MPD2    H3 2322   0.666   3.951  13.246  1.1906 -0.1362  0.7551
  152MPD2     N 2323   0.599   4.229  12.891 -0.5734  0.2291  0.4201
  152MPD2    H5 2324   0.651   4.283  12.822 -0.5173 -0.6274 -0.2021
  152MPD2    N1 2325   1.019   3.995  12.985  0.3286 -0.1280 -0.1259
  152MPD2    H7 2326   1.082   3.948  13.050  1.2785 -1.0184 -1.6782
  153TCq2    C1 2327   1.086   4.044  12.873  1.3435 -0.6947  0.6474
  153TCq2    O2 2328   1.049   4.083  12.767  0.4165 -0.1654 -0.4091
  153TCq2    C2 2329   1.229   4.039  12.899  0.7676  0.2864  0.1219
  153TCq2    C3 2330   1.270   4.036  13.035  0.4716 -0.3892 -0.2354
  153TCq2    C4 2331   1.407   4.050  13.053 -0.4279  0.0099 -0.3760
  153TCq2    C5 2332   1.494   4.079  12.957 -0.8433  0.5860  0.1618
  153TCq2    C6 2333   1.451   4.072  12.830 -0.0015  0.2406  0.7433
  153TCq2    C7 2334   1.316   4.073  12.794  0.0702 -0.4802 -0.3118
  153TCq2    C8 2335   1.548   4.075  12.721 -0.3728  0.3817  0.2631
  153TCq2    O4 2336   1.506   4.104  12.614  0.2587  0.0734  0.5653
  153TCq2    C9 2337   1.459   4.027  13.190 -0.5861 -0.2260  0.6474
  153TCq2    O5 2338   1.370   4.033  13.280  0.5111  0.3830  0.3785
  153TCq2    O6 2339   1.587   4.036  13.202 -0.2877  0.1017 -0.3174
  153TCq2    H2 2340   1.208   4.026  13.123  0.0440 -2.1547 -0.7496
  153TCq2    H3 2341   1.598   4.095  12.982 -0.6603  0.1124 -0.3079
  153TCq2    H4 2342   1.286   4.077  12.690  0.3222 -0.0086 -0.3623
  154MPD2     C 2343   2.626   4.402   0.137 -0.4641 -0.0629 -0.1571
  154MPD2    C1 2344   2.696   4.500   0.205 -0.3178  0.6839  0.5561
  154MPD2    C2 2345   2.628   4.598   0.279 -0.7854  0.4875  0.3674
  154MPD2    C3 2346   2.490   4.582   0.290 -0.0510 -0.0036  0.1055
  154MPD2    C4 2347   2.421   4.479   0.226 -0.5506 -0.1764  0.0148
  154MPD2    C5 2348   2.494   4.399   0.149  0.4600  0.2936  0.1434
  154MPD2     H 2349   2.690   4.681   0.312  0.1515  0.2012 -0.6503
  154MPD2    H1 2350   2.314   4.466   0.233 -0.7355  1.2539 -0.1642
  154MPD2    H2 2351   2.665   4.337   0.059  2.6801 -1.7228  2.7813
  154MPD2    H3 2352   2.441   4.334   0.081  1.2470  1.0108 -1.1701
  154MPD2     N 2353   2.417   4.665   0.374 -0.4144 -0.3579 -0.7346
  154MPD2    H5 2354   2.322   4.634   0.393 -0.4502 -0.0820 -0.4615
  154MPD2    N1 2355   2.834   4.486   0.191  0.0931  0.5398  0.4331
  154MPD2    H7 2356   2.863   4.410   0.130  2.0835  1.6786 -0.0404
  155TCq2    C1 2357   2.931   4.553   0.258  0.3826  0.3728 -0.5528
  155TCq2    O2 2358   2.921   4.655   0.325 -0.4853 -0.4978 -0.7477
  155TCq2    C2 2359   3.074   4.507   0.228  0.7886  1.1231 -0.1915
  155TCq2    C3 2360   3.174   4.594   0.269  0.2175 -0.5709 -0.6287
  155TCq2    C4 2361   3.299   4.589   0.211 -0.1428  0.1455 -0.5448
  155TCq2    C5 2362   3.328   4.498   0.111  0.0780 -0.3941 -0.9137
  155TCq2    C6 2363   3.231   4.412   0.070 -0.0296 -0.6634  0.9169
  155TCq2    C7 2364   3.102   4.422   0.123 -0.5354 -0.0577 -0.1227
  155TCq2    C8 2365   3.247   4.322  17.658  0.2654 -0.6050  0.0276
  155TCq2    O4 2366   3.164   4.235  17.634 -0.1939  0.1760 -0.2266
  155TCq2    C9 2367   3.400   4.678   0.251 -0.1279  0.8686 -0.5588
  155TCq2    O5 2368   3.375   0.036   0.347  0.4297 -0.7205  0.1197
  155TCq2    O6 2369   3.503   4.681   0.181 -0.2261 -0.4019  0.6970
  155TCq2    H2 2370   3.159   4.671   0.344  2.2849 -0.1845 -0.6139
  155TCq2    H3 2371   3.431   4.500   0.077  0.5922 -1.0537  0.5899
  155TCq2    H4 2372   3.020   4.357   0.095  2.4355 -3.5487 -0.6303
  156MPD2     C 2373   1.937   1.546  12.136  0.0744 -0.2789 -0.4633
  156MPD2    C1 2374   1.856   1.645  12.087 -0.2867  0.3441  0.7345
  156MPD2    C2 2375   1.833   1.752  12.170 -0.4102  0.2335 -1.1824
  156MPD2    C3 2376   1.876   1.751  12.297  0.2143 -0.4125  0.6114
  156MPD2    C4 2377   1.936   1.641  12.351  0.5120  0.3290 -0.5136
  156MPD2    C5 2378   1.979   1.541  12.261 -0.3678 -0.4058  0.5916
  156MPD2     H 2379   1.772   1.832  12.131 -0.3769  0.1251 -1.4559
  156MPD2    H1 2380   1.969   1.624  12.452 -0.5983  0.7905 -0.0723
  156MPD2    H2 2381   1.981   1.471  12.072  1.6370  0.3268 -0.1082
  156MPD2    H3 2382   2.050   1.470  12.301  1.5716  0.7596 -0.7648
  156MPD2     N 2383   1.842   1.869  12.372  0.0677 -0.4271  0.3529
  156MPD2    H5 2384   1.793   1.942  12.320  0.8800 -1.0225 -1.2688
  156MPD2    N1 2385   1.817   1.638  11.949  0.4523 -0.4229 -0.0274
  156MPD2    H7 2386   1.829   1.554  11.893 -1.6165  0.2484 -1.4676
  157TCq2    C1 2387   1.765   1.743  11.869 -0.3617  0.0434 -0.6811
  157TCq2    O2 2388   1.736   1.853  11.912  0.2534  0.1394 -0.3495
  157TCq2    C2 2389   1.749   1.712  11.732  0.5486 -0.1755 -0.5016
  157TCq2    C3 2390   1.839   1.639  11.662 -0.1244 -0.1813 -0.1892
  157TCq2    C4 2391   1.830   1.629  11.529 -0.3567  0.1979 -1.0871
  157TCq2    C5 2392   1.738   1.702  11.463 -0.3036  0.4857  0.1684
  157TCq2    C6 2393   1.651   1.784  11.523 -0.4188 -0.9333 -0.0537
  157TCq2    C7 2394   1.645   1.782  11.664  0.5884  0.6934  0.3793
  157TCq2    C8 2395   1.583   1.889  11.451  0.3028 -0.0041  0.2135
  157TCq2    O4 2396   1.644   1.941  11.357  0.5071 -0.4368  0.1406
  157TCq2    C9 2397   1.921   1.543  11.464 -0.1715 -1.1008  0.3352
  157TCq2    O5 2398   1.898   1.511  11.344 -0.1430 -0.1131 -0.3432
  157TCq2    O6 2399   2.026   1.514  11.531  0.3877  0.0467  0.8527
  157TCq2    H2 2400   1.920   1.589  11.715  1.9845  0.7170 -2.5510
  157TCq2    H3 2401   1.737   1.691  11.355  1.9067 -0.8495  0.2869
  157TCq2    H4 2402   1.570   1.834  11.722 -0.8129 -1.6985  0.7014
  158TMC2    C1 2403   1.462   0.306  13.259  0.1481  0.7643 -0.3883
  158TMC2    C2 2404   1.509   0.367  13.148  0.0354 -0.2242  0.2411
  158TMC2    C3 2405   1.410   0.405  13.054  0.1104 -0.3908 -0.4875
  158TMC2    C4 2406   1.323   0.286  13.284  0.6423  0.0431 -0.1622
  158TMC2    C5 2407   1.233   0.322  13.188 -0.4732  0.4721 -0.2798
  158TMC2    C6 2408   1.277   0.375  13.073 -0.0826 -0.6602 -0.3468
  158TMC2     C 2409   1.568   0.254  13.345  0.7593 -0.2623 -0.1530
  158TMC2     O 2410   1.679   0.226  13.293  0.0881  0.5183  0.0002
  158TMC2     H 2411   1.616   0.374  13.132 -0.2087  1.1112 -0.7381
  158TMC2    H1 2412   1.286   0.217  13.359 -1.1608 -0.4120 -1.4568
  158TMC2    H2 2413   1.200   0.412  13.007  0.2077 -1.8028 -1.3405
  158TMC2    C7 2414   1.091   0.298  13.204  0.0469 -0.6050 -0.1775
  158TMC2    C8 2415   1.451   0.465  12.934  0.0602 -0.0127 -1.3472
  158TMC2    O1 2416   1.017   0.363  13.130 -0.4329 -0.0962  0.1943
  158TMC2    O2 2417   1.561   0.449  12.888  0.7214  0.6594  1.1220
  158TMC2    O5 2418   1.342   0.536  12.886 -0.2912  0.0596  0.7808
  158TMC2    H5 2419   1.295   0.574  12.964 -1.9596  0.5102 -0.4534
  159MPD2     C 2420   1.691   4.679  13.737 -0.9602 -0.3550  0.6929
  159MPD2    C1 2421   1.579   0.016  13.769 -0.2075 -0.5327 -0.0037
  159MPD2    C2 2422   1.524   0.104  13.679 -0.7857 -0.2257 -0.1375
  159MPD2    C3 2423   1.585   0.129  13.554 -0.5037  0.2461 -0.2334
  159MPD2    C4 2424   1.702   0.057  13.523 -0.0720 -0.0113  0.4319
  159MPD2    C5 2425   1.754   4.699  13.622  0.2155  0.1506 -0.0084
  159MPD2     H 2426   1.430   0.154  13.700 -0.5222 -0.5826  1.8702
  159MPD2    H1 2427   1.757   0.054  13.430  0.1633  0.5374  0.5508
  159MPD2    H2 2428   1.740   4.608  13.802 -1.7616 -1.0271  0.5624
  159MPD2    H3 2429   1.836   4.633  13.595 -1.0969 -1.4832  0.0646
  159MPD2     N 2430   1.527   0.221  13.464  0.6370 -0.0197  0.4809
  159MPD2    H5 2431   1.439   0.260  13.493  1.8639  2.4949  0.7961
  159MPD2    N1 2432   1.525   4.708  13.895 -0.2136  0.7329 -0.1928
  159MPD2    H7 2433   1.580   4.645  13.952 -0.2873  0.1469 -0.7755
  160TMC2    C1 2434   1.406   3.270   1.228  0.5336  0.5510 -0.5446
  160TMC2    C2 2435   1.537   3.259   1.271  0.2605  0.4058 -0.0607
  160TMC2    C3 2436   1.638   3.328   1.205 -0.3873 -1.0086 -0.7373
  160TMC2    C4 2437   1.378   3.366   1.130  0.3356 -0.0446 -0.4666
  160TMC2    C5 2438   1.480   3.439   1.077  0.5341  0.1847  0.0103
  160TMC2    C6 2439   1.611   3.411   1.104  0.7315 -0.1680  0.0065
  160TMC2     C 2440   1.305   3.194   1.293  0.1164  0.6278 -0.4656
  160TMC2     O 2441   1.356   3.124   1.377  0.1535  0.0224 -0.0736
  160TMC2     H 2442   1.569   3.179   1.337  0.0875  1.5121  1.3499
  160TMC2    H1 2443   1.275   3.387   1.103  0.2910 -1.3782 -1.3330
  160TMC2    H2 2444   1.696   3.468   1.072  0.1836  0.2204 -0.7478
  160TMC2    C7 2445   1.442   3.532   0.979 -0.0407 -0.2239 -0.5296
  160TMC2    C8 2446   1.777   3.301   1.238  1.8369  0.1668  0.4555
  160TMC2    O1 2447   1.348   3.501   0.906  0.1806 -0.0899 -0.4340
  160TMC2    O2 2448   1.859   3.296   1.144  0.9835  0.0867 -0.1879
  160TMC2    O5 2449   1.805   3.372   1.343 -0.0097  0.3786  0.0578
  160TMC2    H5 2450   1.724   3.417   1.375  0.1329  0.6056  0.1020
  161MPD2     C 2451   1.069   3.015   1.347 -0.0962  0.2340 -0.2204
  161MPD2    C1 2452   1.063   3.135   1.277  0.9351  0.5315 -0.0539
  161MPD2    C2 2453   0.940   3.165   1.224  0.1464  0.1672 -1.2084
  161MPD2    C3 2454   0.823   3.088   1.235  0.9424  0.2710 -0.7569
  161MPD2    C4 2455   0.831   2.970   1.300  0.1232  0.7207  0.4799
  161MPD2    C5 2456   0.951   2.940   1.358  0.1485  0.2328 -0.3447
  161MPD2     H 2457   0.942   3.255   1.164  2.1475  1.2871  0.5254
  161MPD2    H1 2458   0.747   2.902   1.298 -0.6226  1.6192  1.2031
  161MPD2    H2 2459   1.166   2.987   1.388 -0.4350  0.1484  0.5059
  161MPD2    H3 2460   0.966   2.845   1.407 -1.6473 -0.5181 -1.2901
  161MPD2     N 2461   0.695   3.127   1.180  0.3409  0.2707 -0.0837
  161MPD2    H5 2462   0.624   3.057   1.201 -0.1177  0.5393 -0.7411
  161MPD2    N1 2463   1.174   3.220   1.250 -0.1950 -0.2049  0.6517
  161MPD2    H7 2464   1.157   3.292   1.181 -0.4908  0.1234  1.0721
  162TMC2    C1 2465   4.144   0.516   1.396  0.5238  0.6774 -0.5107
  162TMC2    C2 2466   4.116   0.640   1.354 -0.1890 -0.1142 -0.2515
  162TMC2    C3 2467   4.118   0.745   1.442  0.5775  0.9777 -0.3338
  162TMC2    C4 2468   4.154   0.486   1.530  0.9304  0.6125 -0.0514
  162TMC2    C5 2469   4.155   0.589   1.617  0.6172  0.2757  0.8134
  162TMC2    C6 2470   4.135   0.721   1.575 -0.1497  0.3952 -0.2354
  162TMC2     C 2471   4.157   0.418   1.288 -0.5167  0.1251  0.8017
  162TMC2     O 2472   4.163   0.447   1.171  0.2044 -0.0061  0.3400
  162TMC2     H 2473   4.109   0.657   1.247  1.9060  1.5726 -0.1306
  162TMC2    H1 2474   4.156   0.383   1.562 -0.4120  0.6316  0.0570
  162TMC2    H2 2475   4.131   0.796   1.654  2.1192  1.5096 -1.1797
  162TMC2    C7 2476   4.165   0.566   1.758 -0.4171 -0.9075  0.0524
  162TMC2    C8 2477   4.123   0.881   1.392 -0.1090 -0.4560 -0.4439
  162TMC2    O1 2478   4.101   0.649   1.823 -0.0196  0.3409  0.2866
  162TMC2    O2 2479   4.149   0.981   1.456 -1.2435 -0.1735 -0.1955
  162TMC2    O5 2480   4.044   0.893   1.283 -0.6645  0.3002  0.1457
  162TMC2    H5 2481   4.004   0.811   1.247 -1.0528  0.2593  0.6819
  163MPD2     C 2482   4.184   4.661   1.133  0.5298 -0.2096 -0.2453
  163MPD2    C1 2483   4.221   0.049   1.072  0.8684 -0.1483 -0.3130
  163MPD2    C2 2484   4.211   0.172   1.140 -0.7507 -0.2591 -0.4911
  163MPD2    C3 2485   4.139   0.177   1.264  0.0427 -0.4623 -0.1175
  163MPD2    C4 2486   4.105   0.061   1.323 -0.4643  0.0981 -0.2668
  163MPD2    C5 2487   4.127   4.661   1.261  0.0391  0.0725 -0.6844
  163MPD2     H 2488   4.235   0.266   1.092  0.5052 -0.8801 -1.0630
  163MPD2    H1 2489   4.051   0.052   1.416  0.4039  0.6453  0.2947
  163MPD2    H2 2490   4.186   4.567   1.079 -0.0359 -1.8638  2.6650
  163MPD2    H3 2491   4.092   4.571   1.310 -0.7354 -0.2783 -1.8730
  163MPD2     N 2492   4.133   0.295   1.336  0.2173 -0.6216 -0.1135
  163MPD2    H5 2493   4.093   0.284   1.429  0.5776  0.5338  0.1792
  163MPD2    N1 2494   4.283   0.031   0.949 -0.9757  0.6659 -0.8484
  163MPD2    H7 2495   4.275   4.665   0.905  1.2982  0.3293 -0.5817
  164TCq2    C1 2496   4.619   3.760  11.094  0.3469 -0.1775 -0.4719
  164TCq2    O2 2497   4.628   3.641  11.120 -0.2902  0.3082 -0.2125
  164TCq2    C2 2498   4.546   3.853  11.183 -0.3199  0.0982  0.3692
  164TCq2    C3 2499   4.560   3.820  11.310  0.4536 -0.4305  0.5727
  164TCq2    C4 2500   4.523   3.911  11.397  0.8539  0.2051 -0.2329
  164TCq2    C5 2501   4.501   4.041  11.364 -0.0158 -0.1171 -0.2349
  164TCq2    C6 2502   4.484   4.070  11.230 -0.3307  0.2264  0.3173
  164TCq2    C7 2503   4.509   3.979  11.138  0.5054 -0.1797  0.3614
  164TCq2    C8 2504   4.441   4.202  11.188 -0.0734  0.1765 -1.4651
  164TCq2    O4 2505   4.414   4.214  11.068 -0.8931  0.4509  0.1399
  164TCq2    C9 2506   4.531   3.867  11.531  0.8504  0.3014 -0.1221
  164TCq2    O5 2507   4.519   3.957  11.619 -0.2939  0.4862 -0.7177
  164TCq2    O6 2508   4.545   3.744  11.553 -0.7520 -1.1124 -0.1248
  164TCq2    H2 2509   4.586   3.717  11.335 -0.6687 -1.1445 -1.2316
  164TCq2    H3 2510   4.475   4.099  11.451 -0.2687  1.0393 -1.0942
  164TCq2    H4 2511   4.482   3.995  11.034  0.6422 -2.5468 -0.0285
  165MPD2     C 2512   0.878   2.219   1.869  0.3730  0.2392 -0.3581
  165MPD2    C1 2513   0.805   2.133   1.792 -0.4050 -0.0213 -0.2465
  165MPD2    C2 2514   0.779   2.170   1.659 -0.3346  0.0910 -0.1376
  165MPD2    C3 2515   0.829   2.287   1.607 -0.1744  0.3039 -0.5226
  165MPD2    C4 2516   0.908   2.369   1.690 -0.4198 -0.3121 -0.0451
  165MPD2    C5 2517   0.931   2.332   1.820  0.0339  0.4525  0.2069
  165MPD2     H 2518   0.719   2.109   1.592 -1.8902  0.7373  0.6764
  165MPD2    H1 2519   0.932   2.470   1.657 -0.0753 -0.3749  0.0052
  165MPD2    H2 2520   0.892   2.183   1.971  2.0197  1.4170 -0.1861
  165MPD2    H3 2521   0.984   2.396   1.890  1.4188 -0.6635  0.1888
  165MPD2     N 2522   0.789   2.342   1.479 -0.3891 -0.1504  0.4203
  165MPD2    H5 2523   0.806   2.439   1.452 -1.3543 -0.0574  0.1385
  165MPD2    N1 2524   0.751   2.012   1.851 -0.2724  0.0982 -0.0044
  165MPD2    H7 2525   0.775   1.984   1.946 -1.7415  0.6860  0.5397
  166TCq2    C1 2526   0.729   2.273   1.379 -0.0489  0.7632  0.5055
  166TCq2    O2 2527   0.705   2.154   1.381  0.1700 -0.1315 -0.8979
  166TCq2    C2 2528   0.701   2.340   1.257 -0.7538 -0.3017 -0.0581
  166TCq2    C3 2529   0.608   2.291   1.176 -0.0296 -0.2263  0.2238
  166TCq2    C4 2530   0.571   2.364   1.067  0.1092  0.9067  0.0457
  166TCq2    C5 2531   0.637   2.476   1.027  0.9822  0.4464 -0.0433
  166TCq2    C6 2532   0.731   2.517   1.114  0.3554 -0.5381  0.4996
  166TCq2    C7 2533   0.763   2.454   1.226  0.0955  0.1250 -0.8964
  166TCq2    C8 2534   0.819   2.629   1.066 -0.0359  0.0347  0.5844
  166TCq2    O4 2535   0.937   2.627   1.096 -0.6156 -0.8329 -0.1144
  166TCq2    C9 2536   0.474   2.312   0.980  1.1955 -0.2136 -0.3152
  166TCq2    O5 2537   0.401   2.390   0.910  0.3035 -0.2337  0.4468
  166TCq2    O6 2538   0.465   2.182   0.983  0.0868 -0.5521  0.2473
  166TCq2    H2 2539   0.561   2.198   1.203 -1.4969  0.1938 -0.9100
  166TCq2    H3 2540   0.605   2.530   0.939  0.5314  0.6295  0.2324
  166TCq2    H4 2541   0.834   2.499   1.295  0.8003 -1.9628 -0.2691
  167TMC2    C1 2542   3.313   0.005  12.570 -0.0565 -0.0983  0.4724
  167TMC2    C2 2543   3.217   4.719  12.661 -0.2525  0.2207 -0.4195
  167TMC2    C3 2544   3.228   4.623  12.760 -0.7741 -0.6186 -0.4160
  167TMC2    C4 2545   3.417   4.640  12.569  0.4521 -0.3638 -0.0556
  167TMC2    C5 2546   3.421   4.536  12.658  0.1658  0.1748  0.2134
  167TMC2    C6 2547   3.318   4.522  12.752  0.4627 -0.3732 -0.0926
  167TMC2     C 2548   3.290   0.106  12.464  0.6141 -0.1265 -0.2115
  167TMC2     O 2549   3.210   0.202  12.481 -0.1911 -0.5167 -0.2832
  167TMC2     H 2550   3.123   0.046  12.650 -0.9442 -0.5709  1.6305
  167TMC2    H1 2551   3.495   4.653  12.496 -0.9282 -0.7828 -1.5998
  167TMC2    H2 2552   3.334   4.450  12.832 -0.1017 -0.9891 -0.5340
  167TMC2    C7 2553   3.538   4.448  12.663 -0.0691  0.8235 -0.3247
  167TMC2    C8 2554   3.097   4.574  12.819  0.1443  0.7120 -0.1493
  167TMC2    O1 2555   3.523   4.352  12.734 -0.3491  0.3542  1.0109
  167TMC2    O2 2556   3.068   4.455  12.821  0.3962 -0.2521 -0.0099
  167TMC2    O5 2557   3.023   4.674  12.856 -0.5155 -0.3118  0.6522
  167TMC2    H5 2558   3.082   0.026  12.868  2.5765 -2.6024  0.2332
  168MPD2     C 2559   3.274   0.270  12.213 -0.2686  0.4385  0.3848
  168MPD2    C1 2560   3.360   0.161  12.230  0.7217 -0.1990 -0.3029
  168MPD2    C2 2561   3.451   0.135  12.127 -0.4033 -0.0440 -0.2246
  168MPD2    C3 2562   3.466   0.218  12.019  0.2314 -0.5644 -0.5447
  168MPD2    C4 2563   3.385   0.328  12.013  0.1469  0.3102 -0.3758
  168MPD2    C5 2564   3.289   0.353  12.105 -0.5695  0.5133  0.1663
  168MPD2     H 2565   3.517   0.050  12.138 -1.2599 -0.5044  1.3611
  168MPD2    H1 2566   3.384   0.397  11.930 -2.0031 -0.0197 -0.6455
  168MPD2    H2 2567   3.192   0.295  12.280 -0.8839 -0.8804  0.1291
  168MPD2    H3 2568   3.226   0.441  12.095 -2.2215 -0.7410 -0.5115
  168MPD2     N 2569   3.559   0.191  11.917  0.0677  0.2115  0.1360
  168MPD2    H5 2570   3.601   0.267  11.865  2.5610 -2.8208 -2.2852
  168MPD2    N1 2571   3.354   0.075  12.346 -0.6472 -0.3525  0.4661
  168MPD2    H7 2572   3.407   4.714  12.341 -0.3590 -0.1103 -0.5595
  169MPD1     C 2573   1.505   4.396   8.952  0.0215 -0.9194  0.0185
  169MPD1    C1 2574   1.613   4.321   8.996  0.1747 -0.0522 -0.1033
  169MPD1    C2 2575   1.587   4.189   9.030 -0.2658 -0.0150  1.0908
  169MPD1    C3 2576   1.465   4.128   9.013 -0.2422  0.0023  0.3806
  169MPD1    C4 2577   1.362   4.203   8.958  0.0422  0.6112  0.2337
  169MPD1    C5 2578   1.387   4.333   8.919  0.4506  0.1436  0.1429
  169MPD1     H 2579   1.664   4.133   9.082 -0.2640 -1.9598 -1.0214
  169MPD1    H1 2580   1.262   4.162   8.948  1.1394 -1.9331 -0.2687
  169MPD1    H2 2581   1.510   4.501   8.925  0.5753 -0.9353  0.0583
  169MPD1    H3 2582   1.303   4.385   8.873 -2.3995 -4.7451 -0.1409
  169MPD1     N 2583   1.432   3.994   9.041  0.8313  0.5775 -0.4444
  169MPD1    H5 2584   1.342   3.955   9.015 -0.0428  1.5946  1.0497
  169MPD1    N1 2585   1.741   4.380   9.014  0.2562 -0.1499 -0.0948
  169MPD1    H6 2586   1.765   4.441   8.937  0.1624 -0.6544 -0.5219
  169MPD1    H7 2587   1.814   4.310   9.030  0.4743 -0.0129 -0.4871
  170MPD1     C 2588   4.657   1.785  12.722 -0.1727  0.2461  0.3373
  170MPD1    C1 2589   0.041   1.755  12.800  0.7640  0.0128 -0.3349
  170MPD1    C2 2590   0.089   1.858  12.886  0.3424 -0.7000 -0.3218
  170MPD1    C3 2591   0.036   1.988  12.881 -0.3877  0.2693 -0.6814
  170MPD1    C4 2592   4.667   2.021  12.784 -0.1948 -0.0677 -0.0738
  170MPD1    C5 2593   4.608   1.920  12.711  0.1646 -0.0090  0.0061
  170MPD1     H 2594   0.166   1.832  12.958 -1.1060  0.1062  1.5117
  170MPD1    H1 2595   4.639   2.125  12.772 -1.0120 -0.4445 -1.4162
  170MPD1    H2 2596   4.600   1.700  12.686  0.9019  0.3186 -1.5492
  170MPD1    H3 2597   4.528   1.944  12.642  0.2564  0.3537  0.0262
  170MPD1     N 2598   0.105   2.089  12.956 -0.9267  0.5942  0.8718
  170MPD1    H5 2599   0.181   2.045  13.006  0.2017 -1.0901 -2.3120
  170MPD1    N1 2600   0.087   1.620  12.814 -0.0538  0.2871 -0.4902
  170MPD1    H6 2601   0.086   1.572  12.725  1.4554  0.9074 -0.8377
  170MPD1    H7 2602   0.182   1.610  12.850 -1.1270 -3.0860  1.3743
  171MPD1     C 2603   3.654   3.469  15.218 -0.2637 -0.3322 -0.3589
  171MPD1    C1 2604   3.766   3.442  15.293 -0.7536  0.3487 -0.2756
  171MPD1    C2 2605   3.772   3.310  15.342 -0.2321  0.4037 -0.5650
  171MPD1    C3 2606   3.683   3.208  15.304  0.8530 -0.0782  0.1057
  171MPD1    C4 2607   3.578   3.241  15.214  0.6630  0.0098  0.3539
  171MPD1    C5 2608   3.563   3.370  15.182  0.6263 -0.1879  0.0348
  171MPD1     H 2609   3.851   3.286  15.412  0.3725  1.1905 -0.9661
  171MPD1    H1 2610   3.505   3.166  15.186  1.8770 -0.6181 -1.1106
  171MPD1    H2 2611   3.634   3.574  15.201 -1.4522 -0.3619  0.7897
  171MPD1    H3 2612   3.473   3.404  15.131  0.5206 -0.4218  0.0654
  171MPD1     N 2613   3.678   3.081  15.361 -0.3158  0.2224  0.4422
  171MPD1    H5 2614   3.597   3.025  15.336  1.2272 -1.9090  0.1842
  171MPD1    N1 2615   3.837   3.542  15.361  0.3554 -0.0192 -0.1082
  171MPD1    H6 2616   3.827   3.634  15.319 -0.3668  0.9182  2.1047
  171MPD1    H7 2617   3.937   3.526  15.348  0.5399 -0.7939  2.2400
  172MPD1     C 2618   2.227   3.161   0.100  0.0586  0.3472  0.1508
  172MPD1    C1 2619   2.148   3.245   0.177 -0.8704  0.1084 -0.0832
  172MPD1    C2 2620   2.205   3.310   0.287  0.4083  0.9132 -0.1367
  172MPD1    C3 2621   2.344   3.307   0.307 -1.3444  0.1229 -0.2406
  172MPD1    C4 2622   2.417   3.217   0.234  0.4358  0.2061  0.1095
  172MPD1    C5 2623   2.358   3.150   0.138 -0.0531 -0.7169 -0.4761
  172MPD1     H 2624   2.141   3.382   0.338  0.1754  0.2966  0.4422
  172MPD1    H1 2625   2.521   3.195   0.255 -0.0653 -2.2954 -0.0664
  172MPD1    H2 2626   2.179   3.102   0.022  0.1871  1.3969 -0.7109
  172MPD1    H3 2627   2.415   3.081   0.075  0.4959  0.7801 -1.6331
  172MPD1     N 2628   2.412   3.373   0.407  0.2245 -0.2895  0.3982
  172MPD1    H5 2629   2.513   3.365   0.402  0.3092  0.9401  0.1300
  172MPD1    N1 2630   2.006   3.237   0.150 -0.1260  0.0723 -0.2420
  172MPD1    H6 2631   1.957   3.323   0.174 -0.6885  0.5400 -3.0390
  172MPD1    H7 2632   1.985   3.218   0.052  0.2635 -2.0029  0.0835
  173MPD1     C 2633   3.810   2.829  14.373  0.2368 -0.2159 -0.8208
  173MPD1    C1 2634   3.740   2.745  14.286  0.2922  0.6150 -0.4564
  173MPD1    C2 2635   3.777   2.613  14.291 -0.5539  0.1158 -0.1316
  173MPD1    C3 2636   3.881   2.568  14.370 -0.7907 -0.0257  0.6326
  173MPD1    C4 2637   3.965   2.656  14.434  0.1138  0.4808  1.2265
  173MPD1    C5 2638   3.918   2.787  14.440  0.3751  0.2417 -0.2840
  173MPD1     H 2639   3.714   2.541  14.240  1.2802 -1.6151  0.0478
  173MPD1    H1 2640   4.059   2.627  14.480 -0.8220  0.1518  2.9202
  173MPD1    H2 2641   3.778   2.932  14.381 -0.0651 -0.3253 -0.6361
  173MPD1    H3 2642   3.971   2.859  14.503  0.8287  1.6581 -2.2923
  173MPD1     N 2643   3.900   2.426  14.380  0.8889  0.0321 -0.0695
  173MPD1    H5 2644   3.852   2.366  14.314  0.7851  0.6201 -0.5313
  173MPD1    N1 2645   3.614   2.787  14.235 -0.6656 -0.0132  0.2076
  173MPD1    H6 2646   3.583   2.732  14.155  0.4130  0.9559 -0.8678
  173MPD1    H7 2647   3.622   2.882  14.201 -2.0589 -0.1561 -0.5272
  174MPD1     C 2648   3.880   1.465  14.077  0.4293  0.4436  0.2507
  174MPD1    C1 2649   3.980   1.551  14.064  0.2165  0.2676  0.2311
  174MPD1    C2 2650   3.975   1.666  14.138 -0.2948  0.3476 -0.5292
  174MPD1    C3 2651   3.864   1.691  14.214  0.5300 -0.1123  0.1052
  174MPD1    C4 2652   3.765   1.601  14.238  0.2414  0.4258 -0.0517
  174MPD1    C5 2653   3.774   1.486  14.162  0.2743 -0.1305  0.2254
  174MPD1     H 2654   4.054   1.740  14.134 -0.5331  0.4690 -2.6197
  174MPD1    H1 2655   3.673   1.627  14.290  0.3292 -1.1844  0.8832
  174MPD1    H2 2656   3.877   1.369  14.028  2.6041  0.4914  0.0113
  174MPD1    H3 2657   3.707   1.401  14.167  0.6760 -0.5699 -1.7006
  174MPD1     N 2658   3.848   1.806  14.294 -0.3452  0.0983 -0.5064
  174MPD1    H5 2659   3.771   1.807  14.360 -0.6563  0.7332 -0.8877
  174MPD1    N1 2660   4.085   1.510  13.982  0.0239 -0.5279  0.5483
  174MPD1    H6 2661   4.144   1.585  13.948 -2.2801 -0.1034 -2.5312
  174MPD1    H7 2662   4.046   1.465  13.899 -1.3665  1.7898 -0.0383
  175MPD1     C 2663   2.432   3.198  15.241  0.3510 -0.0588  0.3269
  175MPD1    C1 2664   2.553   3.226  15.299 -0.2177  0.0685  0.4583
  175MPD1    C2 2665   2.564   3.189  15.434  0.2123 -0.1412  0.3811
  175MPD1    C3 2666   2.470   3.107  15.498 -0.1457  0.3811 -0.3154
  175MPD1    C4 2667   2.360   3.068  15.426 -0.1115 -0.4511  0.3650
  175MPD1    C5 2668   2.346   3.110  15.298  0.1797  0.5869  0.2347
  175MPD1     H 2669   2.646   3.230  15.492  0.3065 -1.0872  0.9181
  175MPD1    H1 2670   2.273   3.018  15.466 -1.5444  0.1641 -1.9309
  175MPD1    H2 2671   2.421   3.227  15.138  1.2595  2.9183  1.0569
  175MPD1    H3 2672   2.251   3.094  15.249  0.1986  1.7736 -0.1916
  175MPD1     N 2673   2.469   3.079  15.636 -0.0535  0.2229  0.0638
  175MPD1    H5 2674   2.378   3.050  15.670  0.0977  0.5403  0.7285
  175MPD1    N1 2675   2.648   3.309  15.233  0.2865  0.2789 -0.0739
  175MPD1    H6 2676   2.744   3.310  15.268  0.0909 -0.4651  0.4930
  175MPD1    H7 2677   2.646   3.295  15.132  0.4140  0.6414 -0.1275
  176MPD1     C 2678   4.089   4.586  17.689  0.1807  0.2557 -0.1616
  176MPD1    C1 2679   4.003   4.680   0.037 -0.3543  0.1501 -0.3730
  176MPD1    C2 2680   3.997   0.074  17.671  0.0241 -0.1609 -0.0913
  176MPD1    C3 2681   4.085   0.101  17.561  0.4188 -0.3392 -0.2808
  176MPD1    C4 2682   4.181   0.006  17.526  0.4508 -0.2446 -0.2287
  176MPD1    C5 2683   4.179   4.613  17.592  0.1444  0.8956  0.1443
  176MPD1     H 2684   3.914   0.138  17.698  0.5583  1.0245 -1.2720
  176MPD1    H1 2685   4.250   0.015  17.443  2.7797 -0.8173  1.6570
  176MPD1    H2 2686   4.090   4.488   0.033 -1.9244  0.9095  1.2987
  176MPD1    H3 2687   4.238   4.527  17.559 -2.5969 -0.5186 -1.0963
  176MPD1     N 2688   4.077   0.230  17.505 -0.0333 -0.4269  0.1490
  176MPD1    H5 2689   3.999   0.287  17.536  1.5398  0.9974  1.5012
  176MPD1    N1 2690   3.904   4.638   0.133 -0.2045 -0.8283 -0.2454
  176MPD1    H6 2691   3.859   4.707   0.192 -0.7101 -0.9922 -0.4437
  176MPD1    H7 2692   3.955   4.589   0.207 -1.0521 -0.4512  0.5914
  177MPD1     C 2693   2.896   0.071   9.927  0.7742  0.2138 -0.7993
  177MPD1    C1 2694   2.877   0.199   9.971 -0.6063 -0.0062 -0.1183
  177MPD1    C2 2695   2.782   0.279   9.901  0.1395  0.7617  0.1208
  177MPD1    C3 2696   2.700   0.224   9.809 -0.3709  0.4314  0.0735
  177MPD1    C4 2697   2.713   0.090   9.772 -0.0826 -0.7047  0.0216
  177MPD1    C5 2698   2.819   0.021   9.827 -0.2472  0.3797 -0.6285
  177MPD1     H 2699   2.770   0.384   9.926  1.5341  0.9487 -0.0105
  177MPD1    H1 2700   2.663   0.041   9.689 -1.4409  1.7824 -0.6000
  177MPD1    H2 2701   2.980   0.007   9.952  0.4657  0.3098  0.4795
  177MPD1    H3 2702   2.845   4.650   9.784 -0.8970  0.0843 -0.3634
  177MPD1     N 2703   2.598   0.307   9.771  0.2527  0.0559 -0.0883
  177MPD1    H5 2704   2.570   0.384   9.830 -1.9310 -1.4100  0.7693
  177MPD1    N1 2705   2.973   0.255  10.053 -0.3166 -0.0871 -0.4600
  177MPD1    H6 2706   3.004   0.182  10.116 -0.6727  0.1836  0.0260
  177MPD1    H7 2707   2.933   0.333  10.104  0.4622  1.1129 -1.6979
  178MPD1     C 2708   4.566   1.290   0.254 -0.3965 -0.6005  0.0280
  178MPD1    C1 2709   4.693   1.337   0.288  0.0358 -0.2750  0.3961
  178MPD1    C2 2710   0.058   1.340   0.190  0.3710 -0.6090  0.6232
  178MPD1    C3 2711   0.038   1.286   0.064  0.6974 -0.1175 -0.5227
  178MPD1    C4 2712   4.636   1.250   0.024  0.0172 -0.3340  0.2185
  178MPD1    C5 2713   4.546   1.246   0.124 -0.2507 -0.3655 -0.4449
  178MPD1     H 2714   0.146   1.399   0.208 -0.9716  0.9758  2.0086
  178MPD1    H1 2715   4.611   1.218  17.625 -2.1376  2.2423 -0.0492
  178MPD1    H2 2716   4.479   1.297   0.319  0.2587 -0.2787  0.8678
  178MPD1    H3 2717   4.447   1.208   0.100 -0.6606 -0.2167  0.9994
  178MPD1     N 2718   0.135   1.288  17.665 -0.6850  0.8075 -0.3302
  178MPD1    H5 2719   0.092   1.266  17.576 -0.2588 -3.2345  0.4861
  178MPD1    N1 2720   4.703   1.397   0.416 -0.5081  0.6702 -0.0153
  178MPD1    H6 2721   4.648   1.350   0.488  0.7552 -1.6196 -0.5637
  178MPD1    H7 2722   0.074   1.407   0.447  0.4364 -0.8070 -2.4955
  179MPD1     C 2723   0.075   3.548  14.830 -0.3482 -0.0712  0.5599
  179MPD1    C1 2724   0.127   3.491  14.944 -0.1588  0.5521 -1.0140
  179MPD1    C2 2725   0.059   3.511  15.061  0.1728  0.5525 -0.4566
  179MPD1    C3 2726   4.684   3.602  15.075  0.1947  0.1654  0.4224
  179MPD1    C4 2727   4.642   3.661  14.959  0.2398  0.3493 -0.0679
  179MPD1    C5 2728   4.691   3.634  14.833  0.0742  0.0590  0.3956
  179MPD1     H 2729   0.105   3.466  15.148 -0.8994  2.7036  1.2442
  179MPD1    H1 2730   4.554   3.724  14.965  0.0576 -0.0105  1.1144
  179MPD1    H2 2731   0.118   3.531  14.732  0.6737  0.3622  0.9304
  179MPD1    H3 2732   4.640   3.675  14.747  1.8331 -0.4109 -0.8698
  179MPD1     N 2733   4.616   3.652  15.191 -0.5109  0.1481  0.1310
  179MPD1    H5 2734   4.544   3.722  15.176 -1.8307 -1.8844 -3.0926
  179MPD1    N1 2735   0.236   3.399  14.948  0.4357 -0.8591  0.4545
  179MPD1    H6 2736   0.300   3.414  14.870  1.1157 -2.2103  0.7561
  179MPD1    H7 2737   0.291   3.403  15.033  0.1014  1.3142  0.5803
  180MPD1     C 2738   3.745   0.766  15.267  0.2983 -0.1959 -0.9433
  180MPD1    C1 2739   3.691   0.662  15.202  0.3081 -0.3161  0.9609
  180MPD1    C2 2740   3.745   0.625  15.078 -0.2069  0.1385  0.1240
  180MPD1    C3 2741   3.858   0.687  15.033 -0.2376  0.1855  0.1111
  180MPD1    C4 2742   3.911   0.799  15.110  0.1349 -0.3145  0.3303
  180MPD1    C5 2743   3.856   0.838  15.228 -0.0360 -0.4709 -0.6785
  180MPD1     H 2744   3.697   0.546  15.022 -0.7942  1.2506 -0.9310
  180MPD1    H1 2745   3.999   0.843  15.065 -2.2835  1.5448 -2.5529
  180MPD1    H2 2746   3.708   0.793  15.365 -2.3094  1.3350 -2.3395
  180MPD1    H3 2747   3.905   0.909  15.294  1.7418 -1.7714 -0.5861
  180MPD1     N 2748   3.914   0.631  14.917  0.2421 -0.2163 -0.2575
  180MPD1    H5 2749   3.870   0.546  14.882  0.2423  0.3534 -1.6415
  180MPD1    N1 2750   3.577   0.598  15.251 -0.3423  0.0212  0.2671
  180MPD1    H6 2751   3.551   0.505  15.218  0.4798  0.4425 -1.5811
  180MPD1    H7 2752   3.567   0.613  15.351 -1.9744 -1.9223  0.3877
  181MPD1     C 2753   1.653   2.132  10.495  0.2637  0.6089 -0.1531
  181MPD1    C1 2754   1.734   2.025  10.485 -0.2195 -0.2386  0.1091
  181MPD1    C2 2755   1.818   2.012  10.375  0.2694  0.2414  0.4148
  181MPD1    C3 2756   1.822   2.110  10.278  0.4277 -0.0712  0.3375
  181MPD1    C4 2757   1.736   2.220  10.291 -0.1738 -0.5156  0.6098
  181MPD1    C5 2758   1.649   2.225  10.393 -0.3298 -0.0441 -0.1144
  181MPD1     H 2759   1.875   1.921  10.364  3.3813  2.2373 -0.1407
  181MPD1    H1 2760   1.742   2.307  10.226  1.6139 -1.0946  0.0116
  181MPD1    H2 2761   1.579   2.137  10.574  0.2927  0.1272 -0.0973
  181MPD1    H3 2762   1.583   2.309  10.408  0.4936  0.8136 -1.3363
  181MPD1     N 2763   1.919   2.124  10.173  0.1027 -0.2181  0.2813
  181MPD1    H5 2764   1.910   2.206  10.113  0.5907  0.3578  0.9845
  181MPD1    N1 2765   1.721   1.923  10.581  0.3149 -0.1658 -0.0730
  181MPD1    H6 2766   1.690   1.960  10.670 -2.7646 -1.6966 -0.4854
  181MPD1    H7 2767   1.809   1.873  10.590  0.8955  0.5211 -1.9077
  182MPD1     C 2768   3.036   2.075   1.151 -0.8334 -0.3992 -0.0150
  182MPD1    C1 2769   2.978   1.981   1.069  0.9393  0.4050 -0.9512
  182MPD1    C2 2770   2.847   1.995   1.034  0.1570  0.3477  0.1171
  182MPD1    C3 2771   2.768   2.095   1.085 -0.3721  0.2617  0.0529
  182MPD1    C4 2772   2.824   2.192   1.168  0.5801 -0.0756 -0.9334
  182MPD1    C5 2773   2.960   2.175   1.204  0.0663  0.3794 -0.0182
  182MPD1     H 2774   2.814   1.935   0.950  1.0072  1.3637 -0.9361
  182MPD1    H1 2775   2.770   2.282   1.195  0.7830 -1.1125  2.9339
  182MPD1    H2 2776   3.142   2.082   1.168 -0.8396  0.7939 -0.4583
  182MPD1    H3 2777   3.002   2.258   1.259 -1.0450 -0.1498  1.6177
  182MPD1     N 2778   2.628   2.112   1.062  0.4050 -0.3145  0.2294
  182MPD1    H5 2779   2.576   2.172   1.126 -1.8957 -0.7581 -1.2038
  182MPD1    N1 2780   3.055   1.889   0.997  0.1826 -0.2032  0.4981
  182MPD1    H6 2781   3.130   1.848   1.053  0.3912 -1.2589 -0.5783
  182MPD1    H7 2782   3.003   1.808   0.964 -0.1836 -0.8737  2.7205
  183MPD1     C 2783   3.797   2.643   9.104  0.5373 -0.1893  0.0054
  183MPD1    C1 2784   3.816   2.510   9.106 -0.5214  0.5829  0.0243
  183MPD1    C2 2785   3.746   2.432   9.193 -0.1114 -0.4413  0.2874
  183MPD1    C3 2786   3.643   2.485   9.271  0.7544 -0.3974  0.1652
  183MPD1    C4 2787   3.629   2.622   9.271  0.0160 -1.0408 -0.0203
  183MPD1    C5 2788   3.702   2.702   9.187  0.4423  0.4704  0.3615
  183MPD1     H 2789   3.753   2.324   9.186 -0.8272 -0.3463 -1.9924
  183MPD1    H1 2790   3.543   2.667   9.321  0.5729 -2.0385  1.8560
  183MPD1    H2 2791   3.853   2.712   9.042 -2.5989 -0.0913 -2.7558
  183MPD1    H3 2792   3.677   2.807   9.177 -1.1299  0.2405  1.8791
  183MPD1     N 2793   3.562   2.397   9.344 -0.3563 -0.1102 -0.1055
  183MPD1    H5 2794   3.573   2.297   9.333 -0.7494 -0.2101  0.4550
  183MPD1    N1 2795   3.930   2.453   9.040 -0.2153  0.5346  0.4602
  183MPD1    H6 2796   3.951   2.489   8.947  0.9788  0.6723  0.7811
  183MPD1    H7 2797   3.925   2.352   9.045 -2.4449  0.5311 -1.7751
  184MPD1     C 2798   2.898   4.643   9.359  0.0092  0.6271 -0.2742
  184MPD1    C1 2799   2.889   4.558   9.468  0.1251 -0.3732  0.1604
  184MPD1    C2 2800   2.759   4.530   9.513 -0.2108  0.0982  0.7270
  184MPD1    C3 2801   2.651   4.604   9.475  0.4810  0.4175  0.0113
  184MPD1    C4 2802   2.664   4.699   9.375  0.3829 -0.1856  0.7913
  184MPD1    C5 2803   2.786   4.706   9.314  0.2251 -0.1106  0.8615
  184MPD1     H 2804   2.752   4.454   9.591 -1.6205  0.7977  1.2733
  184MPD1    H1 2805   2.584   0.041   9.347 -1.0320 -2.6145 -0.9725
  184MPD1    H2 2806   2.995   4.663   9.316 -0.0387  3.3139  0.8539
  184MPD1    H3 2807   2.792   0.048   9.228  1.1624 -0.9152  0.2948
  184MPD1     N 2808   2.520   4.590   9.536  0.2203 -0.1330  0.1707
  184MPD1    H5 2809   2.460   4.670   9.522  0.2929 -0.1264 -0.0906
  184MPD1    N1 2810   3.001   4.477   9.499  0.0373  0.8352 -0.4452
  184MPD1    H6 2811   3.092   4.521   9.490  0.9934 -0.6216  1.8157
  184MPD1    H7 2812   2.983   4.432   9.589  2.8294  2.2365  0.8283
  185MPD1     C 2813   1.687   3.924   9.780 -0.2463  0.0954 -0.6928
  185MPD1    C1 2814   1.819   3.890   9.762  1.0407  0.7830  0.4342
  185MPD1    C2 2815   1.909   4.001   9.746  0.3015 -0.0281 -0.0533
  185MPD1    C3 2816   1.871   4.133   9.756 -0.3737 -0.2186 -0.0717
  185MPD1    C4 2817   1.737   4.159   9.788  0.4606  0.0568  0.0530
  185MPD1    C5 2818   1.647   4.056   9.797 -0.0425 -0.5723  0.0559
  185MPD1     H 2819   2.012   3.968   9.743  0.4698  0.5448 -0.5490
  185MPD1    H1 2820   1.706   4.262   9.800 -2.5633 -0.9212  0.7456
  185MPD1    H2 2821   1.607   3.851   9.784 -2.5137  2.7046  1.6085
  185MPD1    H3 2822   1.541   4.070   9.816  0.5031  0.8648  2.0251
  185MPD1     N 2823   1.954   4.245   9.756 -0.5405  0.1976  0.0622
  185MPD1    H5 2824   1.908   4.335   9.767 -0.4779  0.4215 -1.4527
  185MPD1    N1 2825   1.859   3.758   9.735 -0.1196  0.1434 -0.0957
  185MPD1    H6 2826   1.815   3.696   9.803  0.5432  0.4866  0.6508
  185MPD1    H7 2827   1.959   3.748   9.751 -0.0573  0.4485 -0.2973
  186MPD1     C 2828   0.509   4.051  15.887 -0.2538  0.0627 -0.8028
  186MPD1    C1 2829   0.505   4.178  15.835  0.1925 -0.4854 -0.5691
  186MPD1    C2 2830   0.477   4.277  15.926 -0.0519 -0.2974 -0.4387
  186MPD1    C3 2831   0.441   4.253  16.063  0.0117 -0.6316  0.5280
  186MPD1    C4 2832   0.424   4.126  16.095 -0.2723 -0.6826 -0.0007
  186MPD1    C5 2833   0.462   4.027  16.015  0.0882  0.2448  0.4497
  186MPD1     H 2834   0.473   4.379  15.889 -2.3317 -0.6547 -1.1489
  186MPD1    H1 2835   0.405   4.096  16.198  1.7186 -0.8774  0.3099
  186MPD1    H2 2836   0.540   3.962  15.833  1.4553 -0.0433  0.3508
  186MPD1    H3 2837   0.472   3.926  16.052 -1.1201 -0.4250 -1.0416
  186MPD1     N 2838   0.409   4.351  16.159 -0.4787 -0.1124  0.0509
  186MPD1    H5 2839   0.382   4.321  16.252  0.7488 -0.2884  0.3424
  186MPD1    N1 2840   0.537   4.211  15.703 -1.0187  0.7484 -1.0992
  186MPD1    H6 2841   0.486   4.294  15.672 -0.4021  1.7191  0.5268
  186MPD1    H7 2842   0.507   4.134  15.643  0.8020  0.3275 -1.4552
  187MPD1     C 2843   3.672   2.000   0.626 -0.7959  0.3533 -0.5119
  187MPD1    C1 2844   3.779   1.921   0.609  0.1625  0.3415  0.2751
  187MPD1    C2 2845   3.813   1.887   0.478  0.4985  0.0301  0.2930
  187MPD1    C3 2846   3.750   1.932   0.364 -0.1505 -0.3368  0.0157
  187MPD1    C4 2847   3.650   2.020   0.385 -0.1757 -0.9581 -0.2857
  187MPD1    C5 2848   3.617   2.053   0.513  0.2060 -0.1048 -0.3748
  187MPD1     H 2849   3.892   1.814   0.468  0.4171 -0.0607  0.3098
  187MPD1    H1 2850   3.584   2.065   0.312 -0.4925  0.0901  0.6464
  187MPD1    H2 2851   3.634   2.016   0.727 -0.7695  1.6073 -0.7134
  187MPD1    H3 2852   3.533   2.121   0.525 -0.0089  0.0500 -2.8524
  187MPD1     N 2853   3.797   1.899   0.235  0.3987  0.2434  0.7902
  187MPD1    H5 2854   3.765   1.958   0.159  1.1893  0.6546  0.7752
  187MPD1    N1 2855   3.834   1.850   0.720 -0.1259  0.3186 -0.2726
  187MPD1    H6 2856   3.929   1.821   0.697 -1.0235 -1.3564 -1.8699
  187MPD1    H7 2857   3.832   1.907   0.804 -1.6985 -0.9237  0.5361
  188MPD1     C 2858   4.176   1.841   9.610  0.1901  0.1237 -0.5142
  188MPD1    C1 2859   4.189   1.806   9.741 -0.4918 -0.3163 -0.5805
  188MPD1    C2 2860   4.212   1.674   9.777  0.0491 -0.1729 -0.6285
  188MPD1    C3 2861   4.219   1.582   9.680  0.0050 -0.1579 -0.2211
  188MPD1    C4 2862   4.219   1.625   9.551  0.6501  0.3723  0.4785
  188MPD1    C5 2863   4.205   1.757   9.515  0.2539  0.3180  0.1447
  188MPD1     H 2864   4.212   1.642   9.880 -1.7057  1.4919 -0.1272
  188MPD1    H1 2865   4.206   1.539   9.486 -2.1378 -0.5045  2.1562
  188MPD1    H2 2866   4.168   1.945   9.580  0.5617  0.1994 -0.3456
  188MPD1    H3 2867   4.187   1.795   9.415 -1.4640  1.9470  1.0935
  188MPD1     N 2868   4.216   1.443   9.699  0.1385  0.2061  0.0298
  188MPD1    H5 2869   4.206   1.393   9.611 -1.5149  0.0074  0.3413
  188MPD1    N1 2870   4.160   1.906   9.832  0.3922  0.3120 -0.0360
  188MPD1    H6 2871   4.238   1.904   9.898  0.1723  1.4256  0.2669
  188MPD1    H7 2872   4.157   1.998   9.789  2.2267 -0.6097 -2.1345
  189MPD1     C 2873   1.053   2.389   0.379 -0.4595  0.7784 -0.0810
  189MPD1    C1 2874   0.941   2.314   0.399 -0.6577  0.1182  0.5949
  189MPD1    C2 2875   0.826   2.369   0.347 -0.4317  0.2637  0.6155
  189MPD1    C3 2876   0.816   2.497   0.285  0.4590 -0.5606  0.0604
  189MPD1    C4 2877   0.932   2.573   0.275  0.4620 -0.0456 -0.4860
  189MPD1    C5 2878   1.049   2.518   0.322 -0.1876  0.0475 -0.2151
  189MPD1     H 2879   0.734   2.312   0.356  0.8300 -1.7493  0.8082
  189MPD1    H1 2880   0.940   2.669   0.225  1.4959 -0.2640 -0.7283
  189MPD1    H2 2881   1.147   2.355   0.420 -1.1012 -1.0383 -0.1297
  189MPD1    H3 2882   1.141   2.575   0.324  1.8637 -3.2220 -1.4863
  189MPD1     N 2883   0.691   2.549   0.234 -0.6189  0.0703  0.4692
  189MPD1    H5 2884   0.610   2.487   0.235 -0.0727 -0.6527 -1.5020
  189MPD1    N1 2885   0.948   2.183   0.449  0.2589  0.4611  0.1099
  189MPD1    H6 2886   1.027   2.162   0.511 -0.6909 -0.9692  0.8502
  189MPD1    H7 2887   0.865   2.161   0.504 -1.0672  0.0112 -2.0681
  190MPD1     C 2888   4.216   1.259  15.608  0.1606  0.1357  0.4964
  190MPD1    C1 2889   4.257   1.257  15.740  0.3759 -0.1462 -0.1312
  190MPD1    C2 2890   4.393   1.242  15.768 -0.6120 -0.2539  0.3256
  190MPD1    C3 2891   4.481   1.213  15.664 -0.3489 -0.6608 -0.2839
  190MPD1    C4 2892   4.444   1.227  15.533 -0.3023  0.2509  0.0258
  190MPD1    C5 2893   4.314   1.251  15.510 -0.1963 -0.5185 -0.0602
  190MPD1     H 2894   4.430   1.227  15.868 -1.3971 -3.1250  0.1775
  190MPD1    H1 2895   4.511   1.220  15.448 -1.4028 -1.0932 -0.7174
  190MPD1    H2 2896   4.116   1.271  15.567  0.1781  0.0477  0.4272
  190MPD1    H3 2897   4.282   1.269  15.408 -3.3544  0.2713  1.0537
  190MPD1     N 2898   4.610   1.163  15.698 -0.1782  0.5014  0.3601
  190MPD1    H5 2899   4.614   1.158  15.799  1.8173 -1.5951  0.1654
  190MPD1    N1 2900   4.158   1.241  15.840 -0.9263  0.1272  0.4345
  190MPD1    H6 2901   4.177   1.259  15.938  0.9792 -2.1915  0.4759
  190MPD1    H7 2902   4.071   1.289  15.816 -0.4147  0.4687 -0.7423
  191MPD1     C 2903   4.326   2.453  12.239 -0.7727  0.1495  0.1856
  191MPD1    C1 2904   4.443   2.525  12.247 -0.3053  0.2705  0.5611
  191MPD1    C2 2905   4.528   2.534  12.138  0.1028  0.4115  0.1069
  191MPD1    C3 2906   4.492   2.479  12.014 -0.5854 -0.3833  0.0009
  191MPD1    C4 2907   4.370   2.409  12.010  0.7610  0.1985 -0.5938
  191MPD1    C5 2908   4.292   2.386  12.120  0.3283 -0.1156 -0.5881
  191MPD1     H 2909   4.626   2.579  12.142  0.6450 -0.9130  1.5094
  191MPD1    H1 2910   4.342   2.356  11.919 -1.2181 -0.3098  0.3211
  191MPD1    H2 2911   4.266   2.444  12.329 -0.6598  0.6382  0.3060
  191MPD1    H3 2912   4.208   2.317  12.121 -0.0808  0.3829 -1.3543
  191MPD1     N 2913   4.577   2.497  11.899 -0.2516  0.4189 -0.2628
  191MPD1    H5 2914   4.647   2.569  11.916  0.1483 -0.3323  1.2501
  191MPD1    N1 2915   4.486   2.581  12.369  0.6066 -0.3090 -0.2567
  191MPD1    H6 2916   4.537   2.669  12.357 -0.1534  0.0372 -0.9851
  191MPD1    H7 2917   4.423   2.578  12.449  1.4173 -1.9342  0.3211
  192MPD1     C 2918   4.416   2.503  10.927  0.2945  0.2746  0.3009
  192MPD1    C1 2919   4.547   2.511  10.929 -0.7312  0.2983 -0.5969
  192MPD1    C2 2920   4.611   2.540  11.051  0.0828  0.1215  0.2707
  192MPD1    C3 2921   4.532   2.550  11.166  0.0723 -0.8078 -0.4923
  192MPD1    C4 2922   4.390   2.533  11.160  0.2910 -0.1476 -0.2388
  192MPD1    C5 2923   4.332   2.516  11.038 -0.3333  0.0082 -1.1285
  192MPD1     H 2924   4.719   2.539  11.056  0.0017  1.6907  2.1029
  192MPD1    H1 2925   4.329   2.548  11.248 -1.5101  1.1836 -1.7192
  192MPD1    H2 2926   4.358   2.468  10.841  0.1170 -1.9517  1.3111
  192MPD1    H3 2927   4.225   2.505  11.021 -0.4571  2.4418 -1.8737
  192MPD1     N 2928   4.581   2.570  11.299  0.3236  0.1827 -0.2334
  192MPD1    H5 2929   4.523   2.593  11.379 -0.6750 -0.3120 -0.8171
  192MPD1    N1 2930   4.618   2.510  10.806  0.7432 -0.5725 -0.6052
  192MPD1    H6 2931   4.714   2.478  10.809  0.2923 -2.1814 -2.8487
  192MPD1    H7 2932   4.574   2.446  10.739 -0.9258 -1.0152  0.9063
  193MPD1     C 2933   3.315   3.199  17.475 -0.3415 -0.0771 -0.4828
  193MPD1    C1 2934   3.450   3.195  17.470 -0.2469 -0.0296  0.7079
  193MPD1    C2 2935   3.516   3.229  17.351  0.3738  0.0378  0.1832
  193MPD1    C3 2936   3.451   3.271  17.238  0.4368  0.3901  0.1464
  193MPD1    C4 2937   3.309   3.265  17.242  0.4685 -0.1322  0.3627
  193MPD1    C5 2938   3.240   3.230  17.359  0.7478  0.5659 -0.8649
  193MPD1     H 2939   3.623   3.241  17.355  0.5133 -1.4205  0.6698
  193MPD1    H1 2940   3.251   3.294  17.156  0.6495 -2.5915 -0.6053
  193MPD1    H2 2941   3.265   3.172  17.568 -0.7465 -0.0312 -0.6860
  193MPD1    H3 2942   3.133   3.213  17.362  0.4908  2.5292  2.0288
  193MPD1     N 2943   3.515   3.315  17.120  0.0863 -0.5261  0.6245
  193MPD1    H5 2944   3.469   3.358  17.040  0.3816  0.6478  1.0736
  193MPD1    N1 2945   3.514   3.162  17.586 -0.2363  0.5191  0.2346
  193MPD1    H6 2946   3.593   3.102  17.562 -0.2133 -0.3233  2.4656
  193MPD1    H7 2947   3.456   3.123  17.659 -0.7599 -1.0529 -1.0279
  194MPD1     C 2948   1.953   0.627  16.088 -0.1199 -0.3078 -0.0389
  194MPD1    C1 2949   1.976   0.505  16.029  0.0955 -0.1213 -0.0603
  194MPD1    C2 2950   2.011   0.404  16.115  0.0514  0.3557 -0.4095
  194MPD1    C3 2951   2.014   0.413  16.252  0.6086  0.3082 -0.2083
  194MPD1    C4 2952   2.001   0.541  16.305 -0.2457 -0.1904  0.4228
  194MPD1    C5 2953   1.964   0.645  16.224  0.0999 -0.4260 -0.1453
  194MPD1     H 2954   2.024   0.311  16.059  0.6075  1.1104 -1.5387
  194MPD1    H1 2955   2.023   0.571  16.407  2.3183  0.7279 -0.4088
  194MPD1    H2 2956   1.923   0.716  16.034  0.0613  0.8187  1.7099
  194MPD1    H3 2957   1.960   0.739  16.277 -1.1455 -1.3632  1.4551
  194MPD1     N 2958   2.041   0.304  16.341 -0.1390  0.2364 -0.0177
  194MPD1    H5 2959   2.047   0.333  16.438 -0.5763 -1.7882  0.6169
  194MPD1    N1 2960   1.967   0.495  15.892  0.2838 -0.5894  0.1513
  194MPD1    H6 2961   1.888   0.543  15.849  0.8295  1.4128  1.4392
  194MPD1    H7 2962   1.974   0.406  15.842  0.9825  0.8402 -2.2939
  195MPD1     C 2963   3.213   2.070   0.355 -0.3616 -0.0711  0.4965
  195MPD1    C1 2964   3.206   2.054   0.218 -0.0666  0.0553  0.9585
  195MPD1    C2 2965   3.287   1.953   0.157 -0.3319  0.5907  0.5395
  195MPD1    C3 2966   3.335   1.856   0.237 -0.2278  0.4549 -0.2331
  195MPD1    C4 2967   3.316   1.855   0.375  0.1870  0.2292 -0.8112
  195MPD1    C5 2968   3.257   1.964   0.434  0.1014  0.2646  0.0342
  195MPD1     H 2969   3.307   1.959   0.051  0.8094  1.3089  0.7961
  195MPD1    H1 2970   3.344   1.777   0.445 -1.8533  1.1793  1.0773
  195MPD1    H2 2971   3.156   2.152   0.396  1.1395  0.7507  0.9681
  195MPD1    H3 2972   3.247   1.960   0.542 -4.3740  1.9534 -0.2901
  195MPD1     N 2973   3.420   1.751   0.181 -0.2483  0.0706  0.0499
  195MPD1    H5 2974   3.461   1.694   0.254  2.0820  1.6794 -0.0294
  195MPD1    N1 2975   3.153   2.162   0.138 -0.0717 -0.2768 -0.2730
  195MPD1    H6 2976   3.110   2.130   0.052 -3.2943  0.4915  1.0740
  195MPD1    H7 2977   3.086   2.227   0.179 -1.5171  0.1229 -3.3388
  196MPD1     C 2978   2.337   2.056   0.001  0.0364 -0.6338 -0.5529
  196MPD1    C1 2979   2.292   2.170   0.060  0.0832 -0.6623  0.2817
  196MPD1    C2 2980   2.381   2.240   0.139 -0.0640  0.5740 -0.0217
  196MPD1    C3 2981   2.509   2.203   0.157 -0.2326  0.1904  0.2509
  196MPD1    C4 2982   2.553   2.084   0.104 -0.0952  0.6075  0.4068
  196MPD1    C5 2983   2.467   2.011   0.025 -0.2321  0.8206 -0.3750
  196MPD1     H 2984   2.333   2.316   0.200 -0.6900 -1.0195  1.4677
  196MPD1    H1 2985   2.648   2.045   0.137 -1.7617 -2.9317  0.9764
  196MPD1    H2 2986   2.281   1.999  17.630 -3.0182  0.5068  0.9354
  196MPD1    H3 2987   2.491   1.916  17.680  0.8232  0.4184  0.9836
  196MPD1     N 2988   2.596   2.270   0.247  0.6545 -0.1976  0.3119
  196MPD1    H5 2989   2.686   2.224   0.258  0.6632 -0.7792 -2.3326
  196MPD1    N1 2990   2.154   2.199   0.035  0.0832 -0.2467 -0.6304
  196MPD1    H6 2991   2.100   2.141  17.672  1.3584  1.0780 -2.8908
  196MPD1    H7 2992   2.141   2.295   0.003  1.7243  0.6066  1.2615
  197MPD1     C 2993   2.150   3.490  17.604 -0.5798 -1.1915 -0.8091
  197MPD1    C1 2994   2.241   3.584  17.661 -0.2067  0.7045  0.2152
  197MPD1    C2 2995   2.293   3.678  17.573  0.3544 -0.4624  0.9796
  197MPD1    C3 2996   2.275   3.670  17.441  0.0565 -0.5899 -0.4763
  197MPD1    C4 2997   2.195   3.577  17.383  0.0730  0.3013  0.3665
  197MPD1    C5 2998   2.136   3.488  17.469  0.3247 -0.0855 -0.2770
  197MPD1     H 2999   2.355   3.753  17.622  0.9821 -0.9472  0.9222
  197MPD1    H1 3000   2.179   3.580  17.276 -0.7445 -0.3140  0.4675
  197MPD1    H2 3001   2.101   3.417  17.666 -1.8616  2.6709  2.7192
  197MPD1    H3 3002   2.062   3.421  17.427  0.4916  0.3400 -1.2560
  197MPD1     N 3003   2.335   3.758  17.352  0.4484  0.1531  0.3168
  197MPD1    H5 3004   2.322   3.734  17.254  1.3009 -1.2474  0.5430
  197MPD1    N1 3005   2.248   3.600   0.097  0.6910  0.2600 -0.3690
  197MPD1    H6 3006   2.246   3.509   0.142  1.9482  0.9669  1.1419
  197MPD1    H7 3007   2.335   3.640   0.131  0.0983  0.0314  1.4315
  198MPD1     C 3008   4.452   1.607  15.530 -0.1833 -0.5211  0.1439
  198MPD1    C1 3009   4.539   1.714  15.495 -0.0219  0.1266 -1.3070
  198MPD1    C2 3010   4.576   1.811  15.579 -0.0397  0.0719 -0.3023
  198MPD1    C3 3011   4.506   1.828  15.697 -0.0901 -0.2628 -0.4627
  198MPD1    C4 3012   4.413   1.734  15.731 -0.2850 -0.3332  0.1109
  198MPD1    C5 3013   4.391   1.625  15.654  0.2603 -0.2424 -0.5257
  198MPD1     H 3014   4.659   1.878  15.557 -0.1410  0.3362  0.1259
  198MPD1    H1 3015   4.370   1.736  15.830 -1.9888 -1.1293 -0.6248
  198MPD1    H2 3016   4.440   1.517  15.471  2.4616 -0.9807  0.2794
  198MPD1    H3 3017   4.321   1.549  15.687  1.8299 -2.0662 -1.3658
  198MPD1     N 3018   4.527   1.946  15.774  0.2560 -0.3861 -0.2149
  198MPD1    H5 3019   4.589   2.015  15.732 -0.3377 -0.1568 -0.7183
  198MPD1    N1 3020   4.602   1.719  15.367  0.0888  0.0775  0.4564
  198MPD1    H6 3021   4.597   1.805  15.314  1.5764 -0.0574  0.1103
  198MPD1    H7 3022   4.578   1.638  15.310  1.2554  0.4427 -0.5311
  199MPD1     C 3023   1.494   2.708  10.432  0.2797  0.0977 -0.8014
  199MPD1    C1 3024   1.540   2.803  10.337 -0.0872 -0.3120 -0.3941
  199MPD1    C2 3025   1.465   2.823  10.223  0.2205  0.9715 -0.4229
  199MPD1    C3 3026   1.355   2.745  10.195 -0.1268 -0.5826 -0.1372
  199MPD1    C4 3027   1.325   2.633  10.275  0.5395  1.2590 -0.9406
  199MPD1    C5 3028   1.393   2.619  10.391  0.4943  0.4076 -0.2015
  199MPD1     H 3029   1.485   2.912  10.164  2.6590  2.2543  2.3326
  199MPD1    H1 3030   1.248   2.564  10.245 -0.0877  1.3017  0.5486
  199MPD1    H2 3031   1.551   2.682  10.520 -1.7761 -2.2873 -0.1828
  199MPD1    H3 3032   1.374   2.535  10.457  3.1089 -1.2208 -1.5217
  199MPD1     N 3033   1.282   2.761  10.067 -0.6860 -0.4066 -0.1990
  199MPD1    H5 3034   1.202   2.698  10.062 -0.6128 -0.6103  1.2286
  199MPD1    N1 3035   1.657   2.875  10.354  0.1336 -0.0099 -0.2191
  199MPD1    H6 3036   1.683   2.889  10.452  0.8020  1.1118 -0.5564
  199MPD1    H7 3037   1.654   2.966  10.309 -2.3983  0.2558  0.4816
  200MPD1     C 3038   0.474   2.235  16.204  0.3940  0.0992  0.1046
  200MPD1    C1 3039   0.606   2.204  16.188 -0.2000  1.0671  0.6791
  200MPD1    C2 3040   0.676   2.182  16.068  0.0631 -0.0457 -1.0478
  200MPD1    C3 3041   0.607   2.210  15.951 -0.0850  0.3801  0.0517
  200MPD1    C4 3042   0.475   2.256  15.961  0.7701  0.9217  0.1427
  200MPD1    C5 3043   0.416   2.272  16.088  0.1826  0.0043 -0.1176
  200MPD1     H 3044   0.775   2.139  16.061 -1.0477 -2.7636 -0.2524
  200MPD1    H1 3045   0.424   2.282  15.869  1.3355 -0.1793 -0.4827
  200MPD1    H2 3046   0.428   2.261  16.299 -0.9751  1.3496 -0.8973
  200MPD1    H3 3047   0.315   2.312  16.089  0.4347  0.6397  0.4810
  200MPD1     N 3048   0.675   2.193  15.822  0.2395  0.2446  0.2914
  200MPD1    H5 3049   0.774   2.180  15.807 -0.1699 -0.6232 -1.6844
  200MPD1    N1 3050   0.680   2.175  16.308  0.1784 -0.1640 -0.5140
  200MPD1    H6 3051   0.778   2.192  16.287  0.4043 -1.7637 -0.7091
  200MPD1    H7 3052   0.652   2.212  16.399  0.0352  1.2926 -1.1488
  201MPD1     C 3053   2.575   2.257  13.199 -0.2556 -1.0738  0.4137
  201MPD1    C1 3054   2.676   2.184  13.136 -0.9036 -0.1735 -0.2880
  201MPD1    C2 3055   2.677   2.049  13.150  0.2934  0.1731 -0.0896
  201MPD1    C3 3056   2.578   1.983  13.220  0.6675 -0.5930 -0.0891
  201MPD1    C4 3057   2.478   2.053  13.280  0.0862  0.7089 -0.1606
  201MPD1    C5 3058   2.478   2.189  13.270  0.2884  0.3679 -0.1798
  201MPD1     H 3059   2.755   1.989  13.105 -0.7109 -0.0615 -1.5176
  201MPD1    H1 3060   2.408   1.999  13.343  0.6146  2.9315  2.3207
  201MPD1    H2 3061   2.552   2.361  13.180  0.0675 -1.4512 -2.0444
  201MPD1    H3 3062   2.404   2.245  13.325  1.2233  2.0165 -0.6042
  201MPD1     N 3063   2.600   1.846  13.239  0.0783  0.3431  0.5843
  201MPD1    H5 3064   2.698   1.824  13.221  0.0524  0.4958  0.2625
  201MPD1    N1 3065   2.785   2.248  13.073 -0.0257  0.1315  0.7828
  201MPD1    H6 3066   2.777   2.348  13.052 -0.4472 -0.5584 -2.3647
  201MPD1    H7 3067   2.829   2.198  12.996  2.8287 -0.5005  2.8337
  202MPD1     C 3068   2.827   1.398   9.272 -0.4337  0.3923 -0.0583
  202MPD1    C1 3069   2.803   1.300   9.364 -0.4160  0.5090 -0.3381
  202MPD1    C2 3070   2.909   1.239   9.424  0.1531  0.7976 -0.6710
  202MPD1    C3 3071   3.039   1.255   9.367 -0.3458 -0.3924  0.3887
  202MPD1    C4 3072   3.049   1.338   9.255 -0.5962  0.1825 -0.3007
  202MPD1    C5 3073   2.949   1.416   9.217  0.2011  0.5821 -0.6767
  202MPD1     H 3074   2.902   1.178   9.514 -1.6192 -1.3707 -2.3086
  202MPD1    H1 3075   3.144   1.345   9.203  0.8400 -0.1564  2.2585
  202MPD1    H2 3076   2.747   1.463   9.238  0.3320 -0.8059 -4.2079
  202MPD1    H3 3077   2.963   1.490   9.139  0.9234 -1.1456 -2.1914
  202MPD1     N 3078   3.160   1.186   9.409 -0.5839  0.2390  0.0655
  202MPD1    H5 3079   3.246   1.208   9.360  0.2009  0.3841  1.5081
  202MPD1    N1 3080   2.684   1.314   9.435  0.4726  0.7674  0.6825
  202MPD1    H6 3081   2.671   1.233   9.496 -2.5077  1.4382  0.9481
  202MPD1    H7 3082   2.604   1.318   9.373  1.2005  0.3962 -0.2792
  203MPD1     C 3083   2.351   3.043  12.417 -0.2342  0.0345 -0.5804
  203MPD1    C1 3084   2.406   2.960  12.315  0.4421  0.2104 -0.5585
  203MPD1    C2 3085   2.391   2.825  12.337  0.2423 -0.2954 -0.4052
  203MPD1    C3 3086   2.326   2.775  12.452 -0.4541  0.2117 -0.9845
  203MPD1    C4 3087   2.287   2.862  12.550 -0.1662  0.2849 -0.4950
  203MPD1    C5 3088   2.291   2.992  12.520  0.4519 -0.2772  0.0863
  203MPD1     H 3089   2.431   2.753  12.267 -2.7357 -0.5618 -1.8300
  203MPD1    H1 3090   2.246   2.831  12.645 -0.1317 -1.1510 -0.9617
  203MPD1    H2 3091   2.350   3.151  12.417 -2.1276  0.0328 -1.9563
  203MPD1    H3 3092   2.248   3.043  12.605  0.7467  0.2777 -0.0983
  203MPD1     N 3093   2.313   2.637  12.452  0.5829 -0.7740  0.4482
  203MPD1    H5 3094   2.355   2.583  12.377 -2.1882 -0.9745 -0.9241
  203MPD1    N1 3095   2.452   3.015  12.196  0.0140  0.1519 -0.1950
  203MPD1    H6 3096   2.492   3.108  12.209  0.3100 -0.5380  3.7234
  203MPD1    H7 3097   2.534   2.963  12.168  0.7053  1.4963 -0.6697
  204MPD1     C 3098   1.429   3.415  17.259 -0.0230 -1.3525  0.0262
  204MPD1    C1 3099   1.521   3.375  17.164 -0.3268  0.3971 -0.3899
  204MPD1    C2 3100   1.485   3.364  17.033 -0.6772  0.1794 -0.3489
  204MPD1    C3 3101   1.347   3.400  16.997  0.1317 -0.1285  0.5684
  204MPD1    C4 3102   1.261   3.437  17.098  0.1878 -0.2844 -0.6804
  204MPD1    C5 3103   1.298   3.444  17.231 -0.0714  0.5717 -0.1007
  204MPD1     H 3104   1.550   3.343  16.949 -0.6429 -0.3261 -0.1920
  204MPD1    H1 3105   1.159   3.468  17.080 -0.2933 -1.9073 -0.6764
  204MPD1    H2 3106   1.448   3.434  17.364  0.9752 -1.4739 -0.1310
  204MPD1    H3 3107   1.228   3.459  17.312 -1.5147  0.6803 -1.3617
  204MPD1     N 3108   1.307   3.391  16.857  0.4017 -1.1791 -0.0080
  204MPD1    H5 3109   1.383   3.375  16.792  0.3897 -1.0530 -0.0536
  204MPD1    N1 3110   1.654   3.373  17.204 -0.2784 -0.1558 -0.5554
  204MPD1    H6 3111   1.722   3.332  17.141  0.3145 -1.0378  0.6479
  204MPD1    H7 3112   1.658   3.331  17.297  2.1126  2.7451  0.6710
  205MPD1     C 3113   1.884   2.667  16.673  0.7325  0.3267 -0.5540
  205MPD1    C1 3114   1.842   2.607  16.790  0.4797 -0.3854  0.0640
  205MPD1    C2 3115   1.719   2.639  16.833  0.0292 -0.0373  0.2111
  205MPD1    C3 3116   1.622   2.710  16.759 -0.0140  0.1872  0.1617
  205MPD1    C4 3117   1.662   2.757  16.633 -0.1078 -0.2915 -0.3655
  205MPD1    C5 3118   1.790   2.720  16.586  0.1677 -0.3497 -0.7584
  205MPD1     H 3119   1.706   2.610  16.936 -1.1690 -0.0367  0.0671
  205MPD1    H1 3120   1.587   2.801  16.569 -2.0432 -0.3657  1.8672
  205MPD1    H2 3121   1.987   2.659  16.642  1.1563  0.8292  0.7041
  205MPD1    H3 3122   1.821   2.744  16.485  1.1931 -0.9968 -0.5917
  205MPD1     N 3123   1.488   2.734  16.786  0.2591 -0.1815  0.2873
  205MPD1    H5 3124   1.441   2.806  16.732  0.3154  0.3134  0.8855
  205MPD1    N1 3125   1.934   2.540  16.870 -0.2618  0.5807  0.4710
  205MPD1    H6 3126   2.004   2.484  16.822  0.6222  2.1397 -0.0536
  205MPD1    H7 3127   1.890   2.472  16.932  0.5206 -0.7699 -0.4397
  206MPD1     C 3128   1.857   0.281  16.862  1.0044  0.3221  0.2385
  206MPD1    C1 3129   1.793   0.177  16.802 -1.2890 -0.1224 -0.5022
  206MPD1    C2 3130   1.750   0.190  16.675  0.0519  0.2123  0.3187
  206MPD1    C3 3131   1.762   0.310  16.606 -0.2252 -0.8561  0.2444
  206MPD1    C4 3132   1.816   0.416  16.672  0.2555 -0.1271 -0.0221
  206MPD1    C5 3133   1.880   0.400  16.798  0.6500  0.2101  0.2121
  206MPD1     H 3134   1.694   0.105  16.637  0.6930 -0.8849  1.8007
  206MPD1    H1 3135   1.832   0.509  16.619  1.8151 -0.4751 -0.1748
  206MPD1    H2 3136   1.905   0.276  16.959 -0.3299 -1.8610  0.7776
  206MPD1    H3 3137   1.946   0.478  16.832 -1.5911  0.6440  3.6032
  206MPD1     N 3138   1.716   0.326  16.470 -0.4666 -0.3932 -0.0845
  206MPD1    H5 3139   1.723   0.420  16.430  0.1057  0.8746  2.9947
  206MPD1    N1 3140   1.801   0.050  16.859 -0.3477  0.4032  0.7674
  206MPD1    H6 3141   1.734   4.708  16.824  1.5346  0.3918 -2.8493
  206MPD1    H7 3142   1.815   0.051  16.960  0.3855  0.3134  0.6690
  207MPD1     C 3143   4.004   2.624   9.461  0.1153 -1.0746  0.5853
  207MPD1    C1 3144   3.961   2.530   9.546 -0.2246  0.0878  0.0982
  207MPD1    C2 3145   4.025   2.525   9.671  0.2820 -0.0499 -0.1275
  207MPD1    C3 3146   4.133   2.602   9.708 -0.0631 -0.6950 -0.5182
  207MPD1    C4 3147   4.173   2.699   9.614 -1.1252 -0.1929  0.9386
  207MPD1    C5 3148   4.105   2.711   9.495  0.6243 -0.3083 -0.1063
  207MPD1     H 3149   3.995   2.445   9.738 -1.9863  0.9858  0.1007
  207MPD1    H1 3150   4.249   2.774   9.631 -1.3688 -0.0100  1.2226
  207MPD1    H2 3151   3.960   2.627   9.362  0.6616  2.3034  0.4353
  207MPD1    H3 3152   4.124   2.794   9.428 -0.8571  0.2454  0.1671
  207MPD1     N 3153   4.194   2.601   9.834 -0.0571  0.1606 -0.1048
  207MPD1    H5 3154   4.265   2.672   9.848  1.1432 -0.6445 -2.1178
  207MPD1    N1 3155   3.873   2.438   9.500  0.0718  0.3795  0.2900
  207MPD1    H6 3156   3.820   2.485   9.425 -1.6110 -0.7459  0.7724
  207MPD1    H7 3157   3.805   2.416   9.572 -1.2807  2.2897 -0.3923
  208MPD1     C 3158   1.906   2.265  17.086 -0.2841 -0.9029  0.4527
  208MPD1    C1 3159   1.778   2.312  17.103 -0.5542  0.4505 -0.0480
  208MPD1    C2 3160   1.727   2.348  17.225  0.2198 -0.2156  0.2926
  208MPD1    C3 3161   1.801   2.332  17.342 -0.2679  0.1231  0.3475
  208MPD1    C4 3162   1.932   2.295  17.329 -0.8890  0.4237  0.1341
  208MPD1    C5 3163   1.977   2.256  17.206  0.0445  0.1455  0.2192
  208MPD1     H 3164   1.624   2.378  17.240 -0.3026 -1.9457  0.1900
  208MPD1    H1 3165   1.993   2.278  17.417 -2.4037  1.5202  1.4126
  208MPD1    H2 3166   1.948   2.243  16.988  0.3374  2.0123  0.0594
  208MPD1    H3 3167   2.077   2.213  17.205 -0.4973 -1.0758 -1.3400
  208MPD1     N 3168   1.742   2.353  17.470  0.1577 -0.3823 -0.3678
  208MPD1    H5 3169   1.646   2.384  17.481  0.5484  0.4836  0.6208
  208MPD1    N1 3170   1.702   2.344  16.986  0.5152 -0.3965 -0.0869
  208MPD1    H6 3171   1.603   2.335  17.008  0.9465  0.0555  2.0692
  208MPD1    H7 3172   1.717   2.293  16.900 -0.8731  0.1460 -0.6462
  209MPD1     C 3173   4.621   1.508  10.907  0.1960  0.1743 -0.1345
  209MPD1    C1 3174   4.556   1.588  10.817 -0.1441  0.2730 -0.8141
  209MPD1    C2 3175   4.473   1.688  10.863 -0.0566 -0.4327 -0.0623
  209MPD1    C3 3176   4.426   1.696  10.995 -0.3698  0.2995  0.5345
  209MPD1    C4 3177   4.476   1.600  11.076  0.1333 -0.2801  0.0098
  209MPD1    C5 3178   4.572   1.514  11.030  0.1894 -0.7929  0.0433
  209MPD1     H 3179   4.429   1.763  10.798 -0.5529 -1.1425 -0.5566
  209MPD1    H1 3180   4.443   1.591  11.179 -0.9843  1.0324 -0.2397
  209MPD1    H2 3181   4.701   1.439  10.882 -0.0450 -0.1000 -0.1378
  209MPD1    H3 3182   4.619   1.448  11.102 -0.2120  0.0972  1.1296
  209MPD1     N 3183   4.320   1.784  11.024  0.7651  0.2257  0.1638
  209MPD1    H5 3184   4.296   1.849  10.950  1.9398 -0.5169 -0.8560
  209MPD1    N1 3185   4.615   1.585  10.691 -0.5846  0.5546  0.0548
  209MPD1    H6 3186   4.644   1.489  10.673  2.5714  1.2813  1.3851
  209MPD1    H7 3187   4.559   1.626  10.616 -0.3373  1.0485  0.1378
  210MPD1     C 3188   0.187   2.225  11.208 -0.5905  0.4785  0.2720
  210MPD1    C1 3189   0.120   2.187  11.321  0.0677 -0.4389 -0.6766
  210MPD1    C2 3190   4.707   2.165  11.303 -0.0058 -0.3455 -0.0234
  210MPD1    C3 3191   4.645   2.208  11.188 -0.0156  0.3493 -0.1100
  210MPD1    C4 3192   4.712   2.247  11.079 -0.0382  0.4831  0.2141
  210MPD1    C5 3193   0.121   2.262  11.095  0.0852 -0.1128  0.3639
  210MPD1     H 3194   4.641   2.147  11.388  0.2659  2.6649  0.8307
  210MPD1    H1 3195   4.664   2.269  10.984 -2.6195  1.1544  1.6766
  210MPD1    H2 3196   0.295   2.229  11.204 -0.4974 -2.9109 -0.9425
  210MPD1    H3 3197   0.179   2.293  11.008 -0.1650 -3.6178 -1.0551
  210MPD1     N 3198   4.503   2.189  11.180  0.1735  0.1953 -0.2298
  210MPD1    H5 3199   4.469   2.213  11.087 -0.1963  1.1451  0.1568
  210MPD1    N1 3200   0.171   2.146  11.440 -0.1773  0.5014 -0.6037
  210MPD1    H6 3201   0.249   2.204  11.472  0.3417 -1.1938  1.1463
  210MPD1    H7 3202   0.103   2.171  11.511  0.8290  1.7893 -0.0742
  211MPD1     C 3203   2.605   2.017  16.533 -0.4722  0.6138  0.4329
  211MPD1    C1 3204   2.519   1.928  16.590 -0.1246 -0.6597 -0.1869
  211MPD1    C2 3205   2.384   1.972  16.614 -0.8188 -0.5850 -0.1776
  211MPD1    C3 3206   2.347   2.096  16.569  0.3907 -0.2513  0.4089
  211MPD1    C4 3207   2.438   2.177  16.503 -0.1560 -0.2489  0.1203
  211MPD1    C5 3208   2.564   2.138  16.488  0.2352  0.0153 -0.4857
  211MPD1     H 3209   2.316   1.901  16.661 -1.1692  0.4224  0.8287
  211MPD1    H1 3210   2.408   2.271  16.458 -0.0366 -1.2354 -2.0117
  211MPD1    H2 3211   2.703   1.983  16.503 -0.2543  1.9554 -0.3726
  211MPD1    H3 3212   2.638   2.198  16.437 -1.0160  1.9680  0.0283
  211MPD1     N 3213   2.213   2.130  16.596 -0.6453 -0.6486 -0.0497
  211MPD1    H5 3214   2.154   2.061  16.642 -1.4067  0.6564  0.8996
  211MPD1    N1 3215   2.577   1.825  16.666  0.6100 -0.1357 -1.6509
  211MPD1    H6 3216   2.651   1.774  16.619  1.0555 -1.0107 -0.0074
  211MPD1    H7 3217   2.504   1.758  16.691  0.4220  1.0050  0.8155
  212MPD1     C 3218   1.205   0.557  16.371 -0.1847  0.0616 -0.3458
  212MPD1    C1 3219   1.101   0.617  16.436 -0.2924 -0.0274 -0.6422
  212MPD1    C2 3220   1.068   0.580  16.565  0.0166 -0.7044  0.2096
  212MPD1    C3 3221   1.145   0.475  16.621 -0.4930  0.1786  0.3382
  212MPD1    C4 3222   1.248   0.413  16.545 -0.4948  0.4271  0.7704
  212MPD1    C5 3223   1.272   0.453  16.416 -0.9449  0.3812  0.1080
  212MPD1     H 3224   0.999   0.629  16.633 -0.9131  0.4596 -1.5767
  212MPD1    H1 3225   1.309   0.332  16.585 -0.4970 -0.6573 -1.4272
  212MPD1    H2 3226   1.219   0.597  16.271 -0.9705  0.9317 -0.1132
  212MPD1    H3 3227   1.344   0.399  16.355 -1.0694 -1.6066  1.7348
  212MPD1     N 3228   1.112   0.405  16.746 -0.7245 -0.4838 -0.4914
  212MPD1    H5 3229   1.168   0.324  16.768  0.5128  0.6313  0.4883
  212MPD1    N1 3230   1.018   0.704  16.361  0.2929  0.0582  0.3250
  212MPD1    H6 3231   1.072   0.764  16.300  0.4747 -2.8870 -2.3675
  212MPD1    H7 3232   0.940   0.752  16.406 -0.7056 -2.3792  1.2168
  213MPD1     C 3233   3.845   1.141  15.720  0.0975 -0.6210  0.4524
  213MPD1    C1 3234   3.836   1.047  15.617 -0.5917 -0.4480 -0.1727
  213MPD1    C2 3235   3.772   1.088  15.507  0.1604  0.0484 -0.8617
  213MPD1    C3 3236   3.768   1.221  15.476  0.0053 -0.1291  0.3029
  213MPD1    C4 3237   3.809   1.317  15.567 -0.6569  0.6343  0.4203
  213MPD1    C5 3238   3.837   1.274  15.697  0.0392 -0.7452 -0.5064
  213MPD1     H 3239   3.731   1.016  15.436  0.4891 -0.2073 -0.7890
  213MPD1    H1 3240   3.811   1.425  15.552  1.4896  0.3574 -1.0898
  213MPD1    H2 3241   3.877   1.110  15.819 -0.7356 -1.8666  0.3369
  213MPD1    H3 3242   3.849   1.351  15.772  0.4744 -3.0869  1.8409
  213MPD1     N 3243   3.715   1.253  15.348  0.0952  0.3130 -0.1211
  213MPD1    H5 3244   3.669   1.180  15.295  1.0170 -0.9515  0.8427
  213MPD1    N1 3245   3.824   0.918  15.661  0.5817  0.0079  0.7126
  213MPD1    H6 3246   3.902   0.899  15.723  0.9824  0.3462  0.3074
  213MPD1    H7 3247   3.821   0.852  15.584  2.6044 -1.6484  2.0827
  214MPD1     C 3248   2.908   1.092  15.143  0.3587  0.2619 -0.2865
  214MPD1    C1 3249   2.956   1.102  15.008  0.4544  0.3136  0.3397
  214MPD1    C2 3250   3.084   1.147  14.995  0.5659  0.0183  0.0050
  214MPD1    C3 3251   3.183   1.132  15.094  0.0198 -0.0567  0.8858
  214MPD1    C4 3252   3.142   1.091  15.219 -0.1063  0.7920 -0.4161
  214MPD1    C5 3253   3.005   1.082  15.244 -0.0156  0.8884 -0.2937
  214MPD1     H 3254   3.116   1.180  14.897  1.0141 -1.8847 -0.4835
  214MPD1    H1 3255   3.211   1.084  15.301  0.3132 -0.1131 -0.8405
  214MPD1    H2 3256   2.801   1.082  15.159  0.4981 -1.4068 -0.4502
  214MPD1    H3 3257   2.974   1.068  15.347  0.4487  1.2441 -0.1086
  214MPD1     N 3258   3.320   1.170  15.077  0.2705 -0.2904  0.7444
  214MPD1    H5 3259   3.376   1.159  15.161  1.5203 -0.5275 -0.1232
  214MPD1    N1 3260   2.862   1.126  14.905 -0.2123 -0.3146 -0.3220
  214MPD1    H6 3261   2.767   1.092  14.921  0.6027 -0.8809  3.2798
  214MPD1    H7 3262   2.881   1.117  14.805  1.1470  5.9980 -0.6004
  215MPD1     C 3263   3.119   2.182  10.522 -0.3829  0.0392 -0.3550
  215MPD1    C1 3264   3.197   2.246  10.434  0.7186 -0.1025 -1.0230
  215MPD1    C2 3265   3.324   2.283  10.483  0.3864 -0.1254 -0.5550
  215MPD1    C3 3266   3.368   2.280  10.617 -0.2286  0.3756 -0.3139
  215MPD1    C4 3267   3.270   2.229  10.706 -0.4412  0.8806  0.3583
  215MPD1    C5 3268   3.150   2.179  10.654 -0.6190 -0.6281 -0.5879
  215MPD1     H 3269   3.392   2.324  10.409  0.4360  1.4368  0.3354
  215MPD1    H1 3270   3.293   2.230  10.812 -2.4321 -1.4305  0.8021
  215MPD1    H2 3271   3.024   2.140  10.490 -0.2900  0.2826 -0.9587
  215MPD1    H3 3272   3.076   2.138  10.721 -1.5255  2.2196  0.1563
  215MPD1     N 3273   3.495   2.329  10.658  0.8865  0.2746 -0.2947
  215MPD1    H5 3274   3.554   2.365  10.584  3.2047 -1.7311  0.6218
  215MPD1    N1 3275   3.167   2.245  10.298 -0.1719  0.3778 -0.3781
  215MPD1    H6 3276   3.068   2.256  10.278 -0.6288  0.0760  1.7032
  215MPD1    H7 3277   3.225   2.310  10.246  1.8667 -2.3169 -1.5023
  216MPD1     C 3278   1.331   4.166  16.442  0.1014  0.1743 -0.1451
  216MPD1    C1 3279   1.242   4.070  16.489  0.5404 -0.2094  0.4730
  216MPD1    C2 3280   1.204   4.075  16.623  0.7377  0.4635  0.3934
  216MPD1    C3 3281   1.256   4.171  16.707 -0.8536 -0.6228 -0.6772
  216MPD1    C4 3282   1.342   4.259  16.660 -0.5111 -0.1001 -0.2221
  216MPD1    C5 3283   1.391   4.249  16.531 -0.6338 -0.0043 -0.2639
  216MPD1     H 3284   1.129   4.008  16.662  0.3967  1.8906  2.1701
  216MPD1    H1 3285   1.377   4.339  16.723  1.8588 -0.3379 -1.2468
  216MPD1    H2 3286   1.364   4.164  16.339  0.0477  0.8635 -0.1727
  216MPD1    H3 3287   1.469   4.313  16.493 -0.4884  0.2708  0.4957
  216MPD1     N 3288   1.209   4.173  16.839  0.1459  0.2626 -0.1906
  216MPD1    H5 3289   1.130   4.115  16.865  0.4485  0.3478  0.9432
  216MPD1    N1 3290   1.174   3.996  16.390  0.1678  0.8213  0.6488
  216MPD1    H6 3291   1.225   3.968  16.307 -0.4222 -0.5502  0.7598
  216MPD1    H7 3292   1.134   3.911  16.428  0.0614  0.3353 -0.5693
  217MPD1     C 3293   1.886   0.197   8.863 -0.0392 -0.7011 -0.4361
  217MPD1    C1 3294   1.947   0.167   8.987 -0.7530 -0.5801 -0.2200
  217MPD1    C2 3295   2.046   0.243   9.040  0.0766  0.3697  0.9623
  217MPD1    C3 3296   2.086   0.364   8.980  0.4740 -0.2313  0.0233
  217MPD1    C4 3297   2.025   0.392   8.864  0.4167 -0.0654  0.3917
  217MPD1    C5 3298   1.927   0.318   8.807  0.4095  0.5376  0.6322
  217MPD1     H 3299   2.103   0.214   9.128  1.6265 -2.6390 -1.0433
  217MPD1    H1 3300   2.047   0.483   8.810 -0.1416 -1.0557 -1.5088
  217MPD1    H2 3301   1.803   0.138   8.827 -1.0865  0.3606  0.2442
  217MPD1    H3 3302   1.879   0.349   8.715  0.3002  1.2687  0.9376
  217MPD1     N 3303   2.184   0.460   9.026 -0.2821 -0.3834 -0.2921
  217MPD1    H5 3304   2.179   0.549   8.977  2.4520 -0.5430 -0.8594
  217MPD1    N1 3305   1.935   0.039   9.042 -0.3222 -0.2765 -0.7158
  217MPD1    H6 3306   1.842   0.001   9.033 -0.7220  0.3438  0.6989
  217MPD1    H7 3307   1.945   0.041   9.144  1.2612 -0.4568 -0.8624
  218MPD1     C 3308   4.519   2.978  12.125 -0.2767  0.5778 -1.1371
  218MPD1    C1 3309   4.438   2.944  12.021 -0.0239  0.0454  0.1832
  218MPD1    C2 3310   4.320   2.876  12.044 -0.2798  0.2228  0.2589
  218MPD1    C3 3311   4.281   2.851  12.173 -0.3060  0.9529  0.5639
  218MPD1    C4 3312   4.354   2.898  12.279  0.7486  0.7539  0.0428
  218MPD1    C5 3313   4.473   2.961  12.252 -0.5769  0.2672  0.5098
  218MPD1     H 3314   4.269   2.819  11.968  1.1895  1.0436 -1.3370
  218MPD1    H1 3315   4.321   2.890  12.382 -2.1619 -1.7921 -1.0829
  218MPD1    H2 3316   4.618   3.018  12.105  0.1838 -0.0952 -0.1774
  218MPD1    H3 3317   4.543   2.995  12.329 -2.0610  1.5060  1.3175
  218MPD1     N 3318   4.169   2.760  12.191 -0.0357  0.8788 -0.4064
  218MPD1    H5 3319   4.137   2.722  12.102  1.4561 -2.5099  0.4847
  218MPD1    N1 3320   4.492   2.949  11.891  0.0969  0.6976  0.5492
  218MPD1    H6 3321   4.541   3.036  11.876 -1.7347  1.7764  0.8638
  218MPD1    H7 3322   4.416   2.934  11.825 -1.2870  1.3178  2.0055
  219MPD1     C 3323   3.686   1.982  11.779 -0.1493  0.4235  0.4711
  219MPD1    C1 3324   3.747   2.098  11.736 -0.8189  1.0978 -0.5374
  219MPD1    C2 3325   3.781   2.189  11.831 -0.0696  0.3939  0.0741
  219MPD1    C3 3326   3.778   2.169  11.966 -0.0603 -1.5259  0.5686
  219MPD1    C4 3327   3.720   2.047  12.006  0.2955 -0.1638  0.0546
  219MPD1    C5 3328   3.688   1.955  11.914 -0.4699 -0.2439 -0.3370
  219MPD1     H 3329   3.822   2.286  11.808  0.9269 -0.0500 -0.0282
  219MPD1    H1 3330   3.683   2.018  12.103  1.7939  2.4089  1.3971
  219MPD1    H2 3331   3.660   1.900  11.713  2.8624 -0.4681  0.3855
  219MPD1    H3 3332   3.649   1.861  11.951 -1.7682  0.9902  1.4022
  219MPD1     N 3333   3.827   2.256  12.077  0.0186  0.3118 -0.2266
  219MPD1    H5 3334   3.814   2.227  12.173 -2.2255  0.8251 -0.3630
  219MPD1    N1 3335   3.756   2.127  11.598 -0.3177  0.0456  0.7004
  219MPD1    H6 3336   3.792   2.219  11.576  1.9503 -1.4548 -1.8665
  219MPD1    H7 3337   3.665   2.109  11.554  0.4207  1.6238 -1.4516
  220MPD1     C 3338   3.439   3.245   9.239 -0.1657 -0.1927  0.1432
  220MPD1    C1 3339   3.345   3.172   9.307 -0.3971  0.6792  1.0100
  220MPD1    C2 3340   3.393   3.081   9.403  0.1773 -0.0603  0.6776
  220MPD1    C3 3341   3.534   3.058   9.421  0.1988  0.0679 -0.1639
  220MPD1    C4 3342   3.621   3.140   9.355 -0.2675  0.1088 -0.1025
  220MPD1    C5 3343   3.576   3.231   9.270 -0.1247 -0.3644  0.1059
  220MPD1     H 3344   3.312   3.033   9.457  0.2879 -1.8717 -0.7727
  220MPD1    H1 3345   3.728   3.152   9.373  0.1869 -0.1109 -2.6829
  220MPD1    H2 3346   3.417   3.334   9.181 -0.9622  1.0040  2.2606
  220MPD1    H3 3347   3.657   3.286   9.222  2.3730 -2.1108  2.2771
  220MPD1     N 3348   3.574   2.953   9.511  0.0657  0.1729 -0.2869
  220MPD1    H5 3349   3.497   2.912   9.563  0.5233 -0.1321  0.1592
  220MPD1    N1 3350   3.209   3.213   9.303  0.1823 -0.3338  0.0799
  220MPD1    H6 3351   3.184   3.261   9.217  0.6786  1.0448  0.7009
  220MPD1    H7 3352   3.145   3.140   9.331  0.3226  1.0576  4.0550
  221MPD1     C 3353   0.895   1.520  16.701 -0.1685 -0.8489  0.6376
  221MPD1    C1 3354   0.989   1.614  16.745 -0.3834 -0.2982  0.2011
  221MPD1    C2 3355   1.107   1.637  16.673 -0.6625 -0.0642 -0.2751
  221MPD1    C3 3356   1.121   1.582  16.545 -0.0146 -0.0124 -0.5783
  221MPD1    C4 3357   1.021   1.498  16.504 -0.2685  0.2707  0.3976
  221MPD1    C5 3358   0.908   1.456  16.581  0.4084  0.0159 -0.0354
  221MPD1     H 3359   1.181   1.706  16.711  1.0324 -1.1809 -1.5458
  221MPD1    H1 3360   1.032   1.457  16.404 -0.4520 -0.2042  0.5688
  221MPD1    H2 3361   0.798   1.513  16.748  0.2692 -1.9063  1.3962
  221MPD1    H3 3362   0.827   1.391  16.551  0.7200 -0.4806  0.1956
  221MPD1     N 3363   1.238   1.610  16.466 -0.3344 -0.0955  0.3002
  221MPD1    H5 3364   1.241   1.572  16.372  0.0573  0.1582  0.2104
  221MPD1    N1 3365   0.973   1.673  16.873  0.1456 -0.1889 -0.5176
  221MPD1    H6 3366   0.875   1.680  16.898 -0.2148  0.3987 -2.0599
  221MPD1    H7 3367   1.001   1.771  16.883 -0.5311  0.0163 -0.6260
  222MPD1     C 3368   1.582   0.410  17.101  0.5550 -0.0322 -0.0615
  222MPD1    C1 3369   1.491   0.338  17.025 -0.1322 -0.1133  0.1312
  222MPD1    C2 3370   1.374   0.300  17.079 -0.0418 -0.7761  0.0774
  222MPD1    C3 3371   1.350   0.301  17.213  0.5254  0.1000  0.6836
  222MPD1    C4 3372   1.445   0.370  17.293  0.0765 -0.0140  0.6287
  222MPD1    C5 3373   1.561   0.420  17.241  0.0314  0.1789 -0.0247
  222MPD1     H 3374   1.315   0.233  17.017 -1.0015 -1.0338  1.2531
  222MPD1    H1 3375   1.426   0.383  17.399 -0.5995  0.9611  0.3869
  222MPD1    H2 3376   1.674   0.446  17.057 -0.2252  1.2571 -0.6235
  222MPD1    H3 3377   1.630   0.475  17.304  0.6777  0.8807 -1.3569
  222MPD1     N 3378   1.233   0.250  17.275  0.1345  0.0408 -0.1222
  222MPD1    H5 3379   1.221   0.275  17.372 -0.8739 -1.5685  0.1742
  222MPD1    N1 3380   1.515   0.343  16.887  0.2907  0.1715  0.5133
  222MPD1    H6 3381   1.614   0.346  16.863  0.5700 -0.7617  1.5820
  222MPD1    H7 3382   1.469   0.261  16.848 -0.7988  0.2571  1.6088
  223MPD1     C 3383   0.674   4.120  17.172  0.5458  0.5409 -0.1538
  223MPD1    C1 3384   0.689   4.201  17.066 -0.2481 -0.6741 -0.3753
  223MPD1    C2 3385   0.725   4.326  17.097  0.3205 -0.3271 -0.4056
  223MPD1    C3 3386   0.745   4.371  17.222  0.3687  0.2482  0.0192
  223MPD1    C4 3387   0.730   4.287  17.330 -0.5257  0.4721  0.3171
  223MPD1    C5 3388   0.692   4.164  17.302  0.3310 -0.2582 -0.4090
  223MPD1     H 3389   0.750   4.392  17.015 -1.1625  1.0832  0.2987
  223MPD1    H1 3390   0.770   4.313  17.427  1.6824  3.4372 -1.3880
  223MPD1    H2 3391   0.642   4.016  17.168 -0.6205  0.8753  0.5603
  223MPD1    H3 3392   0.679   4.105  17.393 -1.8630 -0.6494 -0.9707
  223MPD1     N 3393   0.793   4.501  17.241 -0.4867  0.4353 -0.5348
  223MPD1    H5 3394   0.827   4.551  17.160 -1.2658  0.8216 -0.6234
  223MPD1    N1 3395   0.688   4.150  16.938  0.4040 -0.0396 -0.7121
  223MPD1    H6 3396   0.615   4.079  16.932  0.2094  0.0142  0.9831
  223MPD1    H7 3397   0.670   4.229  16.876  0.0822  1.5088  1.3672
  224MPD1     C 3398   3.434   2.204   9.133  0.2043  0.3331 -0.0838
  224MPD1    C1 3399   3.480   2.085   9.172 -0.0820  0.0454 -0.0679
  224MPD1    C2 3400   3.389   1.991   9.220 -0.2303  0.0855 -0.0627
  224MPD1    C3 3401   3.254   2.025   9.228 -0.2594  1.3689  0.0592
  224MPD1    C4 3402   3.211   2.145   9.179  0.2316 -0.3182 -0.8456
  224MPD1    C5 3403   3.302   2.233   9.122  0.4862 -0.0706 -0.1492
  224MPD1     H 3404   3.421   1.908   9.281 -1.3375 -0.3620 -0.0770
  224MPD1    H1 3405   3.105   2.166   9.177  0.2451 -0.3031 -1.4530
  224MPD1    H2 3406   3.504   2.280   9.099  1.7925 -0.7488  0.7711
  224MPD1    H3 3407   3.277   2.325   9.071  2.6036  0.0326 -1.0285
  224MPD1     N 3408   3.164   1.941   9.286 -0.5337  0.0777 -0.3949
  224MPD1    H5 3409   3.068   1.967   9.266  0.1315  1.9653 -1.0504
  224MPD1    N1 3410   3.611   2.080   9.219 -0.0209 -0.2323 -0.7356
  224MPD1    H6 3411   3.640   1.987   9.249  0.3151  0.3600  0.7802
  224MPD1    H7 3412   3.671   2.112   9.144 -1.6376  0.3834 -1.7521
  225MPD1     C 3413   4.076   3.890  12.535  0.4009  0.4706  0.1239
  225MPD1    C1 3414   4.083   3.759  12.554  0.1189  0.5874  0.2381
  225MPD1    C2 3415   3.982   3.681  12.491  0.1023 -0.3868 -0.1857
  225MPD1    C3 3416   3.880   3.747  12.418  0.6497 -0.1711 -0.5789
  225MPD1    C4 3417   3.880   3.887  12.409 -0.0361 -0.1739  0.1984
  225MPD1    C5 3418   3.978   3.953  12.469  0.3089 -0.1390  0.0230
  225MPD1     H 3419   3.974   3.573  12.490  1.8073 -0.5077 -0.6642
  225MPD1    H1 3420   3.805   3.936  12.349 -0.3360 -0.3375  0.4405
  225MPD1    H2 3421   4.140   3.959  12.587 -1.2055  2.1633 -0.1475
  225MPD1    H3 3422   3.982   4.061  12.467  0.5789 -0.1806 -1.6524
  225MPD1     N 3423   3.784   3.674  12.336  0.1116 -0.0386  0.4416
  225MPD1    H5 3424   3.706   3.729  12.299  0.2182 -0.4862 -0.4478
  225MPD1    N1 3425   4.203   3.694  12.592  0.2769 -0.2848  0.0926
  225MPD1    H6 3426   4.181   3.603  12.630 -2.1074 -0.0990 -0.8547
  225MPD1    H7 3427   4.248   3.749  12.664 -0.2559  1.2424 -0.7286
  226MPD1     C 3428   2.698   1.426   8.980 -0.3666 -0.0580  0.2863
  226MPD1    C1 3429   2.745   1.556   8.988 -0.4353 -0.1322  0.7896
  226MPD1    C2 3430   2.669   1.655   9.051  0.0722 -0.2388 -0.2444
  226MPD1    C3 3431   2.548   1.626   9.111  0.1078 -0.2033  0.3326
  226MPD1    C4 3432   2.505   1.495   9.108  0.1001  0.4289 -0.0455
  226MPD1    C5 3433   2.588   1.397   9.052  0.5345 -0.2093  0.5648
  226MPD1     H 3434   2.714   1.750   9.077 -0.1593  0.0947 -1.0963
  226MPD1    H1 3435   2.422   1.457   9.167  0.2799  0.4196  0.2016
  226MPD1    H2 3436   2.749   1.346   8.929  0.0617  1.5069 -1.7449
  226MPD1    H3 3437   2.550   1.296   9.051  0.5738 -0.2273  1.3950
  226MPD1     N 3438   2.484   1.732   9.189 -0.0267  0.2875 -0.2939
  226MPD1    H5 3439   2.527   1.821   9.169  0.5527  0.2713  0.8591
  226MPD1    N1 3440   2.850   1.598   8.911 -0.2018 -1.0556 -0.4462
  226MPD1    H6 3441   2.901   1.673   8.957 -0.8562  0.9491 -3.0543
  226MPD1    H7 3442   2.918   1.524   8.894  1.0153 -0.1830  0.5685
  227MPD1     C 3443   1.556   1.706   9.580  0.1208  0.0157  0.6819
  227MPD1    C1 3444   1.618   1.649   9.467 -0.1192 -0.3437  0.6032
  227MPD1    C2 3445   1.738   1.707   9.428 -1.0667 -0.3311 -0.4514
  227MPD1    C3 3446   1.804   1.805   9.493  0.6422 -0.5513  0.2197
  227MPD1    C4 3447   1.750   1.848   9.609  0.2168  0.0594  0.0507
  227MPD1    C5 3448   1.632   1.804   9.646  0.5755 -0.1835 -0.4502
  227MPD1     H 3449   1.782   1.665   9.337 -0.4378 -0.9304  0.1300
  227MPD1    H1 3450   1.798   1.927   9.665  0.0541  0.9481 -1.0739
  227MPD1    H2 3451   1.458   1.671   9.611 -1.1830  3.1925  0.1755
  227MPD1    H3 3452   1.590   1.855   9.732  1.7306 -0.1308  0.0771
  227MPD1     N 3453   1.931   1.840   9.436  0.2717 -0.3980  0.3605
  227MPD1    H5 3454   1.969   1.795   9.353  2.0768  0.0723  0.9190
  227MPD1    N1 3455   1.547   1.567   9.377  0.5988  0.2937  0.0525
  227MPD1    H6 3456   1.608   1.516   9.314 -0.1958 -0.5655 -0.0139
  227MPD1    H7 3457   1.478   1.512   9.427  0.5969  0.0333 -0.2384
  228MPD1     C 3458   4.376   0.951  11.844 -0.1469 -1.1316  0.7985
  228MPD1    C1 3459   4.248   0.900  11.822  0.7046 -0.2290  0.9852
  228MPD1    C2 3460   4.162   0.884  11.931 -0.4544 -0.2797  0.0681
  228MPD1    C3 3461   4.198   0.925  12.053 -0.0793 -0.5735  0.4939
  228MPD1    C4 3462   4.325   0.975  12.078 -0.8891 -0.3678 -1.1105
  228MPD1    C5 3463   4.411   0.982  11.972 -0.7254 -0.2758 -0.2904
  228MPD1     H 3464   4.069   0.830  11.925 -0.2518 -0.6176 -0.0358
  228MPD1    H1 3465   4.352   1.013  12.176 -1.5403 -0.4223 -0.9059
  228MPD1    H2 3466   4.443   0.956  11.758 -2.1788  0.1810 -0.6879
  228MPD1    H3 3467   4.516   1.008  11.983 -1.1207  0.9196  0.6292
  228MPD1     N 3468   4.117   0.896  12.159 -0.0274  0.0602 -0.1272
  228MPD1    H5 3469   4.025   0.860  12.133 -0.1007  0.2526 -0.1343
  228MPD1    N1 3470   4.220   0.843  11.696  0.0437  0.3467 -0.1775
  228MPD1    H6 3471   4.284   0.859  11.618  0.3835  0.8012  0.1919
  228MPD1    H7 3472   4.125   0.867  11.669 -0.7672 -0.7286  1.7424
  229MPD1     C 3473   4.270   3.263  14.956 -1.1443  0.0869 -0.6504
  229MPD1    C1 3474   4.340   3.145  14.949 -0.6033 -0.1845  0.6058
  229MPD1    C2 3475   4.461   3.136  15.020 -0.1104  0.4903 -0.4048
  229MPD1    C3 3476   4.514   3.233  15.097 -0.0277 -0.1558  0.0835
  229MPD1    C4 3477   4.435   3.348  15.115  0.9185  0.4276 -0.2432
  229MPD1    C5 3478   4.317   3.363  15.046 -0.2538  0.5005  0.0699
  229MPD1     H 3479   4.510   3.042  14.995 -1.2464 -0.6436  1.7120
  229MPD1    H1 3480   4.453   3.433  15.180  2.9045  0.6637 -1.1069
  229MPD1    H2 3481   4.174   3.276  14.908 -1.6905 -2.7847 -0.3278
  229MPD1    H3 3482   4.261   3.456  15.055 -0.1127  0.1799  3.9571
  229MPD1     N 3483   4.638   3.227  15.169 -0.3670 -0.8153 -0.1891
  229MPD1    H5 3484   4.652   3.313  15.223 -2.3292 -0.0977 -0.8226
  229MPD1    N1 3485   4.311   3.069  14.833 -0.3550 -0.0968  0.2789
  229MPD1    H6 3486   4.339   2.971  14.833  1.1729  0.3498 -0.0204
  229MPD1    H7 3487   4.218   3.088  14.797 -0.6487 -0.2352  0.9527
  230MPD1     C 3488   0.374   3.625  15.945  0.0278  0.0700  0.0055
  230MPD1    C1 3489   0.482   3.586  15.871  0.0870  0.1532 -0.0126
  230MPD1    C2 3490   0.464   3.501  15.760  0.2866 -0.6634  0.4312
  230MPD1    C3 3491   0.328   3.472  15.722  0.6340  0.6735 -0.3586
  230MPD1    C4 3492   0.224   3.524  15.790  0.4207 -0.0392 -0.6199
  230MPD1    C5 3493   0.251   3.599  15.899 -0.3017 -0.2496  0.1425
  230MPD1     H 3494   0.548   3.460  15.704 -0.0011  0.5020 -0.8727
  230MPD1    H1 3495   0.120   3.527  15.759 -0.1727  0.3430  1.3903
  230MPD1    H2 3496   0.376   3.698  16.025  3.4102 -1.6205  1.4610
  230MPD1    H3 3497   0.169   3.658  15.938  0.6007  1.0674  0.0359
  230MPD1     N 3498   0.303   3.384  15.614 -0.6927 -0.6941 -0.4870
  230MPD1    H5 3499   0.387   3.348  15.569  0.6329 -0.9271  2.2146
  230MPD1    N1 3500   0.611   3.597  15.924  0.4591  0.5261 -0.8108
  230MPD1    H6 3501   0.677   3.603  15.847  1.1555 -2.1237 -0.4215
  230MPD1    H7 3502   0.624   3.676  15.987 -0.7032  1.4261 -1.6993
  231MPD1     C 3503   2.498   1.312  15.529 -0.4393  0.2467  0.5897
  231MPD1    C1 3504   2.462   1.330  15.393 -0.2259 -0.2164  0.2438
  231MPD1    C2 3505   2.558   1.365  15.307  0.0284 -0.6654 -0.7610
  231MPD1    C3 3506   2.689   1.372  15.353 -0.2231 -0.3584 -0.2090
  231MPD1    C4 3507   2.724   1.364  15.485  0.9922 -0.0284 -1.2252
  231MPD1    C5 3508   2.626   1.330  15.570 -0.2653  0.4666  0.3363
  231MPD1     H 3509   2.541   1.383  15.202 -0.7972 -0.4423 -0.5864
  231MPD1    H1 3510   2.825   1.378  15.522 -1.1153  1.6962  3.8638
  231MPD1    H2 3511   2.422   1.282  15.600 -1.1395 -0.2173 -0.3465
  231MPD1    H3 3512   2.640   1.322  15.677  1.0214  0.5205  0.1773
  231MPD1     N 3513   2.787   1.390  15.255 -0.2202  0.1768  0.7007
  231MPD1    H5 3514   2.759   1.397  15.158 -1.4918  2.6709  1.2298
  231MPD1    N1 3515   2.329   1.347  15.355 -0.2126 -0.0231  0.4522
  231MPD1    H6 3516   2.270   1.297  15.421 -0.0546 -1.4005 -0.4492
  231MPD1    H7 3517   2.331   1.318  15.257  2.3029 -0.2585  0.5595
  232MPD1     C 3518   0.287   3.272   0.592 -0.2896  0.2290  0.6685
  232MPD1    C1 3519   0.366   3.292   0.477  0.1046 -0.5331  0.1800
  232MPD1    C2 3520   0.299   3.271   0.359 -0.7016  0.6388 -0.1682
  232MPD1    C3 3521   0.163   3.269   0.352 -0.2220 -0.1508 -0.3996
  232MPD1    C4 3522   0.090   3.278   0.469  0.0094  0.2438  0.3848
  232MPD1    C5 3523   0.151   3.282   0.587  0.2444  1.1165 -0.2870
  232MPD1     H 3524   0.353   3.260   0.266  0.1116  0.6783  0.2963
  232MPD1    H1 3525   4.706   3.279   0.475  0.0038  2.3161 -0.0946
  232MPD1    H2 3526   0.334   3.253   0.689  0.7124 -2.6709 -0.3814
  232MPD1    H3 3527   0.104   3.282   0.684 -0.1323 -0.2201 -0.4763
  232MPD1     N 3528   0.099   3.263   0.226  0.0028  0.0303  1.1137
  232MPD1    H5 3529   0.151   3.267   0.139  2.0982  0.2549  2.3659
  232MPD1    N1 3530   0.509   3.285   0.483  0.2157 -0.2223  0.1196
  232MPD1    H6 3531   0.545   3.338   0.562 -0.2182  0.0137  0.1614
  232MPD1    H7 3532   0.542   3.333   0.399  1.1255 -0.3576  0.3986
  233MPD1     C 3533   1.278   2.569   2.039  0.4037  0.1455 -0.0142
  233MPD1    C1 3534   1.373   2.496   2.104 -0.3134 -0.1912  0.4091
  233MPD1    C2 3535   1.508   2.520   2.071 -0.4979 -0.4527  0.5261
  233MPD1    C3 3536   1.545   2.614   1.977  0.6189  0.0744  0.1408
  233MPD1    C4 3537   1.444   2.684   1.915  0.0548  0.1312 -0.1980
  233MPD1    C5 3538   1.315   2.665   1.949  0.9575 -0.0846  0.3763
  233MPD1     H 3539   1.581   2.461   2.126  1.3738 -0.0356 -1.4782
  233MPD1    H1 3540   1.461   2.765   1.845  1.2204  0.2724  0.2555
  233MPD1    H2 3541   1.172   2.567   2.061  0.5733 -0.8220  0.7478
  233MPD1    H3 3542   1.242   2.723   1.893  0.8150 -0.4645  0.1662
  233MPD1     N 3543   1.674   2.637   1.922 -0.3381  0.2388 -0.2004
  233MPD1    H5 3544   1.690   2.714   1.858  1.1527  0.8115  0.8364
  233MPD1    N1 3545   1.334   2.393   2.194  0.0339 -0.4958  0.1289
  233MPD1    H6 3546   1.255   2.432   2.244  1.2952  2.7355 -0.4513
  233MPD1    H7 3547   1.412   2.367   2.254 -0.9904 -2.8665  0.4463
  234MPD1     C 3548   3.542   0.012  10.177  0.4213  0.1955  0.0504
  234MPD1    C1 3549   3.434   4.724  10.093  0.1871 -0.7970 -0.2629
  234MPD1    C2 3550   3.370   0.121  10.065  0.6187 -0.3083  0.0770
  234MPD1    C3 3551   3.412   0.245  10.112  0.0360 -0.0404 -0.5494
  234MPD1    C4 3552   3.522   0.245  10.189  0.2228  0.1817 -0.4639
  234MPD1    C5 3553   3.590   0.132  10.224  0.5732  0.3457 -0.0433
  234MPD1     H 3554   3.279   0.124  10.006 -0.9054 -2.1196  2.3363
  234MPD1    H1 3555   3.554   0.341  10.229  0.9494  1.1076 -3.2518
  234MPD1    H2 3556   3.592   4.652  10.222 -1.1249  1.2616  3.7332
  234MPD1    H3 3557   3.679   0.133  10.285  0.4085 -2.0700  0.2577
  234MPD1     N 3558   3.336   0.359  10.081  0.4474  0.7068  0.0710
  234MPD1    H5 3559   3.261   0.351  10.013  1.3899 -0.7474 -0.7949
  234MPD1    N1 3560   3.370   4.604  10.070 -0.4945  0.6832 -0.2988
  234MPD1    H6 3561   3.423   4.518  10.057  0.4646  1.4873 -1.7123
  234MPD1    H7 3562   3.301   4.604   9.995 -2.3435  0.3539  1.3900
  235MPD1     C 3563   3.433   2.646  10.264  0.0083 -0.2076  0.1512
  235MPD1    C1 3564   3.514   2.722  10.347  0.2407 -0.1597  0.3863
  235MPD1    C2 3565   3.599   2.808  10.284  0.2019  0.2350 -0.0512
  235MPD1    C3 3566   3.586   2.840  10.150 -0.1548 -0.6664 -0.0485
  235MPD1    C4 3567   3.492   2.769  10.070 -0.8836  0.5989  0.2090
  235MPD1    C5 3568   3.422   2.669  10.134 -0.0291  0.0560  0.2244
  235MPD1     H 3569   3.668   2.873  10.337 -0.1370 -0.0271  0.7076
  235MPD1    H1 3570   3.486   2.793   9.965  1.4676  0.0415 -0.0695
  235MPD1    H2 3571   3.354   2.586  10.309  1.0543 -1.5022  0.2492
  235MPD1    H3 3572   3.332   2.625  10.092 -0.4901  0.2046  1.0635
  235MPD1     N 3573   3.654   2.954  10.110  0.6184  0.5385  0.0701
  235MPD1    H5 3574   3.716   2.991  10.181 -1.0554  0.5644  1.5236
  235MPD1    N1 3575   3.549   2.672  10.467 -0.4474 -0.3870  0.0391
  235MPD1    H6 3576   3.595   2.749  10.514 -0.0273  1.2623 -3.0880
  235MPD1    H7 3577   3.470   2.641  10.524  0.2000  0.2468  1.2618
  236MPD1     C 3578   3.712   4.118   9.124  0.2489 -0.1641  0.1201
  236MPD1    C1 3579   3.661   4.181   9.233 -0.1729 -0.3632 -0.7569
  236MPD1    C2 3580   3.749   4.224   9.326 -0.2768  0.6489 -0.2862
  236MPD1    C3 3581   3.886   4.206   9.314  0.1783  0.8127  0.0751
  236MPD1    C4 3582   3.941   4.150   9.195  0.0258 -0.6878  0.1635
  236MPD1    C5 3583   3.853   4.094   9.103 -0.1245 -0.0946 -0.1349
  236MPD1     H 3584   3.703   4.285   9.403 -2.9827  1.1526 -2.3031
  236MPD1    H1 3585   4.047   4.136   9.180  0.1838  0.4647  0.2143
  236MPD1    H2 3586   3.652   4.085   9.040 -0.3551  4.0906 -1.0984
  236MPD1    H3 3587   3.898   4.047   9.016 -1.5099 -0.3210 -0.7279
  236MPD1     N 3588   3.980   4.263   9.410 -0.0345  0.1469 -0.2066
  236MPD1    H5 3589   4.080   4.262   9.392  0.0101  0.8905 -0.0010
  236MPD1    N1 3590   3.525   4.207   9.244  0.7683 -0.3967 -0.3113
  236MPD1    H6 3591   3.497   4.192   9.341  0.3315  1.0425 -0.2191
  236MPD1    H7 3592   3.462   4.155   9.183  0.2093  0.4374 -0.4486
  237MPD1     C 3593   3.559   2.949  14.986 -0.2765  0.3741  0.5665
  237MPD1    C1 3594   3.604   2.825  15.020  0.1139 -0.6115 -0.0516
  237MPD1    C2 3595   3.510   2.723  15.037 -0.2767  0.4726 -0.7278
  237MPD1    C3 3596   3.374   2.752  15.018 -0.1451 -0.5212 -0.1812
  237MPD1    C4 3597   3.327   2.876  14.984 -0.0190 -0.7368  0.7585
  237MPD1    C5 3598   3.424   2.969  14.957 -0.5467  0.4699  0.5507
  237MPD1     H 3599   3.551   2.625  15.057  0.1166  0.6546 -0.6530
  237MPD1    H1 3600   3.222   2.903  14.975 -0.3355 -2.1215  0.2787
  237MPD1    H2 3601   3.626   3.035  14.984  2.3189 -1.6562  0.5842
  237MPD1    H3 3602   3.391   3.070  14.936 -2.3214 -0.4501 -1.0896
  237MPD1     N 3603   3.274   2.653  15.047 -0.3457 -0.0478 -0.7241
  237MPD1    H5 3604   3.181   2.689  15.031 -0.5900 -0.1836  0.3640
  237MPD1    N1 3605   3.739   2.804  15.060  0.0692 -0.1999 -0.5346
  237MPD1    H6 3606   3.797   2.873  15.014  1.0562 -1.7775 -1.6582
  237MPD1    H7 3607   3.776   2.712  15.036 -1.0033  0.0150 -2.9791
  238MPD1     C 3608   0.863   0.851  15.034  0.0638  0.1619 -0.0026
  238MPD1    C1 3609   0.842   0.829  14.900  0.4890 -1.1912 -0.5554
  238MPD1    C2 3610   0.709   0.844  14.863  0.1972  0.1130  0.5584
  238MPD1    C3 3611   0.611   0.903  14.945 -0.0267  0.0716  0.2505
  238MPD1    C4 3612   0.635   0.923  15.075  0.0145 -0.0334 -0.3656
  238MPD1    C5 3613   0.761   0.897  15.116  0.4651  0.4979  0.1466
  238MPD1     H 3614   0.686   0.828  14.759  0.2026  0.1676  0.5486
  238MPD1    H1 3615   0.558   0.985  15.120  1.3931  0.7408  0.9498
  238MPD1    H2 3616   0.960   0.835  15.079  0.9333 -0.8570 -2.2529
  238MPD1    H3 3617   0.783   0.919  15.220  0.3280 -1.5234  0.5906
  238MPD1     N 3618   0.487   0.946  14.893  0.2848 -0.8794  0.4394
  238MPD1    H5 3619   0.420   0.992  14.952  1.6926 -1.2752  2.3380
  238MPD1    N1 3620   0.946   0.784  14.810 -0.2483 -0.6562 -0.3554
  238MPD1    H6 3621   1.040   0.811  14.838  0.5943 -1.8978 -1.9434
  238MPD1    H7 3622   0.924   0.814  14.715  0.7329  1.9996  0.2747
  239MPD1     C 3623   0.540   2.048  14.727  0.3294 -0.2482  0.5370
  239MPD1    C1 3624   0.623   2.107  14.641  1.0928  0.2085 -0.8334
  239MPD1    C2 3625   0.566   2.199  14.550 -0.4799 -0.3483  0.1126
  239MPD1    C3 3626   0.429   2.216  14.527  1.0159  1.1919 -0.0624
  239MPD1    C4 3627   0.349   2.139  14.605 -0.1478 -0.0349 -0.8490
  239MPD1    C5 3628   0.404   2.062  14.709  0.1537  0.3534  0.2069
  239MPD1     H 3629   0.640   2.262  14.501 -0.8843  0.5749  0.6721
  239MPD1    H1 3630   0.242   2.151  14.613 -0.1704 -0.6503 -0.2482
  239MPD1    H2 3631   0.569   1.981  14.807  0.0519 -0.7085  0.2535
  239MPD1    H3 3632   0.332   2.008  14.770 -0.3175 -0.3901 -1.0197
  239MPD1     N 3633   0.378   2.309  14.433  0.6775 -0.1755 -0.1423
  239MPD1    H5 3634   0.276   2.310  14.431  0.6831  2.1499 -0.0727
  239MPD1    N1 3635   0.764   2.103  14.664 -0.1349 -0.4207  0.2052
  239MPD1    H6 3636   0.775   2.173  14.737 -1.2820  0.5568 -0.5673
  239MPD1    H7 3637   0.814   2.130  14.579  0.2158  0.0057  0.5505
  240MPD1     C 3638   4.443   1.893  13.958  0.6389 -0.1706 -0.3823
  240MPD1    C1 3639   4.323   1.869  14.025 -0.0318  0.1597 -0.7968
  240MPD1    C2 3640   4.338   1.805  14.144  0.3392  0.1982 -0.2281
  240MPD1    C3 3641   4.456   1.764  14.195 -0.8156  0.3006  0.0655
  240MPD1    C4 3642   4.571   1.794  14.128 -0.5128  0.1371 -0.3363
  240MPD1    C5 3643   4.560   1.868  14.016  0.2524  0.3376  0.2915
  240MPD1     H 3644   4.242   1.782  14.188  1.5566 -0.0869  2.2475
  240MPD1    H1 3645   4.673   1.765  14.152  0.0240  1.4130 -1.0275
  240MPD1    H2 3646   4.440   1.928  13.855 -0.6810  0.0212 -0.2776
  240MPD1    H3 3647   4.647   1.871  13.952 -0.0172  0.7280 -0.0607
  240MPD1     N 3648   4.450   1.693  14.318 -0.0812  0.5031 -0.7020
  240MPD1    H5 3649   4.359   1.656  14.341 -0.7163  1.9318 -0.9304
  240MPD1    N1 3650   4.200   1.895  13.958  0.3525  0.7646  0.0995
  240MPD1    H6 3651   4.215   1.975  13.898 -0.5584 -0.0283 -1.1896
  240MPD1    H7 3652   4.120   1.903  14.021 -1.0646  2.9460 -2.0434
  241MPD1     C 3653   0.466   1.300  14.876  0.2828 -0.2364  0.2117
  241MPD1    C1 3654   0.356   1.266  14.946 -0.1458  0.4340 -0.5371
  241MPD1    C2 3655   0.231   1.308  14.901 -0.2132  0.2319  0.2513
  241MPD1    C3 3656   0.214   1.400  14.798  0.3920  0.3221  0.4781
  241MPD1    C4 3657   0.327   1.448  14.745 -0.2556  0.2988 -0.4354
  241MPD1    C5 3658   0.449   1.390  14.777 -0.0154 -0.8358 -0.0153
  241MPD1     H 3659   0.145   1.259  14.945 -0.4939  0.6321  0.1482
  241MPD1    H1 3660   0.320   1.528  14.672  0.6101  0.8990  0.1426
  241MPD1    H2 3661   0.563   1.256  14.895  0.5415  0.5728  0.7295
  241MPD1    H3 3662   0.536   1.419  14.720 -1.4250  2.6217 -0.3831
  241MPD1     N 3663   0.087   1.445  14.756  0.0885 -0.0218  0.4033
  241MPD1    H5 3664   0.083   1.525  14.695  0.0961  0.7712  1.4481
  241MPD1    N1 3665   0.364   1.164  15.042 -0.0638  0.4339  0.1702
  241MPD1    H6 3666   0.290   1.173  15.112  1.6325  4.2039  1.4671
  241MPD1    H7 3667   0.450   1.161  15.095 -0.8457 -0.1140  1.4258
  242MPD1     C 3668   4.108   4.306  16.032  0.0870  0.2571  0.0708
  242MPD1    C1 3669   4.091   4.395  15.935 -0.0485  0.3016 -1.1700
  242MPD1    C2 3670   4.112   4.353  15.805 -0.7127  0.4968  0.2261
  242MPD1    C3 3671   4.182   4.235  15.779 -0.0394 -0.0508 -0.3184
  242MPD1    C4 3672   4.201   4.145  15.883  0.7967 -0.3232 -0.5388
  242MPD1    C5 3673   4.172   4.188  16.013  0.0405  0.4147  0.8988
  242MPD1     H 3674   4.090   4.426  15.729  0.4855 -0.5226 -1.0898
  242MPD1    H1 3675   4.228   4.040  15.871  0.6095 -0.6277  1.7578
  242MPD1    H2 3676   4.094   4.335  16.136 -2.7447 -0.4647 -0.1335
  242MPD1    H3 3677   4.192   4.125  16.099  1.1214  0.8718  0.9867
  242MPD1     N 3678   4.214   4.197  15.648 -0.3224  0.1696  0.5124
  242MPD1    H5 3679   4.251   4.102  15.656 -0.2408  0.3516  2.3948
  242MPD1    N1 3680   4.041   4.523  15.958  0.1671  0.2131  0.2414
  242MPD1    H6 3681   4.045   4.593  15.883  2.3626 -0.9582 -0.7369
  242MPD1    H7 3682   4.090   4.569  16.034 -0.6735 -0.5219  1.2147
  243MPD1     C 3683   1.978   4.411  17.318  0.3791  0.5245  0.2497
  243MPD1    C1 3684   1.901   4.403  17.205 -0.6916  0.3490 -0.0417
  243MPD1    C2 3685   1.799   4.312  17.201  0.0437 -0.6895  0.0013
  243MPD1    C3 3686   1.773   4.231  17.309 -0.2930 -0.4529 -0.5197
  243MPD1    C4 3687   1.850   4.247  17.422 -0.0090 -1.1648 -0.1107
  243MPD1    C5 3688   1.959   4.335  17.428  0.6902 -0.5960  0.6419
  243MPD1     H 3689   1.732   4.293  17.117 -0.9639 -4.5064  1.6521
  243MPD1    H1 3690   1.839   4.184  17.509  3.3456 -0.0659  1.1303
  243MPD1    H2 3691   2.053   4.489  17.320  0.9571 -0.0230 -0.0957
  243MPD1    H3 3692   2.028   4.339  17.510 -1.0849 -1.2773  2.1730
  243MPD1     N 3693   1.679   4.129  17.309  0.2146  0.3054  0.7887
  243MPD1    H5 3694   1.618   4.119  17.227  0.2575  0.7963  0.6943
  243MPD1    N1 3695   1.920   4.500  17.106  0.3522  0.4060  0.1724
  243MPD1    H6 3696   1.908   4.450  17.018  2.2129 -0.5873  0.4866
  243MPD1    H7 3697   2.016   4.533  17.117  0.6905 -0.3377 -0.5893
  244MPD1     C 3698   0.933   3.930   0.180 -0.5412 -0.1969 -0.3662
  244MPD1    C1 3699   1.031   4.028   0.169 -0.0124  0.5832  0.0610
  244MPD1    C2 3700   1.125   4.011   0.067 -0.6694  0.5383 -0.6539
  244MPD1    C3 3701   1.112   3.905  17.678 -0.0355 -0.5692 -0.4246
  244MPD1    C4 3702   1.002   3.815  17.687  0.2452 -0.7742 -0.1891
  244MPD1    C5 3703   0.910   3.832   0.085  0.7470 -0.3718 -0.2068
  244MPD1     H 3704   1.208   4.080   0.058 -0.6406  0.4516 -1.0592
  244MPD1    H1 3705   0.992   3.727  17.625 -0.2528 -2.1553  1.8463
  244MPD1    H2 3706   0.869   3.947   0.266 -0.3654  2.0210 -0.6700
  244MPD1    H3 3707   0.834   3.757   0.101  1.0066 -0.7501 -0.7571
  244MPD1     N 3708   1.209   3.900  17.577 -0.3520 -0.5681  0.2832
  244MPD1    H5 3709   1.279   3.973  17.567 -0.4264 -0.7048 -1.2006
  244MPD1    N1 3710   1.054   4.117   0.274 -0.4669  0.3081 -0.0745
  244MPD1    H6 3711   1.122   4.193   0.270 -0.2066  0.0680 -0.1999
  244MPD1    H7 3712   0.966   4.159   0.303 -0.7096 -0.0297 -0.3333
  245MPD1     C 3713   2.899   3.604  13.188  0.4526  0.1218  0.0466
  245MPD1    C1 3714   2.809   3.627  13.290  0.2054  1.1188  0.0505
  245MPD1    C2 3715   2.860   3.706  13.398  0.0272  0.8005  0.1018
  245MPD1    C3 3716   2.985   3.759  13.402 -0.3797 -0.1902  0.6522
  245MPD1    C4 3717   3.072   3.717  13.311 -0.8101  0.0798 -0.5871
  245MPD1    C5 3718   3.031   3.645  13.201  0.1995 -0.4836 -0.4791
  245MPD1     H 3719   2.792   3.714  13.482  1.2872  1.9040  1.0021
  245MPD1    H1 3720   3.175   3.752  13.307 -0.3659 -1.3337 -1.5342
  245MPD1    H2 3721   2.877   3.556  13.093 -1.0329  0.7693  0.0493
  245MPD1    H3 3722   3.105   3.610  13.131  0.0917 -0.3256 -0.6737
  245MPD1     N 3723   3.022   3.831  13.516  0.1518  0.3349  0.3230
  245MPD1    H5 3724   2.949   3.850  13.585 -0.3284 -0.3724  0.0093
  245MPD1    N1 3725   2.667   3.590  13.273 -0.2488  0.0722  0.3094
  245MPD1    H6 3726   2.657   3.521  13.199 -0.8823 -1.1660  1.5504
  245MPD1    H7 3727   2.616   3.575  13.360  0.1063 -0.1473  0.4783
  246MPD1     C 3728   3.489   3.598   8.921  0.1522  0.2874  0.5693
  246MPD1    C1 3729   3.598   3.676   8.898  0.4869  1.1081  0.1534
  246MPD1    C2 3730   3.719   3.621   8.941 -0.7771 -0.0834  0.7408
  246MPD1    C3 3731   3.737   3.500   8.988  0.3106  0.4133 -0.1837
  246MPD1    C4 3732   3.635   3.416   8.981  0.0244 -0.0911  0.3663
  246MPD1    C5 3733   3.508   3.463   8.938 -0.0468  0.0022  0.0396
  246MPD1     H 3734   3.803   3.690   8.944 -2.3008  1.7940  0.6207
  246MPD1    H1 3735   3.645   3.308   8.985  1.2163  0.0033 -0.2351
  246MPD1    H2 3736   3.389   3.638   8.912 -0.3193 -0.3080  2.9934
  246MPD1    H3 3737   3.426   3.393   8.943 -0.7077  0.6841 -1.5460
  246MPD1     N 3738   3.867   3.470   9.027  0.5432 -0.0423 -0.0393
  246MPD1    H5 3739   3.938   3.542   9.026  1.3722 -0.8449  2.3883
  246MPD1    N1 3740   3.586   3.810   8.874  0.5042  0.4731  0.9584
  246MPD1    H6 3741   3.504   3.835   8.818 -1.1107 -2.0338  2.2115
  246MPD1    H7 3742   3.669   3.847   8.828 -0.5995  2.0314  0.2095
  247MPD1     C 3743   1.530   3.968  15.878 -0.3748 -0.2171 -0.1263
  247MPD1    C1 3744   1.535   3.833  15.872 -0.2879  0.3528 -0.4349
  247MPD1    C2 3745   1.656   3.772  15.831 -0.4116  0.0639  0.0508
  247MPD1    C3 3746   1.765   3.849  15.785 -0.5336  0.6239  0.0827
  247MPD1    C4 3747   1.753   3.989  15.785  0.0336 -0.0308 -0.3867
  247MPD1    C5 3748   1.638   4.045  15.833  0.2141  0.2910 -0.4440
  247MPD1     H 3749   1.669   3.664  15.829  0.8300  0.2045  0.1242
  247MPD1    H1 3750   1.832   4.051  15.743  0.3518 -1.1531 -1.4686
  247MPD1    H2 3751   1.444   4.023  15.914  1.4219  0.2084  3.6315
  247MPD1    H3 3752   1.636   4.154  15.833 -0.8129  0.2704 -2.1193
  247MPD1     N 3753   1.890   3.793  15.762 -0.9624 -0.8106 -0.0109
  247MPD1    H5 3754   1.966   3.859  15.753 -0.1223 -1.2296  4.0073
  247MPD1    N1 3755   1.439   3.756  15.942  0.0036  0.0737  0.1867
  247MPD1    H6 3756   1.432   3.659  15.910 -1.3759  0.5138 -0.8497
  247MPD1    H7 3757   1.348   3.801  15.952  0.5019  0.7839  1.4742
  248MPD1     C 3758   3.473   4.258  17.190  0.2780  0.0630 -0.2686
  248MPD1    C1 3759   3.529   4.367  17.256  0.5369 -0.5402  0.4969
  248MPD1    C2 3760   3.495   4.386  17.390 -0.1915 -0.1486 -0.5071
  248MPD1    C3 3761   3.382   4.325  17.447  0.5290  0.0173 -0.1384
  248MPD1    C4 3762   3.316   4.229  17.379 -0.4146 -0.6431  0.0926
  248MPD1    C5 3763   3.363   4.196  17.250  0.0247  0.5722  0.8181
  248MPD1     H 3764   3.549   4.462  17.446 -1.4587  0.5047 -0.1753
  248MPD1    H1 3765   3.246   4.164  17.430  0.8641 -0.9250  1.5027
  248MPD1    H2 3766   3.512   4.230  17.093 -0.6711  2.1659 -1.2534
  248MPD1    H3 3767   3.315   4.112  17.202  3.1382 -1.0308  0.5238
  248MPD1     N 3768   3.341   4.372  17.573  0.2327 -0.0171 -0.6657
  248MPD1    H5 3769   3.366   4.468  17.597  0.4645 -0.5287  1.0962
  248MPD1    N1 3770   3.636   4.439  17.204  0.1660  0.0030  0.0121
  248MPD1    H6 3771   3.635   4.527  17.256 -1.4578 -0.0467  0.0398
  248MPD1    H7 3772   3.612   4.454  17.106 -3.0927  1.0751  1.0041
  249MPD1     C 3773   4.631   2.297  10.398  0.4701 -0.4195 -0.7447
  249MPD1    C1 3774   4.636   2.302  10.260 -0.3479 -0.1188 -0.4015
  249MPD1    C2 3775   4.709   2.404  10.205  0.1914  0.1359 -0.5160
  249MPD1    C3 3776   0.071   2.489  10.282  0.5841  0.3660  0.5281
  249MPD1    C4 3777   0.051   2.482  10.424 -0.0747  1.0511 -0.2400
  249MPD1    C5 3778   4.707   2.378  10.482 -0.0212 -0.0330  0.2059
  249MPD1     H 3779   4.711   2.427  10.099  1.3026  2.4390  0.0032
  249MPD1    H1 3780   0.099   2.551  10.491  2.0530  0.2296 -0.9343
  249MPD1    H2 3781   4.565   2.227  10.448  1.0013  1.6128  2.8459
  249MPD1    H3 3782   4.698   2.366  10.590 -0.1669 -2.3406 -0.0652
  249MPD1     N 3783   0.145   2.584  10.217 -0.3325  0.1970  0.0805
  249MPD1    H5 3784   0.128   2.589  10.118 -0.7828  0.7742  0.1903
  249MPD1    N1 3785   4.545   2.221  10.190 -0.7913  0.0631 -0.7117
  249MPD1    H6 3786   4.576   2.190  10.098 -0.6264 -3.2554  0.4573
  249MPD1    H7 3787   4.529   2.135  10.242  1.3258 -0.0602 -0.2596
  250MPD2     C 3788   0.827   2.990  13.461  0.2942 -1.0774  0.3290
  250MPD2    C1 3789   0.864   3.049  13.339 -0.0853 -0.0945 -0.4663
  250MPD2    C2 3790   0.884   2.967  13.229 -0.4996 -0.0613 -0.2745
  250MPD2    C3 3791   0.878   2.828  13.238  1.2536 -0.7026 -1.2433
  250MPD2    C4 3792   0.862   2.777  13.363  0.5246  0.3186  0.9407
  250MPD2    C5 3793   0.824   2.853  13.469 -0.7759 -0.4759 -0.0200
  250MPD2     H 3794   0.888   3.009  13.129  1.2771  0.3323 -0.0421
  250MPD2    H1 3795   0.849   2.669  13.370 -0.0510  0.2864 -0.6451
  250MPD2    H2 3796   0.809   3.057  13.545 -0.5399  0.7222 -1.2794
  250MPD2    H3 3797   0.798   2.807  13.563 -0.2240  0.5402  0.6289
  250MPD2     N 3798   0.885   2.738  13.134 -0.3241  0.2262  0.3551
  250MPD2    H5 3799   0.875   2.640  13.158  3.2002 -0.7957 -2.2848
  250MPD2    N1 3800   0.857   3.186  13.335  0.1883  0.3554  0.2472
  250MPD2    H7 3801   0.852   3.218  13.431 -2.5110  0.9852 -0.1087
  251TMC3    C1 3802   0.895   3.407  13.262 -0.7497  0.0400 -0.1776
  251TMC3    C2 3803   0.863   3.453  13.385  0.0057  0.7026 -0.4301
  251TMC3    C3 3804   0.868   3.588  13.405  0.2121  0.3223  0.1632
  251TMC3    C4 3805   0.964   3.485  13.172 -0.1863  0.6476  0.2765
  251TMC3    C5 3806   0.995   3.614  13.202 -0.3062 -0.1586  0.5023
  251TMC3    C6 3807   0.947   3.670  13.315  0.0326  1.1470 -0.0306
  251TMC3     C 3808   0.880   3.269  13.223  0.3173 -0.5399  0.1662
  251TMC3     O 3809   0.904   3.246  13.108  0.2362  0.5696  0.8150
  251TMC3     H 3810   0.811   3.396  13.462 -1.2619  2.0073 -0.3209
  251TMC3    H1 3811   0.989   3.442  13.076 -0.5027  0.1849  0.3951
  251TMC3    H2 3812   0.956   3.777  13.328  0.9312  1.2146 -1.2234
  251TMC3    C7 3813   1.116   3.662  13.153 -0.3316 -0.1698  1.2973
  251TMC3    C8 3814   0.850   3.647  13.534 -0.2706 -0.1492 -0.7361
  251TMC3    O1 3815   1.143   3.783  13.166 -0.1763  0.0697 -0.1532
  251TMC3    O2 3816   0.857   3.764  13.532 -0.3204  0.2547  0.1574
  252TMC3    C1 3817   1.471   3.764   9.103  0.0659 -0.5079 -0.1339
  252TMC3    C2 3818   1.559   3.665   9.107  0.7623 -0.2549  0.1449
  252TMC3    C3 3819   1.507   3.544   9.131 -0.0822  0.0941  0.3140
  252TMC3    C4 3820   1.339   3.746   9.116 -0.0868  0.0175 -0.4820
  252TMC3    C5 3821   1.290   3.618   9.148  0.1747 -0.0405  0.2811
  252TMC3    C6 3822   1.378   3.514   9.146 -0.2105  1.1990  0.5105
  252TMC3     C 3823   1.523   3.897   9.079  0.3008 -0.5331  0.3897
  252TMC3     O 3824   1.643   3.907   9.096  0.2847 -0.1339  0.1460
  252TMC3     H 3825   1.661   3.679   9.074  0.2787  2.6662 -0.1556
  252TMC3    H1 3826   1.272   3.831   9.114 -1.3400 -0.8971  2.0640
  252TMC3    H2 3827   1.345   3.411   9.156  0.9628  0.5035 -2.9877
  252TMC3    C7 3828   1.166   3.603   9.217 -0.1941 -0.3801 -0.8135
  252TMC3    C8 3829   1.599   3.431   9.128 -0.3938  0.2541  1.0568
  252TMC3    O1 3830   1.091   3.696   9.190 -0.4001 -0.5340 -0.1387
  252TMC3    O2 3831   1.564   3.319   9.089 -0.0836 -0.0958 -0.0811
  253MPD2     C 3832   3.125   2.733  15.350 -0.0591  0.1831 -0.4320
  253MPD2    C1 3833   2.991   2.743  15.400 -0.1126 -0.9590  0.9227
  253MPD2    C2 3834   2.964   2.686  15.523 -0.6325  0.0941 -0.5654
  253MPD2    C3 3835   3.044   2.598  15.584 -0.3331  0.5706  0.4305
  253MPD2    C4 3836   3.173   2.581  15.533 -0.2298  0.0162  0.0833
  253MPD2    C5 3837   3.209   2.647  15.415  0.0347 -0.1172 -0.8016
  253MPD2     H 3838   2.870   2.714  15.568 -0.6018  1.4993 -1.3682
  253MPD2    H1 3839   3.241   2.509  15.575  0.0051  0.7697  0.9933
  253MPD2    H2 3840   3.153   2.772  15.253  0.7783 -1.7505 -0.9659
  253MPD2    H3 3841   3.307   2.629  15.373 -0.5617 -2.1163 -1.3604
  253MPD2     N 3842   3.007   2.526  15.698 -0.4484  0.0423 -0.8849
  253MPD2    H5 3843   3.080   2.468  15.739 -0.6022 -1.0200 -2.1168
  253MPD2    N1 3844   2.882   2.806  15.331  0.3322  0.6434 -0.1838
  253MPD2    H7 3845   2.800   2.814  15.390  0.7725  1.8479  0.2659
  254TMC3    C1 3846   2.865   2.414  15.851  0.3116 -0.1665  0.4891
  254TMC3    C2 3847   2.746   2.348  15.853  0.0238 -0.2489  0.2010
  254TMC3    C3 3848   2.712   2.292  15.974  0.2135  0.2895  0.1536
  254TMC3    C4 3849   2.950   2.418  15.959  0.1111  0.4824  0.2384
  254TMC3    C5 3850   2.909   2.354  16.071 -0.0859 -0.1071 -0.8231
  254TMC3    C6 3851   2.788   2.292  16.082  0.0035 -0.5871  0.7371
  254TMC3     C 3852   2.876   2.506  15.738  0.2552 -0.5302 -0.1516
  254TMC3     O 3853   2.771   2.553  15.695 -0.8085  0.5826 -0.2182
  254TMC3     H 3854   2.680   2.369  15.769  3.8110  1.1759 -2.4126
  254TMC3    H1 3855   3.051   2.456  15.956  0.2909 -0.0906 -0.9621
  254TMC3    H2 3856   2.750   2.249  16.174 -1.3936  2.0073  1.3626
  254TMC3    C7 3857   2.958   2.411  16.202 -0.4769 -0.4529  0.3298
  254TMC3    C8 3858   2.566   2.270  15.991  0.6892  0.0349  0.4992
  254TMC3    O1 3859   2.916   2.351  16.300 -0.7593 -0.2686 -0.1462
  254TMC3    O2 3860   2.517   2.245  16.098  0.1592 -0.1948 -0.1057
  255MPD2     C 3861   0.918   4.678   9.725 -0.0075 -0.0186  0.0224
  255MPD2    C1 3862   0.977   0.062   9.678 -0.1059  0.0502 -0.0681
  255MPD2    C2 3863   1.094   0.115   9.727  0.2046  0.4030 -0.2635
  255MPD2    C3 3864   1.157   0.045   9.829 -0.2045 -0.3014  0.0847
  255MPD2    C4 3865   1.096   4.664   9.890 -0.3659  0.4074 -0.1127
  255MPD2    C5 3866   0.975   4.614   9.836 -0.5649 -0.3772  0.0926
  255MPD2     H 3867   1.132   0.207   9.687  1.5933 -0.6480 -1.3612
  255MPD2    H1 3868   1.146   4.603   9.965  0.5284 -0.6100 -1.5353
  255MPD2    H2 3869   0.830   4.630   9.684 -0.7130  2.3914 -1.2389
  255MPD2    H3 3870   0.936   4.519   9.872 -1.0476  0.4670  1.8002
  255MPD2     N 3871   1.276   0.100   9.879  0.2786 -0.0765  0.5729
  255MPD2    H5 3872   1.296   0.191   9.838 -0.8902  0.1549  0.5125
  255MPD2    N1 3873   0.918   0.105   9.554 -0.1142 -0.3276 -0.3684
  255MPD2    H7 3874   0.843   0.048   9.516  0.5321  0.1076 -2.3241
  256TMC3    C1 3875   0.914   0.207   9.338  0.6887  0.0832  0.4445
  256TMC3    C2 3876   0.977   0.280   9.242 -0.6724  0.9711  0.0097
  256TMC3    C3 3877   0.966   0.247   9.109  0.6460  0.0969 -0.0417
  256TMC3    C4 3878   0.834   0.104   9.297 -0.2616  0.1016 -0.2493
  256TMC3    C5 3879   0.831   0.068   9.158 -0.2765 -0.8788  0.7231
  256TMC3    C6 3880   0.898   0.141   9.066 -0.6040 -0.5235  0.2440
  256TMC3     C 3881   0.971   0.204   9.477 -0.8101 -0.0773  0.5736
  256TMC3     O 3882   1.064   0.279   9.491 -0.0055 -0.2831 -0.3775
  256TMC3     H 3883   1.044   0.359   9.273  0.6939 -0.6623  1.2025
  256TMC3    H1 3884   0.774   0.050   9.369 -1.2210  1.7110  0.1520
  256TMC3    H2 3885   0.883   0.110   8.963 -0.7962  2.2449 -0.5645
  256TMC3    C7 3886   0.782   4.663   9.117 -0.3294  0.3884 -0.4387
  256TMC3    C8 3887   1.056   0.299   9.011  0.3094  0.6353  0.1307
  256TMC3    O1 3888   0.744   4.641   9.003 -0.2994 -0.2205  0.5232
  256TMC3    O2 3889   1.081   0.227   8.911 -0.0927 -0.0120 -0.3141
  257MPD2     C 3890   0.250   3.109  12.987  0.2042 -0.2047  0.0470
  257MPD2    C1 3891   0.261   3.020  12.881 -0.2667 -0.0017 -0.7686
  257MPD2    C2 3892   0.243   2.884  12.902  0.0616 -0.2050 -0.6709
  257MPD2    C3 3893   0.216   2.832  13.027 -0.1132  0.0975  0.0831
  257MPD2    C4 3894   0.234   2.919  13.131  0.9067 -0.3583 -0.0274
  257MPD2    C5 3895   0.238   3.054  13.113  0.0205 -0.6549 -0.0117
  257MPD2     H 3896   0.233   2.822  12.814 -0.9978 -1.3603  0.2689
  257MPD2    H1 3897   0.236   2.889  13.235 -1.0317  1.3120  0.5097
  257MPD2    H2 3898   0.258   3.217  12.997  0.1171 -0.3663  1.8597
  257MPD2    H3 3899   0.237   3.113  13.203  2.1652 -0.0537 -0.3743
  257MPD2     N 3900   0.190   2.695  13.046 -0.3622  0.3955 -1.0203
  257MPD2    H5 3901   0.197   2.626  12.973  0.3033  0.7731 -1.3172
  257MPD2    N1 3902   0.283   3.075  12.747 -0.5319 -0.4612 -0.2014
  257MPD2    H7 3903   0.318   3.170  12.749 -1.9840  0.1071 -2.6635
  258TMC3    C1 3904   0.185   2.486  13.171  0.0070  0.5983  0.8025
  258TMC3    C2 3905   0.175   2.412  13.062  0.2779 -0.1264 -0.3186
  258TMC3    C3 3906   0.150   2.279  13.076  0.4799  0.2945  0.9538
  258TMC3    C4 3907   0.186   2.427  13.296  0.2368 -0.2164 -0.4260
  258TMC3    C5 3908   0.168   2.298  13.310 -0.3429  0.3423  0.0866
  258TMC3    C6 3909   0.144   2.222  13.200 -0.3304 -0.1328  0.3683
  258TMC3     C 3910   0.188   2.636  13.168  0.2675  0.4583 -0.2732
  258TMC3     O 3911   0.172   2.683  13.277  0.2119 -0.2349 -0.3229
  258TMC3     H 3912   0.171   2.452  12.961 -1.8451  0.0337 -0.1710
  258TMC3    H1 3913   0.200   2.491  13.383 -2.2012  0.0634 -0.2390
  258TMC3    H2 3914   0.097   2.126  13.217  0.0425 -0.4147 -0.2046
  258TMC3    C7 3915   0.078   2.264  13.426 -0.1470  0.4446  0.1133
  258TMC3    C8 3916   0.081   2.219  12.968 -0.3493 -0.3156 -0.1217
  258TMC3    O1 3917   4.682   2.252  13.413 -0.5420 -0.3193 -0.3789
  258TMC3    O2 3918   4.723   2.288  12.911 -0.2332 -0.1893 -0.6183
  259MPD2     C 3919   3.835   4.210   1.094  1.2262  0.3004  0.0348
  259MPD2    C1 3920   3.858   4.076   1.083  0.1727  0.2255 -0.1473
  259MPD2    C2 3921   3.921   4.025   0.973 -0.2588  0.0038  0.2101
  259MPD2    C3 3922   3.977   4.110   0.878  0.2927 -0.0466  0.0492
  259MPD2    C4 3923   3.951   4.245   0.881  0.3796 -0.2937 -0.3046
  259MPD2    C5 3924   3.875   4.291   0.987  0.0732 -0.4133  0.2768
  259MPD2     H 3925   3.938   3.918   0.967 -1.0049 -0.1333  0.6472
  259MPD2    H1 3926   3.981   4.319   0.807 -0.0196 -1.3423 -1.5129
  259MPD2    H2 3927   3.793   4.264   1.178  1.0613  0.1172  0.0704
  259MPD2    H3 3928   3.851   4.396   0.984  1.4571 -0.0914  0.6631
  259MPD2     N 3929   4.068   4.055   0.784  0.2282 -0.1845 -0.3728
  259MPD2    H5 3930   4.070   3.953   0.777 -1.9510 -0.4753  3.0699
  259MPD2    N1 3931   3.810   4.003   1.193 -0.4603 -0.4101 -0.0745
  259MPD2    H7 3932   3.759   4.053   1.266 -1.6029 -0.9451 -0.5125
  260TMC3    C1 3933   4.238   4.042   0.621  0.8906 -0.1984 -0.9883
  260TMC3    C2 3934   4.358   4.102   0.572 -0.8719  0.4679 -0.9281
  260TMC3    C3 3935   4.460   4.017   0.539  0.4409  0.5598 -0.1653
  260TMC3    C4 3936   4.233   3.906   0.634 -0.4514 -0.1760  0.0688
  260TMC3    C5 3937   4.342   3.824   0.609  0.3816  0.3817  0.5695
  260TMC3    C6 3938   4.452   3.882   0.554  0.5690 -0.5230 -0.0288
  260TMC3     C 3939   4.151   4.121   0.701  0.0115 -0.1282  1.1036
  260TMC3     O 3940   4.169   4.243   0.688  0.3436 -0.7676  0.1605
  260TMC3     H 3941   4.367   4.209   0.556  0.1460  0.4790 -0.2869
  260TMC3    H1 3942   4.136   3.871   0.666  0.2039 -3.3142 -1.3149
  260TMC3    H2 3943   4.542   3.823   0.541 -0.9354 -2.7832 -0.0387
  260TMC3    C7 3944   4.314   3.705   0.528 -0.2717 -0.5580 -0.6136
  260TMC3    C8 3945   4.530   4.046   0.412  0.0632 -0.1444 -0.0291
  260TMC3    O1 3946   4.384   3.709   0.428 -0.1829 -0.0050  0.0043
  260TMC3    O2 3947   4.548   4.162   0.383 -0.0312  0.3207 -0.0792
  261MPD2     C 3948   1.233   2.679  12.357  0.6316 -0.2732 -0.6166
  261MPD2    C1 3949   1.186   2.767  12.453  0.0947 -0.8639 -0.8456
  261MPD2    C2 3950   1.224   2.899  12.445  0.1139  0.1315  0.1784
  261MPD2    C3 3951   1.308   2.937  12.344  0.2596  0.0821  0.0897
  261MPD2    C4 3952   1.359   2.851  12.258  0.6247  0.0980  0.4141
  261MPD2    C5 3953   1.307   2.722  12.255  0.1930 -0.0020 -0.5468
  261MPD2     H 3954   1.187   2.973  12.515  1.5720 -0.9646  2.1272
  261MPD2    H1 3955   1.431   2.879  12.183  0.3026 -0.3332 -0.0559
  261MPD2    H2 3956   1.210   2.573  12.359 -0.2216 -0.1207 -2.3533
  261MPD2    H3 3957   1.349   2.662  12.175  1.4596  1.4559 -0.9807
  261MPD2     N 3958   1.348   3.072  12.319  0.3096 -0.7416 -0.2944
  261MPD2    H5 3959   1.410   3.084  12.239 -0.6755  0.1324 -0.9277
  261MPD2    N1 3960   1.124   2.727  12.569 -0.0294  0.1532  0.5060
  261MPD2    H7 3961   1.092   2.803  12.629  1.0982  0.8341  0.2479
  262TMC3    C1 3962   1.362   3.299  12.309 -0.2207  0.0160  0.6170
  262TMC3    C2 3963   1.274   3.406  12.285 -0.5800  0.2571 -0.4501
  262TMC3    C3 3964   1.322   3.497  12.207  0.1915 -0.1834 -0.0661
  262TMC3    C4 3965   1.498   3.288  12.278  0.5445  0.3202 -0.8265
  262TMC3    C5 3966   1.540   3.395  12.207 -0.1956 -0.6321 -0.0322
  262TMC3    C6 3967   1.455   3.505  12.172 -0.5832  0.1210 -0.0807
  262TMC3     C 3968   1.306   3.188  12.380  0.3380 -0.4405  0.2010
  262TMC3     O 3969   1.218   3.205  12.465 -0.2761  0.0957  0.1236
  262TMC3     H 3970   1.171   3.394  12.316  0.6386 -3.4688  2.2131
  262TMC3    H1 3971   1.570   3.209  12.291 -0.0351 -0.0244  0.2631
  262TMC3    H2 3972   1.491   3.587  12.110  0.1297 -0.3551 -0.3020
  262TMC3    C7 3973   1.666   3.380  12.127 -0.0610  1.3203  0.3483
  262TMC3    C8 3974   1.230   3.569  12.115  0.2147 -0.3237 -0.2619
  262TMC3    O1 3975   1.766   3.329  12.180  0.2270 -0.7281 -0.5106
  262TMC3    O2 3976   1.289   3.644  12.035  0.2925  0.1100  0.6093
  263MPD2     C 3977   2.161   2.364  11.596  0.0317  0.5219 -0.1111
  263MPD2    C1 3978   2.247   2.304  11.512  0.2829  0.3678 -0.7078
  263MPD2    C2 3979   2.300   2.392  11.414  0.7025 -0.6357  0.8391
  263MPD2    C3 3980   2.270   2.523  11.407  0.0925 -0.2303  0.7928
  263MPD2    C4 3981   2.192   2.582  11.502 -0.3737 -0.1577 -0.3955
  263MPD2    C5 3982   2.135   2.498  11.594  0.0592 -0.1209  0.6498
  263MPD2     H 3983   2.358   2.349  11.333 -3.5953 -1.1175 -1.9864
  263MPD2    H1 3984   2.184   2.687  11.526 -1.6209 -0.6856  1.4935
  263MPD2    H2 3985   2.111   2.305  11.672  1.0735  0.7715  0.7808
  263MPD2    H3 3986   2.071   2.536  11.673 -1.8653 -1.8663 -0.0680
  263MPD2     N 3987   2.334   2.606  11.313 -0.4380  0.2163 -0.8109
  263MPD2    H5 3988   2.387   2.560  11.241 -0.3628  0.3573 -0.8451
  263MPD2    N1 3989   2.280   2.176  11.533 -0.0388 -0.1602 -0.3509
  263MPD2    H7 3990   2.223   2.123  11.598  1.7420 -2.4364 -0.6324
  264TMC3    C1 3991   2.403   2.806  11.196  0.5086  0.8294  0.2466
  264TMC3    C2 3992   2.427   2.936  11.212 -0.0173 -0.2725  0.1832
  264TMC3    C3 3993   2.487   3.002  11.109  0.1909 -0.2583 -0.4041
  264TMC3    C4 3994   2.446   2.732  11.092  0.6238  0.8135 -0.2449
  264TMC3    C5 3995   2.514   2.802  10.994 -0.1042 -0.4026  0.1805
  264TMC3    C6 3996   2.532   2.939  11.000  0.4789  0.1513  0.2588
  264TMC3     C 3997   2.339   2.739  11.312  0.1955 -0.0062 -0.2630
  264TMC3     O 3998   2.285   2.818  11.388 -0.1606 -0.1574  0.2459
  264TMC3     H 3999   2.419   2.986  11.308  0.1264  3.0438 -1.5212
  264TMC3    H1 4000   2.419   2.628  11.077 -0.3354  0.7857  1.8018
  264TMC3    H2 4001   2.595   2.976  10.920 -3.8207  1.3141 -2.5815
  264TMC3    C7 4002   2.558   2.734  10.877  0.8851 -0.6464 -0.2293
  264TMC3    C8 4003   2.540   3.137  11.131  1.1668  0.0933 -0.2068
  264TMC3    O1 4004   2.560   2.798  10.772 -0.0133  0.3341  0.0701
  264TMC3    O2 4005   2.633   3.167  11.058  0.5849 -0.3494 -0.2736
  265MPD2     C 4006   3.603   2.343  15.283  0.3236  0.6975  0.5960
  265MPD2    C1 4007   3.701   2.435  15.278  0.6815  0.3033 -0.2268
  265MPD2    C2 4008   3.812   2.430  15.188 -0.5418  0.0428 -0.1332
  265MPD2    C3 4009   3.819   2.313  15.107 -0.4228  0.7292 -0.4337
  265MPD2    C4 4010   3.714   2.224  15.104 -0.0436  0.2523  0.6294
  265MPD2    C5 4011   3.610   2.237  15.191 -0.2617 -0.4499 -0.2412
  265MPD2     H 4012   3.883   2.512  15.192 -0.3958 -0.1284  0.8753
  265MPD2    H1 4013   3.721   2.145  15.030  3.6153  0.8784  0.2909
  265MPD2    H2 4014   3.507   2.364  15.329  1.3574 -1.4790  3.7444
  265MPD2    H3 4015   3.526   2.169  15.194 -0.1087 -0.6396 -0.2743
  265MPD2     N 4016   3.927   2.292  15.014  0.0574  0.2413  0.6952
  265MPD2    H5 4017   3.924   2.207  14.959 -3.1833 -0.1128  1.3919
  265MPD2    N1 4018   3.695   2.550  15.356  0.2990 -0.3640  0.0012
  265MPD2    H7 4019   3.768   2.621  15.354  0.3070 -0.3837 -0.4521
  266TMC3    C1 4020   3.609   2.710  15.511  0.1218  0.9487  0.6591
  266TMC3    C2 4021   3.557   2.721  15.636 -0.2302  0.2732 -0.0356
  266TMC3    C3 4022   3.576   2.842  15.699  0.2288  0.7415 -0.2509
  266TMC3    C4 4023   3.683   2.810  15.446  0.0478 -0.4662  0.7076
  266TMC3    C5 4024   3.700   2.917  15.518 -0.1798 -0.0106 -0.4790
  266TMC3    C6 4025   3.655   2.936  15.647  0.4553  0.3660 -0.0712
  266TMC3     C 4026   3.600   2.574  15.450  0.0980  0.5528  0.5475
  266TMC3     O 4027   3.531   2.490  15.509  0.3273  0.0805 -0.1599
  266TMC3     H 4028   3.494   2.645  15.680 -0.9467  1.0105  0.2057
  266TMC3    H1 4029   3.734   2.803  15.350  1.5466 -2.1806  1.6250
  266TMC3    H2 4030   3.661   3.038  15.682  2.0246 -0.3604  1.7852
  266TMC3    C7 4031   3.754   3.032  15.460 -0.5997  0.7262  0.3482
  266TMC3    C8 4032   3.471   2.886  15.797  0.5531  0.3648 -0.6862
  266TMC3    O1 4033   3.847   3.075  15.523 -0.1960 -0.3726  0.5116
  266TMC3    O2 4034   3.405   2.793  15.840 -0.1924 -0.2251  1.0448
  267MPD2     C 4035   1.225   0.051  17.655  0.1780 -0.3868  0.8009
  267MPD2    C1 4036   1.325   0.020  17.568 -0.5328 -0.6258 -0.2015
  267MPD2    C2 4037   1.305   4.644  17.472  0.0637  1.1635  0.8252
  267MPD2    C3 4038   1.192   4.567  17.479 -0.2898 -0.4667  0.4139
  267MPD2    C4 4039   1.091   4.600  17.566  0.0382  0.1232  0.4920
  267MPD2    C5 4040   1.111   4.698  17.652  0.1945  0.6997 -0.1677
  267MPD2     H 4041   1.381   4.631  17.397 -0.7129 -1.2504  0.4629
  267MPD2    H1 4042   0.998   4.545  17.576 -0.4681  1.1434  1.3265
  267MPD2    H2 4043   1.222   0.134   0.023 -1.3771 -0.0396  0.3197
  267MPD2    H3 4044   1.037   4.709   0.029 -2.4299  1.6442 -2.7771
  267MPD2     N 4045   1.183   4.466  17.378 -0.3597  0.3440  0.5872
  267MPD2    H5 4046   1.266   4.456  17.320 -0.0096  0.6355  1.0347
  267MPD2    N1 4047   1.439   0.105  17.571  0.2561  0.4309 -0.5380
  267MPD2    H7 4048   1.447   0.158  17.656  4.4098  0.9070 -1.2235
  268TMC3    C1 4049   1.675   0.112  17.559  0.2443 -0.1729  0.6332
  268TMC3    C2 4050   1.786   0.123  17.481  0.0875 -0.4456  0.6093
  268TMC3    C3 4051   1.907   0.146  17.541  0.0741  0.0972  0.0054
  268TMC3    C4 4052   1.683   0.084  17.693 -0.4671  1.0425 -0.2323
  268TMC3    C5 4053   1.812   0.106   0.047  0.0331 -0.6186  0.3322
  268TMC3    C6 4054   1.922   0.145  17.674  0.3972  0.2328 -0.0594
  268TMC3     C 4055   1.551   0.091  17.485 -0.3075  0.3151 -0.3080
  268TMC3     O 4056   1.554   0.057  17.369 -0.0567 -0.0420 -0.2793
  268TMC3     H 4057   1.761   0.129  17.375  1.0901  0.3955  0.4093
  268TMC3    H1 4058   1.602   0.051   0.054 -0.3508 -0.6459 -0.9638
  268TMC3    H2 4059   2.018   0.153   0.023  1.6746  0.7605 -2.5538
  268TMC3    C7 4060   1.837   0.070   0.192  0.1819 -0.1444  0.2299
  268TMC3    C8 4061   2.027   0.155  17.466 -0.8436  0.1800  0.0845
  268TMC3    O1 4062   1.761   4.712   0.244  0.4285 -0.0005 -0.3523
  268TMC3    O2 4063   2.130   0.173  17.526  0.4141  0.0508 -0.5036
  269MPD2     C 4064   1.818   3.057  15.591  0.1989 -0.0194  0.4409
  269MPD2    C1 4065   1.686   3.045  15.559 -0.0494  0.1057 -0.4020
  269MPD2    C2 4066   1.617   3.151  15.507 -0.2466 -0.3168  0.3063
  269MPD2    C3 4067   1.682   3.274  15.500  0.1506 -0.5815 -0.1522
  269MPD2    C4 4068   1.816   3.290  15.534  0.0179 -0.0040  0.3767
  269MPD2    C5 4069   1.883   3.178  15.581  0.0761  0.2326  0.3640
  269MPD2     H 4070   1.513   3.142  15.479 -0.1246 -0.0368 -0.2313
  269MPD2    H1 4071   1.872   3.379  15.508  2.7272 -1.5477  0.9148
  269MPD2    H2 4072   1.887   2.977  15.615 -0.1309 -0.6197 -0.6177
  269MPD2    H3 4073   1.990   3.185  15.598  0.1190  1.0127 -0.2030
  269MPD2     N 4074   1.612   3.391  15.460  0.3530  0.4000 -0.2824
  269MPD2    H5 4075   1.514   3.384  15.433  0.2261 -2.6730  0.9398
  269MPD2    N1 4076   1.632   2.920  15.586 -0.1460  0.4412 -0.2309
  269MPD2    H7 4077   1.692   2.856  15.635 -0.0496  2.3460  2.1265
  270TMC3    C1 4078   1.461   2.762  15.597 -0.1694 -0.4282 -0.6382
  270TMC3    C2 4079   1.365   2.703  15.522  0.0860 -0.1691 -0.4165
  270TMC3    C3 4080   1.356   2.567  15.531  0.0586 -0.1476 -0.4373
  270TMC3    C4 4081   1.530   2.691  15.690  0.2028 -0.7905 -0.1097
  270TMC3    C5 4082   1.501   2.559  15.713  0.2834 -0.8294  0.0898
  270TMC3    C6 4083   1.424   2.490  15.624 -0.6287  0.3265  0.3841
  270TMC3     C 4084   1.499   2.889  15.565  0.9377  0.0703  0.6305
  270TMC3     O 4085   1.406   2.955  15.510  0.1529  0.3437 -0.0457
  270TMC3     H 4086   1.298   2.751  15.451  0.1803 -0.2870 -0.5850
  270TMC3    H1 4087   1.601   2.743  15.752 -0.1309  0.6774 -0.9474
  270TMC3    H2 4088   1.405   2.384  15.623  0.2541  0.1655  0.3451
  270TMC3    C7 4089   1.611   2.481  15.766 -0.0303 -0.4260 -0.1364
  270TMC3    C8 4090   1.338   2.508  15.397 -0.2529 -1.1412  0.0801
  270TMC3    O1 4091   1.722   2.516  15.732  0.4027 -0.4941 -0.3940
  270TMC3    O2 4092   1.303   2.588  15.315  0.2743 -0.0438 -0.5214
  271MPD2     C 4093   0.619   3.061  14.234 -0.2690 -0.3204  0.6044
  271MPD2    C1 4094   0.617   2.933  14.174 -0.5264  0.1455  0.4425
  271MPD2    C2 4095   0.525   2.903  14.077 -0.3806 -0.2300  0.0807
  271MPD2    C3 4096   0.416   2.975  14.055 -0.2198 -1.1980  0.2123
  271MPD2    C4 4097   0.418   3.100  14.113 -0.0416 -0.6695  0.1391
  271MPD2    C5 4098   0.525   3.150  14.191 -0.3723 -0.4451 -0.2247
  271MPD2     H 4099   0.526   2.803  14.036 -0.9892 -0.7443  1.3511
  271MPD2    H1 4100   0.333   3.168  14.107 -1.3567 -2.3836 -0.5205
  271MPD2    H2 4101   0.700   3.096  14.298 -0.2755 -0.2441  0.5709
  271MPD2    H3 4102   0.520   3.253  14.223 -3.2619 -0.4289 -0.7416
  271MPD2     N 4103   0.298   2.938  13.993  0.4435 -0.3792 -0.1498
  271MPD2    H5 4104   0.217   2.999  13.998  0.7284  0.0688 -1.0404
  271MPD2    N1 4105   0.702   2.827  14.207 -0.0078  1.0919  0.2786
  271MPD2    H7 4106   0.689   2.747  14.146  0.7668  1.3481 -0.2211
  272TMC3    C1 4107   0.821   2.686  14.348 -0.4513  0.6987  0.1757
  272TMC3    C2 4108   0.855   2.599  14.247  0.3937  0.7520 -0.1036
  272TMC3    C3 4109   0.890   2.470  14.282  0.3127  0.5276  0.3706
  272TMC3    C4 4110   0.810   2.646  14.482  0.3271 -0.0772 -0.2762
  272TMC3    C5 4111   0.834   2.518  14.508 -0.8633 -0.1341 -0.5059
  272TMC3    C6 4112   0.880   2.438  14.412  1.2240  0.3861 -0.0588
  272TMC3     C 4113   0.787   2.828  14.310  0.2450 -0.4820  0.4971
  272TMC3     O 4114   0.813   2.908  14.398  0.2918 -0.3518  0.1783
  272TMC3     H 4115   0.882   2.635  14.149  0.3879  1.9049  0.3216
  272TMC3    H1 4116   0.769   2.722  14.548 -1.2327 -2.8655  1.9780
  272TMC3    H2 4117   0.882   2.331  14.433  0.0834 -0.1717 -2.7565
  272TMC3    C7 4118   0.886   2.489  14.643  0.6054  0.1017 -0.7360
  272TMC3    C8 4119   1.007   2.423  14.210 -0.0783  0.8868  0.2039
  272TMC3    O1 4120   0.899   2.369  14.657  0.6688 -0.4659 -0.0826
  272TMC3    O2 4121   1.043   2.484  14.111  0.4455  0.5368 -0.8838
  273MPD2     C 4122   2.884   0.842  11.454  0.2332 -0.0046 -0.6533
  273MPD2    C1 4123   2.997   0.917  11.451 -0.4288 -0.0410 -0.4216
  273MPD2    C2 4124   3.038   0.975  11.330  0.1103 -0.6373 -0.3752
  273MPD2    C3 4125   2.950   0.967  11.226  0.1500  0.3987 -0.1240
  273MPD2    C4 4126   2.837   0.889  11.231  0.0113 -0.7647 -0.7768
  273MPD2    C5 4127   2.803   0.832  11.347 -0.2535  0.0592 -0.3324
  273MPD2     H 4128   3.136   1.022  11.323 -1.6748  2.6309 -3.0224
  273MPD2    H1 4129   2.770   0.872  11.148 -0.7388 -0.3548 -0.2482
  273MPD2    H2 4130   2.852   0.800  11.549  3.5090 -0.4742  0.2131
  273MPD2    H3 4131   2.709   0.778  11.349 -0.4918  0.3845 -3.0939
  273MPD2     N 4132   2.970   1.032  11.100 -0.9885 -0.0967 -0.1313
  273MPD2    H5 4133   2.910   1.001  11.024 -2.3646  0.9860  0.5168
  273MPD2    N1 4134   3.067   0.920  11.571 -0.1672  0.5566  0.5869
  273MPD2    H7 4135   3.030   0.859  11.643 -0.9961 -0.6412 -0.8299
  274TMC3    C1 4136   3.051   1.181  10.944  1.3602 -0.4797  0.1797
  274TMC3    C2 4137   2.937   1.137  10.877  0.1406 -0.4261 -0.7190
  274TMC3    C3 4138   2.850   1.239  10.835  0.3116 -0.4528  0.3686
  274TMC3    C4 4139   3.077   1.312  10.972  0.6321 -0.4104 -0.6319
  274TMC3    C5 4140   2.974   1.397  10.950 -0.0833  0.9146 -0.4255
  274TMC3    C6 4141   2.872   1.371  10.863 -0.3844  0.0456  0.2818
  274TMC3     C 4142   3.075   1.111  11.068  0.2645 -0.0398 -0.1084
  274TMC3     O 4143   3.151   1.171  11.147  0.2506 -0.0846  0.3610
  274TMC3     H 4144   2.911   1.033  10.858 -0.4126  0.0501 -2.5591
  274TMC3    H1 4145   3.170   1.343  11.019 -0.2888 -0.9603  1.5553
  274TMC3    H2 4146   2.793   1.446  10.861 -0.0093  0.4330 -0.3693
  274TMC3    C7 4147   2.918   1.452  11.073 -0.1044 -0.0862 -0.3712
  274TMC3    C8 4148   2.720   1.217  10.766  0.4295  0.2232 -0.2710
  274TMC3    O1 4149   2.845   1.547  11.064 -0.6597 -0.0966 -0.5907
  274TMC3    O2 4150   2.667   1.109  10.795 -0.1062 -0.4381 -0.2850
  275MPD2     C 4151   2.258   3.612  14.139  0.3816 -0.5152  0.7850
  275MPD2    C1 4152   2.191   3.662  14.250 -0.1659 -0.2256 -0.8468
  275MPD2    C2 4153   2.055   3.647  14.256 -0.0381 -0.4196 -0.4804
  275MPD2    C3 4154   1.990   3.577  14.161 -1.5910 -0.2017  0.5379
  275MPD2    C4 4155   2.055   3.531  14.051  0.2264 -0.4927 -0.1941
  275MPD2    C5 4156   2.190   3.549  14.037  0.6997 -0.2357  0.1521
  275MPD2     H 4157   1.999   3.680  14.344  0.9359 -1.0159  0.3623
  275MPD2    H1 4158   2.008   3.479  13.968  1.1042  0.0517 -1.0282
  275MPD2    H2 4159   2.365   3.629  14.132  0.1213  0.0519 -1.8953
  275MPD2    H3 4160   2.248   3.516  13.951 -1.1307 -0.2866 -1.0566
  275MPD2     N 4161   1.857   3.538  14.175 -0.4663  0.4685  0.4744
  275MPD2    H5 4162   1.840   3.453  14.123 -0.5666  0.8513 -0.1188
  275MPD2    N1 4163   2.252   3.731  14.359 -0.0999 -0.4531  0.7809
  275MPD2    H7 4164   2.194   3.778  14.428 -1.0374 -0.2654 -0.1383
  276TMC3    C1 4165   2.423   3.775  14.518  0.2546  0.1049  0.0408
  276TMC3    C2 4166   2.327   3.739  14.612 -0.1710  0.0811  0.4198
  276TMC3    C3 4167   2.372   3.727  14.739  0.3899  0.6108 -0.1164
  276TMC3    C4 4168   2.556   3.787  14.560 -0.2068  0.3842 -0.0035
  276TMC3    C5 4169   2.588   3.784  14.687  0.1684  0.6668 -0.2808
  276TMC3    C6 4170   2.495   3.743  14.780 -0.0619  0.6629 -0.1869
  276TMC3     C 4171   2.395   3.730  14.384 -0.0595 -0.8990 -0.2217
  276TMC3     O 4172   2.492   3.694  14.316  0.0439 -0.7988 -0.8863
  276TMC3     H 4173   2.222   3.751  14.591  0.1849  0.5670 -1.1675
  276TMC3    H1 4174   2.618   3.817  14.477 -1.4106  0.1884 -0.9760
  276TMC3    H2 4175   2.510   3.757  14.886  1.0750  0.1634 -0.2899
  276TMC3    C7 4176   2.694   3.863  14.749  0.3891 -0.2128 -0.2158
  276TMC3    C8 4177   2.292   3.639  14.819  0.2231 -0.0519  0.3018
  276TMC3    O1 4178   2.655   3.921  14.851 -0.1338  0.3022 -0.4532
  276TMC3    O2 4179   2.184   3.674  14.863 -0.3879 -0.4747  0.1975
  277MPD2     C 4180   4.094   2.300  13.142  0.4061 -0.0692  0.6431
  277MPD2    C1 4181   3.959   2.324  13.120  0.2072 -0.0536 -0.3996
  277MPD2    C2 4182   3.874   2.303  13.226  0.2225  0.1597 -0.4504
  277MPD2    C3 4183   3.913   2.251  13.342  0.0359 -0.5059  0.2340
  277MPD2    C4 4184   4.051   2.226  13.363 -0.4619 -0.1986 -0.7171
  277MPD2    C5 4185   4.137   2.250  13.255 -0.3860 -0.8271  0.1633
  277MPD2     H 4186   3.767   2.321  13.219  0.0459 -0.3347  1.0977
  277MPD2    H1 4187   4.086   2.178  13.454  0.2207  0.0413 -0.8545
  277MPD2    H2 4188   4.173   2.319  13.070 -1.2081 -1.0539 -1.3931
  277MPD2    H3 4189   4.245   2.239  13.266 -0.1600  1.7151  0.3352
  277MPD2     N 4190   3.813   2.232  13.439 -0.4324 -0.4459 -0.0295
  277MPD2    H5 4191   3.722   2.267  13.412  0.2418  1.8943  0.6619
  277MPD2    N1 4192   3.906   2.386  13.013 -0.2758 -0.0251 -0.3975
  277MPD2    H7 4193   3.806   2.377  12.994 -0.6561 -2.2571  2.6223
  278TMC3    C1 4194   3.711   2.164  13.640  0.7940 -0.7063  0.8647
  278TMC3    C2 4195   3.669   2.039  13.656  0.7580 -0.4900 -0.1762
  278TMC3    C3 4196   3.543   2.000  13.604  0.5756 -0.0366 -0.2770
  278TMC3    C4 4197   3.632   2.259  13.589 -0.0857  0.6021  0.8078
  278TMC3    C5 4198   3.508   2.224  13.541  0.7547  0.3955  0.3193
  278TMC3    C6 4199   3.468   2.090  13.534  0.7933  0.4710  0.3867
  278TMC3     C 4200   3.835   2.163  13.561 -0.5441 -0.7624 -0.5936
  278TMC3     O 4201   3.930   2.099  13.597 -0.7777  0.2182  0.4841
  278TMC3     H 4202   3.717   1.969  13.723  1.8760  0.8766  0.4237
  278TMC3    H1 4203   3.657   2.362  13.565  1.5669  0.1029  0.3692
  278TMC3    H2 4204   3.392   2.060  13.463  0.7468  1.1610  0.1414
  278TMC3    C7 4205   3.447   2.307  13.447 -0.0968  0.1528 -0.4967
  278TMC3    C8 4206   3.494   1.867  13.614  0.4908  0.3181  0.6867
  278TMC3    O1 4207   3.506   2.314  13.340 -0.2042  0.1333  0.4590
  278TMC3    O2 4208   3.565   1.781  13.668 -0.0384  0.3906 -0.1693
  279MPD2     C 4209   3.097   3.766   0.450  0.5924  0.1963  0.0927
  279MPD2    C1 4210   2.999   3.681   0.411  0.2710  0.4107  0.3099
  279MPD2    C2 4211   2.999   3.619   0.292 -0.0601  0.3914 -0.0533
  279MPD2    C3 4212   3.109   3.648   0.205 -0.2234  0.5228  0.0622
  279MPD2    C4 4213   3.212   3.738   0.240 -0.0912  0.2892  0.3979
  279MPD2    C5 4214   3.200   3.796   0.366  0.1056  0.3762 -0.5256
  279MPD2     H 4215   2.929   3.541   0.268 -1.8307  0.7533  3.9997
  279MPD2    H1 4216   3.294   3.762   0.173 -2.2545  3.4644 -1.1273
  279MPD2    H2 4217   3.095   3.817   0.546  0.7972  0.8847 -0.2667
  279MPD2    H3 4218   3.276   3.869   0.389 -0.2078  0.3906  0.4504
  279MPD2     N 4219   3.126   3.606   0.071  0.2053 -0.3319 -0.3279
  279MPD2    H5 4220   3.211   3.635   0.025 -0.7065 -2.0828 -3.0752
  279MPD2    N1 4221   2.893   3.659   0.509  0.3933  1.0393 -0.2025
  279MPD2    H7 4222   2.907   3.689   0.605  0.6353 -1.8765  0.6715
  280TMC3    C1 4223   2.681   3.595   0.579  0.2878  0.5872  0.5505
  280TMC3    C2 4224   2.585   3.492   0.559  0.4217  0.3014 -0.1200
  280TMC3    C3 4225   2.453   3.518   0.586 -0.1397  0.9581  0.0727
  280TMC3    C4 4226   2.639   3.723   0.620  0.1831  0.6050 -0.2900
  280TMC3    C5 4227   2.511   3.736   0.655  0.4557 -0.5138 -0.3477
  280TMC3    C6 4228   2.409   3.642   0.638 -0.1693 -0.4596 -0.5643
  280TMC3     C 4229   2.774   3.604   0.473 -0.0843 -0.3871 -0.5552
  280TMC3     O 4230   2.722   3.575   0.367 -0.0809 -0.3606 -0.8806
  280TMC3     H 4231   2.619   3.402   0.509 -0.4717 -0.3181  0.4105
  280TMC3    H1 4232   2.702   3.811   0.621  0.5560  0.3237  1.4031
  280TMC3    H2 4233   2.307   3.669   0.661 -0.0290 -0.8951  0.6099
  280TMC3    C7 4234   2.472   3.875   0.631 -0.0196  0.1098 -0.1602
  280TMC3    C8 4235   2.355   3.444   0.504  0.2607  0.1411 -0.0388
  280TMC3    O1 4236   2.546   3.962   0.673  0.0741 -0.1839  0.0890
  280TMC3    O2 4237   2.244   3.487   0.515  0.3764 -0.8159  0.1535
  281TMC3    C1 4238   1.914   3.071  12.928 -0.4011 -0.9747 -1.1735
  281TMC3    C2 4239   1.811   3.162  12.917 -0.1879 -0.0451  0.0151
  281TMC3    C3 4240   1.688   3.122  12.960 -0.0027  0.0153 -0.1441
  281TMC3    C4 4241   1.888   2.945  12.965  0.6738  0.7622 -0.3598
  281TMC3    C5 4242   1.768   2.905  13.013  0.3973  0.0844  0.0440
  281TMC3    C6 4243   1.668   2.995  13.007  0.0881  0.7167 -0.4335
  281TMC3     C 4244   2.046   3.123  12.940 -0.8782 -0.6195  0.0563
  281TMC3     O 4245   2.116   3.068  12.857 -0.5052 -0.3399  1.2017
  281TMC3     H 4246   1.838   3.260  12.879  1.2465 -0.9443 -1.2491
  281TMC3    H1 4247   1.973   2.878  12.965 -0.2342 -0.3784 -1.7209
  281TMC3    H2 4248   1.570   2.974  13.049  0.7640  0.0938  0.8153
  281TMC3    C7 4249   1.738   2.764  13.029 -0.0991  0.5027 -0.3485
  281TMC3    C8 4250   1.588   3.217  13.008 -0.1267 -0.2692 -0.6258
  281TMC3    O1 4251   1.813   2.677  12.980  0.6250 -0.4550  0.1998
  281TMC3    O2 4252   1.487   3.182  13.064  0.4384 -0.1607  0.1388
  282MPD2     C 4253   3.837   4.214  15.149 -0.0107 -0.2339 -0.1303
  282MPD2    C1 4254   3.709   4.239  15.199 -0.2723 -0.3592  0.1070
  282MPD2    C2 4255   3.602   4.229  15.109 -0.2940 -0.3690  0.2502
  282MPD2    C3 4256   3.610   4.175  14.979  0.2156 -0.0309 -0.2928
  282MPD2    C4 4257   3.732   4.142  14.934  0.1054 -0.2865 -0.1996
  282MPD2    C5 4258   3.844   4.174  15.020 -1.0037 -0.0884 -0.8519
  282MPD2     H 4259   3.500   4.261  15.128  0.0093  1.8033 -1.8235
  282MPD2    H1 4260   3.749   4.110  14.832  0.2097  4.2960 -1.6514
  282MPD2    H2 4261   3.928   4.236  15.202 -1.1143 -0.1108  1.7303
  282MPD2    H3 4262   3.942   4.160  14.976 -0.0125  0.0889  1.3124
  282MPD2     N 4263   3.493   4.179  14.897 -0.2343 -0.1639  0.4199
  282MPD2    H5 4264   3.408   4.188  14.951 -0.0832  3.7224  0.0580
  282MPD2    N1 4265   3.685   4.276  15.329 -0.2290  0.1935 -0.2788
  282MPD2    H7 4266   3.587   4.271  15.356  0.4087 -1.1023  1.8016
  283TMC3    C1 4267   3.727   4.317  15.561 -1.0713 -0.0361 -0.6809
  283TMC3    C2 4268   3.750   4.430  15.637  0.0796 -0.2796  0.1585
  283TMC3    C3 4269   3.651   4.457  15.733  1.2656  0.8319  0.2207
  283TMC3    C4 4270   3.635   4.221  15.594 -0.4882 -0.3382  0.2228
  283TMC3    C5 4271   3.556   4.245  15.703 -0.0377 -0.3733 -0.1999
  283TMC3    C6 4272   3.564   4.362  15.772 -0.3125  0.3888  0.8034
  283TMC3     C 4273   3.773   4.320  15.428  0.3212  0.4852  0.5547
  283TMC3     O 4274   3.889   4.363  15.408  0.3273  0.1608 -0.5461
  283TMC3     H 4275   3.824   4.507  15.615 -1.1079  0.9254  0.3438
  283TMC3    H1 4276   3.639   4.138  15.525  0.4100 -2.5078  2.9045
  283TMC3    H2 4277   3.475   4.391  15.828 -1.9357  0.7182 -1.9452
  283TMC3    C7 4278   3.464   4.142  15.750  0.3069 -0.5154 -0.2667
  283TMC3    C8 4279   3.641   4.586  15.793  0.2127  0.2876  0.6606
  283TMC3    O1 4280   3.417   4.149  15.860  0.1384  0.3165  0.1474
  283TMC3    O2 4281   3.594   4.585  15.909  0.0747 -0.2267 -0.2309
  284MPD2     C 4282   2.072   3.929  12.023 -0.0319 -0.8925  0.5624
  284MPD2    C1 4283   2.119   3.820  11.950  0.8664 -0.3901  0.3002
  284MPD2    C2 4284   2.197   3.718  12.011  0.9184 -0.7438  0.6945
  284MPD2    C3 4285   2.243   3.738  12.143 -0.4080 -0.2141 -0.1966
  284MPD2    C4 4286   2.199   3.847  12.215 -0.3454 -0.0910 -0.8930
  284MPD2    C5 4287   2.124   3.941  12.152 -0.6253 -0.4400 -0.0603
  284MPD2     H 4288   2.222   3.627  11.959  1.6285 -0.7127  0.9736
  284MPD2    H1 4289   2.231   3.857  12.318  0.6909 -1.2188 -1.0970
  284MPD2    H2 4290   1.999   3.994  11.977 -2.6181 -2.3976  2.5111
  284MPD2    H3 4291   2.107   4.031  12.211 -1.3501 -0.1521 -0.7182
  284MPD2     N 4292   2.335   3.657  12.212 -0.2896 -0.1119  0.8460
  284MPD2    H5 4293   2.341   3.677  12.311 -0.9610  1.9703  0.4710
  284MPD2    N1 4294   2.066   3.822  11.818  0.2250 -0.2446 -0.5741
  284MPD2    H7 4295   2.000   3.893  11.790  1.0248  0.6843 -0.1185
  285TMC3    C1 4296   2.079   3.814  11.591  0.1939  0.3687 -0.1354
  285TMC3    C2 4297   2.080   3.739  11.478 -0.1910 -0.1126 -0.2474
  285TMC3    C3 4298   2.092   3.804  11.354 -0.2982  0.4520 -0.0596
  285TMC3    C4 4299   2.098   3.953  11.592 -0.4727  0.7969 -1.0420
  285TMC3    C5 4300   2.101   4.015  11.473  1.0961 -0.2339 -0.0883
  285TMC3    C6 4301   2.095   3.946  11.348 -0.0586 -0.3868 -0.5049
  285TMC3     C 4302   2.109   3.749  11.720  0.1203 -0.1868  0.2445
  285TMC3     O 4303   2.171   3.643  11.722 -0.4335 -0.3791  0.2456
  285TMC3     H 4304   2.086   3.631  11.482 -2.4095 -0.0986  2.8776
  285TMC3    H1 4305   2.122   4.010  11.681 -1.4341  0.0620 -0.3044
  285TMC3    H2 4306   2.094   3.999  11.254  0.5099  1.1106  0.3290
  285TMC3    C7 4307   2.179   4.138  11.449 -0.2672 -0.1742 -0.6487
  285TMC3    C8 4308   2.211   3.767  11.281 -0.0197  0.2752  0.2851
  285TMC3    O1 4309   2.187   4.184  11.334 -0.3657  0.5794  0.4176
  285TMC3    O2 4310   2.317   3.777  11.341  0.5715 -0.0506  0.2711
  286MPD2     C 4311   1.739   2.967   1.227 -1.0709  0.0349  0.0713
  286MPD2    C1 4312   1.754   2.939   1.098  0.3060  0.2164 -1.1388
  286MPD2    C2 4313   1.868   2.866   1.056 -0.5177  1.1156 -0.5980
  286MPD2    C3 4314   1.964   2.838   1.149  0.6296  0.0254 -0.0339
  286MPD2    C4 4315   1.950   2.883   1.278  0.7533  0.3752 -0.2034
  286MPD2    C5 4316   1.833   2.932   1.322 -0.3882  0.0717 -0.0494
  286MPD2     H 4317   1.872   2.828   0.955 -2.3119  0.3893 -0.4107
  286MPD2    H1 4318   2.028   2.862   1.351  0.0333  1.1751  0.7990
  286MPD2    H2 4319   1.651   3.018   1.265 -1.6419  0.7852 -2.2987
  286MPD2    H3 4320   1.826   2.955   1.428 -0.7267  1.2578 -0.3310
  286MPD2     N 4321   2.082   2.769   1.116  0.1838  0.6000  0.8753
  286MPD2    H5 4322   2.150   2.757   1.190 -0.3402  0.7275  1.3772
  286MPD2    N1 4323   1.650   2.955   0.999 -0.5309 -0.6640  0.1266
  286MPD2    H7 4324   1.664   2.939   0.900 -1.9875 -1.4948  0.0636
  287TMC3    C1 4325   2.213   2.605   1.039  0.0699  0.9348  0.7872
  287TMC3    C2 4326   2.285   2.557   0.932  0.0122 -0.2756  0.2463
  287TMC3    C3 4327   2.413   2.509   0.947 -0.2104  0.0247 -0.2825
  287TMC3    C4 4328   2.268   2.603   1.165  0.6180  0.8401  0.7501
  287TMC3    C5 4329   2.400   2.558   1.172 -0.3105 -0.1328  0.0718
  287TMC3    C6 4330   2.477   2.518   1.065  0.0939 -1.5525  0.8340
  287TMC3     C 4331   2.108   2.697   1.005 -0.0508  0.1360  0.0774
  287TMC3     O 4332   2.048   2.673   0.898  0.2317 -0.6896  0.6762
  287TMC3     H 4333   2.242   2.573   0.833  2.1631  0.0153 -0.6423
  287TMC3    H1 4334   2.212   2.634   1.252  0.3994 -0.2348  0.9921
  287TMC3    H2 4335   2.585   2.511   1.068  0.1005 -1.5259  0.6596
  287TMC3    C7 4336   2.468   2.608   1.286  0.3786 -0.5772  0.6630
  287TMC3    C8 4337   2.462   2.411   0.844  0.3917  0.2591  0.2102
  287TMC3    O1 4338   2.412   2.696   1.347  0.9643  0.1487  0.2196
  287TMC3    O2 4339   2.570   2.364   0.868  0.2484  0.4592  0.8226
  288TMC3    C1 4340   3.902   2.014  14.399 -0.4048 -0.1285 -0.3885
  288TMC3    C2 4341   3.862   1.965  14.524 -0.4809  0.0326  0.6611
  288TMC3    C3 4342   3.849   2.051  14.631 -0.5575 -0.0143 -0.0121
  288TMC3    C4 4343   3.941   2.147  14.381 -0.6661 -0.4178 -0.1108
  288TMC3    C5 4344   3.936   2.224  14.495 -0.6849  0.2011  0.1645
  288TMC3    C6 4345   3.891   2.182  14.617 -0.2629 -0.1303 -0.4094
  288TMC3     C 4346   3.919   1.923  14.286 -0.7283  0.0419 -0.2226
  288TMC3     O 4347   3.979   1.970  14.187 -0.1488  0.0247 -0.2866
  288TMC3     H 4348   3.858   1.858  14.544 -0.7538 -0.6683 -3.2471
  288TMC3    H1 4349   3.997   2.182  14.295 -0.4863 -0.0967  0.1363
  288TMC3    H2 4350   3.867   2.254  14.694  1.0522  1.0496 -1.1026
  288TMC3    C7 4351   3.972   2.363  14.484 -0.0342  0.5326  0.0142
  288TMC3    C8 4352   3.845   1.999  14.768  0.6522  0.5197 -0.7130
  288TMC3    O1 4353   4.019   2.421  14.581 -0.6476 -0.1585 -0.1582
  288TMC3    O2 4354   3.882   2.081  14.853 -0.7167 -0.4016 -0.3818
  289MPD2     C 4355   4.112   1.232  14.941  0.0048 -0.0182  0.5476
  289MPD2    C1 4356   4.112   1.291  14.818  1.1669 -0.1091 -0.8155
  289MPD2    C2 4357   4.018   1.260  14.725  0.3059  0.4515  0.6369
  289MPD2    C3 4358   3.928   1.164  14.751 -0.3016  0.1286  0.7837
  289MPD2    C4 4359   3.937   1.096  14.870 -0.1546  0.6439 -0.1600
  289MPD2    C5 4360   4.025   1.130  14.970 -0.4033  0.2682  0.1593
  289MPD2     H 4361   4.012   1.322  14.636 -0.2736  1.2196  1.2086
  289MPD2    H1 4362   3.868   1.020  14.906 -0.1396 -0.9214 -3.4542
  289MPD2    H2 4363   4.169   1.260  15.028 -0.0394 -1.1378  0.9284
  289MPD2    H3 4364   4.014   1.076  15.063  2.8758  0.3169  0.5729
  289MPD2     N 4365   3.819   1.126  14.668  0.0888  0.2750  0.5263
  289MPD2    H5 4366   3.758   1.050  14.697 -2.5077  1.9747 -0.3835
  289MPD2    N1 4367   4.209   1.388  14.798  0.1266 -0.4247 -0.0766
  289MPD2    H7 4368   4.249   1.427  14.883 -0.5937  0.3241 -0.0812
  290TMC3    C1 4369   3.642   1.166  14.525  0.0097  0.4189 -1.0554
  290TMC3    C2 4370   3.581   1.253  14.440  0.1992 -0.9385  0.6939
  290TMC3    C3 4371   3.442   1.241  14.435 -0.3639 -0.0029  0.4548
  290TMC3    C4 4372   3.578   1.066  14.596  0.2066  0.5591  0.3129
  290TMC3    C5 4373   3.445   1.062  14.578  0.5297  0.1105 -0.6745
  290TMC3    C6 4374   3.371   1.150  14.509  0.1477  0.3798  0.2322
  290TMC3     C 4375   3.773   1.200  14.561 -0.1934  0.1404  0.4134
  290TMC3     O 4376   3.822   1.294  14.500 -0.6215 -0.6258 -0.0754
  290TMC3     H 4377   3.633   1.333  14.388 -1.1463 -0.0660  0.6934
  290TMC3    H1 4378   3.621   0.995  14.666  0.6575  0.2813 -0.2532
  290TMC3    H2 4379   3.268   1.124  14.489  1.0439 -2.2298 -0.9568
  290TMC3    C7 4380   3.374   0.943  14.620 -0.1401  0.7013 -0.3512
  290TMC3    C8 4381   3.386   1.274  14.306  0.0350  0.2096  0.2064
  290TMC3    O1 4382   3.259   0.960  14.663  0.5721 -0.1285 -0.4104
  290TMC3    O2 4383   3.317   1.192  14.247 -0.3780 -0.0407 -0.1538
  291MPD2     C 4384   3.963   1.300   0.706  0.6837  1.0227  0.6139
  291MPD2    C1 4385   3.852   1.240   0.651 -0.4580 -0.3272  0.0367
  291MPD2    C2 4386   3.795   1.282   0.533  0.0369 -0.1129  0.1969
  291MPD2    C3 4387   3.836   1.401   0.477  0.1859 -0.0738  0.1567
  291MPD2    C4 4388   3.935   1.471   0.543 -0.9948  0.2426  0.0243
  291MPD2    C5 4389   3.997   1.423   0.652  0.2259 -0.3451  0.6412
  291MPD2     H 4390   3.707   1.238   0.488  1.8400 -2.0131 -1.4142
  291MPD2    H1 4391   3.974   1.563   0.502  0.1096 -0.5159 -0.6275
  291MPD2    H2 4392   4.015   1.264   0.793 -0.0316 -0.3287  0.4702
  291MPD2    H3 4393   4.080   1.471   0.702  1.3017 -1.3581 -0.1847
  291MPD2     N 4394   3.796   1.456   0.353 -0.1833 -0.1795 -0.3097
  291MPD2    H5 4395   3.834   1.547   0.331  0.1808  0.3042  2.3221
  291MPD2    N1 4396   3.800   1.119   0.703  0.6085  0.0150  0.0481
  291MPD2    H7 4397   3.713   1.088   0.659 -0.0860  1.9460  0.0664
  292TMC3    C1 4398   3.765   0.934   0.842  0.1310 -0.9197 -0.2644
  292TMC3    C2 4399   3.815   0.860   0.945 -0.9220  0.1987  0.5393
  292TMC3    C3 4400   3.758   0.743   0.973  0.3856  0.0944 -0.6578
  292TMC3    C4 4401   3.680   0.887   0.748 -0.1159  0.3793 -0.2881
  292TMC3    C5 4402   3.630   0.765   0.777  0.7062 -0.1191 -0.0270
  292TMC3    C6 4403   3.661   0.697   0.893 -0.5020 -0.4893  0.2994
  292TMC3     C 4404   3.848   1.050   0.808  0.0733 -1.0180 -0.0258
  292TMC3     O 4405   3.936   1.078   0.891  0.4625  0.0937  0.0129
  292TMC3     H 4406   3.891   0.900   1.010  1.2816 -3.2155  0.0936
  292TMC3    H1 4407   3.658   0.937   0.654  1.4104  1.6036  0.0017
  292TMC3    H2 4408   3.615   0.601   0.914 -2.7846  0.6738  0.5454
  292TMC3    C7 4409   3.573   0.698   0.664  0.6460 -0.0235 -0.0452
  292TMC3    C8 4410   3.777   0.701   1.112 -0.2525  0.3568 -0.2060
  292TMC3    O1 4411   3.596   0.578   0.651  0.4757  0.0087  0.3090
  292TMC3    O2 4412   3.886   0.721   1.162 -0.0428  0.4769 -0.1455
  293MPD2     C 4413   0.743   2.939  12.356 -0.6001 -0.0850 -0.2377
  293MPD2    C1 4414   0.635   2.853  12.403 -0.3630  0.1942 -0.4270
  293MPD2    C2 4415   0.593   2.861  12.536 -0.4535  0.4588 -0.4026
  293MPD2    C3 4416   0.652   2.943  12.625  0.9215 -0.1301  0.2309
  293MPD2    C4 4417   0.753   3.019  12.576  0.1718 -0.1925  0.1074
  293MPD2    C5 4418   0.799   3.020  12.449 -0.4114 -0.2003 -0.1172
  293MPD2     H 4419   0.505   2.805  12.567 -0.3823  0.6396  0.1260
  293MPD2    H1 4420   0.803   3.083  12.648 -0.2217 -1.6779  1.6906
  293MPD2    H2 4421   0.797   2.917  12.264  0.1153 -0.6346  0.3187
  293MPD2    H3 4422   0.883   3.082  12.421 -1.6879  1.9192  0.7961
  293MPD2     N 4423   0.609   2.944  12.761 -0.2588 -0.0774  0.4493
  293MPD2    H5 4424   0.538   2.875  12.784 -0.8917  1.0709  1.9331
  293MPD2    N1 4425   0.580   2.764  12.315  0.2695  0.1953 -0.2551
  293MPD2    H7 4426   0.626   2.763  12.224  2.1140  0.8984  0.6741
  294TMC3    C1 4427   0.446   2.587  12.232  0.1720 -0.2327  0.1940
  294TMC3    C2 4428   0.322   2.531  12.232 -0.3739  0.4473  0.6407
  294TMC3    C3 4429   0.285   2.434  12.145  0.4633  0.4114  0.4207
  294TMC3    C4 4430   0.538   2.544  12.142 -0.5539 -0.0321  0.2394
  294TMC3    C5 4431   0.511   2.432  12.066  0.1661 -0.1378  0.3459
  294TMC3    C6 4432   0.386   2.378  12.068  0.5182  0.7996 -0.1693
  294TMC3     C 4433   0.472   2.686  12.336  0.8056  0.2365  0.8317
  294TMC3     O 4434   0.393   2.677  12.427 -0.1827 -0.0088 -0.1880
  294TMC3     H 4435   0.247   2.572  12.298 -0.2838  1.0560  0.3649
  294TMC3    H1 4436   0.636   2.591  12.142  0.3934 -1.9943  1.4839
  294TMC3    H2 4437   0.361   2.297  12.001  0.8985  0.6629 -0.1446
  294TMC3    C7 4438   0.601   2.392  11.964 -0.2585  0.5346  0.9405
  294TMC3    C8 4439   0.152   2.377  12.154 -0.7068  0.3071  0.0391
  294TMC3    O1 4440   0.690   2.462  11.919  0.0409 -0.0167  0.1654
  294TMC3    O2 4441   0.094   2.403  12.258 -0.4547  0.1706 -0.0977
  295MPD2     C 4442   0.296   0.424   0.880  0.4375  0.4596  0.1545
  295MPD2    C1 4443   0.306   0.559   0.860  0.9965  0.0116 -0.2977
  295MPD2    C2 4444   0.296   0.634   0.975 -0.2231 -0.3844  0.7174
  295MPD2    C3 4445   0.261   0.585   1.100 -0.6076  0.1172 -0.3499
  295MPD2    C4 4446   0.260   0.453   1.119 -0.6752 -1.0251 -0.3512
  295MPD2    C5 4447   0.273   0.373   1.005  0.6448  0.3911  0.9219
  295MPD2     H 4448   0.304   0.741   0.962 -0.2469 -0.2238  2.0583
  295MPD2    H1 4449   0.259   0.404   1.216 -3.2399  0.5066  0.3946
  295MPD2    H2 4450   0.305   0.349   0.802 -0.4959  0.4237  0.0777
  295MPD2    H3 4451   0.287   0.266   1.019 -3.6225 -0.6181 -2.5772
  295MPD2     N 4452   0.227   0.671   1.214 -0.0615  0.2198  0.8856
  295MPD2    H5 4453   0.210   0.618   1.300 -0.1148 -1.6458 -0.2848
  295MPD2    N1 4454   0.327   0.626   0.731 -0.0728  0.4073 -0.3953
  295MPD2    H7 4455   0.341   0.726   0.729 -0.3072  0.4435 -0.1560
  296TMC3    C1 4456   0.159   0.865   1.336 -0.3242  0.2434 -0.2445
  296TMC3    C2 4457   0.104   0.988   1.330 -0.2899  0.5538  0.4058
  296TMC3    C3 4458   0.105   1.059   1.448  0.2810 -0.0195 -0.2243
  296TMC3    C4 4459   0.202   0.802   1.451  0.2536 -0.0008  0.4664
  296TMC3    C5 4460   0.185   0.874   1.565 -0.1986  0.6429 -0.4383
  296TMC3    C6 4461   0.156   1.005   1.563 -0.0399 -0.1859  0.5586
  296TMC3     C 4462   0.201   0.809   1.208 -0.1860 -0.6664 -0.0711
  296TMC3     O 4463   0.190   0.892   1.117 -0.4101  0.6135  0.0595
  296TMC3     H 4464   0.067   1.033   1.239  0.0119 -1.9656 -0.9769
  296TMC3    H1 4465   0.246   0.703   1.454  0.0389 -0.1535 -1.6958
  296TMC3    H2 4466   0.168   1.062   1.655 -0.4286 -2.0833  1.7981
  296TMC3    C7 4467   0.244   0.810   1.684 -1.2344 -0.1665  0.7195
  296TMC3    C8 4468   0.057   1.195   1.437 -0.3061  0.4755 -0.7094
  296TMC3    O1 4469   0.242   0.687   1.692  0.1708  0.0392 -0.0978
  296TMC3    O2 4470   4.722   1.242   1.339  0.5545  0.9219 -0.4418
  297MPD2     C 4471   2.838   3.195  16.378  0.0215 -0.6719  0.1526
  297MPD2    C1 4472   2.863   3.212  16.245  0.2844 -0.5768 -0.4647
  297MPD2    C2 4473   2.938   3.319  16.205  0.5895 -0.8900  0.2841
  297MPD2    C3 4474   2.987   3.416  16.290 -0.4420  0.6691  0.3294
  297MPD2    C4 4475   2.973   3.397  16.423  0.4588  0.5515  0.0210
  297MPD2    C5 4476   2.891   3.291  16.460 -0.5768 -0.0027  0.0279
  297MPD2     H 4477   2.968   3.328  16.101 -0.5250 -2.5627 -0.1884
  297MPD2    H1 4478   2.998   3.470  16.499  0.2047  3.3086 -2.5491
  297MPD2    H2 4479   2.758   3.129  16.409  1.2386 -2.1885  0.0512
  297MPD2    H3 4480   2.855   3.286  16.562 -0.4003 -2.3025 -0.0222
  297MPD2     N 4481   3.054   3.528  16.228  0.5715 -0.4300  0.8515
  297MPD2    H5 4482   3.045   3.539  16.128 -0.6419  1.3263  1.1484
  297MPD2    N1 4483   2.791   3.133  16.154  0.4487  0.1300  0.0615
  297MPD2    H7 4484   2.782   3.175  16.062  0.0094  0.6136  0.3251
  298TMC3    C1 4485   2.622   2.988  16.076  0.3163  0.0570 -1.4379
  298TMC3    C2 4486   2.642   3.052  15.954 -0.4253  0.1869 -0.5397
  298TMC3    C3 4487   2.538   3.074  15.869 -0.1394  0.5272 -0.1332
  298TMC3    C4 4488   2.496   2.965  16.113 -0.3407  0.0661  0.3267
  298TMC3    C5 4489   2.388   2.996  16.030 -0.1768  0.6237 -0.0771
  298TMC3    C6 4490   2.412   3.056  15.909 -0.3468 -0.0642  0.6133
  298TMC3     C 4491   2.708   3.026  16.183 -0.4789  0.1935  0.2616
  298TMC3     O 4492   2.713   2.961  16.282  0.8408 -0.4872 -0.5762
  298TMC3     H 4493   2.739   3.052  15.906 -0.6461  0.1976 -0.9839
  298TMC3    H1 4494   2.484   2.932  16.216 -3.4503 -0.3545 -0.1557
  298TMC3    H2 4495   2.329   3.065  15.840 -0.9492  0.2297  1.3729
  298TMC3    C7 4496   2.281   3.063  16.107  0.1549  0.6164  0.0204
  298TMC3    C8 4497   2.571   3.087  15.722  0.1649 -0.3839  0.3226
  298TMC3    O1 4498   2.302   3.090  16.223  0.2855 -0.5884  0.0573
  298TMC3    O2 4499   2.688   3.106  15.697 -0.1143  0.3539 -0.4405
  299MPD2     C 4500   3.680   2.737  11.035 -0.1494  0.3260 -0.6157
  299MPD2    C1 4501   3.652   2.775  10.910 -0.0617 -0.6467  0.0110
  299MPD2    C2 4502   3.533   2.732  10.851  0.6818 -0.2343  0.4769
  299MPD2    C3 4503   3.449   2.645  10.921 -0.4828 -0.5076 -0.3251
  299MPD2    C4 4504   3.483   2.608  11.049  0.4035  0.3476  0.1515
  299MPD2    C5 4505   3.594   2.654  11.105  0.8351  0.2357  0.0169
  299MPD2     H 4506   3.513   2.765  10.750 -1.8636 -2.0313  0.3871
  299MPD2    H1 4507   3.420   2.545  11.111  0.5547  0.3051  0.2623
  299MPD2    H2 4508   3.768   2.768  11.091 -0.7041  1.1395 -0.2055
  299MPD2    H3 4509   3.618   2.638  11.210  1.8012 -2.3243 -0.6125
  299MPD2     N 4510   3.319   2.596  10.865  0.0690  0.0498 -0.1832
  299MPD2    H5 4511   3.263   2.542  10.930  2.1859 -0.4868  1.2046
  299MPD2    N1 4512   3.741   2.863  10.846 -0.2999 -0.4339  0.3656
  299MPD2    H7 4513   3.826   2.892  10.892  0.6153 -3.0486  0.3048
  300TMC3    C1 4514   3.131   2.573  10.724  0.0875 -0.7282  0.5963
  300TMC3    C2 4515   3.095   2.611  10.596  0.3744  0.7262 -0.6441
  300TMC3    C3 4516   2.986   2.700  10.586 -0.6111 -1.0365 -0.3103
  300TMC3    C4 4517   3.049   2.609  10.827  0.0445  0.2726  0.4200
  300TMC3    C5 4518   2.941   2.693  10.808 -0.1456  0.3492  0.1110
  300TMC3    C6 4519   2.900   2.735  10.684  0.1231 -0.3526  0.0870
  300TMC3     C 4520   3.268   2.625  10.742  0.5862 -0.6631  0.0893
  300TMC3     O 4521   3.324   2.673  10.645 -0.0426  0.4940  0.0276
  300TMC3     H 4522   3.156   2.586  10.510 -0.6985  0.8333 -1.4402
  300TMC3    H1 4523   3.070   2.574  10.927 -3.1649 -0.1052  0.9733
  300TMC3    H2 4524   2.834   2.821  10.675  1.0829  0.4839  0.8713
  300TMC3    C7 4525   2.901   2.764  10.928 -0.3509 -0.3817  0.3258
  300TMC3    C8 4526   2.982   2.765  10.458 -0.3236 -0.2551  0.2794
  300TMC3    O1 4527   2.880   2.706  11.033  0.2185 -0.0127 -0.2525
  300TMC3    O2 4528   2.883   2.751  10.389  0.5070  0.1157 -0.2346
  301MPD2     C 4529   0.429   3.997   0.728 -0.0456  0.4805  0.3834
  301MPD2    C1 4530   0.371   3.959   0.847 -0.4085 -0.2042  0.2034
  301MPD2    C2 4531   0.360   3.827   0.875 -0.0678  0.0838 -0.3467
  301MPD2    C3 4532   0.431   3.733   0.793  0.0139 -0.1446  0.0288
  301MPD2    C4 4533   0.492   3.771   0.680  0.0304  0.7621 -0.5216
  301MPD2    C5 4534   0.489   3.908   0.643 -0.5949  0.4264  0.2124
  301MPD2     H 4535   0.311   3.799   0.968  1.1269  1.1395  0.5930
  301MPD2    H1 4536   0.533   3.696   0.614  0.2289  0.5607 -0.1701
  301MPD2    H2 4537   0.422   4.099   0.691 -0.3498  0.5719  0.6930
  301MPD2    H3 4538   0.537   3.943   0.553 -0.0700 -0.6693  0.0688
  301MPD2     N 4539   0.429   3.593   0.817  0.1206  0.0854 -0.2871
  301MPD2    H5 4540   0.495   3.533   0.769 -0.4601  1.9598 -3.4166
  301MPD2    N1 4541   0.311   4.058   0.930  0.8289 -0.0957  0.1793
  301MPD2    H7 4542   0.261   4.023   1.011  0.7105 -0.2160  0.0535
  302TMC3    C1 4543   0.377   3.394   0.941  0.5053  0.4639 -0.4280
  302TMC3    C2 4544   0.508   3.357   0.975 -0.3228  0.3699  0.4190
  302TMC3    C3 4545   0.534   3.251   1.065  0.6238 -0.0612  0.7125
  302TMC3    C4 4546   0.273   3.336   1.008  0.9216  0.0596 -0.3546
  302TMC3    C5 4547   0.306   3.240   1.106 -0.0064  0.1990  0.3148
  302TMC3    C6 4548   0.432   3.193   1.136  0.5553 -0.2537  0.2246
  302TMC3     C 4549   0.351   3.533   0.911 -0.0154 -0.2037 -1.3319
  302TMC3     O 4550   0.256   3.583   0.975  0.4524  0.2082  0.4851
  302TMC3     H 4551   0.591   3.413   0.933  1.5976 -1.9338  1.1070
  302TMC3    H1 4552   0.172   3.346   0.971  0.8022  2.1283  0.4882
  302TMC3    H2 4553   0.444   3.121   1.216 -1.5642 -2.1248 -1.1380
  302TMC3    C7 4554   0.207   3.210   1.207  0.1654 -0.0275  0.1437
  302TMC3    C8 4555   0.669   3.234   1.106  0.0286  0.1259 -0.0300
  302TMC3    O1 4556   0.236   3.124   1.286 -0.7485 -0.0643  0.3853
  302TMC3    O2 4557   0.752   3.312   1.067 -0.9289 -0.1043  0.4404
  303MPD2     C 4558   1.313   2.180  10.765  0.2720  0.6425 -0.0290
  303MPD2    C1 4559   1.290   2.051  10.707 -0.5678 -0.2365  0.0547
  303MPD2    C2 4560   1.192   2.029  10.621  0.9316 -0.3912  0.5981
  303MPD2    C3 4561   1.107   2.134  10.593 -0.2170  0.5848  0.2598
  303MPD2    C4 4562   1.124   2.260  10.652 -0.1412 -0.3436 -0.2935
  303MPD2    C5 4563   1.230   2.282  10.737  0.4633  0.2180  0.8337
  303MPD2     H 4564   1.168   1.931  10.583 -0.8770  0.9170 -1.6492
  303MPD2    H1 4565   1.059   2.344  10.630  0.8787  0.9534  1.5997
  303MPD2    H2 4566   1.404   2.192  10.822  2.5731 -0.4736 -3.4906
  303MPD2    H3 4567   1.252   2.383  10.771  1.2059  0.1339  0.6198
  303MPD2     N 4568   0.980   2.118  10.520  0.3900  0.1169 -0.4415
  303MPD2    H5 4569   0.916   2.196  10.515 -1.7694 -1.7217 -1.9214
  303MPD2    N1 4570   1.371   1.946  10.762 -0.3209 -0.1275  0.4291
  303MPD2    H7 4571   1.439   1.978  10.830 -0.9871  0.4142  0.8394
  304TMC3    C1 4572   1.429   1.731  10.842  0.2005 -0.4323 -0.6001
  304TMC3    C2 4573   1.425   1.774  10.974  0.3741 -0.3299  0.6402
  304TMC3    C3 4574   1.448   1.683  11.069 -0.3237 -0.6493  0.0604
  304TMC3    C4 4575   1.462   1.605  10.808 -0.4508  0.3678 -0.4793
  304TMC3    C5 4576   1.503   1.515  10.903  0.1376  0.3885  1.0441
  304TMC3    C6 4577   1.490   1.554  11.030 -0.4147 -0.4847 -0.3361
  304TMC3     C 4578   1.362   1.812  10.736 -0.8537  0.2859  0.4422
  304TMC3     O 4579   1.312   1.750  10.640  0.1126  0.7387  0.1836
  304TMC3     H 4580   1.380   1.870  10.996  0.6139 -0.1509  0.3448
  304TMC3    H1 4581   1.458   1.568  10.706  0.8600 -0.6476 -0.1573
  304TMC3    H2 4582   1.525   1.485  11.106  0.8346  0.6929  0.1562
  304TMC3    C7 4583   1.452   1.384  10.875  0.2365 -0.9334  0.6944
  304TMC3    C8 4584   1.347   1.675  11.175  0.3666  0.0025  0.2845
  304TMC3    O1 4585   1.470   1.338  10.765  1.0861 -0.2281 -0.0327
  304TMC3    O2 4586   1.325   1.561  11.216  0.6699 -0.6256  0.0242
  305MPD2     C 4587   3.715   4.502  13.951 -0.0279 -0.4784  0.0776
  305MPD2    C1 4588   3.744   4.372  13.918  0.9973  0.9009 -0.6047
  305MPD2    C2 4589   3.674   4.321  13.806  0.1139  0.4890 -0.4802
  305MPD2    C3 4590   3.594   4.402  13.733  0.3751 -0.1063 -0.3050
  305MPD2    C4 4591   3.566   4.532  13.770 -0.3249 -1.0829  1.0346
  305MPD2    C5 4592   3.629   4.587  13.882 -0.1359  0.0631 -0.1542
  305MPD2     H 4593   3.695   4.217  13.782  0.5049  0.5666 -0.4782
  305MPD2    H1 4594   3.514   4.599  13.703 -0.2482  0.2329  2.3048
  305MPD2    H2 4595   3.761   4.546  14.039  0.7138  0.2200 -0.6594
  305MPD2    H3 4596   3.618   4.693  13.902  0.3423  0.3274 -1.3395
  305MPD2     N 4597   3.532   4.366  13.609 -0.3204 -0.0149 -0.1408
  305MPD2    H5 4598   3.477   4.433  13.557  1.5354  1.3425 -0.3711
  305MPD2    N1 4599   3.830   4.305  14.008  0.0108 -0.4176  0.0396
  305MPD2    H7 4600   3.880   4.365  14.074  1.3072 -1.0196 -0.4069
  306TMC3    C1 4601   3.900   4.154  14.162 -0.2412 -0.6895 -0.1219
  306TMC3    C2 4602   3.931   4.024  14.193 -0.1720 -0.4162  0.3882
  306TMC3    C3 4603   3.969   3.993  14.326  0.4056  0.3890  0.0387
  306TMC3    C4 4604   3.901   4.251  14.263  0.9858  0.6417  0.5842
  306TMC3    C5 4605   3.937   4.214  14.389 -0.1592  0.0979  0.1735
  306TMC3    C6 4606   3.977   4.091  14.424 -0.1447  0.4788  0.2865
  306TMC3     C 4607   3.833   4.170  14.031 -0.0991 -0.0905 -0.4192
  306TMC3     O 4608   3.765   4.081  13.979 -0.4071  0.6538 -0.1542
  306TMC3     H 4609   3.931   3.945  14.119 -1.2978 -1.4251  1.4614
  306TMC3    H1 4610   3.858   4.346  14.234  0.5483 -0.4605 -2.3349
  306TMC3    H2 4611   4.020   4.067  14.521 -0.2748 -2.1605 -0.3200
  306TMC3    C7 4612   3.948   4.319  14.489  0.3132 -0.2703  1.1450
  306TMC3    C8 4613   4.029   3.864  14.352  0.0926 -0.3537 -0.1236
  306TMC3    O1 4614   3.873   4.411  14.465 -0.5585 -0.0930 -0.1913
  306TMC3    O2 4615   4.090   3.815  14.260  0.2766 -0.0836  0.2794
  307MPD2     C 4616   2.009   2.517   0.179  0.6811 -0.3196 -0.5305
  307MPD2    C1 4617   1.914   2.575   0.098  0.2023 -0.1110 -0.6979
  307MPD2    C2 4618   1.802   2.623   0.160  0.6553  0.3673 -0.0949
  307MPD2    C3 4619   1.777   2.609   0.291 -0.3084 -0.0208 -0.8544
  307MPD2    C4 4620   1.866   2.536   0.369 -0.4888  0.7605  0.2625
  307MPD2    C5 4621   1.978   2.486   0.312 -0.4306 -0.4441  0.2553
  307MPD2     H 4622   1.730   2.675   0.098  0.4603  1.0832  0.7369
  307MPD2    H1 4623   1.842   2.517   0.473 -2.9740  1.4401 -0.1889
  307MPD2    H2 4624   2.110   2.486   0.155  0.9386  0.9851 -1.1335
  307MPD2    H3 4625   2.046   2.428   0.374  2.6452  0.1272 -2.5789
  307MPD2     N 4626   1.662   2.667   0.341 -0.4642 -0.2257  0.0655
  307MPD2    H5 4627   1.607   2.723   0.277 -2.8180 -1.3783  1.0817
  307MPD2    N1 4628   1.934   2.596  17.659 -0.4283  0.9134 -0.1944
  307MPD2    H7 4629   1.866   2.644  17.600 -0.2801  0.7495 -0.5028
  308TMC3    C1 4630   1.265   2.746   0.556  1.0316 -0.0740 -0.1571
  308TMC3    C2 4631   1.252   2.867   0.494 -0.0059 -1.1292  0.1421
  308TMC3    C3 4632   1.359   2.923   0.439 -0.4157 -0.5355 -0.4419
  308TMC3    C4 4633   1.389   2.686   0.557 -0.3904 -0.1879 -0.0398
  308TMC3    C5 4634   1.493   2.740   0.485 -0.6957  0.0411 -0.3146
  308TMC3    C6 4635   1.483   2.859   0.420 -0.0574  0.0822 -0.0514
  308TMC3     C 4636   1.156   2.682   0.625 -0.0672  0.2750  0.5890
  308TMC3     O 4637   1.183   2.603   0.713 -0.1589  0.1706  0.6824
  308TMC3     H 4638   1.166   2.928   0.516 -1.2823 -2.7235 -0.3599
  308TMC3    H1 4639   1.401   2.593   0.610  1.0599 -0.2563 -0.5131
  308TMC3    H2 4640   1.567   2.908   0.371  0.0648 -1.8676 -1.7693
  308TMC3    C7 4641   1.606   2.654   0.471  0.1669  0.0347  0.7590
  308TMC3    C8 4642   1.347   3.059   0.388  0.3578  0.1175 -0.5739
  308TMC3    O1 4643   1.636   2.586   0.569 -1.1492 -0.2126  0.2879
  308TMC3    O2 4644   1.346   3.148   0.471 -0.5219 -0.0958  0.0617
  309MPD2     C 4645   0.663   2.620  17.007 -0.5763 -0.2692 -0.4199
  309MPD2    C1 4646   0.615   2.701  16.906 -0.3823 -1.2941 -0.3358
  309MPD2    C2 4647   0.510   2.793  16.933  0.6129 -0.2184  0.2212
  309MPD2    C3 4648   0.465   2.805  17.061  0.4706  0.6008 -0.0834
  309MPD2    C4 4649   0.519   2.723  17.164 -0.6869 -0.8257  0.1808
  309MPD2    C5 4650   0.617   2.630  17.132  0.2138  0.1242 -0.0735
  309MPD2     H 4651   0.469   2.854  16.854 -1.5722 -3.6118 -1.2713
  309MPD2    H1 4652   0.487   2.737  17.267  2.6536 -1.4549  1.3187
  309MPD2    H2 4653   0.748   2.556  16.986  0.0830  0.4540  0.0650
  309MPD2    H3 4654   0.662   2.571  17.212  1.3243  2.0194  0.7001
  309MPD2     N 4655   0.355   2.887  17.104  0.4801 -0.1130  0.0234
  309MPD2    H5 4656   0.337   2.890  17.204  2.1740 -1.9382  0.3682
  309MPD2    N1 4657   0.660   2.701  16.775  0.1008  0.9588 -0.4870
  309MPD2    H7 4658   0.618   2.758  16.703 -0.8898  0.7882 -0.0491
  310TMC3    C1 4659   0.804   2.643  16.590  0.1049  0.3485  0.0055
  310TMC3    C2 4660   0.762   2.761  16.527  0.0438  0.4245  0.4645
  310TMC3    C3 4661   0.837   2.802  16.423 -0.5566  0.4137  0.5330
  310TMC3    C4 4662   0.920   2.582  16.547  0.6065 -0.1236 -0.1837
  310TMC3    C5 4663   0.999   2.635  16.451  0.2387 -0.5749  0.5565
  310TMC3    C6 4664   0.950   2.741  16.375 -0.8733  0.8990  0.3738
  310TMC3     C 4665   0.761   2.618  16.730  0.4802  0.4866  0.2568
  310TMC3     O 4666   0.824   2.526  16.788 -0.1704  0.3042 -0.3175
  310TMC3     H 4667   0.677   2.824  16.552 -2.7920 -3.4916  0.5570
  310TMC3    H1 4668   0.970   2.513  16.615 -1.2371 -1.5184 -0.2476
  310TMC3    H2 4669   0.998   2.777  16.286  0.9393  0.3651  1.1334
  310TMC3    C7 4670   1.135   2.579  16.429  0.0810 -0.0834  0.1026
  310TMC3    C8 4671   0.783   2.926  16.356  0.7326  0.3782 -0.3083
  310TMC3    O1 4672   1.168   2.489  16.503 -0.3613 -0.6719  0.1799
  310TMC3    O2 4673   0.661   2.950  16.360 -0.3188  0.5401  0.6617
  311MPD2     C 4674   2.981   3.815  12.552 -0.6259  0.8645  0.3860
  311MPD2    C1 4675   2.911   3.934  12.570 -0.6441 -0.3017  0.6385
  311MPD2    C2 4676   2.801   3.942  12.654 -0.5179 -0.2692 -0.1173
  311MPD2    C3 4677   2.747   3.819  12.705  0.4656 -0.2456  0.2790
  311MPD2    C4 4678   2.812   3.703  12.669  0.3424 -0.5756 -0.4726
  311MPD2    C5 4679   2.927   3.699  12.594 -0.0286  0.0443 -0.6012
  311MPD2     H 4680   2.763   4.041  12.678 -0.7083 -0.1939 -0.7482
  311MPD2    H1 4681   2.775   3.604  12.695 -2.3952  0.3804 -0.6907
  311MPD2    H2 4682   3.083   3.819  12.516 -1.3489 -1.0105 -1.8892
  311MPD2    H3 4683   2.986   3.609  12.590 -1.2952 -0.7679 -1.0169
  311MPD2     N 4684   2.626   3.822  12.780  0.3789  0.1162 -0.2162
  311MPD2    H5 4685   2.583   3.914  12.792  0.1023 -0.0601  0.1307
  311MPD2    N1 4686   2.958   4.058  12.517 -0.1159  0.2806 -0.4471
  311MPD2    H7 4687   2.932   4.144  12.563 -0.5624  0.5961 -1.2845
  312TMC3    C1 4688   2.452   3.747  12.921  0.0100  0.5180  0.3243
  312TMC3    C2 4689   2.377   3.851  12.875 -0.5445  0.7842 -0.5641
  312TMC3    C3 4690   2.271   3.901  12.960 -0.4416  0.7576 -0.0199
  312TMC3    C4 4691   2.425   3.679  13.038 -0.2237 -0.2914  0.5551
  312TMC3    C5 4692   2.323   3.729  13.114 -0.5582 -0.1491  0.0611
  312TMC3    C6 4693   2.244   3.835  13.077  0.1762 -0.5199 -0.2595
  312TMC3     C 4694   2.575   3.712  12.843  0.4528  0.2307  0.0139
  312TMC3     O 4695   2.644   3.619  12.883  0.2330 -0.1512  0.5962
  312TMC3     H 4696   2.392   3.896  12.778  0.5516 -0.4639 -0.9782
  312TMC3    H1 4697   2.481   3.587  13.048  2.8816  1.5621  0.1706
  312TMC3    H2 4698   2.163   3.868  13.140  1.1261 -0.4949  0.9533
  312TMC3    C7 4699   2.296   3.659  13.233  0.8718 -0.6587 -0.3635
  312TMC3    C8 4700   2.154   3.969  12.916  0.2500 -0.5750 -0.2921
  312TMC3    O1 4701   2.325   3.540  13.237 -0.4441  0.5275  0.3543
  312TMC3    O2 4702   2.080   4.028  12.993 -0.7733 -0.1965 -0.0674
  313MPD2     C 4703   3.129   3.572  10.616  0.0651 -0.1275 -0.5956
  313MPD2    C1 4704   3.040   3.602  10.515  0.4319  0.1172 -0.7648
  313MPD2    C2 4705   2.955   3.497  10.478  0.0454  0.1891  0.1686
  313MPD2    C3 4706   2.979   3.363  10.518  0.2563  0.4936  0.4817
  313MPD2    C4 4707   3.089   3.339  10.599 -0.3270 -0.3098 -0.8878
  313MPD2    C5 4708   3.161   3.443  10.647 -0.0370 -0.1298  0.2304
  313MPD2     H 4709   2.858   3.514  10.433  0.0324  0.1514  0.1824
  313MPD2    H1 4710   3.118   3.239  10.627  1.5173  0.4395 -0.1575
  313MPD2    H2 4711   3.205   3.640  10.654  2.3786 -1.7744 -2.3140
  313MPD2    H3 4712   3.241   3.414  10.714  0.4506  1.6001  0.3870
  313MPD2     N 4713   2.879   3.269  10.492  0.8774  0.3807 -0.3439
  313MPD2    H5 4714   2.795   3.298  10.442  0.4824 -0.5873 -0.2312
  313MPD2    N1 4715   3.007   3.736  10.480 -0.0879 -0.2554 -0.8918
  313MPD2    H7 4716   3.055   3.805  10.536 -0.9330 -1.5626  1.4471
  314TMC3    C1 4717   2.856   3.908  10.400  0.6117 -0.1117 -0.7110
  314TMC3    C2 4718   2.929   4.007  10.441  0.0873  0.3120  0.1811
  314TMC3    C3 4719   2.872   4.129  10.447 -0.2587  0.1052 -0.1812
  314TMC3    C4 4720   2.727   3.919  10.358 -0.1509  0.5840 -0.4006
  314TMC3    C5 4721   2.683   4.048  10.352  0.5239 -0.0326  0.1286
  314TMC3    C6 4722   2.748   4.153  10.398  0.2779 -0.3477  0.5326
  314TMC3     C 4723   2.911   3.775  10.386  0.0408  0.3235  0.5080
  314TMC3     O 4724   2.850   3.712  10.301 -0.5831  0.4578 -0.0218
  314TMC3     H 4725   3.034   3.990  10.464  0.1370 -0.0370 -0.3120
  314TMC3    H1 4726   2.673   3.836  10.314 -0.7808  0.0739  1.3247
  314TMC3    H2 4727   2.691   4.239  10.431 -1.5547  0.0694 -3.7236
  314TMC3    C7 4728   2.564   4.074  10.274  0.0074  0.9080  0.5645
  314TMC3    C8 4729   2.951   4.253  10.494  0.6261  0.5414  0.4675
  314TMC3    O1 4730   2.551   4.184  10.216 -0.3874 -0.0684 -0.3776
  314TMC3    O2 4731   2.888   4.353  10.524  0.7542 -0.0057  0.0525
  315MPD2     C 4732   1.511   3.362  17.660 -0.3703  0.4805  0.4900
  315MPD2    C1 4733   1.635   3.355   0.020  0.3078 -0.4474  0.0735
  315MPD2    C2 4734   1.723   3.461   0.008  0.4336 -0.0700  0.3742
  315MPD2    C3 4735   1.694   3.581  17.652 -0.3094  0.1686 -0.2570
  315MPD2    C4 4736   1.566   3.584  17.599  0.1443  0.7966  0.1981
  315MPD2    C5 4737   1.473   3.487  17.607 -0.5282 -0.1134  0.2957
  315MPD2     H 4738   1.821   3.458   0.054 -0.2244  1.5177  1.8896
  315MPD2    H1 4739   1.534   3.673  17.546  0.2556 -0.3193 -1.7329
  315MPD2    H2 4740   1.433   3.287  17.659  1.2814 -1.2343  1.1595
  315MPD2    H3 4741   1.372   3.498  17.569 -0.6602  0.6426  0.8736
  315MPD2     N 4742   1.784   3.686  17.649  0.5159  0.3639  0.0885
  315MPD2    H5 4743   1.875   3.694  17.693  1.0282 -1.6822 -0.6067
  315MPD2    N1 4744   1.659   3.247   0.100 -0.7680  0.7736 -0.1899
  315MPD2    H7 4745   1.731   3.256   0.171  0.8466 -0.0785 -1.7302
  316TMC3    C1 4746   1.903   3.860  17.533 -0.1308  0.0753 -0.1135
  316TMC3    C2 4747   1.954   3.912  17.648 -0.3467 -0.5983 -0.3096
  316TMC3    C3 4748   2.046   4.004  17.629 -0.1508  0.0095  0.1233
  316TMC3    C4 4749   1.949   3.886  17.405 -0.0361 -0.9074  0.0672
  316TMC3    C5 4750   2.048   3.976  17.398 -0.0196  0.2159  0.2618
  316TMC3    C6 4751   2.094   4.039  17.507 -0.2947  0.3127 -0.1165
  316TMC3     C 4752   1.784   3.775  17.545  0.0281 -0.2680  0.8543
  316TMC3     O 4753   1.721   3.766  17.439  0.2030  0.4739 -0.0787
  316TMC3     H 4754   1.903   3.901   0.041 -0.1351 -0.8570 -0.2249
  316TMC3    H1 4755   1.898   3.843  17.320 -0.2467 -1.0972  0.2871
  316TMC3    H2 4756   2.167   4.120  17.507  0.7212 -0.6021 -1.2555
  316TMC3    C7 4757   2.121   3.998  17.274 -0.3981 -0.2756 -0.1735
  316TMC3    C8 4758   2.085   4.081   0.040 -0.1710  0.6877 -0.0220
  316TMC3    O1 4759   2.206   4.081  17.288 -0.1456  0.1397  0.2425
  316TMC3    O2 4760   2.105   4.200   0.021 -0.7941 -0.6932 -0.3891
  317MPD2     C 4761   2.861   0.891  12.772 -0.1259  0.2668 -0.5990
  317MPD2    C1 4762   2.965   0.836  12.705 -0.7560 -0.6229 -0.1939
  317MPD2    C2 4763   3.088   0.896  12.707  0.2724 -0.1808 -0.0524
  317MPD2    C3 4764   3.111   1.018  12.764  0.7047 -1.3432 -0.0445
  317MPD2    C4 4765   3.006   1.075  12.838 -0.5010 -0.0759  0.0375
  317MPD2    C5 4766   2.886   1.014  12.833 -0.0003  0.3425  0.0730
  317MPD2     H 4767   3.170   0.841  12.663  1.5349  0.6645  1.2357
  317MPD2    H1 4768   3.006   1.173  12.885 -1.5378  0.1974 -0.5348
  317MPD2    H2 4769   2.758   0.857  12.764 -0.6449  1.8304 -0.5352
  317MPD2    H3 4770   2.800   1.063  12.877 -0.1255 -2.1953  2.6503
  317MPD2     N 4771   3.249   1.068  12.759 -0.3864 -0.0801 -0.4745
  317MPD2    H5 4772   3.314   1.024  12.695  1.4952 -0.2796  1.5884
  317MPD2    N1 4773   2.957   0.726  12.618 -0.0732  0.9484  0.0622
  317MPD2    H7 4774   3.045   0.690  12.582  0.1677  1.3571  0.2386
  318TMC3    C1 4775   3.442   1.184  12.815  0.4849 -0.9978  0.2738
  318TMC3    C2 4776   3.507   1.089  12.736  0.0100 -0.0918  0.0985
  318TMC3    C3 4777   3.637   1.074  12.759 -0.1643  0.1033  0.4390
  318TMC3    C4 4778   3.509   1.270  12.906  0.3152  0.5119 -0.8606
  318TMC3    C5 4779   3.646   1.256  12.910  0.2274 -0.1782 -0.4586
  318TMC3    C6 4780   3.708   1.158  12.841  0.1359  0.2661 -0.1443
  318TMC3     C 4781   3.300   1.172  12.832  0.7055  0.1762  0.5326
  318TMC3     O 4782   3.251   1.221  12.933  0.0944 -0.1437  0.1261
  318TMC3     H 4783   3.480   1.050  12.639  0.3232  0.7874 -0.3460
  318TMC3    H1 4784   3.455   1.346  12.962 -0.0480 -0.8529  0.6331
  318TMC3    H2 4785   3.814   1.135  12.846 -0.1753 -0.6755  2.0269
  318TMC3    C7 4786   3.704   1.320  13.027 -0.1603  0.0446 -0.1065
  318TMC3    C8 4787   3.673   0.933  12.781  0.0432 -0.1910  0.1676
  318TMC3    O1 4788   3.638   1.418  13.070  0.1752  0.2461  0.2184
  318TMC3    O2 4789   3.770   0.914  12.855 -0.2123 -0.0960 -0.6623
  319MPD2     C 4790   4.614   2.513  16.666  0.5451  0.4142 -0.1464
  319MPD2    C1 4791   4.519   2.527  16.766 -0.3569  1.1574  0.5028
  319MPD2    C2 4792   4.386   2.552  16.734 -0.1672  0.5823 -0.9500
  319MPD2    C3 4793   4.352   2.568  16.598  0.4961  0.2175  0.3312
  319MPD2    C4 4794   4.449   2.546  16.493 -0.3641 -0.3643  0.8176
  319MPD2    C5 4795   4.579   2.525  16.534  0.4360  0.1248  0.2625
  319MPD2     H 4796   4.303   2.550  16.804 -0.6910  3.1559 -1.4948
  319MPD2    H1 4797   4.415   2.534  16.390  1.3475 -1.8340  0.4275
  319MPD2    H2 4798   4.717   2.496  16.695  1.2903  1.5578 -2.1522
  319MPD2    H3 4799   4.658   2.499  16.463 -0.7068 -1.2261 -0.5164
  319MPD2     N 4800   4.221   2.591  16.554  0.2165  0.6586 -0.4517
  319MPD2    H5 4801   4.211   2.621  16.458 -0.8910  1.1800 -0.1782
  319MPD2    N1 4802   4.555   2.522  16.903  0.3956 -0.0966  0.4680
  319MPD2    H7 4803   4.477   2.535  16.966  0.0895  0.8579 -0.1021
  320TMC3    C1 4804   3.988   2.594  16.541  0.5181 -0.7307  0.7725
  320TMC3    C2 4805   4.009   2.663  16.423  0.1923 -0.0609  0.3806
  320TMC3    C3 4806   3.946   2.613  16.312 -0.0213  0.2018  0.0144
  320TMC3    C4 4807   3.879   2.506  16.555  0.0641  0.2787 -0.0738
  320TMC3    C5 4808   3.824   2.455  16.440 -0.5952  0.0752  0.4335
  320TMC3    C6 4809   3.855   2.506  16.313 -0.4245 -0.0685  0.1419
  320TMC3     C 4810   4.104   2.557  16.624  0.5239  0.3973  0.1112
  320TMC3     O 4811   4.090   2.480  16.720  0.0626  0.2112 -0.5876
  320TMC3     H 4812   4.064   2.756  16.424  0.7878 -0.4094  0.0719
  320TMC3    H1 4813   3.875   2.455  16.651 -0.9160  0.2798 -0.1178
  320TMC3    H2 4814   3.784   2.482  16.234 -1.6420  0.3007  1.1151
  320TMC3    C7 4815   3.827   2.308  16.435  0.0213 -0.1265  0.0454
  320TMC3    C8 4816   3.939   2.708  16.197 -0.2387  0.1036  0.4083
  320TMC3    O1 4817   3.878   2.262  16.333 -0.2703 -0.3914  0.4570
  320TMC3    O2 4818   3.948   2.825  16.226  0.0126 -0.4675 -0.5759
  321TMC3    C1 4819   4.682   2.491  17.091 -0.4566 -0.2072 -0.1105
  321TMC3    C2 4820   4.597   2.401  17.138 -0.2677  0.4549  0.2978
  321TMC3    C3 4821   4.599   2.394  17.273  1.0195 -0.9985 -0.0543
  321TMC3    C4 4822   0.045   2.572  17.159  0.0679 -0.8230  0.5906
  321TMC3    C5 4823   0.039   2.561  17.287 -0.0528 -0.1923  0.0994
  321TMC3    C6 4824   4.672   2.483  17.347 -0.3718 -0.2445 -0.0398
  321TMC3     C 4825   4.683   2.500  16.952 -0.9209  0.0243 -0.0288
  321TMC3     O 4826   0.064   2.469  16.897 -0.8828 -0.2544  0.8010
  321TMC3     H 4827   4.532   2.344  17.072 -1.7325  2.2223  0.1900
  321TMC3    H1 4828   0.122   2.624  17.103 -0.0002 -0.5950  0.7104
  321TMC3    H2 4829   4.660   2.481  17.455 -0.3831  2.2766 -0.0005
  321TMC3    C7 4830   0.167   2.566  17.351 -0.7456  0.2917 -0.4372
  321TMC3    C8 4831   4.621   2.263  17.338 -0.7327 -0.2211 -0.3363
  321TMC3    O1 4832   0.250   2.640  17.302 -0.2071  0.0385  0.4218
  321TMC3    O2 4833   4.694   2.257  17.436  0.0029  0.1379 -0.6796
  322MPD2     C 4834   3.746   3.525  13.306 -0.1643  0.4451 -0.1553
  322MPD2    C1 4835   3.692   3.438  13.400  0.0405  0.0150  0.5290
  322MPD2    C2 4836   3.682   3.306  13.363  0.2840 -0.2464  0.5638
  322MPD2    C3 4837   3.722   3.254  13.239  0.5457  0.4934  0.0506
  322MPD2    C4 4838   3.775   3.348  13.148 -0.1470  0.1377  0.4710
  322MPD2    C5 4839   3.787   3.478  13.184  0.1433  0.6281 -0.1132
  322MPD2     H 4840   3.653   3.231  13.435 -0.6475  0.2519  0.7125
  322MPD2    H1 4841   3.804   3.321  13.048  0.8823  1.9776  0.2725
  322MPD2    H2 4842   3.757   3.631  13.325  0.4857  0.6336 -1.5746
  322MPD2    H3 4843   3.836   3.545  13.113  1.7116  1.6377  1.9343
  322MPD2     N 4844   3.723   3.113  13.225  0.1915 -0.4754  0.0891
  322MPD2    H5 4845   3.680   3.057  13.298 -1.4602 -1.7391 -1.8323
  322MPD2    N1 4846   3.678   3.496  13.531  0.6511 -0.0868  0.1510
  322MPD2    H7 4847   3.720   3.588  13.537 -0.5273  0.3601  1.4711
  323TMC3    C1 4848   3.679   3.514  13.765  0.2392  1.0380 -0.2544
  323TMC3    C2 4849   3.753   3.632  13.749 -0.6144 -0.3970  0.6693
  323TMC3    C3 4850   3.837   3.670  13.852 -0.1731 -0.0303 -1.0485
  323TMC3    C4 4851   3.697   3.436  13.878  0.2405  0.4994  0.5620
  323TMC3    C5 4852   3.781   3.475  13.973 -0.0125 -0.4347  0.1435
  323TMC3    C6 4853   3.856   3.586  13.959 -0.3403  0.1432 -0.6591
  323TMC3     C 4854   3.637   3.435  13.645  0.0552  0.0983  0.5884
  323TMC3     O 4855   3.578   3.330  13.662 -0.0023 -0.4835  0.1593
  323TMC3     H 4856   3.712   3.702  13.677  1.4628 -2.4788 -2.5290
  323TMC3    H1 4857   3.631   3.352  13.895  1.8101 -0.7829  0.2180
  323TMC3    H2 4858   3.912   3.611  14.048 -0.3918  0.0345 -0.5972
  323TMC3    C7 4859   3.820   3.371  14.072  0.3325 -0.2211 -0.3223
  323TMC3    C8 4860   3.920   3.785  13.845 -0.0127 -0.1701 -0.1673
  323TMC3    O1 4861   3.796   3.255  14.039  0.2475  0.5925 -0.6152
  323TMC3    O2 4862   4.023   3.784  13.912  0.0091 -0.6852 -0.1413
  324MPD2     C 4863   0.829   4.455  14.924 -0.0998  0.6237  0.1535
  324MPD2    C1 4864   0.849   4.531  14.815 -0.3489 -0.4148  0.0191
  324MPD2    C2 4865   0.748   4.545  14.714 -0.8126 -0.4295 -0.1228
  324MPD2    C3 4866   0.632   4.482  14.745 -0.9281 -0.2220 -0.5437
  324MPD2    C4 4867   0.610   4.423  14.866  0.3891 -0.7661 -0.6106
  324MPD2    C5 4868   0.708   4.400  14.957  0.1790  0.1538 -0.1313
  324MPD2     H 4869   0.759   4.602  14.622 -0.8136  1.2214  0.8920
  324MPD2    H1 4870   0.512   4.383  14.889  0.2365 -0.6170 -0.9933
  324MPD2    H2 4871   0.906   4.434  14.998 -1.3060 -4.6623 -0.0716
  324MPD2    H3 4872   0.680   4.347  15.048 -0.3867 -0.5989 -0.7474
  324MPD2     N 4873   0.519   4.488  14.659  0.1134  0.0811  0.1014
  324MPD2    H5 4874   0.433   4.463  14.707 -0.8307 -0.5307 -1.8751
  324MPD2    N1 4875   0.968   4.605  14.801 -0.0137 -0.3690 -0.3549
  324MPD2    H7 4876   0.980   4.660  14.717  0.2423 -1.7508 -1.2291
  325TMC3    C1 4877   0.374   4.571  14.498  0.2005 -0.3524  0.2508
  325TMC3    C2 4878   0.334   4.568  14.368 -0.6118 -0.2967 -0.8536
  325TMC3    C3 4879   0.217   4.639  14.350  0.2821 -0.2368  1.0259
  325TMC3    C4 4880   0.314   4.637  14.601 -0.3853  0.6647 -0.1051
  325TMC3    C5 4881   0.198   4.711  14.566  0.7537  0.7053 -0.1598
  325TMC3    C6 4882   0.152   4.724  14.437  0.3488  0.3248  0.1537
  325TMC3     C 4883   0.505   4.524  14.526 -0.0396  0.1411  0.0955
  325TMC3     O 4884   0.590   4.534  14.440  0.5146  0.0751  0.5821
  325TMC3     H 4885   0.375   4.501  14.293  2.2260  0.5729 -0.1035
  325TMC3    H1 4886   0.357   4.657  14.698  0.3875 -3.2117  0.3566
  325TMC3    H2 4887   0.059   0.046  14.407 -0.1578 -0.9612 -0.3166
  325TMC3    C7 4888   0.161   0.090  14.657  0.1837  0.0811  0.2664
  325TMC3    C8 4889   0.157   4.626  14.222  0.3988  0.2833  0.5736
  325TMC3    O1 4890   0.222   0.096  14.761  0.0309  0.5130  0.4733
  325TMC3    O2 4891   0.233   4.591  14.134  0.2938  0.4051  0.3999
  326MPD2     C 4892   2.364   1.168  11.083 -0.3606 -0.4721  0.1390
  326MPD2    C1 4893   2.301   1.284  11.034 -0.4557 -0.4424  0.2369
  326MPD2    C2 4894   2.363   1.405  11.035 -0.3551 -0.4499 -0.0109
  326MPD2    C3 4895   2.495   1.416  11.069 -0.5724  1.1485  0.5903
  326MPD2    C4 4896   2.566   1.301  11.107 -0.0822 -0.4422  0.1983
  326MPD2    C5 4897   2.496   1.185  11.120  0.0985  0.0056 -0.2003
  326MPD2     H 4898   2.319   1.488  10.981 -1.1985 -0.4073  0.7424
  326MPD2    H1 4899   2.671   1.309  11.134 -0.0664  0.2052 -0.0437
  326MPD2    H2 4900   2.312   1.075  11.105  1.1832 -1.5773 -0.9239
  326MPD2    H3 4901   2.544   1.097  11.159  0.1957 -0.0004 -0.3320
  326MPD2     N 4902   2.565   1.538  11.049 -0.4759  0.4234 -0.6212
  326MPD2    H5 4903   2.666   1.538  11.063 -0.3860 -1.5951 -1.4177
  326MPD2    N1 4904   2.173   1.268  10.968 -0.3057 -0.6679 -0.2248
  326MPD2    H7 4905   2.129   1.348  10.924  1.8541  1.1183  0.9007
  327TMC3    C1 4906   2.013   1.173  10.840 -0.7524  0.2043  0.3006
  327TMC3    C2 4907   1.957   1.297  10.867 -0.6841 -0.4364  0.4751
  327TMC3    C3 4908   1.911   1.372  10.756  0.0811  0.1517  0.1687
  327TMC3    C4 4909   2.038   1.127  10.716  0.3907  0.6586 -0.4243
  327TMC3    C5 4910   1.994   1.200  10.610 -0.2295  0.2357  0.0887
  327TMC3    C6 4911   1.934   1.322  10.632  0.5197 -0.0624 -0.3016
  327TMC3     C 4912   2.115   1.143  10.930  0.4723  0.2444 -1.2053
  327TMC3     O 4913   2.154   1.031  10.923 -0.8669  0.5747 -0.1035
  327TMC3     H 4914   1.933   1.331  10.967  1.0198  1.3011  0.3001
  327TMC3    H1 4915   2.094   1.035  10.700  1.0925  1.0320 -0.0985
  327TMC3    H2 4916   1.909   1.381  10.546  0.9990 -0.9313 -1.0376
  327TMC3    C7 4917   2.111   1.243  10.524  0.2035 -0.3204  0.0544
  327TMC3    C8 4918   1.878   1.513  10.768 -0.1381  0.6279  0.4192
  327TMC3    O1 4919   2.069   1.283  10.416 -0.0730 -0.1946 -0.3430
  327TMC3    O2 4920   1.859   1.577  10.665 -0.6791 -0.0530  0.0881
  328MPD2     C 4921   4.446   0.965  17.173  0.0845  0.3935 -0.0959
  328MPD2    C1 4922   4.306   0.948  17.175 -0.1771 -0.0200 -0.0522
  328MPD2    C2 4923   4.229   1.039  17.116 -0.1376 -0.4736  0.2538
  328MPD2    C3 4924   4.277   1.149  17.063 -0.2605  0.0749 -0.3336
  328MPD2    C4 4925   4.413   1.171  17.065  0.3188  0.4661 -0.4054
  328MPD2    C5 4926   4.497   1.079  17.115  0.7067 -0.0624 -0.2904
  328MPD2     H 4927   4.121   1.026  17.115 -0.4273  1.7814  2.6510
  328MPD2    H1 4928   4.453   1.261  17.021  1.7034  0.7798  1.4837
  328MPD2    H2 4929   4.508   0.895  17.227 -1.1246 -1.4426 -1.1223
  328MPD2    H3 4930   4.604   1.099  17.109  0.5488  1.3330  1.8455
  328MPD2     N 4931   4.192   1.238  16.994 -0.1405  0.2868  0.8793
  328MPD2    H5 4932   4.232   1.329  16.972  0.8426 -0.1309  0.9417
  328MPD2    N1 4933   4.237   0.836  17.223 -0.0656 -0.4972  0.8271
  328MPD2    H7 4934   4.137   0.830  17.210  0.3103 -0.4889 -2.0580
  329TMC3    C1 4935   4.196   0.644  17.348 -0.0637  0.2734 -0.2552
  329TMC3    C2 4936   4.088   0.699  17.406 -0.5253 -0.6409  0.2113
  329TMC3    C3 4937   3.990   0.610  17.448  0.0872  0.4254  0.4057
  329TMC3    C4 4938   4.216   0.510  17.338 -0.0588 -0.7614 -0.0052
  329TMC3    C5 4939   4.117   0.425  17.369  0.3938 -0.0587  0.5846
  329TMC3    C6 4940   4.006   0.475  17.438 -0.2387 -0.0702 -0.5376
  329TMC3     C 4941   4.293   0.726  17.283 -0.7042  0.1252 -0.3363
  329TMC3     O 4942   4.409   0.702  17.312  0.0981  0.5226 -0.1390
  329TMC3     H 4943   4.076   0.806  17.421 -0.3837 -0.5565 -0.2534
  329TMC3    H1 4944   4.298   0.468  17.282  1.2460 -0.1993  1.4714
  329TMC3    H2 4945   3.913   0.421  17.455  0.5870 -1.2328  0.2732
  329TMC3    C7 4946   4.161   0.289  17.410 -0.0908 -0.3701  0.8666
  329TMC3    C8 4947   3.856   0.659  17.431  0.5637 -0.2744  0.4088
  329TMC3    O1 4948   4.258   0.236  17.359  0.1112  0.0375  0.2614
  329TMC3    O2 4949   3.781   0.591  17.364 -0.0763  0.2606 -0.3551
  330TMC3    C1 4950   2.326   0.605   9.657  0.0368  0.1107 -0.1905
  330TMC3    C2 4951   2.222   0.565   9.585  0.2369  0.1655  0.3621
  330TMC3    C3 4952   2.208   0.435   9.548  0.3177 -0.2959 -0.2130
  330TMC3    C4 4953   2.428   0.516   9.683  0.0564 -0.8288 -0.1771
  330TMC3    C5 4954   2.410   0.379   9.647 -0.9249 -0.0829 -0.4475
  330TMC3    C6 4955   2.301   0.339   9.573 -0.0963  0.4485 -0.1095
  330TMC3     C 4956   2.352   0.741   9.704 -0.0765  1.7208  0.7287
  330TMC3     O 4957   2.453   0.764   9.770  0.4983 -0.2896  0.3865
  330TMC3     H 4958   2.144   0.634   9.556  2.1011  3.0518  2.1937
  330TMC3    H1 4959   2.522   0.545   9.731 -0.2151 -0.9091  0.4076
  330TMC3    H2 4960   2.283   0.237   9.541  1.3535  0.9710 -2.6557
  330TMC3    C7 4961   2.507   0.275   9.667  0.1738 -0.5967 -0.2816
  330TMC3    C8 4962   2.076   0.400   9.479  0.3215  0.4192  0.1933
  330TMC3    O1 4963   2.487   0.170   9.614  0.2175 -0.0827 -0.4137
  330TMC3    O2 4964   1.998   0.497   9.468 -0.3422  0.1107 -0.3295
  331MPD2     C 4965   4.290   4.577  12.716  0.5644 -0.0559 -0.4434
  331MPD2    C1 4966   4.380   4.677  12.687  0.0241 -0.0013 -0.2080
  331MPD2    C2 4967   4.517   4.652  12.677  0.0508  0.2386 -0.0987
  331MPD2    C3 4968   4.569   4.531  12.716 -0.4685 -0.1812 -0.4916
  331MPD2    C4 4969   4.478   4.435  12.750  0.3629 -0.1222 -0.2421
  331MPD2    C5 4970   4.344   4.460  12.748 -0.7803 -0.1510  0.1575
  331MPD2     H 4971   4.588   0.003  12.649  1.6640 -1.4270 -0.5965
  331MPD2    H1 4972   4.511   4.337  12.783 -0.0848  0.6131  2.3529
  331MPD2    H2 4973   4.185   4.595  12.735  0.1145  0.0364 -3.0859
  331MPD2    H3 4974   4.278   4.382  12.785  0.4113 -0.7813  0.9676
  331MPD2     N 4975   4.710   4.516  12.715  0.2016 -0.1838 -0.0148
  331MPD2    H5 4976   0.037   4.603  12.704 -0.5569  0.1934 -0.6894
  331MPD2    N1 4977   4.339   0.081  12.651 -0.5146  0.6436  0.0664
  331MPD2    H7 4978   4.411   0.153  12.655  0.8354 -0.7112  0.0810
  332TMC3    C1 4979   0.202   4.419  12.729 -1.1227 -0.1430 -0.1939
  332TMC3    C2 4980   0.258   4.543  12.721 -0.3054 -0.1273 -0.1300
  332TMC3    C3 4981   0.391   4.560  12.750  0.1513  0.1340 -0.2113
  332TMC3    C4 4982   0.275   4.312  12.764 -0.1149 -0.6633 -0.6144
  332TMC3    C5 4983   0.407   4.329  12.792 -0.1460  0.7187 -0.2943
  332TMC3    C6 4984   0.470   4.450  12.786  0.7616  0.0946  0.2194
  332TMC3     C 4985   0.058   4.398  12.727  0.1269 -0.2072  0.0497
  332TMC3     O 4986   0.011   4.287  12.746  0.3764  1.0663  0.0299
  332TMC3     H 4987   0.202   4.634  12.701  0.3977  0.4028  0.3071
  332TMC3    H1 4988   0.246   4.208  12.770  0.2293 -0.7617 -0.6801
  332TMC3    H2 4989   0.576   4.456  12.805  0.7390  1.3387 -0.0537
  332TMC3    C7 4990   0.462   4.228  12.884 -0.2573  0.0319 -0.4897
  332TMC3    C8 4991   0.453   4.677  12.693 -0.2644 -0.2733  0.4971
  332TMC3    O1 4992   0.393   4.134  12.926 -0.1497 -0.3538 -0.0077
  332TMC3    O2 4993   0.380   0.050  12.676 -0.7593 -0.5471  0.3306
  333MPD2     C 4994   1.293   4.108  11.530  0.0931  0.0842  0.1978
  333MPD2    C1 4995   1.172   4.123  11.471  0.0522 -0.0800 -0.5269
  333MPD2    C2 4996   1.058   4.104  11.541  0.0359 -0.6869  0.3253
  333MPD2    C3 4997   1.058   4.071  11.671 -0.1944  0.2189  0.2200
  333MPD2    C4 4998   1.179   4.050  11.730  0.0340 -0.1763  0.1258
  333MPD2    C5 4999   1.293   4.068  11.660  0.3826  1.7146  0.1981
  333MPD2     H 5000   0.962   4.117  11.493  1.1885 -1.1382 -2.1157
  333MPD2    H1 5001   1.188   3.998  11.825  0.3971 -0.1957  0.0805
  333MPD2    H2 5002   1.383   4.141  11.479 -1.1417 -0.2270 -2.1960
  333MPD2    H3 5003   1.388   4.055  11.712  0.5779 -1.0890 -0.8471
  333MPD2     N 5004   0.933   4.044  11.732  0.0156  0.1771  0.8856
  333MPD2    H5 5005   0.854   4.044  11.668 -0.4817 -1.5150  1.5075
  333MPD2    N1 5006   1.180   4.149  11.329 -0.4979  0.3947  0.6817
  333MPD2    H7 5007   1.274   4.159  11.293 -0.5454  2.0156  1.0198
  334TMC3    C1 5008   1.123   4.173  11.105  0.4157 -0.5811  0.0157
  334TMC3    C2 5009   1.242   4.134  11.060 -0.1645 -0.0502 -0.3230
  334TMC3    C3 5010   1.285   4.187  10.937  0.3986  0.1275  1.0008
  334TMC3    C4 5011   1.043   4.256  11.033  0.0816 -0.5600  0.6576
  334TMC3    C5 5012   1.085   4.297  10.911 -0.0938 -0.5597  0.8177
  334TMC3    C6 5013   1.209   4.266  10.860  0.4296  0.0069 -0.6768
  334TMC3     C 5014   1.079   4.153  11.238 -0.4265 -0.3638  0.4507
  334TMC3     O 5015   0.960   4.163  11.266  0.3506 -0.3091  0.3017
  334TMC3     H 5016   1.300   4.053  11.104  1.2855  0.0197 -2.0730
  334TMC3    H1 5017   0.947   4.285  11.074  1.1619  2.2466  1.1941
  334TMC3    H2 5018   1.251   4.304  10.768 -0.6862 -0.9714 -1.5833
  334TMC3    C7 5019   1.041   4.426  10.866 -0.8347  0.1257  0.9667
  334TMC3    C8 5020   1.395   4.115  10.876 -0.3094 -0.6364  0.3826
  334TMC3    O1 5021   1.123   4.504  10.811 -0.1410 -0.1309  0.1977
  334TMC3    O2 5022   1.411   3.996  10.889  0.0353 -0.0503  0.0884
  335TMC3    C1 5023   0.340   1.312  17.563 -0.2082  0.0428  0.2130
  335TMC3    C2 5024   0.299   1.229  17.464  0.2151 -0.5406 -0.8226
  335TMC3    C3 5025   0.358   1.241  17.338 -0.0335  0.0999  0.0418
  335TMC3    C4 5026   0.456   1.394  17.542  0.4905  0.1055  0.5014
  335TMC3    C5 5027   0.509   1.401  17.417  0.1616 -0.2227 -0.5935
  335TMC3    C6 5028   0.465   1.324  17.312 -0.9637 -0.1268 -0.1912
  335TMC3     C 5029   0.269   1.323  17.682  1.4799  0.1661 -0.4837
  335TMC3     O 5030   0.331   1.355   0.082 -0.0827  0.1657 -0.3944
  335TMC3     H 5031   0.235   1.143  17.485  0.9680 -0.6389  1.1252
  335TMC3    H1 5032   0.487   1.458  17.624  1.9314  0.3116 -0.2163
  335TMC3    H2 5033   0.497   1.328  17.208 -2.1303  0.7717 -0.5257
  335TMC3    C7 5034   0.629   1.476  17.379  0.6557  0.9864 -0.1937
  335TMC3    C8 5035   0.319   1.152  17.227  0.1559 -0.9748 -0.0035
  335TMC3    O1 5036   0.657   1.476  17.261 -0.2902 -0.0284 -0.0263
  335TMC3    O2 5037   0.349   1.176  17.113  0.0380 -0.1039 -0.3733
  336MPD2     C 5038   4.596   3.684  16.048  0.0991 -0.1841 -0.6998
  336MPD2    C1 5039   4.601   3.605  15.935 -0.3806 -0.8583  0.0005
  336MPD2    C2 5040   4.551   3.473  15.948 -0.2111 -0.0720 -0.4152
  336MPD2    C3 5041   4.498   3.413  16.058 -1.1563  0.2041  0.4590
  336MPD2    C4 5042   4.494   3.494  16.165  0.3653  0.0961  0.3810
  336MPD2    C5 5043   4.560   3.617  16.165 -0.6256  0.1243 -0.9050
  336MPD2     H 5044   4.552   3.428  15.850  2.7897 -1.2549  0.1572
  336MPD2    H1 5045   4.472   3.454  16.264 -0.7921  1.8215  0.8253
  336MPD2    H2 5046   4.618   3.790  16.052 -1.9700  0.2395 -0.6554
  336MPD2    H3 5047   4.566   3.671  16.259 -1.3252  0.4563 -1.0543
  336MPD2     N 5048   4.448   3.284  16.075 -0.3290 -0.0601 -0.2108
  336MPD2    H5 5049   4.393   3.262  16.158 -0.3287 -1.0451 -0.4666
  336MPD2    N1 5050   4.633   3.649  15.807 -0.6656 -0.2879  0.3707
  336MPD2    H7 5051   4.608   3.586  15.731 -0.4848  3.8592 -3.1303
  337TMC3    C1 5052   4.635   3.797  15.634 -0.2164 -0.2420 -0.4253
  337TMC3    C2 5053   4.507   3.852  15.620 -0.4759 -0.3232  0.5592
  337TMC3    C3 5054   4.427   3.815  15.514  0.7442 -0.0438 -1.0820
  337TMC3    C4 5055   4.677   3.706  15.541 -0.0271 -0.0014  0.0926
  337TMC3    C5 5056   4.600   3.691  15.429 -0.1103 -0.5768 -0.8987
  337TMC3    C6 5057   4.470   3.737  15.415 -0.1369  0.3468 -0.6122
  337TMC3     C 5058   4.660   3.781  15.772 -0.5264 -0.0073  0.0823
  337TMC3     O 5059   4.655   3.887  15.835 -0.3220 -0.0403  0.2631
  337TMC3     H 5060   4.462   3.917  15.693 -0.0386  1.2474 -0.5831
  337TMC3    H1 5061   0.053   3.668  15.546  0.3959  1.2349  0.8460
  337TMC3    H2 5062   4.410   3.687  15.340  1.3986 -0.1427 -1.4945
  337TMC3    C7 5063   4.673   3.631  15.317  0.5634  0.3893 -0.1224
  337TMC3    C8 5064   4.286   3.867  15.516 -0.3836  0.0253 -0.1799
  337TMC3    O1 5065   0.049   3.566  15.346 -0.1575 -0.7167 -0.0378
  337TMC3    O2 5066   4.253   3.907  15.624  0.1786 -0.4596  0.2696
  338MPD2     C 5067   4.611   3.179   0.887  0.2287 -0.4008  0.0110
  338MPD2    C1 5068   4.576   3.105   0.772 -0.2887 -0.2301 -0.3999
  338MPD2    C2 5069   4.445   3.115   0.726  0.3877  0.3339  0.5196
  338MPD2    C3 5070   4.348   3.188   0.794 -0.7473 -0.2363 -0.0545
  338MPD2    C4 5071   4.378   3.268   0.900  0.8104 -0.2247  0.5139
  338MPD2    C5 5072   4.513   3.265   0.939  0.1972  0.4826  0.3922
  338MPD2     H 5073   4.423   3.054   0.639  0.1233  1.1906 -0.0132
  338MPD2    H1 5074   4.304   3.325   0.954 -0.4717 -0.2414 -1.2263
  338MPD2    H2 5075   4.710   3.181   0.931 -0.1070 -1.5901  0.8215
  338MPD2    H3 5076   4.541   3.317   1.030 -2.2772  1.0690  0.8154
  338MPD2     N 5077   4.225   3.191   0.723 -0.3525  0.4256  0.0636
  338MPD2    H5 5078   4.216   3.134   0.640  2.0421 -0.6060  0.5148
  338MPD2    N1 5079   4.673   3.027   0.693  0.0524  0.3355 -0.0188
  338MPD2    H7 5080   4.636   2.985   0.608 -1.1004 -1.1321  1.2127
  339TMC3    C1 5081   3.992   3.236   0.680  0.6339  0.1029 -0.3271
  339TMC3    C2 5082   3.868   3.235   0.735 -1.0022  0.2534  0.4394
  339TMC3    C3 5083   3.760   3.196   0.657 -0.4937  0.3926 -0.8154
  339TMC3    C4 5084   4.005   3.200   0.544  0.1239  0.5819  0.3347
  339TMC3    C5 5085   3.894   3.168   0.468  0.7231  0.4904 -0.1355
  339TMC3    C6 5086   3.772   3.157   0.524  0.1235 -0.2873  0.3834
  339TMC3     C 5087   4.107   3.247   0.774  0.3964  0.2454 -0.5460
  339TMC3     O 5088   4.087   3.304   0.880  0.2570 -0.6313  0.3405
  339TMC3     H 5089   3.875   3.264   0.839  0.7542  0.5372  0.2373
  339TMC3    H1 5090   4.101   3.212   0.494  1.3557  1.3536  2.8863
  339TMC3    H2 5091   3.695   3.113   0.461 -0.5718  0.6076  0.6057
  339TMC3    C7 5092   3.930   3.081   0.360 -0.0287  0.5206  0.6940
  339TMC3    C8 5093   3.635   3.176   0.725 -0.7301 -0.3974 -0.0881
  339TMC3    O1 5094   4.033   3.012   0.371 -0.1959  0.1818 -0.4716
  339TMC3    O2 5095   3.534   3.152   0.659 -0.3826 -0.6213 -0.4846
  340MPD2     C 5096   0.739   4.152   9.232 -0.7024  0.2549  0.5932
  340MPD2    C1 5097   0.791   4.220   9.334  0.8139 -0.0284  0.9774
  340MPD2    C2 5098   0.806   4.356   9.336  0.2733  0.7436 -0.0155
  340MPD2    C3 5099   0.765   4.429   9.226  0.1759  0.3952 -0.9117
  340MPD2    C4 5100   0.716   4.359   9.118 -0.2172 -0.1718 -0.2895
  340MPD2    C5 5101   0.704   4.225   9.121  0.9135  0.1854  0.4846
  340MPD2     H 5102   0.851   4.402   9.424  0.0666  0.3646  0.2912
  340MPD2    H1 5103   0.693   4.413   9.027  3.3729  1.3990 -0.2462
  340MPD2    H2 5104   0.713   4.047   9.226 -3.5466  0.9375  0.8743
  340MPD2    H3 5105   0.673   4.170   9.032  1.5115  0.0822  0.3382
  340MPD2     N 5106   0.787   4.568   9.227  0.0313  0.1603 -0.3674
  340MPD2    H5 5107   0.830   4.601   9.313  0.3725 -0.3710 -0.3276
  340MPD2    N1 5108   0.834   4.145   9.445  0.1366  0.1351 -0.1729
  340MPD2    H7 5109   0.810   4.047   9.440  0.4408  0.1186 -1.3530
  341TMC3    C1 5110   0.915   4.090   9.661 -0.1066  0.1763  0.3760
  341TMC3    C2 5111   0.807   4.036   9.719 -0.2069  0.0586 -0.1495
  341TMC3    C3 5112   0.816   3.952   9.831  0.2308  0.7696  0.1094
  341TMC3    C4 5113   1.033   4.073   9.732 -0.7771  0.1979 -0.0659
  341TMC3    C5 5114   1.046   3.980   9.836  0.5001  0.6547 -0.6654
  341TMC3    C6 5115   0.935   3.922   9.891 -0.3498  0.0263 -0.3003
  341TMC3     C 5116   0.896   4.194   9.562 -0.2535 -0.1977 -0.4989
  341TMC3     O 5117   0.940   4.304   9.597 -0.0871 -0.4870  0.2094
  341TMC3     H 5118   0.712   4.053   9.669 -0.7724  2.2585  1.6685
  341TMC3    H1 5119   1.125   4.125   9.709 -0.9807  0.5520 -0.0899
  341TMC3    H2 5120   0.942   3.872   9.987  0.7227 -0.1972 -0.4986
  341TMC3    C7 5121   1.172   3.951   9.893 -0.1717 -0.0401 -0.0424
  341TMC3    C8 5122   0.698   3.903   9.905 -0.0585  0.1222 -0.6623
  341TMC3    O1 5123   1.262   4.028   9.868 -0.1777 -0.1952 -0.1573
  341TMC3    O2 5124   0.707   3.812   9.986  0.4568  0.5541 -0.4698
  342MPD2     C 5125   2.743   4.484  17.536 -0.5496 -0.7694 -0.0848
  342MPD2    C1 5126   2.870   4.445  17.530  0.5824  0.3260  0.8443
  342MPD2    C2 5127   2.972   4.536  17.550  0.2397 -0.3727  0.1364
  342MPD2    C3 5128   2.951   4.659  17.607 -0.6338  0.5318  0.1132
  342MPD2    C4 5129   2.821   4.691  17.630  0.3066  0.4822  0.4732
  342MPD2    C5 5130   2.717   4.602  17.599  0.5481 -0.1435 -0.0819
  342MPD2     H 5131   3.074   4.500  17.539  0.8354  0.9975  1.1740
  342MPD2    H1 5132   2.793   0.059  17.677  0.0023  0.7240 -0.1941
  342MPD2    H2 5133   2.654   4.429  17.509 -0.3514 -1.9097  1.6277
  342MPD2    H3 5134   2.617   4.630  17.632 -0.3890 -2.5966 -0.8610
  342MPD2     N 5135   3.047   0.027  17.638  0.1497 -0.2777 -0.8402
  342MPD2    H5 5136   3.014   0.113  17.679 -1.8218 -1.1235 -0.6696
  342MPD2    N1 5137   2.907   4.312  17.493 -0.3243  0.3523  0.1880
  342MPD2    H7 5138   3.006   4.296  17.477 -0.4944 -0.8212  0.2967
  343TMC3    C1 5139   2.883   4.088  17.422 -0.0217  0.2179  0.2905
  343TMC3    C2 5140   2.962   4.103  17.311 -0.4840 -0.0342 -0.2760
  343TMC3    C3 5141   2.987   3.998  17.221  0.2212 -0.8145 -0.7724
  343TMC3    C4 5142   2.822   3.963  17.445  0.2981  0.7957 -0.0692
  343TMC3    C5 5143   2.846   3.865  17.354 -0.5815 -0.3126 -0.2375
  343TMC3    C6 5144   2.930   3.870  17.244 -0.4252  0.6974  0.0075
  343TMC3     C 5145   2.820   4.207  17.479  0.5848 -0.0935 -0.6942
  343TMC3     O 5146   2.712   4.186  17.533  0.3488  0.5782  0.3661
  343TMC3     H 5147   2.991   4.202  17.276  0.9847 -0.2776  0.2625
  343TMC3    H1 5148   2.735   3.962  17.509 -0.8368 -1.6362 -1.6625
  343TMC3    H2 5149   2.947   3.783  17.182  0.5869  0.6657  0.3252
  343TMC3    C7 5150   2.775   3.735  17.367 -0.0711 -1.1062 -0.2841
  343TMC3    C8 5151   3.071   4.036  17.110 -0.0294 -0.2991  0.1534
  343TMC3    O1 5152   2.767   3.673  17.265  0.0993 -0.1170 -0.3311
  343TMC3    O2 5153   3.065   4.152  17.072 -0.3120 -0.2536 -0.2530
  344MPD2     C 5154   4.000   3.496  10.369  0.2580 -0.5763 -0.0221
  344MPD2    C1 5155   4.072   3.479  10.480 -0.0624 -0.1064 -0.3355
  344MPD2    C2 5156   4.185   3.561  10.496 -0.0547  0.4455  0.0091
  344MPD2    C3 5157   4.222   3.657  10.407 -0.0455  0.0575  0.0499
  344MPD2    C4 5158   4.141   3.678  10.298 -0.3701 -0.3310 -0.0745
  344MPD2    C5 5159   4.028   3.599  10.279  0.2459  0.4193  0.2524
  344MPD2     H 5160   4.250   3.533  10.579  2.5730  2.7439 -1.3144
  344MPD2    H1 5161   4.173   3.750  10.223 -1.9876  1.1760  0.6789
  344MPD2    H2 5162   3.917   3.432  10.344  0.6783 -0.2302 -2.3544
  344MPD2    H3 5163   3.967   3.614  10.191  0.1993 -0.5813  0.1124
  344MPD2     N 5164   4.326   3.748  10.417 -0.2029  0.7474  0.6158
  344MPD2    H5 5165   4.339   3.814  10.341  0.3798  0.0412  0.0993
  344MPD2    N1 5166   4.042   3.374  10.571 -0.4634  0.1831  0.5942
  344MPD2    H7 5167   4.113   3.337  10.634 -1.0021 -1.3065  0.3415
  345TMC3    C1 5168   4.516   3.860  10.506 -0.3167  0.6535 -0.4841
  345TMC3    C2 5169   4.564   3.917  10.624 -1.2108 -0.0499 -0.3661
  345TMC3    C3 5170   4.614   4.049  10.616  0.0766 -0.5937 -0.0502
  345TMC3    C4 5171   4.546   3.919  10.386  0.9005  0.0636 -0.3869
  345TMC3    C5 5172   4.593   4.047  10.384 -0.8303 -0.3398  0.4384
  345TMC3    C6 5173   4.629   4.113  10.496 -0.3331  0.5674 -0.1106
  345TMC3     C 5174   4.425   3.747  10.515 -0.1319 -0.1773 -0.2102
  345TMC3     O 5175   4.420   3.686  10.619 -0.0418  1.0771 -0.0328
  345TMC3     H 5176   4.539   3.867  10.717  0.3430 -1.6507 -0.8304
  345TMC3    H1 5177   4.520   3.877  10.290 -0.3008 -1.9189  0.8122
  345TMC3    H2 5178   4.683   4.207  10.497  0.7456 -0.0576 -0.7600
  345TMC3    C7 5179   4.579   4.140  10.273 -0.4833 -0.9009  0.7083
  345TMC3    C8 5180   4.586   4.130  10.725 -0.3968  0.3811  0.3913
  345TMC3    O1 5181   4.552   4.258  10.302  0.1338 -0.4323 -0.1622
  345TMC3    O2 5182   4.575   4.067  10.829  0.2220  0.2476 -0.2579
  346MPD2     C 5183   3.774   0.275  13.976  0.3654  0.5394 -0.3327
  346MPD2    C1 5184   3.901   0.320  13.962  0.4477  0.2527 -0.0766
  346MPD2    C2 5185   3.959   0.378  14.077 -0.0738  0.5544  0.9962
  346MPD2    C3 5186   3.898   0.375  14.202 -0.4788  0.7618  0.2192
  346MPD2    C4 5187   3.772   0.315  14.211  0.0816 -0.0857 -0.0731
  346MPD2    C5 5188   3.710   0.264  14.101  0.7991 -0.4869  0.5847
  346MPD2     H 5189   4.056   0.421  14.059  0.0943  0.2929  1.2705
  346MPD2    H1 5190   3.716   0.319  14.303 -1.4674 -1.9910 -0.9276
  346MPD2    H2 5191   3.715   0.263  13.886 -0.7565  0.7609  0.3721
  346MPD2    H3 5192   3.607   0.232  14.114  0.2506  0.9176 -0.2677
  346MPD2     N 5193   3.952   0.440  14.314 -0.4843 -1.0341  0.8595
  346MPD2    H5 5194   4.048   0.471  14.304 -0.5374 -0.3618  2.4994
  346MPD2    N1 5195   3.966   0.338  13.838  0.0662  0.7304 -0.3688
  346MPD2    H7 5196   4.055   0.387  13.832 -0.7986  2.2504 -0.8905
  347TMC3    C1 5197   3.998   0.471  14.537 -0.4224 -0.7200  0.8355
  347TMC3    C2 5198   4.129   0.440  14.518 -0.1766 -0.0144  0.1704
  347TMC3    C3 5199   4.225   0.498  14.595  0.1941 -0.2003 -0.9759
  347TMC3    C4 5200   3.964   0.549  14.651  0.1959  0.7672 -0.4536
  347TMC3    C5 5201   4.063   0.603  14.731 -0.4475 -0.1169  0.1576
  347TMC3    C6 5202   4.194   0.584  14.700 -0.2526 -0.4043 -0.7873
  347TMC3     C 5203   3.897   0.448  14.440  0.0690  0.7493 -0.4156
  347TMC3     O 5204   3.779   0.445  14.468 -0.4763  0.2038 -0.1194
  347TMC3     H 5205   4.153   0.365  14.443 -0.4790 -0.8460  0.9121
  347TMC3    H1 5206   3.860   0.578  14.665 -0.0608 -0.0825 -0.5772
  347TMC3    H2 5207   4.268   0.626  14.767 -2.2481  2.5011 -0.4071
  347TMC3    C7 5208   4.032   0.671  14.855 -0.7060 -0.6863  0.0252
  347TMC3    C8 5209   4.363   0.455  14.568  0.8046  0.3462  0.1466
  347TMC3    O1 5210   4.115   0.758  14.891  0.3666  0.1017 -0.2974
  347TMC3    O2 5211   4.370   0.364  14.489 -0.4885  0.3922 -0.0906
  348MPD2     C 5212   2.893   0.226  11.924  0.6091 -0.3794  0.6066
  348MPD2    C1 5213   3.016   0.228  11.851  0.3383  0.4920 -0.5071
  348MPD2    C2 5214   3.017   0.299  11.733  0.3043 -0.3785  0.3435
  348MPD2    C3 5215   2.914   0.381  11.694  0.8462  0.7190  0.0645
  348MPD2    C4 5216   2.802   0.392  11.766  0.3141 -0.2535  0.1463
  348MPD2    C5 5217   2.797   0.317  11.880  0.1116  0.2432  0.1072
  348MPD2     H 5218   3.108   0.292  11.674 -1.8265 -1.4762 -2.8103
  348MPD2    H1 5219   2.713   0.448  11.743  1.9793  2.8803  1.4123
  348MPD2    H2 5220   2.874   0.184  12.022 -0.3990  1.2727  1.1203
  348MPD2    H3 5221   2.711   0.326  11.946  0.1351  1.4153 -0.0254
  348MPD2     N 5222   2.905   0.419  11.561  0.2453  0.4973  0.0918
  348MPD2    H5 5223   2.984   0.403  11.500 -1.2751 -0.5275 -1.6153
  348MPD2    N1 5224   3.125   0.141  11.885  0.1234  0.7536 -0.7916
  348MPD2    H7 5225   3.207   0.150  11.825  0.4317  0.1638 -0.4580
  349TMC3    C1 5226   3.234   4.676  11.936 -1.0694 -1.0471  0.2830
  349TMC3    C2 5227   3.208   4.549  11.980 -1.0946  0.4484 -0.0103
  349TMC3    C3 5228   3.228   4.445  11.899  1.3114 -0.8582  0.0135
  349TMC3    C4 5229   3.292   4.698  11.813 -0.6293  0.3887  0.8132
  349TMC3    C5 5230   3.302   4.583  11.730  0.3231  0.1832  0.7186
  349TMC3    C6 5231   3.290   4.455  11.777 -0.1903 -0.2948  0.4045
  349TMC3     C 5232   3.132   0.037  11.974 -0.1784  0.1660 -0.1200
  349TMC3     O 5233   3.049   0.001  12.054  0.4090 -1.4119  0.2304
  349TMC3     H 5234   3.153   4.530  12.071 -0.0765  1.1252  0.7490
  349TMC3    H1 5235   3.328   0.069  11.777 -0.4106  0.5159  1.3618
  349TMC3    H2 5236   3.307   4.370  11.712 -0.9087  0.7652 -1.1502
  349TMC3    C7 5237   3.240   4.608  11.600  0.4034  0.1929 -0.5490
  349TMC3    C8 5238   3.232   4.323  11.961 -0.2374 -0.4350 -0.6456
  349TMC3    O1 5239   3.171   4.517  11.557  0.6910 -0.8830  0.0648
  349TMC3    O2 5240   3.139   4.289  12.034  0.0593 -0.0468 -0.3554
  350MPD2     C 5241   2.497   2.607   9.820  0.0271 -0.0759 -0.5296
  350MPD2    C1 5242   2.469   2.558   9.943  0.1650 -0.2558 -0.9984
  350MPD2    C2 5243   2.499   2.633  10.057  0.4806  0.3303  0.0623
  350MPD2    C3 5244   2.559   2.753  10.048 -0.2595  0.0994  0.5310
  350MPD2    C4 5245   2.587   2.805   9.920  0.6977  0.3323  0.3954
  350MPD2    C5 5246   2.559   2.728   9.810  0.0126  0.4361  0.4342
  350MPD2     H 5247   2.482   2.588  10.154 -1.5385  0.3103 -0.2997
  350MPD2    H1 5248   2.627   2.905   9.910  4.3633 -1.1729  0.1581
  350MPD2    H2 5249   2.485   2.542   9.734  0.3382  0.7898 -1.2275
  350MPD2    H3 5250   2.590   2.761   9.711 -0.0791 -1.1947 -0.1371
  350MPD2     N 5251   2.590   2.828  10.165 -0.2192 -0.0818  0.3262
  350MPD2    H5 5252   2.564   2.785  10.253 -0.1460 -0.3220  0.2328
  350MPD2    N1 5253   2.403   2.430   9.943  0.2670  0.2656  0.0088
  350MPD2    H7 5254   2.380   2.387   9.854  1.9699  0.9380 -0.7531
  351TMC3    C1 5255   2.277   2.245  10.014  0.8348 -0.4203 -0.6508
  351TMC3    C2 5256   2.342   2.157   9.933 -0.2821  0.0034  0.2391
  351TMC3    C3 5257   2.289   2.039   9.911  0.4118 -0.1933 -0.2704
  351TMC3    C4 5258   2.159   2.208  10.078 -0.5469 -0.2797  0.8034
  351TMC3    C5 5259   2.103   2.089  10.043  0.2875  0.4177 -0.1502
  351TMC3    C6 5260   2.168   1.999   9.964  0.3469 -0.0654  0.1904
  351TMC3     C 5261   2.336   2.373  10.051 -0.2869 -1.1632 -0.5403
  351TMC3     O 5262   2.314   2.411  10.165  0.0190  0.1137  0.4393
  351TMC3     H 5263   2.445   2.177   9.903 -1.1556 -0.0872 -2.8531
  351TMC3    H1 5264   2.122   2.273  10.157 -0.5120 -0.0102  0.5976
  351TMC3    H2 5265   2.141   1.894   9.957  3.5559 -0.8705 -0.0088
  351TMC3    C7 5266   2.000   2.027  10.132  0.0360  0.1870 -0.7968
  351TMC3    C8 5267   2.357   1.950   9.813 -0.0802  0.4317 -0.5924
  351TMC3    O1 5268   2.021   1.915  10.180  0.7424  0.0190 -0.0802
  351TMC3    O2 5269   2.459   1.996   9.765 -0.0252 -0.2529 -0.1371
  352MPD2     C 5270   0.035   0.219   0.655  0.1779  0.1170  0.8263
  352MPD2    C1 5271   0.008   0.231   0.789 -0.1597  0.0856 -0.6129
  352MPD2    C2 5272   0.045   0.130   0.873 -0.8856 -0.5062  0.4746
  352MPD2    C3 5273   0.099   0.010   0.820 -0.1670 -0.0741  0.6528
  352MPD2    C4 5274   0.114   4.719   0.684 -0.6487  0.2321  0.0277
  352MPD2    C5 5275   0.084   0.101   0.609 -0.4073  0.5995  0.9728
  352MPD2     H 5276   0.041   0.146   0.980  2.1747  0.2411  0.4697
  352MPD2    H1 5277   0.148   4.629   0.633 -1.2255  0.2687 -0.4271
  352MPD2    H2 5278   0.019   0.299   0.582  2.1872  1.5906  1.9846
  352MPD2    H3 5279   0.096   0.091   0.501  3.1415  0.7040  1.3494
  352MPD2     N 5280   0.126   4.621   0.898 -0.1131 -0.2985 -0.3562
  352MPD2    H5 5281   0.174   4.543   0.855  1.2514  1.5722 -2.2083
  352MPD2    N1 5282   4.684   0.350   0.834 -0.2294 -0.6023  0.5995
  352MPD2    H7 5283   4.666   0.428   0.772 -1.0799 -0.5004  0.9668
  353TMC3    C1 5284   0.156   4.479   1.074  0.7665  0.6510 -0.5434
  353TMC3    C2 5285   0.238   4.411   0.990  0.1525  0.0658 -0.1063
  353TMC3    C3 5286   0.259   4.277   1.022  0.2637 -0.2264 -0.0756
  353TMC3    C4 5287   0.088   4.418   1.176  0.1449 -0.0514  0.4677
  353TMC3    C5 5288   0.095   4.280   1.183 -0.0070 -0.3261  0.2765
  353TMC3    C6 5289   0.181   4.205   1.106 -0.5821 -0.2204  0.1591
  353TMC3     C 5290   0.099   4.609   1.033 -0.4106  0.6930 -0.2457
  353TMC3     O 5291   0.025   4.673   1.107 -0.1712 -0.1898  0.1975
  353TMC3     H 5292   0.300   4.458   0.914  2.0334 -1.6538  0.3434
  353TMC3    H1 5293   0.030   4.476   1.247 -0.1180 -1.6827  1.5921
  353TMC3    H2 5294   0.208   4.105   1.138 -1.0853 -0.5642 -0.4895
  353TMC3    C7 5295   4.721   4.201   1.258 -0.5773  0.3051 -0.2182
  353TMC3    C8 5296   0.323   4.197   0.916 -0.2823 -0.5123  0.4297
  353TMC3    O1 5297   4.700   4.088   1.216  0.0703  0.2880  0.3396
  353TMC3    O2 5298   0.384   4.266   0.832 -0.2136 -0.6947  0.0526
  354TMC3    C1 5299   1.713   1.379  13.103  0.7545  0.5026 -0.8526
  354TMC3    C2 5300   1.712   1.514  13.134 -0.8657 -0.2760 -0.3016
  354TMC3    C3 5301   1.742   1.605  13.038 -0.0881 -1.0416  0.2624
  354TMC3    C4 5302   1.702   1.340  12.972 -1.3610 -0.4885  0.7321
  354TMC3    C5 5303   1.746   1.430  12.878  0.7051  0.4001 -0.3372
  354TMC3    C6 5304   1.758   1.567  12.904 -0.3067 -0.1434  0.5414
  354TMC3     C 5305   1.671   1.280  13.200  0.4526 -0.4911 -0.9111
  354TMC3     O 5306   1.656   1.165  13.160  0.1276 -0.7049  0.4552
  354TMC3     H 5307   1.720   1.545  13.238 -1.7190  0.5486 -0.4766
  354TMC3    H1 5308   1.719   1.236  12.946  0.8233  0.2724 -0.8692
  354TMC3    H2 5309   1.772   1.639  12.824 -2.0721 -1.4286 -0.9294
  354TMC3    C7 5310   1.813   1.375  12.759 -0.3247  0.7113  0.2446
  354TMC3    C8 5311   1.750   1.745  13.076 -0.4371  0.2883 -0.1311
  354TMC3    O1 5312   1.759   1.281  12.705  0.3027 -0.2460 -0.1009
  354TMC3    O2 5313   1.687   1.783  13.177  0.1366  0.2801  0.4687
  355MPD2     C 5314   2.697   2.205  11.666  0.2011 -0.3706 -0.2707
  355MPD2    C1 5315   2.735   2.315  11.730  0.2355  0.3653 -0.7854
  355MPD2    C2 5316   2.780   2.296  11.861 -0.9838  0.1526 -0.1732
  355MPD2    C3 5317   2.817   2.170  11.902 -0.4650  0.0293  0.1701
  355MPD2    C4 5318   2.785   2.059  11.832 -0.2142 -0.4925  0.1833
  355MPD2    C5 5319   2.718   2.080  11.714 -0.9461  0.5105 -0.1948
  355MPD2     H 5320   2.791   2.383  11.925 -0.5118 -0.5172  0.6543
  355MPD2    H1 5321   2.802   1.958  11.866 -0.2921 -0.5393  0.0852
  355MPD2    H2 5322   2.665   2.226  11.565  0.1578  1.1085  0.0501
  355MPD2    H3 5323   2.707   1.993  11.651 -0.6172  0.1923  0.1880
  355MPD2     N 5324   2.878   2.140  12.027  0.4061  0.2317 -0.0616
  355MPD2    H5 5325   2.879   2.043  12.057  0.6750 -0.3042 -1.7749
  355MPD2    N1 5326   2.738   2.437  11.660 -0.2322  0.2388  0.3640
  355MPD2    H7 5327   2.737   2.430  11.559  0.5902 -0.1324  0.3803
  356TMC3    C1 5328   2.994   2.355  12.050  0.4626 -0.2434  0.4688
  356TMC3    C2 5329   3.064   2.363  11.934 -0.0010  0.1829 -0.8139
  356TMC3    C3 5330   3.136   2.476  11.905  0.3940  0.5489 -0.1422
  356TMC3    C4 5331   2.995   2.458  12.135  0.1629 -0.4650 -0.5917
  356TMC3    C5 5332   3.064   2.572  12.116  0.1636 -0.4323  0.4469
  356TMC3    C6 5333   3.144   2.576  12.002 -0.0998 -0.1692  0.0933
  356TMC3     C 5334   2.949   2.225  12.105  0.4633 -0.6067  0.2238
  356TMC3     O 5335   2.978   2.204  12.222 -0.4803 -0.1525  0.2359
  356TMC3     H 5336   3.067   2.274  11.873 -0.2600 -0.7206  0.4880
  356TMC3    H1 5337   2.947   2.443  12.231  0.0224  0.0781 -0.5743
  356TMC3    H2 5338   3.185   2.674  11.980  1.4853 -0.7725  0.3730
  356TMC3    C7 5339   3.097   2.644  12.237 -0.5205 -0.3124 -0.7356
  356TMC3    C8 5340   3.175   2.493  11.771  0.1849  0.7634 -0.4719
  356TMC3    O1 5341   3.076   2.590  12.347  0.3028  0.0634  0.1617
  356TMC3    O2 5342   3.123   2.432  11.683  0.3045 -0.2959 -0.0112
  357MPD2     C 5343   1.825   2.431   1.083 -0.0091  0.5847  0.3239
  357MPD2    C1 5344   1.940   2.383   1.155 -0.0396 -0.7283  0.9753
  357MPD2    C2 5345   1.964   2.431   1.281  0.2114 -0.0590 -0.6179
  357MPD2    C3 5346   1.880   2.524   1.347 -0.2546  0.2681  0.3431
  357MPD2    C4 5347   1.771   2.564   1.272  0.2512 -0.3915  0.1027
  357MPD2    C5 5348   1.745   2.520   1.147 -0.0130  0.6192 -0.0533
  357MPD2     H 5349   2.052   2.395   1.335 -0.1220  0.6059  0.3696
  357MPD2    H1 5350   1.694   2.630   1.311 -0.7986 -2.0851  0.8785
  357MPD2    H2 5351   1.797   2.394   0.986  0.9305  1.4890 -0.2974
  357MPD2    H3 5352   1.651   2.545   1.100 -0.2970 -0.2740  0.0246
  357MPD2     N 5353   1.891   2.582   1.477  0.1562  0.3936  0.5256
  357MPD2    H5 5354   1.818   2.640   1.518 -0.9050 -0.5068 -0.0753
  357MPD2    N1 5355   2.028   2.294   1.087  0.3700  0.2568  0.3047
  357MPD2    H7 5356   1.997   2.261   0.996  2.3180 -0.0383 -0.2308
  358TMC3    C1 5357   2.229   2.178   1.023  0.6003  0.3414 -0.1670
  358TMC3    C2 5358   2.150   2.118   0.924 -0.0243  0.6082 -0.1659
  358TMC3    C3 5359   2.214   2.008   0.862 -0.5832  0.0315 -0.7879
  358TMC3    C4 5360   2.363   2.151   1.045  0.2263  1.2810 -0.5485
  358TMC3    C5 5361   2.419   2.048   0.977  0.3584  0.2379 -0.6302
  358TMC3    C6 5362   2.345   1.966   0.899 -0.1860 -0.1494 -0.6030
  358TMC3     C 5363   2.157   2.263   1.114 -0.0825  0.6380 -0.8747
  358TMC3     O 5364   2.224   2.281   1.212  0.1988  0.6008  0.2362
  358TMC3     H 5365   2.045   2.136   0.900 -0.4367  1.9101  2.5813
  358TMC3    H1 5366   2.416   2.209   1.119  1.6080  1.5685 -1.7676
  358TMC3    H2 5367   2.385   1.885   0.839 -1.1880  0.4422 -2.0693
  358TMC3    C7 5368   2.559   2.035   0.968 -0.0509  0.0665 -0.3216
  358TMC3    C8 5369   2.153   1.929   0.751  0.2006 -0.1517 -0.4993
  358TMC3    O1 5370   2.604   1.960   0.882 -0.5085 -0.1372  0.1165
  358TMC3    O2 5371   2.195   1.815   0.726 -0.8081  0.5384 -0.1185
  359MPD2     C 5372   3.014   1.039  12.292 -0.7936  0.1991 -0.4802
  359MPD2    C1 5373   2.972   0.985  12.171 -0.4048 -0.1419  0.5622
  359MPD2    C2 5374   2.857   0.912  12.154 -0.6404 -0.3379  0.4322
  359MPD2    C3 5375   2.770   0.887  12.262 -0.2933 -0.0118  0.5976
  359MPD2    C4 5376   2.809   0.939  12.381  0.8011  0.1914 -0.2382
  359MPD2    C5 5377   2.928   1.006  12.397  0.3129  1.0566 -0.2880
  359MPD2     H 5378   2.854   0.865  12.056 -1.0197 -0.3032  0.4272
  359MPD2    H1 5379   2.747   0.929  12.470  0.5365  1.8860 -0.2425
  359MPD2    H2 5380   3.095   1.108  12.312  0.8262 -1.6735 -0.6165
  359MPD2    H3 5381   2.962   1.042  12.493 -0.3339 -0.1187  0.3722
  359MPD2     N 5382   2.652   0.808  12.247 -0.1169  0.5985 -0.4957
  359MPD2    H5 5383   2.603   0.798  12.336  0.9612 -0.3762 -0.0083
  359MPD2    N1 5384   3.043   1.004  12.049  0.5926  0.2913 -0.2159
  359MPD2    H7 5385   2.997   0.966  11.966 -0.2885  0.4071  0.2273
  360TMC3    C1 5386   3.212   1.081  11.894  0.3673 -0.5040  0.0610
  360TMC3    C2 5387   3.339   1.124  11.884  0.2239  0.4702 -0.2234
  360TMC3    C3 5388   3.433   1.075  11.799 -0.2450  0.1622 -1.2864
  360TMC3    C4 5389   3.161   0.992  11.800 -0.4715  0.6788  0.2315
  360TMC3    C5 5390   3.251   0.957  11.702  0.5754 -0.2266  0.1799
  360TMC3    C6 5391   3.379   0.996  11.700  0.1903  0.9475 -0.0354
  360TMC3     C 5392   3.157   1.080  12.034  0.2072  0.5587  0.5425
  360TMC3     O 5393   3.230   1.124  12.120 -0.2581 -0.4060 -0.1472
  360TMC3     H 5394   3.384   1.184  11.963  0.1109 -2.9918  2.5048
  360TMC3    H1 5395   3.059   0.955  11.807 -0.2904  0.3971  1.4384
  360TMC3    H2 5396   3.447   0.949  11.631 -2.4155 -0.8899 -1.3662
  360TMC3    C7 5397   3.203   0.949  11.569  1.2717  0.6585 -0.3353
  360TMC3    C8 5398   3.547   1.156  11.758  0.3067 -0.3586 -0.4112
  360TMC3    O1 5399   3.280   1.009  11.495  0.2546  0.9979  0.1094
  360TMC3    O2 5400   3.597   1.227  11.846  0.5406 -0.1406 -0.3583
  361MPD2     C 5401   4.339   4.718  16.596  0.3321  0.1292 -0.3746
  361MPD2    C1 5402   4.263   4.714  16.709  0.1925 -0.1337 -0.8631
  361MPD2    C2 5403   4.320   4.657  16.821 -0.1533 -0.3445  0.3392
  361MPD2    C3 5404   4.450   4.611  16.827 -0.6192 -0.3473  0.1442
  361MPD2    C4 5405   4.524   4.618  16.711  0.4537  0.3425 -0.1789
  361MPD2    C5 5406   4.472   4.682  16.598 -0.5306  0.3034  0.0110
  361MPD2     H 5407   4.258   4.636  16.907  1.2409 -0.8020  1.2232
  361MPD2    H1 5408   4.619   4.565  16.705  0.3624  0.0823  0.6177
  361MPD2    H2 5409   4.303   0.023  16.499 -1.8612 -3.1763 -0.6007
  361MPD2    H3 5410   4.525   4.695  16.505 -1.5707  3.1989 -0.1758
  361MPD2     N 5411   4.494   4.518  16.918  0.7026 -0.0552  0.3463
  361MPD2    H5 5412   4.571   4.457  16.893 -0.5063 -1.7857  0.8784
  361MPD2    N1 5413   4.125   0.018  16.695  0.3198  0.6068  0.2139
  361MPD2    H7 5414   4.066   4.720  16.775  1.5568  1.1128  1.2662
  362TMC3    C1 5415   3.929   0.113  16.626 -0.1494 -1.0961 -0.4493
  362TMC3    C2 5416   3.858   0.025  16.707 -0.1895  0.0376  0.1604
  362TMC3    C3 5417   3.721   0.034  16.709  0.3435 -0.7383 -0.1366
  362TMC3    C4 5418   3.861   0.200  16.538  0.1089 -1.1236  0.2927
  362TMC3    C5 5419   3.726   0.214  16.555 -0.4368  0.0491 -0.0892
  362TMC3    C6 5420   3.652   0.135  16.641  0.5686 -0.9371 -0.5454
  362TMC3     C 5421   4.063   0.090  16.597  0.1984  0.3311 -0.0937
  362TMC3     O 5422   4.116   0.171  16.521  0.1848 -0.8641 -0.1906
  362TMC3     H 5423   3.902   4.677  16.775  0.4423 -0.0553 -0.3384
  362TMC3    H1 5424   3.907   0.268  16.468  0.3312 -0.3540  1.1955
  362TMC3    H2 5425   3.550   0.158  16.669  0.8038 -0.1550 -0.3326
  362TMC3    C7 5426   3.663   0.288  16.456  0.3039 -0.5043  0.2372
  362TMC3    C8 5427   3.657   4.679  16.814  0.0106 -0.3212  0.1861
  362TMC3    O1 5428   3.721   0.388  16.412 -0.6484  0.0265 -0.3135
  362TMC3    O2 5429   3.689   4.560  16.840 -0.0306 -0.5214  0.3089
  363TMC3    C1 5430   3.416   2.322   9.516  0.3685  0.2036 -0.0512
  363TMC3    C2 5431   3.505   2.227   9.551  0.2961 -0.1908 -0.8098
  363TMC3    C3 5432   3.451   2.104   9.578  0.1618  0.1443  0.1517
  363TMC3    C4 5433   3.278   2.311   9.525 -0.1899 -0.2202 -0.6832
  363TMC3    C5 5434   3.234   2.192   9.571  0.2571 -0.2906 -0.0400
  363TMC3    C6 5435   3.313   2.087   9.589 -0.2432  0.3255  0.2504
  363TMC3     C 5436   3.458   2.431   9.429 -0.7037  0.3794 -0.3156
  363TMC3     O 5437   3.385   2.531   9.431 -0.5432 -0.7137  0.5670
  363TMC3     H 5438   3.612   2.242   9.540  0.5096 -1.6361 -0.7054
  363TMC3    H1 5439   3.215   2.393   9.494  3.4700  2.9170  0.0835
  363TMC3    H2 5440   3.273   1.990   9.618  0.9386 -0.4062 -0.5871
  363TMC3    C7 5441   3.095   2.172   9.572 -0.3647  0.1312 -0.3181
  363TMC3    C8 5442   3.555   2.011   9.606  0.0051 -0.8669 -0.3453
  363TMC3    O1 5443   3.041   2.060   9.565 -0.4971 -1.0292  0.1682
  363TMC3    O2 5444   3.654   2.058   9.660  0.3070 -0.4484 -0.2726
  364MPD2     C 5445   1.899   1.958  11.015 -0.0385 -0.3504 -0.1103
  364MPD2    C1 5446   1.942   1.929  10.884 -1.3374 -0.2592  0.7408
  364MPD2    C2 5447   1.917   1.798  10.846 -0.1420  0.2168 -0.1215
  364MPD2    C3 5448   1.865   1.698  10.926  0.1102 -0.6332 -0.2498
  364MPD2    C4 5449   1.825   1.735  11.050 -0.1276 -0.1840  0.2483
  364MPD2    C5 5450   1.843   1.864  11.091  0.2682  0.1647  0.2006
  364MPD2     H 5451   1.953   1.755  10.753 -3.8126 -1.6287 -0.6977
  364MPD2    H1 5452   1.794   1.661  11.123  0.1717 -1.8472 -1.3075
  364MPD2    H2 5453   1.892   2.058  11.056  2.7945 -0.6447  1.0262
  364MPD2    H3 5454   1.823   1.886  11.196 -0.5513  1.0185 -0.1358
  364MPD2     N 5455   1.856   1.562  10.893  0.2265 -0.1128  0.1077
  364MPD2    H5 5456   1.837   1.496  10.969  0.0594 -1.3797 -1.0354
  364MPD2    N1 5457   2.006   2.028  10.801  0.4085 -0.7630  0.1221
  364MPD2    H7 5458   2.039   2.114  10.843 -1.2309 -0.6908  1.2454
  365TMC3    C1 5459   2.104   2.108  10.595 -0.1661 -0.3136  0.5130
  365TMC3    C2 5460   2.152   2.073  10.470 -0.1330 -0.3197  0.7034
  365TMC3    C3 5461   2.251   2.156  10.420  0.6080 -0.5406  0.4112
  365TMC3    C4 5462   2.132   2.229  10.651 -0.3265 -0.0009  0.1450
  365TMC3    C5 5463   2.226   2.312  10.590  0.4746  0.2814 -0.3752
  365TMC3    C6 5464   2.281   2.276  10.473  0.2714 -0.4162 -0.7687
  365TMC3     C 5465   2.030   2.002  10.667  0.7262  0.3166  0.0972
  365TMC3     O 5466   2.013   1.902  10.593 -0.5647  0.3720 -0.0129
  365TMC3     H 5467   2.126   1.982  10.417 -2.1128  0.4708  0.3537
  365TMC3    H1 5468   2.094   2.247  10.751  3.0267 -3.9249  2.1183
  365TMC3    H2 5469   2.352   2.345  10.428  1.3144 -1.0865 -0.1604
  365TMC3    C7 5470   2.245   2.447  10.635 -0.2053  0.0793 -0.5546
  365TMC3    C8 5471   2.351   2.091  10.346 -0.4987  0.4347 -0.0491
  365TMC3    O1 5472   2.301   2.522  10.555  0.4194 -0.6222 -0.0586
  365TMC3    O2 5473   2.459   2.145  10.335  0.1477 -0.1547  0.1164
  366MPD2     C 5474   4.087   2.397  15.358 -0.6071  0.4152  0.4790
  366MPD2    C1 5475   4.193   2.479  15.315 -0.1849  0.5481 -0.7929
  366MPD2    C2 5476   4.302   2.420  15.255  0.2810  0.6089  0.1499
  366MPD2    C3 5477   4.299   2.287  15.227 -0.0694  0.2578 -0.7921
  366MPD2    C4 5478   4.197   2.211  15.275 -0.3417  0.5100  0.4970
  366MPD2    C5 5479   4.092   2.264  15.334  0.5130  0.0460 -0.5872
  366MPD2     H 5480   4.393   2.474  15.229  0.5469  0.8487  1.5826
  366MPD2    H1 5481   4.193   2.103  15.269  1.1543  0.4668  0.4708
  366MPD2    H2 5482   3.996   2.435  15.403  1.2989  2.8323  2.3117
  366MPD2    H3 5483   4.006   2.202  15.359  0.2497  0.8082  0.3896
  366MPD2     N 5484   4.416   2.226  15.168 -0.5843 -0.1432  0.0943
  366MPD2    H5 5485   4.472   2.291  15.115 -2.0662  0.8242 -0.2657
  366MPD2    N1 5486   4.206   2.618  15.336 -0.7698  1.1396 -0.3665
  366MPD2    H7 5487   4.297   2.664  15.332  0.3255 -0.6724  3.8192
  367TMC3    C1 5488   4.142   2.840  15.367 -0.2515 -0.6777 -0.3453
  367TMC3    C2 5489   4.263   2.873  15.413  0.4767  0.5845  0.4234
  367TMC3    C3 5490   4.321   2.999  15.401 -0.7681  0.4363 -0.1678
  367TMC3    C4 5491   4.074   2.930  15.297  0.3348  0.9458 -0.2194
  367TMC3    C5 5492   4.129   3.056  15.282  0.6244  0.2589 -0.0585
  367TMC3    C6 5493   4.249   3.096  15.338 -0.0377  0.4582  0.4125
  367TMC3     C 5494   4.100   2.703  15.359 -0.0383 -0.8704  0.6700
  367TMC3     O 5495   3.978   2.683  15.360  0.2899 -0.3561  0.4531
  367TMC3     H 5496   4.301   2.807  15.491  0.3352 -0.3548 -0.2982
  367TMC3    H1 5497   3.976   2.909  15.255  1.2327 -2.9114 -0.4408
  367TMC3    H2 5498   4.287   3.194  15.309  0.9584  0.1048  0.5087
  367TMC3    C7 5499   4.068   3.130  15.173 -1.5185 -0.2379 -0.3822
  367TMC3    C8 5500   4.446   3.040  15.477  0.8686 -0.5038 -0.4733
  367TMC3    O1 5501   4.060   3.251  15.185  0.0788 -0.0044 -0.0390
  367TMC3    O2 5502   4.458   3.155  15.514  0.2285 -0.2898  0.0454
  368MPD2     C 5503   1.235   4.688  13.116 -0.1026  0.0014 -0.0133
  368MPD2    C1 5504   1.242   0.022  12.988 -0.1801  0.1223  0.7402
  368MPD2    C2 5505   1.362   0.064  12.935 -0.5175  1.0649 -0.0592
  368MPD2    C3 5506   1.480   0.050  13.009  0.6481  0.2085  0.2852
  368MPD2    C4 5507   1.478   4.721  13.141  0.0258 -0.7272  0.1964
  368MPD2    C5 5508   1.354   4.684  13.194  1.5686 -0.2641 -0.1822
  368MPD2     H 5509   1.374   0.130  12.850 -0.0293  1.5170  0.3609
  368MPD2    H1 5510   1.567   4.717  13.202  0.7712  1.2625 -0.7637
  368MPD2    H2 5511   1.146   4.640  13.154  0.0217  1.5804  2.2365
  368MPD2    H3 5512   1.334   4.641  13.291 -0.2833  0.2514 -0.3285
  368MPD2     N 5513   1.605   0.071  12.948 -0.3446  0.3194 -0.2957
  368MPD2    H5 5514   1.690   0.070  13.003 -0.3175 -1.9555 -0.3945
  368MPD2    N1 5515   1.112   0.049  12.926  0.5041 -0.2437 -0.4959
  368MPD2    H7 5516   1.028   0.022  12.975 -0.2995  1.5601 -0.8701
  369TMC3    C1 5517   0.977   0.180  12.807 -0.7829 -0.3071 -0.3732
  369TMC3    C2 5518   0.986   0.314  12.819  0.1226  0.0177 -0.4425
  369TMC3    C3 5519   0.880   0.382  12.880 -0.3558 -0.0450  0.5809
  369TMC3    C4 5520   0.868   0.110  12.851  0.1730  0.1190  0.2983
  369TMC3    C5 5521   0.769   0.181  12.909  0.0448 -0.3838  0.2834
  369TMC3    C6 5522   0.775   0.315  12.929 -0.7477  0.3043  0.4822
  369TMC3     C 5523   1.098   0.104  12.808 -0.1026 -0.0303 -0.1676
  369TMC3     O 5524   1.175   0.132  12.713 -0.1939  0.2474 -0.1505
  369TMC3     H 5525   1.073   0.371  12.787 -0.6738  1.8876  0.7121
  369TMC3    H1 5526   0.868   0.003  12.831  0.8390 -0.1165  1.6213
  369TMC3    H2 5527   0.706   0.381  12.981 -1.3728 -0.3217  0.4483
  369TMC3    C7 5528   0.638   0.125  12.953  0.8685 -0.0658 -0.3958
  369TMC3    C8 5529   0.887   0.532  12.872  0.6553  0.1891  0.4902
  369TMC3    O1 5530   0.543   0.199  12.968  0.2470  0.5220 -0.5919
  369TMC3    O2 5531   0.983   0.583  12.818  0.3046  0.3631 -0.4038
  370TMC3    C1 5532   0.599   0.823  16.296  0.5208 -0.1060 -0.3540
  370TMC3    C2 5533   0.528   0.777  16.404  0.0556 -0.4435  0.2483
  370TMC3    C3 5534   0.442   0.681  16.378  0.2983 -0.8178  0.6489
  370TMC3    C4 5535   0.597   0.778  16.172 -0.2752  0.7955 -0.4940
  370TMC3    C5 5536   0.520   0.674  16.156  0.4036  0.6753 -0.0809
  370TMC3    C6 5537   0.439   0.621  16.255  0.9113  0.1639 -0.0690
  370TMC3     C 5538   0.719   0.903  16.343  0.0118 -0.0594  0.4152
  370TMC3     O 5539   0.761   0.887  16.462  0.0441 -0.6798 -0.1298
  370TMC3     H 5540   0.551   0.831  16.495  2.5116  2.8072 -2.2664
  370TMC3    H1 5541   0.665   0.815  16.095  0.4059  0.5311 -0.0189
  370TMC3    H2 5542   0.375   0.536  16.237  0.1037  0.4368  1.5525
  370TMC3    C7 5543   0.543   0.604  16.038 -0.4060  0.1648  1.0524
  370TMC3    C8 5544   0.363   0.609  16.482  0.8094 -0.2304  0.0317
  370TMC3    O1 5545   0.522   0.667  15.934  0.3905 -0.4905  0.0951
  370TMC3    O2 5546   0.310   0.500  16.464  0.5413 -0.4610 -0.3777
  371TMC3    C1 5547   1.563   3.611  15.392 -0.1197 -0.2713  0.3610
  371TMC3    C2 5548   1.454   3.621  15.474  0.4253 -0.3905 -0.3539
  371TMC3    C3 5549   1.410   3.746  15.518  0.4483 -1.1099 -0.3912
  371TMC3    C4 5550   1.629   3.726  15.366  0.1399  0.1217  0.1250
  371TMC3    C5 5551   1.596   3.839  15.441 -0.3061 -0.3702  0.3138
  371TMC3    C6 5552   1.483   3.859  15.504  0.3826  0.1563 -0.1197
  371TMC3     C 5553   1.664   3.514  15.434  0.1075 -0.1151  0.0945
  371TMC3     O 5554   1.777   3.544  15.412  0.1322  0.3964  0.2614
  371TMC3     H 5555   1.393   3.535  15.496 -0.6935  0.0442 -1.7319
  371TMC3    H1 5556   1.701   3.726  15.285 -0.6333 -1.5592 -0.5635
  371TMC3    H2 5557   1.493   3.943  15.572 -0.8928 -0.8171  1.2463
  371TMC3    C7 5558   1.688   3.951  15.443 -0.3151 -0.2489  0.2236
  371TMC3    C8 5559   1.304   3.743  15.615 -0.4859 -0.1523 -0.0076
  371TMC3    O1 5560   1.648   4.067  15.454 -0.3700 -0.6952 -0.9790
  371TMC3    O2 5561   1.294   3.640  15.678 -0.5278 -0.0030  0.3474
  372MPD2     C 5562   0.815   0.231  13.307  0.1006 -0.5709 -0.4202
  372MPD2    C1 5563   0.929   0.152  13.327  0.4087 -0.5996  0.0848
  372MPD2    C2 5564   0.915   0.023  13.375 -0.3426 -0.0474 -0.3726
  372MPD2    C3 5565   0.794   4.692  13.398 -0.2910 -0.3631 -1.0294
  372MPD2    C4 5566   0.683   0.048  13.385 -0.7647  0.2609 -0.1906
  372MPD2    C5 5567   0.690   0.176  13.340 -0.2650 -0.3306 -0.2843
  372MPD2     H 5568   1.003   4.686  13.383 -0.4382 -0.2590 -0.9849
  372MPD2    H1 5569   0.587   0.018  13.424  0.5367  0.4712  3.2030
  372MPD2    H2 5570   0.813   0.334  13.274 -1.2542 -0.6180 -0.5005
  372MPD2    H3 5571   0.596   0.229  13.339 -0.9014 -1.4060  1.2294
  372MPD2     N 5572   0.773   4.560  13.438 -0.4928 -0.1054  0.1129
  372MPD2    H5 5573   0.682   4.528  13.467  0.0074 -1.7965 -0.1891
  372MPD2    N1 5574   1.059   0.196  13.294 -0.0365  0.2196 -0.0996
  372MPD2    H7 5575   1.140   0.153  13.338 -0.5217  1.0735  1.6264
  373TMC3    C1 5576   0.834   4.326  13.460  0.4848 -0.1067  0.1183
  373TMC3    C2 5577   0.743   4.314  13.561  0.5767 -0.1217  0.1078
  373TMC3    C3 5578   0.746   4.194  13.630 -0.3155 -0.3698  0.5488
  373TMC3    C4 5579   0.906   4.224  13.416  0.1841 -0.5902 -0.1016
  373TMC3    C5 5580   0.901   4.101  13.478 -0.2417 -0.6152 -0.1813
  373TMC3    C6 5581   0.821   4.089  13.587  0.2984  0.1659  0.1717
  373TMC3     C 5582   0.852   4.454  13.390 -0.6284  0.8552 -0.3405
  373TMC3     O 5583   0.936   4.457  13.302  0.2060  0.3584  0.3039
  373TMC3     H 5584   0.690   4.402  13.597 -0.0321 -0.2658 -0.4542
  373TMC3    H1 5585   0.965   4.234  13.325 -1.8328  0.5691 -1.3085
  373TMC3    H2 5586   0.814   3.992  13.637 -2.3451  0.9775  1.4024
  373TMC3    C7 5587   1.037   4.052  13.502  0.2398 -0.1127  0.5785
  373TMC3    C8 5588   0.761   4.205  13.776 -0.4617  0.5033 -0.6801
  373TMC3    O1 5589   1.115   4.029  13.409 -0.2580  0.8601  0.3497
  373TMC3    O2 5590   0.864   4.167  13.826 -0.2245  0.3511 -0.0016
  374TMC3    C1 5591   2.332   4.487   9.631  0.5317 -0.0106  0.4773
  374TMC3    C2 5592   2.272   4.605   9.652 -0.3477 -0.0246 -0.4114
  374TMC3    C3 5593   2.153   4.604   9.720  0.6993 -0.6805 -0.3681
  374TMC3    C4 5594   2.268   4.364   9.666 -0.7290 -0.4910  0.5236
  374TMC3    C5 5595   2.148   4.367   9.717  0.0968 -0.2189  0.3538
  374TMC3    C6 5596   2.093   4.487   9.749 -0.0303 -0.5596  0.5449
  374TMC3     C 5597   2.471   4.480   9.596  0.3534 -0.4174  0.3113
  374TMC3     O 5598   2.522   4.371   9.617  0.1096  0.2823  0.3706
  374TMC3     H 5599   2.315   4.695   9.609  0.1580 -0.2173 -0.2977
  374TMC3    H1 5600   2.328   4.276   9.646  0.7091  0.8972 -1.3098
  374TMC3    H2 5601   1.991   4.485   9.785 -0.2610  0.3057 -0.0642
  374TMC3    C7 5602   2.088   4.236   9.729 -0.7288  0.5212  0.5519
  374TMC3    C8 5603   2.061   4.717   9.721 -0.7916 -0.4609  0.0253
  374TMC3    O1 5604   2.164   4.140   9.725  0.0397  0.2270 -0.4083
  374TMC3    O2 5605   1.942   4.708   9.708  0.3491  0.0960 -0.0364
  375MPD2     C 5606   1.868   1.783  16.764 -0.4169  0.1307  0.1048
  375MPD2    C1 5607   1.790   1.681  16.713  0.4445  0.5738 -0.6285
  375MPD2    C2 5608   1.838   1.609  16.609  0.2481 -0.3280 -0.5732
  375MPD2    C3 5609   1.966   1.625  16.557  0.3791  0.6993 -0.0355
  375MPD2    C4 5610   2.053   1.716  16.622  0.1684  0.3406 -0.5852
  375MPD2    C5 5611   1.999   1.792  16.726 -0.4392 -0.7787 -0.0559
  375MPD2     H 5612   1.763   1.538  16.576  0.5906 -1.9186  2.1237
  375MPD2    H1 5613   2.156   1.727  16.590  0.3070  0.6454 -0.0275
  375MPD2    H2 5614   1.842   1.854  16.842 -0.3246 -0.2163  0.4546
  375MPD2    H3 5615   2.053   1.861  16.791 -0.7817  0.5180 -1.1602
  375MPD2     N 5616   2.019   1.540  16.459 -0.2478 -0.6431 -0.2329
  375MPD2    H5 5617   2.117   1.549  16.435 -0.7741 -0.3607 -2.2368
  375MPD2    N1 5618   1.666   1.637  16.771  0.1813 -0.2403 -0.1285
  375MPD2    H7 5619   1.619   1.562  16.721  1.3099 -0.9068 -0.1873
  376TMC3    C1 5620   2.032   1.371  16.301  0.5047  0.0579 -0.7236
  376TMC3    C2 5621   2.164   1.358  16.325 -0.1787 -0.8375  0.1044
  376TMC3    C3 5622   2.226   1.271  16.239 -0.0952 -0.0589 -0.5181
  376TMC3    C4 5623   1.963   1.298  16.209 -0.0465  0.2946  0.2548
  376TMC3    C5 5624   2.030   1.204  16.138 -0.2901 -0.0649  1.1850
  376TMC3    C6 5625   2.165   1.193  16.144  0.1921  0.4389  0.1655
  376TMC3     C 5626   1.950   1.447  16.396  0.1017 -0.6842  0.0706
  376TMC3     O 5627   1.832   1.427  16.402 -0.4635 -0.0033  0.1009
  376TMC3     H 5628   2.223   1.410  16.400  0.9007 -0.3671 -1.0655
  376TMC3    H1 5629   1.857   1.320  16.199 -0.1347 -0.4015 -0.3085
  376TMC3    H2 5630   2.219   1.117  16.091  0.2645  0.6974 -0.1283
  376TMC3    C7 5631   1.958   1.159  16.021  0.4604 -0.2070 -0.7351
  376TMC3    C8 5632   2.365   1.251  16.258  0.0980  0.4941  0.1280
  376TMC3    O1 5633   2.028   1.104  15.938  0.9657  0.1693 -0.3507
  376TMC3    O2 5634   2.431   1.349  16.299 -0.5362 -0.1455 -0.0026
  377MPD2     C 5635   3.878   0.536  11.948 -0.0120 -0.4024  0.5805
  377MPD2    C1 5636   3.953   0.529  12.069  0.0369 -0.5260 -0.0908
  377MPD2    C2 5637   3.883   0.497  12.190  0.1955 -0.3673  0.3068
  377MPD2    C3 5638   3.749   0.487  12.188  0.6707  0.5909  0.2168
  377MPD2    C4 5639   3.679   0.510  12.074 -0.2804  0.1836 -0.3297
  377MPD2    C5 5640   3.742   0.536  11.959 -0.1439 -0.3195  0.4257
  377MPD2     H 5641   3.946   0.493  12.278  0.2609 -0.3845  0.2598
  377MPD2    H1 5642   3.572   0.523  12.074 -0.5035 -1.6130  0.1150
  377MPD2    H2 5643   3.917   0.542  11.847 -0.7616  0.7825  0.3615
  377MPD2    H3 5644   3.679   0.557  11.874  0.8229 -0.3706 -0.3072
  377MPD2     N 5645   3.673   0.450  12.298  0.0998  0.2855  1.1778
  377MPD2    H5 5646   3.573   0.455  12.281  0.1924 -0.3205  0.4356
  377MPD2    N1 5647   4.097   0.541  12.055  0.2114 -0.4824  0.0636
  377MPD2    H7 5648   4.138   0.557  11.964  1.4289 -0.7568  0.5620
  378TMC3    C1 5649   4.522   0.466  12.020  0.2601  0.0859  0.0091
  378TMC3    C2 5650   4.381   0.468  12.027  0.7961 -0.3618  0.3335
  378TMC3    C3 5651   4.322   0.553  12.114 -0.0207  0.1412  0.1135
  378TMC3    C4 5652   4.598   0.553  12.095 -0.3196  0.1606  1.1393
  378TMC3    C5 5653   4.530   0.639  12.182  0.1971  1.2810  0.5454
  378TMC3    C6 5654   4.394   0.631  12.199 -0.3546 -0.0852  0.4946
  378TMC3     C 5655   4.579   0.374  11.925 -0.6517 -0.4559 -0.1155
  378TMC3     O 5656   4.510   0.325  11.836  0.3707  0.2640  0.4763
  378TMC3     H 5657   4.317   0.404  11.969  2.2252 -0.1382 -1.4889
  378TMC3    H1 5658   4.706   0.559  12.086 -0.4061  3.5252  2.1582
  378TMC3    H2 5659   4.344   0.700  12.266  0.7482  0.0867  1.1403
  378TMC3    C7 5660   4.603   0.707  12.293 -0.4604 -0.2381 -0.5478
  378TMC3    C8 5661   4.186   0.541  12.161 -0.6142  0.6972  0.6012
  378TMC3    O1 5662   4.548   0.780  12.370 -0.7487 -0.0522  0.3648
  378TMC3    O2 5663   4.162   0.545  12.284 -0.7309  0.3088 -0.5994
  379MPD2     C 5664   0.825   3.341  16.058  0.5256 -0.4032 -1.0093
  379MPD2    C1 5665   0.717   3.293  16.129  0.3291  0.3583 -0.6375
  379MPD2    C2 5666   0.730   3.172  16.199 -0.9232  0.2021 -0.5016
  379MPD2    C3 5667   0.849   3.111  16.211 -0.2846  0.3471 -0.0139
  379MPD2    C4 5668   0.949   3.152  16.124  0.0366  0.4008  0.4115
  379MPD2    C5 5669   0.937   3.264  16.049  0.4528 -0.0369 -0.4401
  379MPD2     H 5670   0.642   3.136  16.252  1.0152 -0.3369  2.3295
  379MPD2    H1 5671   1.037   3.091  16.108 -0.7997 -0.8835  0.7109
  379MPD2    H2 5672   0.821   3.427  15.992 -0.4105 -0.8237 -1.4928
  379MPD2    H3 5673   1.017   3.293  15.981 -1.1443  1.8724 -1.5223
  379MPD2     N 5674   0.878   2.998  16.298  0.2032 -0.5121  0.5903
  379MPD2    H5 5675   0.973   2.966  16.313  1.3146  1.4748 -2.0945
  379MPD2    N1 5676   0.597   3.365  16.116  0.2254  0.0327 -0.3076
  379MPD2    H7 5677   0.597   3.434  16.042  2.1152 -1.8914 -2.0987
  380TMC3    C1 5678   0.361   3.357  16.126  0.4309  0.1107 -0.4685
  380TMC3    C2 5679   0.251   3.359  16.214  0.1798 -0.5752  0.9211
  380TMC3    C3 5680   0.138   3.296  16.176 -0.3875  0.3651 -0.1835
  380TMC3    C4 5681   0.343   3.274  16.013 -0.3272 -0.0634  0.5738
  380TMC3    C5 5682   0.223   3.230  15.978  0.0839 -0.0472 -0.1099
  380TMC3    C6 5683   0.111   3.244  16.053  0.0599 -0.0577 -0.6415
  380TMC3     C 5684   0.486   3.343  16.198 -0.3702  0.3530 -0.9374
  380TMC3     O 5685   0.484   3.344  16.320 -0.0523  0.0608  0.2534
  380TMC3     H 5686   0.258   3.402  16.313 -0.6224  1.9779 -0.1283
  380TMC3    H1 5687   0.421   3.271  15.938 -0.6905  2.1003  0.1237
  380TMC3    H2 5688   0.021   3.184  16.039  2.4154 -3.9237  0.7207
  380TMC3    C7 5689   0.221   3.129  15.878 -0.3793 -0.1110  0.6603
  380TMC3    C8 5690   0.033   3.308  16.278  0.7470  0.4961 -0.0342
  380TMC3    O1 5691   0.328   3.086  15.832 -0.1098  0.1856 -0.0571
  380TMC3    O2 5692   0.028   3.414  16.336 -0.4502  0.6590  0.0808
  381TMC3    C1 5693   0.401   4.567  16.251 -0.0755  0.0435  0.5969
  381TMC3    C2 5694   0.408   4.703  16.237 -0.3096  0.4889 -0.5391
  381TMC3    C3 5695   0.372   0.052  16.350 -0.2120  0.4732 -0.6740
  381TMC3    C4 5696   0.366   4.512  16.373 -0.6491 -0.2225  0.5591
  381TMC3    C5 5697   0.322   4.588  16.478 -0.4121  0.3655 -0.0507
  381TMC3    C6 5698   0.341   4.720  16.474 -0.1227 -0.2732 -0.2161
  381TMC3     C 5699   0.413   4.484  16.139 -0.1200  0.0842  1.1019
  381TMC3     O 5700   0.448   4.545  16.038 -0.2918  0.0377  0.0905
  381TMC3     H 5701   0.435   0.024  16.143  1.5067  0.2484 -0.1450
  381TMC3    H1 5702   0.362   4.404  16.384 -0.2154 -0.2561  0.3910
  381TMC3    H2 5703   0.298   0.050  16.558 -2.1539 -1.4984 -0.4632
  381TMC3    C7 5704   0.277   4.530  16.604  1.1150  0.0657  0.1110
  381TMC3    C8 5705   0.426   0.185  16.343  0.4730 -0.3822  0.1868
  381TMC3    O1 5706   0.299   4.413  16.621 -0.7015  0.3249  0.3562
  381TMC3    O2 5707   0.440   0.231  16.232 -0.2864  0.4587 -0.0756
  382MPD2     C 5708   4.267   2.287  17.150 -0.4067  0.5312  0.2280
  382MPD2    C1 5709   4.262   2.341  17.278  0.3691  0.0073  0.7042
  382MPD2    C2 5710   4.224   2.259  17.380 -0.1073 -0.3866 -0.3120
  382MPD2    C3 5711   4.221   2.117  17.361 -0.0274 -0.5886  0.3843
  382MPD2    C4 5712   4.264   2.065  17.239  0.2242 -0.1028  0.6657
  382MPD2    C5 5713   4.280   2.150  17.136  0.4889 -0.5739  0.5832
  382MPD2     H 5714   4.192   2.297  17.476 -1.9386  0.9079 -1.4337
  382MPD2    H1 5715   4.241   1.960  17.222  2.4000 -0.2744 -1.2639
  382MPD2    H2 5716   4.261   2.354  17.065  0.8642 -1.3619 -1.3479
  382MPD2    H3 5717   4.274   2.112  17.035  3.2283 -2.2210  1.0623
  382MPD2     N 5718   4.169   2.022  17.451  0.0661  0.3660 -0.3752
  382MPD2    H5 5719   4.188   1.923  17.437  0.4819  0.4583 -0.4555
  382MPD2    N1 5720   4.264   2.477  17.303 -0.0423 -0.2864  0.5965
  382MPD2    H7 5721   4.239   2.513  17.394 -0.5078 -1.2838  0.8699
  383TMC3    C1 5722   4.021   1.939  17.604 -0.2397 -0.0641  0.0709
  383TMC3    C2 5723   4.017   1.831  17.518  0.2023 -0.0285 -0.0477
  383TMC3    C3 5724   3.972   1.716  17.575 -0.2637 -0.3356 -0.1515
  383TMC3    C4 5725   3.977   1.934   0.032  0.7924  0.7256 -0.2355
  383TMC3    C5 5726   3.944   1.813   0.082 -0.5537 -0.8393  0.6060
  383TMC3    C6 5727   3.939   1.701   0.004  0.6881 -0.2836 -0.3814
  383TMC3     C 5728   4.090   2.054  17.560 -0.3754 -0.1675  0.2698
  383TMC3     O 5729   4.056   2.158  17.617  0.6811  0.1710 -0.3818
  383TMC3     H 5730   4.015   1.832  17.409 -0.8269 -0.0589 -0.0291
  383TMC3    H1 5731   3.978   2.023   0.092 -0.7489 -1.1660  2.5736
  383TMC3    H2 5732   3.925   1.601   0.041  3.3244  0.8678  3.6563
  383TMC3    C7 5733   3.893   1.799   0.212 -0.3300 -0.1248 -0.2054
  383TMC3    C8 5734   3.888   1.640  17.493  0.5057  0.1659 -0.3216
  383TMC3    O1 5735   3.911   1.690   0.268 -0.5098 -0.3502  0.5267
  383TMC3    O2 5736   3.786   1.688  17.449  0.2414 -0.7484 -0.7344
  384MPD2     C 5737   1.666   3.830  12.232 -0.1175 -0.6615  0.1595
  384MPD2    C1 5738   1.666   3.769  12.355  0.4495  0.3926 -0.1495
  384MPD2    C2 5739   1.778   3.699  12.395 -0.0878  0.0872  0.4438
  384MPD2    C3 5740   1.871   3.674  12.300 -0.1434 -0.3485 -0.2677
  384MPD2    C4 5741   1.861   3.725  12.173 -0.1303  0.1979 -0.6263
  384MPD2    C5 5742   1.755   3.800  12.134  0.0138  0.3768 -1.3381
  384MPD2     H 5743   1.793   3.659  12.495 -1.1713 -0.2113  0.4836
  384MPD2    H1 5744   1.935   3.697  12.099  1.3343 -1.2833  1.3909
  384MPD2    H2 5745   1.592   3.903  12.202  0.4849  0.4881  1.5049
  384MPD2    H3 5746   1.752   3.842  12.034  0.8548  0.9666 -1.1105
  384MPD2     N 5747   1.975   3.587  12.327 -0.3868 -0.3529 -0.5767
  384MPD2    H5 5748   2.053   3.603  12.264 -1.2145  0.5301 -1.3849
  384MPD2    N1 5749   1.566   3.783  12.456  0.9231  0.3698 -0.9405
  384MPD2    H7 5750   1.578   3.731  12.543  0.7245 -0.2157 -1.2572
  385TMC3    C1 5751   2.085   3.390  12.401 -0.0501 -0.9544  0.5496
  385TMC3    C2 5752   2.130   3.378  12.270  0.3312  0.2995  0.2091
  385TMC3    C3 5753   2.105   3.254  12.200  0.2494  0.2735  0.3697
  385TMC3    C4 5754   2.039   3.280  12.457 -0.0980  0.0022 -0.2728
  385TMC3    C5 5755   2.020   3.161  12.397  0.0413  0.5816  0.1289
  385TMC3    C6 5756   2.047   3.149  12.263 -0.0079 -0.1456 -0.6827
  385TMC3     C 5757   1.976   3.489  12.422  0.7393  0.0360 -0.1752
  385TMC3     O 5758   1.898   3.466  12.517 -0.6868 -0.0240  0.4016
  385TMC3     H 5759   2.174   3.463  12.221 -1.7465  0.1668 -1.8579
  385TMC3    H1 5760   2.041   3.278  12.566  1.4626 -0.7879 -0.3190
  385TMC3    H2 5761   2.021   3.054  12.218 -0.3490 -0.6264  0.5402
  385TMC3    C7 5762   1.899   3.096  12.445  0.7874  0.1464 -0.1784
  385TMC3    C8 5763   2.167   3.250  12.072 -0.2508 -0.3444  0.1297
  385TMC3    O1 5764   1.881   2.983  12.402  0.0362 -0.0866 -0.6216
  385TMC3    O2 5765   2.242   3.341  12.047 -0.8476 -0.1502  0.5302
  386TMC3    C1 5766   1.599   0.978  11.790 -0.2752 -0.1989 -0.8288
  386TMC3    C2 5767   1.528   0.950  11.674 -0.4174  0.1385 -0.6345
  386TMC3    C3 5768   1.407   1.015  11.656 -0.6720  0.2977 -0.2487
  386TMC3    C4 5769   1.536   1.057  11.885  0.8245 -0.4364  0.5600
  386TMC3    C5 5770   1.418   1.113  11.865 -0.1662 -0.5864 -0.3540
  386TMC3    C6 5771   1.349   1.096  11.750 -0.6261 -0.0496 -0.0120
  386TMC3     C 5772   1.744   0.982  11.801 -0.3295 -0.1110 -0.3395
  386TMC3     O 5773   1.797   1.049  11.888 -0.0143 -0.8996 -0.0247
  386TMC3     H 5774   1.567   0.899  11.586  0.0848  0.6817 -0.7266
  386TMC3    H1 5775   1.585   1.066  11.982 -0.5669  0.2008  1.2083
  386TMC3    H2 5776   1.246   1.130  11.749  0.4945  3.3718  1.7540
  386TMC3    C7 5777   1.357   1.174  11.978 -0.2091 -0.0472  0.1666
  386TMC3    C8 5778   1.331   0.982  11.537  0.3227  0.3178 -0.7289
  386TMC3    O1 5779   1.390   1.137  12.090 -0.0654 -0.0761 -0.2632
  386TMC3    O2 5780   1.394   0.931  11.443  0.0963 -0.5474  0.1640
  387MPD2     C 5781   4.140   0.686   9.459  0.6218  0.0094 -0.8787
  387MPD2    C1 5782   4.246   0.712   9.546 -1.1365 -0.4739  1.0885
  387MPD2    C2 5783   4.325   0.608   9.587 -0.4951  0.0011  0.3120
  387MPD2    C3 5784   4.299   0.476   9.548 -0.4864 -0.5915  0.4865
  387MPD2    C4 5785   4.194   0.453   9.468  1.0852 -0.3097 -0.1595
  387MPD2    C5 5786   4.116   0.556   9.417  0.0755  0.2932  0.3234
  387MPD2     H 5787   4.405   0.622   9.658  2.2515  0.6850 -2.9046
  387MPD2    H1 5788   4.171   0.350   9.441  1.6095 -0.2037 -1.0174
  387MPD2    H2 5789   4.072   0.763   9.426  1.0288  0.0865 -1.5463
  387MPD2    H3 5790   4.030   0.530   9.356 -1.9513  1.8260  2.5152
  387MPD2     N 5791   4.378   0.371   9.603 -0.4809  0.3397 -0.1439
  387MPD2    H5 5792   4.448   0.406   9.667  0.5724 -0.1661 -1.0231
  387MPD2    N1 5793   4.259   0.838   9.600  0.6660  0.2374  0.2555
  387MPD2    H7 5794   4.331   0.851   9.670  1.5070 -3.6807  0.1130
  388TMC3    C1 5795   4.216   1.027   9.707 -0.5692  0.4037 -0.1007
  388TMC3    C2 5796   4.197   1.160   9.702  0.0775 -0.4439 -0.1196
  388TMC3    C3 5797   4.213   1.236   9.820  0.1462 -0.1100 -0.0840
  388TMC3    C4 5798   4.223   0.965   9.833 -0.2451 -0.5494  0.3266
  388TMC3    C5 5799   4.242   1.041   9.945 -0.4089  0.6049  0.5935
  388TMC3    C6 5800   4.250   1.178   9.940  0.4416  0.0595  0.0844
  388TMC3     C 5801   4.187   0.953   9.588  0.4358  0.7588  0.2097
  388TMC3     O 5802   4.085   0.984   9.531 -0.5471  0.5701  0.0354
  388TMC3     H 5803   4.178   1.206   9.606 -1.8274 -0.2008  0.3798
  388TMC3    H1 5804   4.213   0.857   9.839  1.0914 -0.7132 -0.2237
  388TMC3    H2 5805   4.256   1.236  10.032 -0.3975  0.2840 -0.0003
  388TMC3    C7 5806   4.290   0.970  10.060 -0.4824  0.1626 -0.2600
  388TMC3    C8 5807   4.226   1.382   9.823  0.7253  0.3688  0.5144
  388TMC3    O1 5808   4.265   1.009  10.171  0.2435  0.6191  0.2745
  388TMC3    O2 5809   4.262   1.434   9.931 -0.0174 -0.7019  0.2400
  389MPD2     C 5810   3.570   3.954  10.513  0.1715  0.0891  0.7321
  389MPD2    C1 5811   3.532   3.823  10.527  0.0541 -0.0471 -0.5384
  389MPD2    C2 5812   3.504   3.772  10.651 -0.4348 -0.1525 -0.4180
  389MPD2    C3 5813   3.515   3.859  10.762  0.1112 -0.4918 -0.4411
  389MPD2    C4 5814   3.562   3.985  10.743 -0.3911  0.4510  0.2246
  389MPD2    C5 5815   3.603   4.029  10.619  0.0046  0.2126 -0.5781
  389MPD2     H 5816   3.484   3.666  10.664  0.3588 -0.1131  1.0736
  389MPD2    H1 5817   3.589   4.048  10.827 -2.2693 -0.2259  1.3243
  389MPD2    H2 5818   3.580   3.997  10.414 -0.2168 -0.2297  0.5554
  389MPD2    H3 5819   3.655   4.124  10.615 -2.0394  1.3515  0.0976
  389MPD2     N 5820   3.489   3.822  10.896 -0.0896  0.3934 -0.1546
  389MPD2    H5 5821   3.522   3.889  10.965  0.3650  1.0804 -1.0417
  389MPD2    N1 5822   3.518   3.753  10.407  0.9931  0.4819  0.0337
  389MPD2    H7 5823   3.546   3.813  10.331 -0.2094  1.5127  0.4040
  390TMC3    C1 5824   3.405   3.691  11.072  0.0220  1.0439  0.1735
  390TMC3    C2 5825   3.413   3.568  11.125 -0.2653 -0.6641 -0.2247
  390TMC3    C3 5826   3.375   3.554  11.255  0.1887 -0.0399 -0.0334
  390TMC3    C4 5827   3.341   3.798  11.138 -0.0505 -0.2570  0.5468
  390TMC3    C5 5828   3.284   3.772  11.261  0.1400 -0.1160 -0.0696
  390TMC3    C6 5829   3.306   3.651  11.326 -0.2870  0.7224 -0.3970
  390TMC3     C 5830   3.421   3.705  10.929 -0.7082 -0.5225 -0.3980
  390TMC3     O 5831   3.366   3.625  10.857 -0.0192 -0.0436 -0.7450
  390TMC3     H 5832   3.460   3.488  11.068 -1.8403 -1.2516 -0.6809
  390TMC3    H1 5833   3.322   3.886  11.079 -0.4336  0.0972  1.1917
  390TMC3    H2 5834   3.274   3.639  11.429 -0.7848 -0.8665 -0.7404
  390TMC3    C7 5835   3.180   3.860  11.318 -0.4116 -0.6360  0.1121
  390TMC3    C8 5836   3.384   3.419  11.311 -0.1003  0.4864  1.0445
  390TMC3    O1 5837   3.170   3.973  11.272 -0.2115 -0.2510  0.1287
  390TMC3    O2 5838   3.388   3.326  11.230  0.2088  0.5274 -0.3902
  391MPD2     C 5839   2.448   0.302  10.939  0.3990 -0.0037 -0.5233
  391MPD2    C1 5840   2.545   0.401  10.906 -0.4706 -0.8618 -0.2163
  391MPD2    C2 5841   2.550   0.460  10.784  0.6011  0.5869  0.0613
  391MPD2    C3 5842   2.458   0.427  10.687 -0.6588  0.9152 -0.5662
  391MPD2    C4 5843   2.356   0.334  10.718  0.1874 -0.2059 -0.1666
  391MPD2    C5 5844   2.348   0.279  10.846 -0.1908 -0.0694  0.4710
  391MPD2     H 5845   2.625   0.536  10.764  1.6944 -0.4296  0.2984
  391MPD2    H1 5846   2.282   0.300  10.647  0.1969  1.0626 -0.7938
  391MPD2    H2 5847   2.439   0.250  11.034 -0.7821 -1.0517 -1.2088
  391MPD2    H3 5848   2.272   0.206  10.870 -0.5894  0.7168  1.6233
  391MPD2     N 5849   2.478   0.485  10.563 -0.1684 -0.7573  0.1196
  391MPD2    H5 5850   2.569   0.522  10.538 -0.1817 -1.1008 -0.4273
  391MPD2    N1 5851   2.637   0.421  11.013 -0.6171 -0.1673 -0.2465
  391MPD2    H7 5852   2.623   0.363  11.094  1.3494 -0.7395 -0.3197
  392TMC3    C1 5853   2.410   0.586  10.356 -0.2241 -0.5097 -0.0758
  392TMC3    C2 5854   2.326   0.584  10.248  0.1319  0.3713  1.3124
  392TMC3    C3 5855   2.380   0.606  10.131  0.5649  0.1639 -0.4311
  392TMC3    C4 5856   2.541   0.629  10.349 -0.5749 -0.3117 -0.2516
  392TMC3    C5 5857   2.590   0.660  10.224 -0.0332 -0.0347  0.5716
  392TMC3    C6 5858   2.513   0.638  10.111  0.3703  0.0962 -0.1202
  392TMC3     C 5859   2.371   0.510  10.478 -0.4316 -0.1004  0.3044
  392TMC3     O 5860   2.251   0.493  10.496 -0.2169 -0.0102 -0.3724
  392TMC3     H 5861   2.232   0.529  10.243  1.0895 -1.0999 -0.5041
  392TMC3    H1 5862   2.603   0.658  10.434 -1.2572  1.0308 -0.2169
  392TMC3    H2 5863   2.545   0.645  10.008  0.1299 -2.6744 -0.3910
  392TMC3    C7 5864   2.715   0.729  10.215  0.0547 -0.5057 -0.1640
  392TMC3    C8 5865   2.329   0.521  10.024  0.5667  1.4720  0.4330
  392TMC3    O1 5866   2.774   0.744  10.322  0.0290 -0.3302  0.0281
  392TMC3    O2 5867   2.413   0.456   9.967 -0.6239 -0.0295  0.3592
  393TMC3    C1 5868   1.606   3.215  10.596  0.3718 -0.0417 -0.5373
  393TMC3    C2 5869   1.499   3.186  10.673 -0.0166 -0.3115  0.2635
  393TMC3    C3 5870   1.517   3.190  10.811 -0.2039 -0.2572  0.0513
  393TMC3    C4 5871   1.731   3.247  10.638 -0.4743 -0.0892 -0.9275
  393TMC3    C5 5872   1.743   3.265  10.775  0.7433  0.2966  0.3200
  393TMC3    C6 5873   1.638   3.230  10.860 -0.1828  0.3209  1.0302
  393TMC3     C 5874   1.580   3.205  10.451 -0.5160  0.0575 -0.1506
  393TMC3     O 5875   1.467   3.238  10.418 -0.2681 -0.1995  0.2478
  393TMC3     H 5876   1.400   3.170  10.631 -0.3591  0.5524  0.7246
  393TMC3    H1 5877   1.809   3.288  10.576  1.5119 -2.0610  0.2380
  393TMC3    H2 5878   1.650   3.235  10.967 -2.3141 -0.6440  1.3149
  393TMC3    C7 5879   1.873   3.283  10.840  0.4019 -0.2131 -0.4585
  393TMC3    C8 5880   1.415   3.153  10.909 -1.0446 -1.2843 -0.2543
  393TMC3    O1 5881   1.870   3.307  10.959  0.2980 -0.1946  0.3614
  393TMC3    O2 5882   1.451   3.149  11.028 -0.2778 -0.3018 -0.5423
  394TMC3    C1 5883   3.494   3.573  10.258 -0.5088  0.1743 -0.2596
  394TMC3    C2 5884   3.440   3.454  10.233  0.2772 -0.1274  0.7094
  394TMC3    C3 5885   3.471   3.375  10.128 -1.0897 -0.3130  0.7018
  394TMC3    C4 5886   3.588   3.614  10.171  0.2035 -0.1856 -0.4501
  394TMC3    C5 5887   3.606   3.545  10.054  0.3422 -0.5275  0.1897
  394TMC3    C6 5888   3.536   3.429  10.023 -0.5729  0.4954 -0.6357
  394TMC3     C 5889   3.484   3.621  10.393  1.1258  0.1555  0.0559
  394TMC3     O 5890   3.480   3.534  10.478  0.3535  0.0804  0.0312
  394TMC3     H 5891   3.365   3.414  10.300 -2.0350 -1.0097 -2.3791
  394TMC3    H1 5892   3.659   3.692  10.196  0.0697 -0.5720  1.1846
  394TMC3    H2 5893   3.560   3.379   9.930  0.4839 -2.7221  1.3667
  394TMC3    C7 5894   3.740   3.555   9.994  0.7128 -0.4547 -0.2497
  394TMC3    C8 5895   3.388   3.264  10.101  0.1078 -0.4287  1.0028
  394TMC3    O1 5896   3.773   3.451   9.937 -0.2100 -0.2280 -0.2535
  394TMC3    O2 5897   3.385   3.228   9.981  0.3189 -0.1059  0.0251
  395TMC3    C1 5898   2.426   0.972  14.231 -0.1202 -0.1054 -0.0593
  395TMC3    C2 5899   2.298   0.931  14.250  0.9075 -0.3455  0.4323
  395TMC3    C3 5900   2.218   1.004  14.339  0.0433  0.0990  0.2428
  395TMC3    C4 5901   2.468   1.092  14.277 -0.5844 -0.1456 -0.4424
  395TMC3    C5 5902   2.387   1.164  14.357 -0.1567  0.3860 -0.0133
  395TMC3    C6 5903   2.267   1.116  14.399  0.0626 -0.3442 -0.2691
  395TMC3     C 5904   2.520   0.867  14.274 -0.7045 -0.6965 -0.2210
  395TMC3     O 5905   2.613   0.895  14.343  0.0864  0.0275 -0.5924
  395TMC3     H 5906   2.272   0.838  14.201 -1.6951 -0.1248  1.4032
  395TMC3    H1 5907   2.573   1.117  14.274 -1.3694  3.0667 -1.0385
  395TMC3    H2 5908   2.203   1.164  14.473  0.8517  0.2368  0.0392
  395TMC3    C7 5909   2.456   1.240  14.461  0.3102 -0.5781  0.6410
  395TMC3    C8 5910   2.122   0.922  14.415  0.6622  0.9545  0.8243
  395TMC3    O1 5911   2.428   1.224  14.579 -0.2516 -0.0107  0.0981
  395TMC3    O2 5912   2.096   0.966  14.524 -0.7006 -0.4232  0.0874
  396MPD2     C 5913   2.621   1.928  17.261  0.3816  0.4533  0.0341
  396MPD2    C1 5914   2.756   1.923  17.236 -0.4158  0.4288  0.1949
  396MPD2    C2 5915   2.818   2.042  17.185  0.2860  0.6346 -0.1136
  396MPD2    C3 5916   2.749   2.160  17.171  0.1527 -0.5176  0.9876
  396MPD2    C4 5917   2.615   2.158  17.195 -0.2620 -0.0743  0.1477
  396MPD2    C5 5918   2.548   2.044  17.235 -0.1336 -0.7480  0.1559
  396MPD2     H 5919   2.924   2.046  17.163  0.0399  1.1415 -1.2228
  396MPD2    H1 5920   2.540   2.232  17.169  0.4174  0.8499  0.8126
  396MPD2    H2 5921   2.569   1.841  17.298  0.0288  0.6118 -0.0883
  396MPD2    H3 5922   2.440   2.042  17.237 -0.1562 -0.3235 -0.8621
  396MPD2     N 5923   2.811   2.280  17.124 -0.2850 -0.7493 -0.2705
  396MPD2    H5 5924   2.906   2.271  17.091  0.1488 -0.5312  0.9212
  396MPD2    N1 5925   2.830   1.796  17.257 -0.0715  0.5762  0.0981
  396MPD2    H7 5926   2.771   1.720  17.288  3.0421 -0.6542  2.9642
  397TMC3    C1 5927   3.000   1.639  17.226  0.5518 -0.2329  0.2717
  397TMC3    C2 5928   2.986   1.594  17.100 -0.1097 -0.5520 -0.5223
  397TMC3    C3 5929   2.931   1.470  17.078  0.3413  0.3592  0.3122
  397TMC3    C4 5930   2.958   1.572  17.336  0.3675 -0.0746 -1.0189
  397TMC3    C5 5931   2.910   1.444  17.309  0.1841  0.0928 -0.3016
  397TMC3    C6 5932   2.908   1.391  17.184  0.1310 -0.1540 -0.0422
  397TMC3     C 5933   2.961   1.784  17.226 -0.1573  0.0290  0.5549
  397TMC3     O 5934   3.047   1.856  17.174  0.0688 -0.6145  0.3156
  397TMC3     H 5935   2.999   1.669  17.023  0.7472  0.2581  0.4031
  397TMC3    H1 5936   2.972   1.620  17.432  1.6541 -2.4578 -0.0143
  397TMC3    H2 5937   2.884   1.285  17.178 -1.3002  0.3424 -2.9812
  397TMC3    C7 5938   2.880   1.351  17.421  0.7173  0.1777 -0.6788
  397TMC3    C8 5939   2.881   1.440  16.944  0.5174  0.3856  0.5602
  397TMC3    O1 5940   2.848   1.237  17.400 -0.3722 -0.0636  0.2582
  397TMC3    O2 5941   2.937   1.503  16.852  0.1649  0.7435 -0.5794
  398MPD2     C 5942   0.470   3.092  17.372 -0.7545 -0.0231  0.5604
  398MPD2    C1 5943   0.560   2.989  17.398 -0.3664 -0.4330  0.0906
  398MPD2    C2 5944   0.679   2.976  17.327 -0.6220 -0.2317  0.0725
  398MPD2    C3 5945   0.696   3.067  17.224 -0.9185  0.4133 -0.2482
  398MPD2    C4 5946   0.599   3.157  17.193  1.1824 -0.2250  0.5830
  398MPD2    C5 5947   0.491   3.177  17.267  0.2481  0.5248 -0.1658
  398MPD2     H 5948   0.754   2.901  17.347  2.2496  2.3507 -0.9670
  398MPD2    H1 5949   0.622   3.228  17.114 -1.3872 -0.5007 -0.3876
  398MPD2    H2 5950   0.389   3.120  17.438  0.5639 -0.3860  2.3178
  398MPD2    H3 5951   0.431   3.266  17.256  0.0455  0.3443 -0.5215
  398MPD2     N 5952   0.828   3.071  17.169  0.4202 -0.5657 -0.4921
  398MPD2    H5 5953   0.888   2.994  17.195  0.8862  0.8053  2.4700
  398MPD2    N1 5954   0.531   2.892  17.490 -0.1265 -0.3641 -0.3645
  398MPD2    H7 5955   0.603   2.828  17.522 -0.5105 -0.1969  0.8350
  399TMC3    C1 5956   0.415   2.779  17.659 -0.1860 -0.5577  0.6419
  399TMC3    C2 5957   0.542   2.769   0.016 -0.3462 -0.4918  0.7392
  399TMC3    C3 5958   0.541   2.689   0.123  0.1651  0.3412 -0.7888
  399TMC3    C4 5959   0.303   2.701  17.685 -0.0024 -0.0185 -0.3442
  399TMC3    C5 5960   0.322   2.612   0.085 -0.3978 -0.1101 -0.3109
  399TMC3    C6 5961   0.433   2.609   0.157 -0.1030  0.1300 -0.4978
  399TMC3     C 5962   0.407   2.877  17.549 -0.4610 -0.3671 -0.4117
  399TMC3     O 5963   0.299   2.932  17.534  0.2343  0.0238  0.3523
  399TMC3     H 5964   0.635   2.821  17.697 -0.9555  0.1738 -0.3540
  399TMC3    H1 5965   0.220   2.696  17.615  0.4704 -1.4056 -0.8086
  399TMC3    H2 5966   0.433   2.535   0.237 -0.3316 -0.1979 -0.8027
  399TMC3    C7 5967   0.215   2.519   0.117 -0.8267 -0.5373  0.5131
  399TMC3    C8 5968   0.672   2.675   0.183  0.4430  0.2653  0.4232
  399TMC3    O1 5969   0.236   2.425   0.193  0.1998  0.4764 -0.5057
  399TMC3    O2 5970   0.748   2.769   0.190 -0.0912 -0.4534 -0.2604
  400TMC3    C1 5971   4.006   1.344  16.913 -0.1003 -0.1052 -0.4836
  400TMC3    C2 5972   3.906   1.339  16.816  0.0686  0.2951 -0.2291
  400TMC3    C3 5973   3.808   1.438  16.823 -0.2651  0.3577  0.1699
  400TMC3    C4 5974   4.005   1.435  17.013 -0.4923  0.0514  0.2943
  400TMC3    C5 5975   3.904   1.527  17.020 -0.3302  0.3217  0.4519
  400TMC3    C6 5976   3.806   1.527  16.931  0.2521 -0.8728 -0.1585
  400TMC3     C 5977   4.064   1.216  16.953 -0.2306  0.1774 -0.0494
  400TMC3     O 5978   3.995   1.114  16.948  0.5027  0.4536  0.2363
  400TMC3     H 5979   3.910   1.253  16.750 -0.0155 -0.1493  0.3489
  400TMC3    H1 5980   4.086   1.441  17.084 -1.7583  3.3194  1.4568
  400TMC3    H2 5981   3.732   1.607  16.925  0.4847 -0.7977 -1.7491
  400TMC3    C7 5982   3.934   1.649  17.087  0.1245 -0.0773 -0.5950
  400TMC3    C8 5983   3.696   1.445  16.729  0.4547 -0.1864  0.1530
  400TMC3    O1 5984   4.048   1.669  17.129  0.3344 -0.7301 -0.0709
  400TMC3    O2 5985   3.612   1.530  16.743 -0.0635 -0.1781 -0.2031
  401MPD2     C 5986   2.592   0.645   1.130 -0.4953  0.2165  0.7002
  401MPD2    C1 5987   2.646   0.521   1.144  0.0561  0.7537 -0.5659
  401MPD2    C2 5988   2.586   0.431   1.060  0.6363 -0.2808 -0.0710
  401MPD2    C3 5989   2.501   0.468   0.959 -0.5268 -0.2330 -0.3390
  401MPD2    C4 5990   2.462   0.593   0.949 -0.2517  0.0647 -0.6868
  401MPD2    C5 5991   2.509   0.691   1.031  0.5011  0.1558  0.2226
  401MPD2     H 5992   2.626   0.331   1.075 -1.1579 -0.8969  0.6026
  401MPD2    H1 5993   2.372   0.623   0.896 -2.4705  2.5234  4.4870
  401MPD2    H2 5994   2.627   0.729   1.189 -1.3930  0.4399  0.9150
  401MPD2    H3 5995   2.459   0.787   1.037  2.4972  1.1977  0.1152
  401MPD2     N 5996   2.446   0.368   0.879  0.7140  0.3571  0.1203
  401MPD2    H5 5997   2.460   0.270   0.904  0.9491  0.9337  2.2149
  401MPD2    N1 5998   2.740   0.484   1.239 -0.1444  0.0292  0.7652
  401MPD2    H7 5999   2.773   0.388   1.230  0.6207  0.2354  1.4054
  402TMC3    C1 6000   2.344   0.271   0.708 -0.1845  0.4342 -0.1274
  402TMC3    C2 6001   2.285   0.179   0.790 -0.2092 -1.4662 -0.2023
  402TMC3    C3 6002   2.283   0.049   0.748 -0.1336  0.2371  0.2287
  402TMC3    C4 6003   2.396   0.239   0.587 -0.0113 -0.1767 -0.3688
  402TMC3    C5 6004   2.386   0.106   0.546  0.5794  0.0552 -0.6868
  402TMC3    C6 6005   2.322   0.016   0.622  0.8265 -0.1509  0.4134
  402TMC3     C 6006   2.383   0.392   0.763  0.1644  0.3646  0.2023
  402TMC3     O 6007   2.370   0.497   0.695  0.0669 -0.1302 -0.1884
  402TMC3     H 6008   2.253   0.203   0.891  0.3818 -3.0047  0.3466
  402TMC3    H1 6009   2.456   0.314   0.538 -0.4880  0.2348 -0.3211
  402TMC3    H2 6010   2.302   4.637   0.595 -0.7156  0.2203  0.0914
  402TMC3    C7 6011   2.462   0.058   0.433 -0.5315 -0.9272 -0.2226
  402TMC3    C8 6012   2.288   4.674   0.850  0.5391  0.2338 -0.2046
  402TMC3    O1 6013   2.562   0.120   0.399  0.3359 -0.0514 -0.4898
  402TMC3    O2 6014   2.326   4.563   0.818 -0.4746  0.0373 -0.6662
  403MPD2     C 6015   0.522   3.560  13.287 -0.3263 -0.4121 -0.0992
  403MPD2    C1 6016   0.496   3.438  13.340  0.0779  0.0446  0.4043
  403MPD2    C2 6017   0.489   3.426  13.478  0.4015 -0.6454  0.6575
  403MPD2    C3 6018   0.507   3.535  13.559  0.1853 -0.1662 -0.4769
  403MPD2    C4 6019   0.524   3.662  13.506 -0.0616  0.4530 -0.5665
  403MPD2    C5 6020   0.530   3.669  13.371 -0.6695 -0.1010  0.3040
  403MPD2     H 6021   0.475   3.333  13.531 -0.5107 -0.7512  0.2316
  403MPD2    H1 6022   0.550   3.751  13.561  0.4018  0.1179 -0.2447
  403MPD2    H2 6023   0.541   3.580  13.183 -1.0350 -2.3965 -0.6002
  403MPD2    H3 6024   0.553   3.764  13.324 -0.6591 -0.9059 -1.3070
  403MPD2     N 6025   0.528   3.507  13.698 -0.3509  0.7216 -0.1637
  403MPD2    H5 6026   0.533   3.410  13.726 -1.2963  1.2894  1.9586
  403MPD2    N1 6027   0.503   3.329  13.256 -0.4459 -0.3291 -0.1031
  403MPD2    H7 6028   0.541   3.351  13.164  0.6916  1.2017  0.7361
  404TMC3    C1 6029   0.532   3.086  13.207 -0.3726 -0.0685  0.8628
  404TMC3    C2 6030   0.519   2.960  13.256  0.1921 -0.0732  0.9383
  404TMC3    C3 6031   0.548   2.852  13.172 -0.7583 -0.5452  0.3698
  404TMC3    C4 6032   0.565   3.105  13.077 -0.4388  0.1640 -0.7098
  404TMC3    C5 6033   0.591   2.997  12.997  0.3358 -0.4656  0.1663
  404TMC3    C6 6034   0.574   2.869  13.037  0.5718 -0.6904 -0.2042
  404TMC3     C 6035   0.495   3.197  13.296  0.2372 -0.6426  0.1564
  404TMC3     O 6036   0.432   3.156  13.393 -0.4549 -0.0668  0.0455
  404TMC3     H 6037   0.499   2.940  13.361 -0.6319 -2.0956  0.4110
  404TMC3    H1 6038   0.569   3.205  13.034 -0.0654  1.3684  2.0657
  404TMC3    H2 6039   0.598   2.786  12.973 -2.0483 -1.9681  0.4551
  404TMC3    C7 6040   0.649   3.025  12.863 -0.0889 -0.9536  0.0889
  404TMC3    C8 6041   0.551   2.718  13.224  0.0302  0.6037  0.2108
  404TMC3    O1 6042   0.703   3.134  12.865  0.2881  0.6071 -0.5022
  404TMC3    O2 6043   0.586   2.631  13.145  0.0809  0.2525  0.2454
  405MPD2     C 6044   0.992   2.660  15.624 -0.2679 -0.2206 -0.4048
  405MPD2    C1 6045   0.997   2.593  15.509  0.2815 -0.6471  0.9354
  405MPD2    C2 6046   0.992   2.670  15.390 -0.3182  0.2023 -0.0757
  405MPD2    C3 6047   0.967   2.806  15.382 -0.5227  0.2008  0.1331
  405MPD2    C4 6048   0.954   2.864  15.506  0.7215  0.0034 -0.2867
  405MPD2    C5 6049   0.958   2.791  15.622 -0.6846  0.0610 -0.6275
  405MPD2     H 6050   0.998   2.612  15.299 -1.1471 -0.1296  0.0878
  405MPD2    H1 6051   0.937   2.969  15.525 -0.0546  0.1001 -1.5103
  405MPD2    H2 6052   0.993   2.622  15.725  0.9982  1.7324  0.3049
  405MPD2    H3 6053   0.953   2.845  15.716  0.5646 -0.9442  0.0118
  405MPD2     N 6054   0.962   2.871  15.258 -0.1513  0.2139 -0.0307
  405MPD2    H5 6055   0.956   2.816  15.173 -0.0409  1.2894 -0.7232
  405MPD2    N1 6056   0.986   2.447  15.517 -0.1282  0.1304 -0.0170
  405MPD2    H7 6057   1.002   2.406  15.608  1.7352  0.8280 -0.0333
  406TMC3    C1 6058   0.667   3.120  15.015  0.7883 -0.7246  0.3611
  406TMC3    C2 6059   0.628   3.003  14.947 -1.2223  0.0242 -0.8727
  406TMC3    C3 6060   0.710   2.895  14.960  0.3442 -0.1049  0.3465
  406TMC3    C4 6061   0.778   3.123  15.093  0.1047 -0.1177  0.0839
  406TMC3    C5 6062   0.853   3.010  15.117 -0.4169  0.4585 -0.5266
  406TMC3    C6 6063   0.820   2.894  15.046  0.3478  0.4310 -0.4089
  406TMC3     C 6064   0.611   3.245  14.974  0.6051  0.0364  0.1570
  406TMC3     O 6065   0.650   3.340  15.038 -0.3680  0.4407 -0.6526
  406TMC3     H 6066   0.529   2.988  14.907 -2.2000 -0.2883  1.6616
  406TMC3    H1 6067   0.795   3.210  15.155 -2.6109  0.0720  0.5252
  406TMC3    H2 6068   0.894   2.817  15.024 -1.2852 -0.8576 -1.4149
  406TMC3    C7 6069   0.928   3.001  15.241 -0.1128 -0.1836 -0.5271
  406TMC3    C8 6070   0.644   2.774  14.933  0.0730  0.0003 -0.4890
  406TMC3    O1 6071   0.948   3.097  15.315 -0.1961  0.3349  0.4055
  406TMC3    O2 6072   0.555   2.775  14.848  0.1034  0.2647  0.2197
  407MPD2     C 6073   3.841   4.593   9.045  0.0040  0.0873 -0.2711
  407MPD2    C1 6074   3.924   4.554   9.148 -0.2052 -0.4681  0.8797
  407MPD2    C2 6075   3.881   4.586   9.275  0.6234  0.2774 -0.6043
  407MPD2    C3 6076   3.757   4.636   9.294  0.6519  0.3579  0.3291
  407MPD2    C4 6077   3.678   4.678   9.194 -0.3922 -0.5684  0.2414
  407MPD2    C5 6078   3.721   4.651   9.064 -0.0629  0.0857  0.0649
  407MPD2     H 6079   3.951   4.568   9.355 -0.9447  3.2136  1.4379
  407MPD2    H1 6080   3.580   4.723   9.204  0.1541  0.7992 -0.5091
  407MPD2    H2 6081   3.861   4.586   8.938 -2.8495 -1.7663 -0.7156
  407MPD2    H3 6082   3.658   4.673   8.979  0.1355 -0.9733 -0.3614
  407MPD2     N 6083   3.720   4.647   9.433  0.3134  0.7325 -0.6771
  407MPD2    H5 6084   3.785   4.610   9.501 -1.8939  0.6890  1.3989
  407MPD2    N1 6085   4.054   4.510   9.127  0.1215 -0.2260 -0.1376
  407MPD2    H7 6086   4.111   4.494   9.209  1.8437  0.9049 -1.1097
  408TMC3    C1 6087   4.257   4.450   9.005  0.9175 -0.4108  0.0741
  408TMC3    C2 6088   4.334   4.530   9.079  0.0074  0.4735 -0.4268
  408TMC3    C3 6089   4.444   4.481   9.140  0.3528 -0.2780  0.3227
  408TMC3    C4 6090   4.293   4.315   8.989  0.0469  0.3759  0.0116
  408TMC3    C5 6091   4.404   4.273   9.053 -0.3287 -0.9164 -0.0453
  408TMC3    C6 6092   4.484   4.352   9.128  0.0282  0.4484 -0.2649
  408TMC3     C 6093   4.115   4.483   9.003 -0.0970 -0.4276 -0.1246
  408TMC3     O 6094   4.050   4.474   8.894 -0.4425 -0.1373 -0.0194
  408TMC3     H 6095   4.299   4.632   9.091 -2.0628 -0.2006 -0.7184
  408TMC3    H1 6096   4.226   4.252   8.933  1.8420  0.4844 -2.2736
  408TMC3    H2 6097   4.536   4.305   9.211  1.7081  1.4963 -0.7199
  408TMC3    C7 6098   4.411   4.125   9.060  0.2764 -0.0715 -0.0762
  408TMC3    C8 6099   4.524   4.571   9.226  0.4808 -0.4974  0.0291
  408TMC3    O1 6100   4.305   4.068   9.051  0.1593  0.1560 -0.6311
  408TMC3    O2 6101   4.620   4.518   9.277 -1.0642 -0.1169 -0.0466
  409MPD2     C 6102   2.858   0.731  17.056  0.0597  0.4240 -0.3406
  409MPD2    C1 6103   2.970   0.752  17.143  0.3303  0.5247 -0.2724
  409MPD2    C2 6104   3.032   0.872  17.136 -0.6479 -0.0743  0.3962
  409MPD2    C3 6105   2.997   0.964  17.037 -0.5110 -0.5250 -0.3038
  409MPD2    C4 6106   2.891   0.943  16.956 -0.4477 -0.2585 -0.0480
  409MPD2    C5 6107   2.817   0.833  16.975 -0.2131  0.2013  0.4192
  409MPD2     H 6108   3.122   0.896  17.192 -0.5139  1.0120 -0.2990
  409MPD2    H1 6109   2.862   1.020  16.885 -1.2024 -0.5933 -0.1021
  409MPD2    H2 6110   2.802   0.639  17.046  1.0333 -0.4009  1.8266
  409MPD2    H3 6111   2.727   0.816  16.917 -0.7784  1.9960  0.7783
  409MPD2     N 6112   3.067   1.087  17.019 -0.3632 -0.2944  0.2289
  409MPD2    H5 6113   3.034   1.154  16.951  1.2214  1.5135  1.2445
  409MPD2    N1 6114   3.007   0.657  17.241  0.0882 -1.4594 -0.1254
  409MPD2    H7 6115   3.081   0.688  17.303  1.1345 -1.9058 -1.1682
  410TMC3    C1 6116   3.239   1.252  17.059  0.0264  0.4128 -0.5245
  410TMC3    C2 6117   3.344   1.307  17.133 -0.1009  0.4758  0.6219
  410TMC3    C3 6118   3.417   1.415  17.083  0.5561 -0.6123 -0.1777
  410TMC3    C4 6119   3.213   1.312  16.941 -0.3457  0.4527  0.3203
  410TMC3    C5 6120   3.292   1.405  16.885  0.5184 -0.0600 -0.7397
  410TMC3    C6 6121   3.395   1.464  16.959 -0.1572 -0.4542  0.6649
  410TMC3     C 6122   3.172   1.137  17.104  0.3165 -0.1576 -0.2195
  410TMC3     O 6123   3.220   1.086  17.204 -0.2761  0.2265 -0.0440
  410TMC3     H 6124   3.359   1.284  17.238  0.2777 -1.9089  0.0454
  410TMC3    H1 6125   3.129   1.275  16.883 -0.2557 -0.5290  0.8269
  410TMC3    H2 6126   3.462   1.539  16.919 -0.2485 -0.0129  1.3366
  410TMC3    C7 6127   3.256   1.437  16.754  0.0875  0.7638  0.5892
  410TMC3    C8 6128   3.544   1.433  17.143  0.7543 -0.2057 -0.1103
  410TMC3    O1 6129   3.187   1.356  16.689  0.2348 -0.0209 -0.2291
  410TMC3    O2 6130   3.590   1.547  17.146 -0.3161 -0.0849  0.2570
  411MPD2     C 6131   3.240   1.788  14.419  0.8818  0.1328  0.3886
  411MPD2    C1 6132   3.191   1.835  14.299 -0.0986  0.1714 -0.1660
  411MPD2    C2 6133   3.117   1.741  14.219 -0.5390 -0.6643 -0.3036
  411MPD2    C3 6134   3.089   1.615  14.264  0.5946 -0.1865  0.0864
  411MPD2    C4 6135   3.141   1.574  14.387 -0.3385 -0.7106 -0.1939
  411MPD2    C5 6136   3.212   1.660  14.467  0.3981 -0.8650 -0.3796
  411MPD2     H 6137   3.075   1.773  14.125  0.7256 -1.4844 -1.1499
  411MPD2    H1 6138   3.108   1.482  14.434 -1.2635 -0.7337 -0.8905
  411MPD2    H2 6139   3.305   1.850  14.480  1.8429 -0.9238  0.4475
  411MPD2    H3 6140   3.227   1.634  14.571  0.2924  0.5930  0.0042
  411MPD2     N 6141   3.024   1.517  14.194  0.7834  0.0062 -0.6173
  411MPD2    H5 6142   3.021   1.425  14.237 -0.2027 -0.5027 -1.7663
  411MPD2    N1 6143   3.215   1.973  14.281  0.5534  0.3546 -0.5053
  411MPD2    H7 6144   3.277   2.016  14.349 -0.1041  0.0997  0.2607
  412TMC3    C1 6145   2.930   1.408  14.002  0.2542 -0.0882 -0.5003
  412TMC3    C2 6146   2.833   1.339  14.065  0.1465  0.1871 -0.7093
  412TMC3    C3 6147   2.772   1.229  14.010  0.2441  0.3302 -0.5258
  412TMC3    C4 6148   2.975   1.372  13.880  0.7092  0.2370  0.0956
  412TMC3    C5 6149   2.890   1.287  13.813 -0.0365 -0.3068  0.2332
  412TMC3    C6 6150   2.808   1.199  13.879  0.4383  0.2627 -0.7757
  412TMC3     C 6151   2.990   1.531  14.056 -0.0386  0.3419 -0.4341
  412TMC3     O 6152   2.995   1.625  13.970 -0.5262  0.2451  0.1982
  412TMC3     H 6153   2.810   1.352  14.170 -0.0053 -1.4076 -0.5481
  412TMC3    H1 6154   3.048   1.437  13.833  1.3636 -2.1333 -2.1141
  412TMC3    H2 6155   2.757   1.122  13.821 -1.0599 -0.4042  1.4348
  412TMC3    C7 6156   2.804   1.358  13.731 -0.4654 -0.4531  0.0665
  412TMC3    C8 6157   2.629   1.222  14.034  0.6201  0.3765  0.4308
  412TMC3    O1 6158   2.701   1.319  13.681  0.2561 -0.3177 -0.2789
  412TMC3    O2 6159   2.584   1.325  14.087  0.8253 -0.4831  0.1740
  413MPD2     C 6160   0.092   4.140  15.627  0.1625  0.2316  0.1503
  413MPD2    C1 6161   0.058   4.073  15.511 -0.2904 -0.0123  0.3614
  413MPD2    C2 6162   0.143   3.977  15.459  0.0383  0.0677 -0.2907
  413MPD2    C3 6163   0.259   3.945  15.529 -0.0995 -0.4812 -0.1348
  413MPD2    C4 6164   0.279   4.008  15.651 -0.0509  0.3178 -0.1615
  413MPD2    C5 6165   0.194   4.095  15.702  0.3697  0.3667 -0.4249
  413MPD2     H 6166   0.120   3.919  15.371 -1.8275  1.2435 -0.5794
  413MPD2    H1 6167   0.357   3.965  15.713 -1.8365  0.2140  2.0091
  413MPD2    H2 6168   0.029   4.221  15.662 -2.7098 -1.2295 -1.6498
  413MPD2    H3 6169   0.212   4.137  15.800  2.9111 -1.3925 -0.1340
  413MPD2     N 6170   0.350   3.851  15.473  0.0575 -0.5505  0.2486
  413MPD2    H5 6171   0.323   3.794  15.394 -0.0989  0.2599 -0.2828
  413MPD2    N1 6172   4.667   4.113  15.448  0.4355  0.1291 -0.3044
  413MPD2    H7 6173   4.621   4.195  15.486  1.8134  1.2020 -0.9916
  414TMC3    C1 6174   0.565   3.747  15.432  0.4817  0.1080  0.3698
  414TMC3    C2 6175   0.544   3.611  15.436  0.3436 -0.5040 -0.2941
  414TMC3    C3 6176   0.642   3.535  15.381  0.0111 -0.6126 -0.1836
  414TMC3    C4 6177   0.680   3.806  15.400 -0.3002  0.3540  0.4152
  414TMC3    C5 6178   0.777   3.725  15.367  0.2745 -0.4523  0.3193
  414TMC3    C6 6179   0.761   3.587  15.352  0.1208 -0.1717 -0.4691
  414TMC3     C 6180   0.480   3.833  15.516 -0.1123 -0.0456  0.3392
  414TMC3     O 6181   0.551   3.895  15.594  0.0968 -0.1924  0.1563
  414TMC3     H 6182   0.445   3.573  15.461 -0.3235  1.3649 -0.0449
  414TMC3    H1 6183   0.695   3.913  15.394  0.8501  0.2214  0.9722
  414TMC3    H2 6184   0.841   3.518  15.329  1.7981  1.7562 -0.3415
  414TMC3    C7 6185   0.907   3.785  15.347  0.1172  0.1353 -0.3324
  414TMC3    C8 6186   0.650   3.409  15.449  0.1751  0.7893  0.5195
  414TMC3    O1 6187   0.942   3.883  15.414 -0.1257 -0.4178 -0.0720
  414TMC3    O2 6188   0.546   3.355  15.484  0.0399 -0.2021  0.1342
  415TMC3    C1 6189   0.799   1.999  10.420 -0.7969  0.7268 -0.4055
  415TMC3    C2 6190   0.759   2.117  10.354  0.2059 -0.2368  0.2316
  415TMC3    C3 6191   0.619   2.115  10.326 -0.3987  0.3449  0.3764
  415TMC3    C4 6192   0.715   1.905  10.469 -0.0370 -0.2265 -0.2124
  415TMC3    C5 6193   0.580   1.914  10.436  0.3706 -0.5621 -0.5095
  415TMC3    C6 6194   0.534   2.013  10.358 -0.5843  0.1987  0.2697
  415TMC3     C 6195   0.933   1.994  10.478  0.4454 -0.2439 -0.8391
  415TMC3     O 6196   0.976   1.881  10.487 -0.3762  0.2301  0.0726
  415TMC3     H 6197   0.827   2.196  10.325 -0.7832 -0.0785 -1.7005
  415TMC3    H1 6198   0.748   1.816  10.521 -0.5639 -0.2182  0.1278
  415TMC3    H2 6199   0.439   2.005  10.305 -1.4628 -0.0974  1.9000
  415TMC3    C7 6200   0.476   1.832  10.508  0.1036 -0.9815 -0.4150
  415TMC3    C8 6201   0.557   2.217  10.253  0.4553  0.3705  0.2734
  415TMC3    O1 6202   0.365   1.850  10.465 -0.1291 -0.1380 -0.5490
  415TMC3    O2 6203   0.437   2.206  10.232 -0.3909  0.2329 -0.2081
  416MPD2     C 6204   2.850   1.418  11.578  0.7394  0.1196  0.2603
  416MPD2    C1 6205   2.798   1.496  11.481 -0.2058 -0.0038 -0.4127
  416MPD2    C2 6206   2.837   1.489  11.348  0.1440 -0.0793 -0.3345
  416MPD2    C3 6207   2.937   1.406  11.314  0.0036  0.1981  0.6537
  416MPD2    C4 6208   2.986   1.319  11.410 -0.0781  0.6618 -0.4024
  416MPD2    C5 6209   2.941   1.324  11.538 -0.1991 -0.0004  0.7846
  416MPD2     H 6210   2.789   1.555  11.276 -0.1712  0.7669  0.6551
  416MPD2    H1 6211   3.048   1.234  11.382 -0.0710  0.0666  1.3919
  416MPD2    H2 6212   2.812   1.413  11.680  0.6333  1.0789  0.2634
  416MPD2    H3 6213   2.978   1.250  11.609  2.1025  0.0804 -0.3381
  416MPD2     N 6214   2.979   1.399  11.182  0.0267  0.3757  0.5085
  416MPD2    H5 6215   3.055   1.334  11.167 -0.5957 -0.9368  3.0602
  416MPD2    N1 6216   2.698   1.589  11.534  0.0170  0.2527 -0.0997
  416MPD2    H7 6217   2.698   1.601  11.635  0.9570  1.3128 -0.2288
  417TMC3    C1 6218   2.560   1.783  11.542  0.4954  0.3983 -0.3218
  417TMC3    C2 6219   2.529   1.758  11.676  0.3885  0.3842  1.0225
  417TMC3    C3 6220   2.438   1.841  11.740 -0.0706  0.6190  0.4261
  417TMC3    C4 6221   2.498   1.885  11.469 -1.1987  0.3075 -0.0776
  417TMC3    C5 6222   2.411   1.969  11.531  0.1234  0.7258 -0.3963
  417TMC3    C6 6223   2.385   1.947  11.666  0.8586 -0.5354 -0.5268
  417TMC3     C 6224   2.629   1.684  11.460  0.6712  0.1954  0.7949
  417TMC3     O 6225   2.646   1.710  11.341  0.4099 -0.3859 -0.4172
  417TMC3     H 6226   2.569   1.673  11.730 -0.6370 -0.1638  0.9311
  417TMC3    H1 6227   2.533   1.904  11.368  0.9789 -1.5122  0.3213
  417TMC3    H2 6228   2.325   2.024  11.715  0.9425 -1.3458  0.8654
  417TMC3    C7 6229   2.386   2.103  11.477  0.2618  0.5054  0.3512
  417TMC3    C8 6230   2.443   1.873  11.881  0.2566  0.3779 -0.8158
  417TMC3    O1 6231   2.474   2.139  11.399 -0.4187 -0.4803  0.0577
  417TMC3    O2 6232   2.350   1.942  11.925  0.7598 -0.0893 -0.1077
  418TMC3    C1 6233   1.241   3.086  17.088 -0.0883  0.6597  0.5800
  418TMC3    C2 6234   1.113   3.119  17.040  0.9670  0.0219 -0.8465
  418TMC3    C3 6235   1.033   3.177  17.137  0.1778  0.1380  0.0352
  418TMC3    C4 6236   1.283   3.098  17.223  0.0917 -0.2694  0.6235
  418TMC3    C5 6237   1.189   3.149  17.308 -0.3305 -0.5647  0.1798
  418TMC3    C6 6238   1.060   3.172  17.272  0.1228 -0.6660  0.8801
  418TMC3     C 6239   1.342   3.066  16.986  0.1298 -0.0931 -0.1318
  418TMC3     O 6240   1.307   3.058  16.866  0.6805  0.4689 -0.2869
  418TMC3     H 6241   1.096   3.123  16.933  1.5623 -3.3578 -1.0540
  418TMC3    H1 6242   1.384   3.094  17.262 -0.8428 -4.6236  2.6352
  418TMC3    H2 6243   0.989   3.217  17.340  1.1246 -0.2071  1.6085
  418TMC3    C7 6244   1.225   3.140  17.448 -0.3967 -0.3112 -0.4431
  418TMC3    C8 6245   0.895   3.165  17.096 -0.6810  0.0684  0.4884
  418TMC3    O1 6246   1.316   3.065  17.474  0.1797  0.0268 -0.1452
  418TMC3    O2 6247   0.839   3.256  17.037 -0.7525 -0.5234 -0.2891
  419MPD2     C 6248   4.653   1.199  12.152 -0.0153  0.7329 -0.5475
  419MPD2    C1 6249   4.635   1.337  12.155 -0.3705 -0.4270  0.1930
  419MPD2    C2 6250   4.576   1.400  12.259  0.0559 -0.4808 -0.7296
  419MPD2    C3 6251   4.532   1.330  12.366  0.3201 -0.3536  0.3614
  419MPD2    C4 6252   4.553   1.196  12.368  0.1917 -0.5110  0.9449
  419MPD2    C5 6253   4.601   1.131  12.263 -0.3796 -0.4779  0.6325
  419MPD2     H 6254   4.562   1.508  12.257  1.7877 -0.2661 -1.1424
  419MPD2    H1 6255   4.503   1.139  12.445 -1.4132 -0.0852  0.2227
  419MPD2    H2 6256   4.702   1.139  12.076  1.4917 -2.4769  2.9525
  419MPD2    H3 6257   4.609   1.023  12.274 -1.4208 -0.3487  2.5600
  419MPD2     N 6258   4.471   1.404  12.473  0.1721 -0.8111 -0.3398
  419MPD2    H5 6259   4.477   1.503  12.455 -1.3763 -0.3726  1.5784
  419MPD2    N1 6260   4.684   1.419  12.045 -0.2949 -0.2428  0.0958
  419MPD2    H7 6261   4.684   1.518  12.065 -2.1178 -0.2170 -0.0097
  420TMC3    C1 6262   4.419   1.468  12.688 -1.2532 -0.0653 -0.3332
  420TMC3    C2 6263   4.320   1.557  12.650  0.1068  0.5906  0.3031
  420TMC3    C3 6264   4.285   1.655  12.738  0.0022 -0.3958 -0.6618
  420TMC3    C4 6265   4.473   1.472  12.805  0.0746  0.2991  0.0041
  420TMC3    C5 6266   4.435   1.560  12.897  0.0052  0.6665 -0.2439
  420TMC3    C6 6267   4.343   1.662  12.863  0.1054 -0.0548 -0.1338
  420TMC3     C 6268   4.459   1.357  12.603 -0.6119 -0.2797 -0.3650
  420TMC3     O 6269   4.511   1.254  12.650  0.8336 -0.7002 -0.0081
  420TMC3     H 6270   4.272   1.564  12.553  1.8180 -0.7437 -0.6355
  420TMC3    H1 6271   4.538   1.391  12.834 -0.4084 -0.1372 -0.1474
  420TMC3    H2 6272   4.311   1.744  12.927  0.9211  2.0768 -2.4361
  420TMC3    C7 6273   4.496   1.554  13.029  0.3679 -0.8383  0.2519
  420TMC3    C8 6274   4.217   1.774  12.693  0.0458  0.5602 -0.5155
  420TMC3    O1 6275   4.541   1.447  13.066 -0.4080 -0.4466  0.1593
  420TMC3    O2 6276   4.273   1.830  12.603  0.4069  0.0218 -0.0371
  421TMC3    C1 6277   0.620   3.539  13.921 -0.2059  0.1141  0.5886
  421TMC3    C2 6278   0.621   3.608  14.038 -0.6181 -0.5676 -0.1543
  421TMC3    C3 6279   0.673   3.547  14.154  0.1267  0.2634  0.4044
  421TMC3    C4 6280   0.672   3.413  13.916 -0.3404 -0.5117 -0.0215
  421TMC3    C5 6281   0.721   3.354  14.027  0.3575  0.2687 -0.1494
  421TMC3    C6 6282   0.734   3.421  14.144 -0.4420 -0.3109  0.3690
  421TMC3     C 6283   0.557   3.600  13.795 -0.1011 -0.1964  0.0867
  421TMC3     O 6284   0.538   3.723  13.796  0.1533  0.4670 -0.2234
  421TMC3     H 6285   0.590   3.712  14.041  0.9624 -0.0493 -1.5494
  421TMC3    H1 6286   0.713   3.370  13.825  2.8036  2.6277 -0.1028
  421TMC3    H2 6287   0.784   3.372  14.227  0.0413 -0.0761  0.2210
  421TMC3    C7 6288   0.825   3.260  14.000  0.3651 -1.0817 -0.5585
  421TMC3    C8 6289   0.728   3.633  14.254  1.6654 -0.0449  0.4387
  421TMC3    O1 6290   0.933   3.271  14.055  1.0404 -0.5548  0.7407
  421TMC3    O2 6291   0.744   3.750  14.218  0.4817  0.5889  0.8485
  422TMC3    C1 6292   3.240   4.381  12.347  0.0731  0.0706  0.2673
  422TMC3    C2 6293   3.156   4.485  12.369  0.2643 -0.7749 -0.0916
  422TMC3    C3 6294   3.037   4.443  12.417  0.2772  0.9023  0.7705
  422TMC3    C4 6295   3.211   4.247  12.364  0.2402  0.0514 -0.2082
  422TMC3    C5 6296   3.085   4.218  12.411 -0.0034 -0.1291  0.3551
  422TMC3    C6 6297   2.997   4.316  12.440 -0.2920 -0.5334 -0.4419
  422TMC3     C 6298   3.375   4.421  12.308 -0.0575  0.3355  0.0314
  422TMC3     O 6299   3.397   4.535  12.264  0.5214 -0.4716  0.4811
  422TMC3     H 6300   3.188   4.589  12.373  1.1578 -1.0362 -0.3978
  422TMC3    H1 6301   3.290   4.174  12.355  0.5700  0.0039  2.9192
  422TMC3    H2 6302   2.893   4.290  12.456  0.4079 -2.1604  1.4809
  422TMC3    C7 6303   3.052   4.077  12.423  0.0195  0.5654  0.0122
  422TMC3    C8 6304   2.955   4.555  12.463  1.0630 -0.2480 -0.6374
  422TMC3    O1 6305   3.128   4.000  12.368 -0.1141 -0.3680  0.4520
  422TMC3    O2 6306   2.983   4.671  12.429 -0.3999  0.1585 -0.6872
  423MPD2     C 6307   4.712   0.991   0.581 -0.2927 -0.0513  0.1984
  423MPD2    C1 6308   0.005   0.868   0.614 -0.6120 -0.4818 -0.4077
  423MPD2    C2 6309   0.031   0.776   0.518  0.0500  0.5503  0.2241
  423MPD2    C3 6310   0.020   0.808   0.385  0.2071  0.2323 -0.4226
  423MPD2    C4 6311   0.004   0.938   0.350  0.1913 -0.3449  0.3565
  423MPD2    C5 6312   4.724   1.030   0.451  0.1591  0.7526  1.1762
  423MPD2     H 6313   0.045   0.676   0.556  1.3247  0.8236  0.4799
  423MPD2    H1 6314   0.004   0.969   0.247 -1.7933  0.5330  0.6305
  423MPD2    H2 6315   4.681   1.062   0.656  0.3384  0.9454 -0.4855
  423MPD2    H3 6316   4.708   1.135   0.429  0.4921  0.5510 -0.0578
  423MPD2     N 6317   0.036   0.712   0.284 -0.0563  0.1047 -0.3429
  423MPD2    H5 6318   0.053   0.751   0.192  0.9267 -0.4464 -0.3869
  423MPD2    N1 6319   4.721   0.807   0.743  0.0162 -0.1322  0.5717
  423MPD2    H7 6320   4.721   0.706   0.733 -0.1461 -0.2218  1.5232
  424TMC3    C1 6321   4.660   0.740   0.952  0.4132  0.0475  0.2593
  424TMC3    C2 6322   4.672   0.610   0.898  0.0521  0.1873  1.0224
  424TMC3    C3 6323   4.613   0.512   0.982 -0.2774  0.0118  0.0121
  424TMC3    C4 6324   4.604   0.773   1.075 -0.2661 -0.4551 -0.0521
  424TMC3    C5 6325   4.549   0.674   1.149  0.8386 -0.1145  0.1425
  424TMC3    C6 6326   4.542   0.549   1.092 -0.5125  0.1034 -0.2514
  424TMC3     C 6327   4.691   0.852   0.868 -0.0340  0.3700 -0.6050
  424TMC3     O 6328   4.655   0.962   0.902 -0.2460 -0.0493  0.1008
  424TMC3     H 6329   0.027   0.583   0.831 -1.6282  0.4217 -1.0873
  424TMC3    H1 6330   4.619   0.874   1.112 -1.8264 -0.1348 -0.3214
  424TMC3    H2 6331   4.480   0.474   1.140 -0.3466 -1.0010 -1.7333
  424TMC3    C7 6332   4.499   0.680   1.285 -0.1467  0.2644 -0.5852
  424TMC3    C8 6333   4.644   0.375   0.961  0.1186  0.0328 -0.1709
  424TMC3    O1 6334   4.479   0.582   1.357  0.3109  0.6798 -0.2568
  424TMC3    O2 6335   4.636   0.313   1.066  0.2314  0.2502 -0.2770
  425MPD2     C 6336   3.875   0.137  17.162  0.4512  0.2558 -0.0155
  425MPD2    C1 6337   3.880   0.031  17.249  0.2596 -0.3364  0.2913
  425MPD2    C2 6338   3.812   0.033  17.369 -0.1319 -0.1818 -0.3773
  425MPD2    C3 6339   3.743   0.147  17.403  0.4345 -0.4633  0.2858
  425MPD2    C4 6340   3.758   0.258  17.326  0.4988  0.0314  0.1776
  425MPD2    C5 6341   3.820   0.257  17.207 -0.4554 -0.1912 -0.5995
  425MPD2     H 6342   3.806   4.671  17.434  0.7894  0.8852  1.1058
  425MPD2    H1 6343   3.717   0.355  17.353  0.6967 -0.0932  0.9143
  425MPD2    H2 6344   3.933   0.153  17.071  1.6409 -0.0582  0.6955
  425MPD2    H3 6345   3.837   0.342  17.142  3.1984 -0.5342 -0.0808
  425MPD2     N 6346   3.660   0.147  17.524  0.6144  0.7588  0.2707
  425MPD2    H5 6347   3.647   0.057  17.569 -1.4361  0.4555 -0.9303
  425MPD2    N1 6348   3.949   4.644  17.210 -0.6895 -0.0241 -0.2073
  425MPD2    H7 6349   3.939   4.565  17.272  2.8918  0.8052  1.4266
  426TMC3    C1 6350   4.030   4.484  17.072 -0.2279 -0.2618 -0.9293
  426TMC3    C2 6351   3.982   4.418  16.961  0.3562 -0.5901  0.1161
  426TMC3    C3 6352   3.983   4.283  16.955  0.4597  1.1213  0.3709
  426TMC3    C4 6353   4.079   4.417  17.179 -0.0803  0.8095 -0.0872
  426TMC3    C5 6354   4.076   4.278  17.173  0.3700  0.0929  0.0646
  426TMC3    C6 6355   4.025   4.211  17.063 -0.9511  0.3501 -0.3160
  426TMC3     C 6356   4.004   4.625  17.086 -0.5859 -0.5948 -0.0718
  426TMC3     O 6357   4.008   4.694  16.984  0.1017 -0.1456 -0.7252
  426TMC3     H 6358   3.932   4.470  16.880  3.0851  1.4882 -0.2536
  426TMC3    H1 6359   4.130   4.471  17.258  1.0470  0.6303 -0.6897
  426TMC3    H2 6360   4.011   4.103  17.070  4.4690 -0.3259  0.3563
  426TMC3    C7 6361   4.153   4.200  17.267 -0.0733 -0.3152 -0.3215
  426TMC3    C8 6362   3.897   4.209  16.875  0.3236  0.6051  0.0777
  426TMC3    O1 6363   4.191   4.090  17.224  0.0646 -0.0507 -0.1526
  426TMC3    O2 6364   3.907   4.086  16.871  0.0501 -0.7840  0.7165
  427MPD2     C 6365   2.343   2.048  14.420  0.3023  0.4827 -0.2747
  427MPD2    C1 6366   2.306   1.963  14.527 -0.2465  0.4044 -0.2861
  427MPD2    C2 6367   2.173   1.953  14.564  0.2464 -0.9482  0.6300
  427MPD2    C3 6368   2.076   2.019  14.500 -0.5288  0.0078  0.0243
  427MPD2    C4 6369   2.110   2.108  14.397  0.1712 -0.5659 -0.0017
  427MPD2    C5 6370   2.246   2.123  14.359 -0.2997  0.5400  0.4900
  427MPD2     H 6371   2.150   1.889  14.648 -0.4343 -0.8640  0.5100
  427MPD2    H1 6372   2.033   2.147  14.331  0.4219  0.8034  0.5299
  427MPD2    H2 6373   2.445   2.073  14.396 -0.2555  1.5555 -1.5409
  427MPD2    H3 6374   2.281   2.195  14.287  1.7765 -1.0189 -0.0685
  427MPD2     N 6375   1.937   1.993  14.520  0.2780 -0.0122  0.0222
  427MPD2    H5 6376   1.879   2.035  14.448  0.9032  0.5917 -0.1350
  427MPD2    N1 6377   2.406   1.896  14.605  0.0318 -0.1626  0.2758
  427MPD2    H7 6378   2.381   1.844  14.688 -1.0951 -1.8670 -1.1513
  428TMC3    C1 6379   2.612   1.801  14.664  0.7707 -0.1962 -0.7544
  428TMC3    C2 6380   2.549   1.699  14.734  0.3619  0.1530 -0.5233
  428TMC3    C3 6381   2.618   1.641  14.843  0.7014  0.7341 -0.5904
  428TMC3    C4 6382   2.734   1.845  14.696 -0.4605  0.4013  0.1715
  428TMC3    C5 6383   2.802   1.772  14.792 -0.2802 -0.0144 -0.2876
  428TMC3    C6 6384   2.743   1.678  14.876  0.4097 -0.2367 -0.4309
  428TMC3     C 6385   2.539   1.883  14.578  1.0540 -0.1045  0.8909
  428TMC3     O 6386   2.606   1.940  14.495 -0.2303  0.4733 -0.0026
  428TMC3     H 6387   2.448   1.677  14.703  0.2456 -0.9972  0.6513
  428TMC3    H1 6388   2.767   1.940  14.657 -1.7482  0.1036 -1.6711
  428TMC3    H2 6389   2.790   1.641  14.966  0.1767  0.2413 -0.1140
  428TMC3    C7 6390   2.931   1.816  14.839  0.5769  0.8463  0.0656
  428TMC3    C8 6391   2.569   1.533  14.936 -1.0041  0.0543  0.3242
  428TMC3    O1 6392   2.946   1.791  14.958 -0.2201 -0.1408 -0.0395
  428TMC3    O2 6393   2.660   1.460  14.978 -0.2697 -0.6928  0.3479
  429MPD2     C 6394   2.996   1.714   0.260  0.4045  0.0238 -0.0561
  429MPD2    C1 6395   3.082   1.656   0.168 -0.1657  0.0638 -0.6509
  429MPD2    C2 6396   3.088   1.703   0.039  0.9081 -0.0984  0.2841
  429MPD2    C3 6397   3.018   1.822   0.008 -0.6084 -0.9628 -0.1045
  429MPD2    C4 6398   2.929   1.875   0.096 -0.4750  0.1162  0.0973
  429MPD2    C5 6399   2.914   1.813   0.219 -0.8908 -0.5794  0.2588
  429MPD2     H 6400   3.165   1.678  17.668  1.5176 -1.2570  1.3367
  429MPD2    H1 6401   2.860   1.955   0.072  0.5259  0.8526 -0.3718
  429MPD2    H2 6402   2.970   1.680   0.359  0.2448  0.4598  0.0538
  429MPD2    H3 6403   2.851   1.862   0.293 -0.7729 -0.0780  0.0247
  429MPD2     N 6404   3.066   1.880  17.595  0.1962 -0.3476 -0.6447
  429MPD2    H5 6405   3.142   1.830  17.550  0.1977  0.4475 -1.5249
  429MPD2    N1 6406   3.155   1.538   0.197 -0.0285  0.1031 -0.7531
  429MPD2    H7 6407   3.198   1.495   0.115 -1.1779  0.3242 -1.4641
  430TMC3    C1 6408   3.129   2.053  17.451  0.7144  0.1366 -0.1454
  430TMC3    C2 6409   3.085   2.162  17.380  0.1443 -0.2334 -0.0495
  430TMC3    C3 6410   3.183   2.239  17.322 -0.9119 -0.0125  0.1180
  430TMC3    C4 6411   3.258   2.024  17.464  0.1419  0.2186  0.5343
  430TMC3    C5 6412   3.350   2.095  17.405 -0.4680  0.6798 -0.4453
  430TMC3    C6 6413   3.318   2.202  17.333 -0.3656 -0.9680  0.4826
  430TMC3     C 6414   3.042   2.005  17.556 -0.3053 -0.2922  0.4950
  430TMC3     O 6415   2.965   2.083  17.611  0.1682 -0.2659 -0.0234
  430TMC3     H 6416   2.979   2.184  17.380 -0.2150 -1.9464  0.7604
  430TMC3    H1 6417   3.291   1.951  17.537 -2.0234  0.8704  2.1675
  430TMC3    H2 6418   3.384   2.245  17.258  0.2348  0.4670  1.8572
  430TMC3    C7 6419   3.449   2.004  17.361 -0.2815 -0.7340 -0.4827
  430TMC3    C8 6420   3.150   2.299  17.193  0.2959  0.1422 -0.4367
  430TMC3    O1 6421   3.435   1.885  17.378 -0.0974  0.0186  0.1284
  430TMC3    O2 6422   3.088   2.243  17.103 -0.1974  0.1064 -0.5719
  431MPD2     C 6423   4.629   2.215  12.136 -0.3550 -0.5542 -0.0727
  431MPD2    C1 6424   0.018   2.193  12.061 -0.0587  0.0577  0.0594
  431MPD2    C2 6425   0.022   2.085  11.980 -1.2895 -0.1618  0.3474
  431MPD2    C3 6426   4.654   1.980  11.989 -0.4205  0.0353  0.0647
  431MPD2    C4 6427   4.549   2.002  12.083 -0.0898  0.5779  0.4113
  431MPD2    C5 6428   4.523   2.125  12.134  0.6476  0.1862 -0.8544
  431MPD2     H 6429   0.115   2.073  11.925 -2.1729  1.1415 -1.4019
  431MPD2    H1 6430   4.467   1.931  12.088 -1.2388  1.9849  1.4375
  431MPD2    H2 6431   4.627   2.309  12.190  2.7846 -1.4355  1.5489
  431MPD2    H3 6432   4.434   2.148  12.192 -0.3327 -4.1605 -0.6308
  431MPD2     N 6433   4.675   1.853  11.928  0.1607  0.2517  0.0637
  431MPD2    H5 6434   4.633   1.774  11.976 -1.0818  2.1195  2.1148
  431MPD2    N1 6435   0.124   2.285  12.055  0.5127  0.1836  0.8401
  431MPD2    H7 6436   0.187   2.281  11.975  1.4431  1.5115  1.5037
  432TMC3    C1 6437   0.089   1.695  11.821  0.4451 -0.8476 -0.0923
  432TMC3    C2 6438   0.214   1.676  11.759 -0.0591 -0.2157 -0.8398
  432TMC3    C3 6439   0.269   1.558  11.763  0.1790 -0.9830 -0.5502
  432TMC3    C4 6440   0.013   1.594  11.860 -0.2942 -0.2139  0.0343
  432TMC3    C5 6441   0.081   1.471  11.867 -0.1396 -0.5919  0.7233
  432TMC3    C6 6442   0.208   1.453  11.815  0.6605  0.4083 -0.5934
  432TMC3     C 6443   0.042   1.838  11.830 -0.5524  0.2893  0.2560
  432TMC3     O 6444   0.088   1.924  11.755  0.3848 -0.7360  0.1078
  432TMC3     H 6445   0.276   1.758  11.725  0.0994  0.2697  0.6339
  432TMC3    H1 6446   4.632   1.600  11.878 -0.2320  0.1272  0.2873
  432TMC3    H2 6447   0.254   1.354  11.817  0.1330  0.2340  2.8376
  432TMC3    C7 6448   0.020   1.369  11.936  0.3743  0.1793 -0.1163
  432TMC3    C8 6449   0.416   1.539  11.747 -0.1752  0.0585  0.9173
  432TMC3    O1 6450   0.056   1.252  11.918  0.1445 -0.1464 -0.2479
  432TMC3    O2 6451   0.458   1.431  11.713  0.2025  0.2181 -0.6851
  433MPD2     C 6452   3.340   0.721  10.409 -0.6585 -0.0322 -0.3347
  433MPD2    C1 6453   3.384   0.633  10.513 -0.1772  0.1011  0.4997
  433MPD2    C2 6454   3.468   0.677  10.614  1.0127  0.3242 -0.5619
  433MPD2    C3 6455   3.528   0.803  10.603  0.0255  0.3396 -0.6176
  433MPD2    C4 6456   3.495   0.879  10.496 -0.4544 -0.6243  0.1201
  433MPD2    C5 6457   3.404   0.841  10.400 -0.3900  0.6728 -0.1267
  433MPD2     H 6458   3.492   0.611  10.696  1.2401 -0.5175 -1.3186
  433MPD2    H1 6459   3.549   0.972  10.481 -1.2489 -0.1131  0.4655
  433MPD2    H2 6460   3.281   0.684  10.326 -1.9832 -0.2563  0.7085
  433MPD2    H3 6461   3.383   0.905  10.314 -0.6060  1.5211  0.5570
  433MPD2     N 6462   3.625   0.841  10.699 -0.1740  0.7626 -0.3560
  433MPD2    H5 6463   3.652   0.770  10.766  0.2848  1.6549  0.3971
  433MPD2    N1 6464   3.345   0.500  10.509  0.0210 -0.7248  0.4471
  433MPD2    H7 6465   3.400   0.442  10.572 -1.1821 -1.2476  1.0187
  434TMC3    C1 6466   3.258   0.303  10.437 -0.2210  0.4489  0.8709
  434TMC3    C2 6467   3.369   0.240  10.484  0.6941  0.6066  0.7835
  434TMC3    C3 6468   3.376   0.105  10.469 -0.8637  0.7563  0.4783
  434TMC3    C4 6469   3.159   0.229  10.372 -0.1068  0.8303 -0.1278
  434TMC3    C5 6470   3.173   0.092  10.360  0.0893 -0.3338  0.1228
  434TMC3    C6 6471   3.286   0.030  10.397 -0.2027 -0.2275  0.4579
  434TMC3     C 6472   3.257   0.445  10.426 -0.0446  0.4793  0.5684
  434TMC3     O 6473   3.168   0.494  10.355  0.5319  0.1521 -0.1638
  434TMC3     H 6474   3.445   0.292  10.541  0.3458  0.9564  0.9259
  434TMC3    H1 6475   3.067   0.281  10.346  0.1350  1.5713  0.5265
  434TMC3    H2 6476   3.268   4.650  10.418  1.6499  0.0963  3.7594
  434TMC3    C7 6477   3.059   0.020  10.309  0.2784 -0.2819 -0.0969
  434TMC3    C8 6478   3.425   0.037  10.587  0.1805  0.0899  0.5531
  434TMC3    O1 6479   2.948   0.067  10.313 -0.0689  0.0010  0.0694
  434TMC3    O2 6480   3.405   0.099  10.690  0.5651 -0.6891  0.1664
  435MPD2     C 6481   0.623   0.730  15.521  0.4287  0.1465 -0.2181
  435MPD2    C1 6482   0.623   0.798  15.650  0.3384 -0.4270 -0.3518
  435MPD2    C2 6483   0.713   0.749  15.739  0.6717  0.4690  0.2790
  435MPD2    C3 6484   0.806   0.647  15.703  0.1052 -0.4139 -0.5503
  435MPD2    C4 6485   0.805   0.591  15.578 -0.6542  0.2037 -0.6626
  435MPD2    C5 6486   0.716   0.639  15.486  0.0633 -0.5043 -0.3781
  435MPD2     H 6487   0.724   0.792  15.838  1.1513 -1.9490  1.2869
  435MPD2    H1 6488   0.866   0.505  15.550 -0.5068  0.2251 -0.4023
  435MPD2    H2 6489   0.547   0.753  15.447  1.8411  1.0366 -1.3675
  435MPD2    H3 6490   0.704   0.593  15.389  1.8404 -1.4287 -0.1513
  435MPD2     N 6491   0.887   0.595  15.805  0.4395 -0.0626 -0.4203
  435MPD2    H5 6492   0.904   0.647  15.890 -0.9290  0.1919 -0.3096
  435MPD2    N1 6493   0.521   0.883  15.697  0.3235  0.2048 -0.4704
  435MPD2    H7 6494   0.521   0.902  15.796  1.0975  1.4971 -0.7078
  436TMC3    C1 6495   0.174   0.959  15.891 -0.4735  0.3119 -0.3560
  436TMC3    C2 6496   0.286   0.928  15.827  0.6152 -0.1993 -0.5445
  436TMC3    C3 6497   0.298   0.969  15.695  0.2803 -0.4448 -0.5612
  436TMC3    C4 6498   0.065   1.018  15.819  0.0995  0.3060  0.5354
  436TMC3    C5 6499   0.087   1.049  15.687 -0.9482  0.0112 -0.2081
  436TMC3    C6 6500   0.205   1.036  15.622  0.5000 -0.0635 -0.8046
  436TMC3     C 6501   0.176   0.917  16.029 -1.0528 -0.2656 -0.2150
  436TMC3     O 6502   0.247   0.823  16.059 -0.5356  0.0336 -0.2738
  436TMC3     H 6503   0.364   0.870  15.873  1.7157 -1.0827 -3.5245
  436TMC3    H1 6504   4.699   1.027  15.876 -0.0525 -0.7859  0.4452
  436TMC3    H2 6505   0.215   1.053  15.515  0.1721 -0.6368 -0.9247
  436TMC3    C7 6506   4.708   1.118  15.616  0.7467  0.7347  0.0801
  436TMC3    C8 6507   0.412   0.919  15.623  0.1518  0.0131 -0.2276
  436TMC3    O1 6508   4.721   1.133  15.497  0.0681  0.4128  0.3181
  436TMC3    O2 6509   0.407   0.933  15.501 -0.0997  0.1528 -0.2848
  437TMC3    C1 6510   4.661   2.494  11.688 -0.3285  0.5066 -0.5964
  437TMC3    C2 6511   4.639   2.490  11.551 -0.1085  0.3345 -0.6434
  437TMC3    C3 6512   0.015   2.532  11.467 -0.2630 -0.0323 -0.2737
  437TMC3    C4 6513   0.052   2.541  11.742  0.2500  1.0901 -0.1414
  437TMC3    C5 6514   0.154   2.572  11.652 -0.2265  0.8393  0.1466
  437TMC3    C6 6515   0.142   2.562  11.515 -1.2228  0.2051 -0.4023
  437TMC3     C 6516   4.557   2.443  11.775 -0.3012 -0.4164 -0.2116
  437TMC3     O 6517   4.463   2.386  11.723  0.0689 -0.0583 -0.4505
  437TMC3     H 6518   4.542   2.450  11.524  0.6268 -2.4220  0.7935
  437TMC3    H1 6519   0.082   2.527  11.845 -2.5508 -1.3819  0.3466
  437TMC3    H2 6520   0.224   2.570  11.445 -0.0325  1.3052  1.1140
  437TMC3    C7 6521   0.279   2.612  11.705  0.5178 -0.6051 -0.8151
  437TMC3    C8 6522   4.713   2.555  11.328  0.2395  0.2613 -0.4474
  437TMC3    O1 6523   0.375   2.602  11.631 -0.3335 -0.2251  0.3683
  437TMC3    O2 6524   0.081   2.582  11.250  0.2552  0.4207  0.1516
  438MPD2     C 6525   1.514   3.012  15.970 -0.0144  0.3824  0.3173
  438MPD2    C1 6526   1.561   3.017  16.097  0.0959  0.4244  0.2083
  438MPD2    C2 6527   1.479   3.076  16.193 -0.5778 -0.7399  0.3001
  438MPD2    C3 6528   1.372   3.152  16.155  0.4233  0.1985  0.2888
  438MPD2    C4 6529   1.332   3.154  16.024 -0.0409  0.8460  0.1291
  438MPD2    C5 6530   1.407   3.087  15.928  0.3771  0.4942  0.1456
  438MPD2     H 6531   1.514   3.076  16.295 -3.0405 -1.1322  1.1392
  438MPD2    H1 6532   1.252   3.222  15.995 -0.4514  0.2421 -0.1482
  438MPD2    H2 6533   1.570   2.963  15.891  0.7522  1.6432  0.0912
  438MPD2    H3 6534   1.379   3.093  15.823 -0.0549 -2.0261  0.1088
  438MPD2     N 6535   1.297   3.226  16.251  0.2418 -0.0963  0.8335
  438MPD2    H5 6536   1.233   3.287  16.201 -1.6946 -2.8005  0.0059
  438MPD2    N1 6537   1.680   2.957  16.144 -0.2713 -0.2399  0.0944
  438MPD2    H7 6538   1.693   2.981  16.241  0.7194 -1.6533  0.3012
  439TMC3    C1 6539   1.881   2.831  16.135 -0.0160 -0.4885  0.3796
  439TMC3    C2 6540   1.941   2.718  16.088  0.5307 -0.4703  0.0050
  439TMC3    C3 6541   2.046   2.667  16.163  0.3356 -0.2116  0.1805
  439TMC3    C4 6542   1.926   2.898  16.248  0.3111 -0.1248  0.0803
  439TMC3    C5 6543   2.030   2.842  16.316 -0.2096 -0.5073 -0.5059
  439TMC3    C6 6544   2.100   2.734  16.267 -0.3964  0.5371 -0.0346
  439TMC3     C 6545   1.766   2.882  16.063 -0.1634  0.2454  0.3313
  439TMC3     O 6546   1.756   2.838  15.949 -0.5214 -0.6143  0.8203
  439TMC3     H 6547   1.892   2.657  16.013  2.1225  0.0900 -1.5019
  439TMC3    H1 6548   1.867   2.977  16.293 -2.0079 -1.9920  0.3415
  439TMC3    H2 6549   2.183   2.688  16.320  1.2099  2.7115 -0.6748
  439TMC3    C7 6550   2.089   2.897  16.446 -0.1534  0.0381 -0.1151
  439TMC3    C8 6551   2.132   2.565  16.107 -0.0364 -0.0457 -0.3256
  439TMC3    O1 6552   2.176   2.831  16.509 -0.1843 -0.6950  0.6186
  439TMC3    O2 6553   2.231   2.536  16.175 -0.4702 -0.6878 -0.1433
  440MPD2     C 6554   0.550   2.724  15.368  0.2329 -0.7312 -0.1531
  440MPD2    C1 6555   0.483   2.786  15.467 -0.1755 -0.4867  0.3521
  440MPD2    C2 6556   0.485   2.735  15.597  0.1886 -0.3427 -0.7172
  440MPD2    C3 6557   0.561   2.619  15.623  0.0057 -0.7012  0.1824
  440MPD2    C4 6558   0.643   2.570  15.526 -0.1172  0.3039 -0.2094
  440MPD2    C5 6559   0.631   2.613  15.391 -0.8580 -0.1960 -0.3031
  440MPD2     H 6560   0.429   2.791  15.671  1.6816 -1.6157  1.3584
  440MPD2    H1 6561   0.717   2.493  15.544  1.0706  1.0572 -1.8870
  440MPD2    H2 6562   0.555   2.756  15.264 -0.4561  1.1558  0.4050
  440MPD2    H3 6563   0.687   2.573  15.308  0.4266 -0.1087  0.5267
  440MPD2     N 6564   0.573   2.562  15.751 -0.5100 -0.0521 -0.0726
  440MPD2    H5 6565   0.658   2.513  15.779  0.1819  0.9115 -0.4754
  440MPD2    N1 6566   0.419   2.915  15.449  0.2259 -0.1838  0.1707
  440MPD2    H7 6567   0.378   2.962  15.530  0.2409  0.2787 -0.0903
  441TMC3    C1 6568   0.549   2.644  15.972  1.0698  0.7945  0.5528
  441TMC3    C2 6569   0.655   2.725  15.944 -0.1270 -0.3963 -0.1662
  441TMC3    C3 6570   0.638   2.856  15.971 -0.1357 -0.6632 -0.0842
  441TMC3    C4 6571   0.447   2.697  16.058 -0.2892  0.3253  0.1413
  441TMC3    C5 6572   0.444   2.833  16.081 -0.0162  0.2081  0.3142
  441TMC3    C6 6573   0.542   2.917  16.039  0.5874 -0.5697  0.0613
  441TMC3     C 6574   0.487   2.589  15.850 -0.1776  0.0608 -0.2281
  441TMC3     O 6575   0.366   2.601  15.839  0.9940 -0.3334 -0.0797
  441TMC3     H 6576   0.745   2.696  15.890  0.6343  2.2315 -0.3038
  441TMC3    H1 6577   0.369   2.628  16.086  0.1982  0.1396  1.0122
  441TMC3    H2 6578   0.532   3.024  16.049 -1.7540 -0.9189  1.5006
  441TMC3    C7 6579   0.345   2.899  16.169 -0.6526  0.0660  0.4876
  441TMC3    C8 6580   0.750   2.934  15.929  0.8480  0.5828  0.2086
  441TMC3    O1 6581   0.369   3.014  16.198  0.1795 -0.0884 -0.4754
  441TMC3    O2 6582   0.862   2.899  15.958  0.0126 -0.6488 -0.0309
  442MPD2     C 6583   3.435   4.543  16.319  0.1621 -0.0500  0.0432
  442MPD2    C1 6584   3.324   4.492  16.377  0.7896  0.3279  0.0135
  442MPD2    C2 6585   3.275   4.377  16.319  0.4894 -0.0126 -0.3169
  442MPD2    C3 6586   3.336   4.314  16.208 -0.4050  1.0078 -0.1818
  442MPD2    C4 6587   3.436   4.379  16.145  0.7605  0.1902  0.8727
  442MPD2    C5 6588   3.486   4.490  16.202 -0.2950  0.4316 -0.3499
  442MPD2     H 6589   3.203   4.325  16.382 -0.6937  3.5825  1.2849
  442MPD2    H1 6590   3.488   4.336  16.060 -0.8381  1.6444 -0.8375
  442MPD2    H2 6591   3.484   4.633  16.353  0.1343 -0.0227  0.0120
  442MPD2    H3 6592   3.558   4.545  16.144 -0.1120 -0.5622 -1.0688
  442MPD2     N 6593   3.295   4.185  16.164  0.2917  0.2777 -0.1419
  442MPD2    H5 6594   3.344   4.157  16.080  0.9497 -0.4838  0.4937
  442MPD2    N1 6595   3.270   4.543  16.499  0.0262  0.4657 -0.0244
  442MPD2    H7 6596   3.186   4.495  16.528  0.1985  1.1323  1.5518
  443TMC3    C1 6597   3.200   4.696  16.650 -0.4011  0.0564 -0.1371
  443TMC3    C2 6598   3.125   0.080  16.607  0.6754  0.0582  0.2937
  443TMC3    C3 6599   2.995   0.084  16.651 -1.0197  0.1429 -0.0856
  443TMC3    C4 6600   3.175   4.622  16.760  0.2558  0.1296 -0.4076
  443TMC3    C5 6601   3.060   4.652  16.824 -0.0823  0.5464  0.4175
  443TMC3    C6 6602   2.971   0.015  16.768 -0.4910 -0.8550 -0.0317
  443TMC3     C 6603   3.304   4.658  16.559 -0.5668 -0.0628 -0.5758
  443TMC3     O 6604   3.397   0.007  16.537 -0.1554 -0.2602 -0.0806
  443TMC3     H 6605   3.157   0.135  16.519 -0.4437  0.1546 -0.0540
  443TMC3    H1 6606   3.245   4.546  16.791 -1.2387 -0.4757  1.4259
  443TMC3    H2 6607   2.868   0.018  16.800 -0.1152  0.7048  1.0354
  443TMC3    C7 6608   3.006   4.571  16.932 -0.2701  0.1789  0.4248
  443TMC3    C8 6609   2.917   0.016  16.552 -0.4712  0.3565 -0.3960
  443TMC3    O1 6610   3.016   4.451  16.912 -0.2092  0.8262 -0.8240
  443TMC3    O2 6611   2.903   4.626  16.584 -0.2944 -0.0367 -0.9537
  444MPD2     C 6612   3.297   4.040  16.927 -0.0667  0.4678  0.4418
  444MPD2    C1 6613   3.238   3.923  16.968 -0.1288 -0.1405 -0.1408
  444MPD2    C2 6614   3.292   3.804  16.918  0.7819 -0.4456 -0.0379
  444MPD2    C3 6615   3.416   3.802  16.852 -0.2782  0.1824 -0.5183
  444MPD2    C4 6616   3.473   3.927  16.822  0.3105 -0.8256 -0.2132
  444MPD2    C5 6617   3.415   4.044  16.866  0.3198  0.9286  0.1360
  444MPD2     H 6618   3.252   3.710  16.955  3.0968 -1.7068 -0.7423
  444MPD2    H1 6619   3.567   3.925  16.768  0.3445  0.4113 -0.1955
  444MPD2    H2 6620   3.253   4.135  16.954  1.4018  1.3350 -0.2341
  444MPD2    H3 6621   3.468   4.137  16.848 -0.4042  1.5241  1.1258
  444MPD2     N 6622   3.482   3.681  16.832 -0.1400 -0.5964  0.4731
  444MPD2    H5 6623   3.436   3.600  16.873  2.6887 -2.2671  0.3019
  444MPD2    N1 6624   3.132   3.925  17.059 -0.3567 -0.0807 -0.1150
  444MPD2    H7 6625   3.113   3.832  17.093  1.0003 -0.7275 -1.1526
  445TMC3    C1 6626   3.665   3.534  16.827  0.1776  0.1019 -0.2944
  445TMC3    C2 6627   3.622   3.477  16.946 -0.5003  0.4491  0.0289
  445TMC3    C3 6628   3.684   3.358  16.967  0.6966 -0.6773 -0.3840
  445TMC3    C4 6629   3.751   3.471  16.742 -0.1627  0.2662  0.3824
  445TMC3    C5 6630   3.824   3.360  16.773  0.1971 -0.4802 -0.0980
  445TMC3    C6 6631   3.786   3.298  16.890  0.1085  0.3673 -0.3186
  445TMC3     C 6632   3.605   3.658  16.780 -0.4676 -0.8307  0.3953
  445TMC3     O 6633   3.672   3.723  16.706 -0.0849  0.0906  0.4836
  445TMC3     H 6634   3.567   3.541  17.014 -3.7016 -3.7476  1.3286
  445TMC3    H1 6635   3.770   3.517  16.646 -2.8052 -0.1620 -0.3548
  445TMC3    H2 6636   3.833   3.204  16.916  1.1156  1.4379  1.7765
  445TMC3    C7 6637   3.909   3.293  16.678  0.2385 -0.1627  0.5254
  445TMC3    C8 6638   3.651   3.297  17.093  0.1145  0.6844 -0.5818
  445TMC3    O1 6639   3.895   3.332  16.562  0.6231  0.2428 -0.2630
  445TMC3    O2 6640   3.732   3.220  17.147  0.1509  0.0321 -0.3372
  446MPD2     C 6641   3.446   0.509  10.926  0.4521 -0.3061  0.4945
  446MPD2    C1 6642   3.443   0.392  10.857 -0.4363 -0.2632  0.1670
  446MPD2    C2 6643   3.560   0.320  10.833  0.0346  0.2216 -0.2490
  446MPD2    C3 6644   3.672   0.363  10.891  0.0204  0.6416 -0.3802
  446MPD2    C4 6645   3.676   0.470  10.974 -0.1753 -0.1017  0.4584
  446MPD2    C5 6646   3.566   0.546  10.987 -0.4688 -0.9275 -0.5742
  446MPD2     H 6647   3.585   0.243  10.762 -1.4825 -0.1665 -0.3558
  446MPD2    H1 6648   3.760   0.494  11.039 -1.0945  1.8001  0.9333
  446MPD2    H2 6649   3.365   0.579  10.941  0.3513 -0.2722 -0.2195
  446MPD2    H3 6650   3.566   0.626  11.060  1.4870 -1.2486 -0.2046
  446MPD2     N 6651   3.786   0.283  10.860 -0.6158  0.5262  0.5390
  446MPD2    H5 6652   3.770   0.217  10.785  1.0777  1.0701 -0.2963
  446MPD2    N1 6653   3.327   0.341  10.808  0.1082  0.2130 -0.3002
  446MPD2    H7 6654   3.333   0.247  10.769 -4.0082 -1.4600  3.0957
  447TMC3    C1 6655   4.005   0.196  10.843 -0.3258  0.3197  0.1718
  447TMC3    C2 6656   3.986   0.165  10.715 -0.3901 -0.5871  0.0560
  447TMC3    C3 6657   4.060   0.060  10.658  0.1625  0.1939  1.1993
  447TMC3    C4 6658   4.081   0.123  10.927 -0.0187 -0.3518  0.0917
  447TMC3    C5 6659   4.140   0.013  10.864 -0.4686  0.0387  0.3913
  447TMC3    C6 6660   4.139   4.705  10.735 -0.3280  0.0329  0.7917
  447TMC3     C 6661   3.920   0.296  10.903 -0.2515  0.0568 -0.5984
  447TMC3     O 6662   3.950   0.364  11.002  0.2068  0.2420  0.7809
  447TMC3     H 6663   3.912   0.225  10.663 -2.3550 -3.2937 -0.3058
  447TMC3    H1 6664   4.083   0.147  11.032 -0.3750 -1.1347  0.2780
  447TMC3    H2 6665   4.193   4.620  10.695 -0.8024 -0.1529  0.5464
  447TMC3    C7 6666   4.189   4.634  10.952  0.3260  0.4408 -0.5036
  447TMC3    C8 6667   4.027   0.034  10.518  0.2142 -0.3719 -0.1923
  447TMC3    O1 6668   4.194   4.520  10.907  0.9774  0.0775  0.3043
  447TMC3    O2 6669   3.963   0.120  10.460  0.4194  0.1544 -0.1259
  448TMC3    C1 6670   2.059   0.085  16.418  0.0740  0.7615 -0.4031
  448TMC3    C2 6671   1.965   4.706  16.419 -0.9153  0.5806 -0.1425
  448TMC3    C3 6672   1.949   4.646  16.543  0.6912 -0.0600  0.7097
  448TMC3    C4 6673   2.127   0.124  16.527  0.1863 -0.2499  0.0508
  448TMC3    C5 6674   2.122   0.044  16.642  1.0484 -0.2411  0.5204
  448TMC3    C6 6675   2.022   4.680  16.657  0.8225  0.6113 -0.7484
  448TMC3     C 6676   2.041   0.172  16.308 -0.1852 -0.2598 -0.3409
  448TMC3     O 6677   2.015   0.115  16.203 -0.1614  0.0454  0.2081
  448TMC3     H 6678   1.903   4.687  16.332  0.4374  2.2590 -1.4826
  448TMC3    H1 6679   2.210   0.193  16.515 -0.0938 -0.1789 -1.5336
  448TMC3    H2 6680   2.018   4.620  16.747 -2.4710  1.5071 -0.3064
  448TMC3    C7 6681   2.194   0.083  16.764 -0.1078  0.3283 -0.4921
  448TMC3    C8 6682   1.857   4.532  16.551 -0.5239  0.6782  0.1039
  448TMC3    O1 6683   2.285   0.168  16.746  0.1655  0.1187  0.9212
  448TMC3    O2 6684   1.887   4.443  16.627 -0.2044 -0.3911 -0.3104
  449MPD2     C 6685   3.233   3.346  13.355 -0.1108 -0.2067  0.6987
  449MPD2    C1 6686   3.099   3.321  13.367 -0.1197 -0.2534  0.3795
  449MPD2    C2 6687   3.036   3.309  13.488  0.2629  0.1871  0.2878
  449MPD2    C3 6688   3.103   3.326  13.605  0.7414  0.0643 -0.1339
  449MPD2    C4 6689   3.234   3.369  13.594 -0.1888 -0.1105  0.2449
  449MPD2    C5 6690   3.300   3.371  13.472 -1.2017 -0.3580 -0.6433
  449MPD2     H 6691   2.936   3.268  13.499  0.2245  0.0692 -0.5134
  449MPD2    H1 6692   3.302   3.376  13.678  0.2017  1.3898 -0.1999
  449MPD2    H2 6693   3.283   3.357  13.259 -0.2139  1.0261  0.7810
  449MPD2    H3 6694   3.406   3.392  13.462 -1.3818  0.2891 -1.1558
  449MPD2     N 6695   3.041   3.290  13.727 -0.4072  0.4261  1.0010
  449MPD2    H5 6696   2.944   3.259  13.726 -0.0046 -0.7088 -2.8123
  449MPD2    N1 6697   3.020   3.287  13.250 -0.2911  0.5821  0.8177
  449MPD2    H7 6698   2.927   3.253  13.271  0.2918 -1.0927  0.6714
  450TMC3    C1 6699   2.947   3.218  13.040 -0.4264 -0.0168  0.1665
  450TMC3    C2 6700   2.989   3.100  12.993 -0.7600  0.5310 -0.0983
  450TMC3    C3 6701   2.906   2.993  12.986 -0.7811 -0.8327  0.5739
  450TMC3    C4 6702   2.829   3.216  13.109  0.2827  0.1695  0.6092
  450TMC3    C5 6703   2.753   3.106  13.114 -0.3174  0.1598  0.4866
  450TMC3    C6 6704   2.778   2.997  13.046 -0.3489  0.4461  0.1382
  450TMC3     C 6705   3.048   3.288  13.116 -0.3416 -0.2121  0.1141
  450TMC3     O 6706   3.145   3.330  13.052  0.1335 -0.3767 -0.2549
  450TMC3     H 6707   3.086   3.112  12.945 -0.1612  0.5450  1.1070
  450TMC3    H1 6708   2.779   3.311  13.129  0.3870  0.6765 -1.4395
  450TMC3    H2 6709   2.729   2.901  13.047 -0.1285  0.3325  0.1164
  450TMC3    C7 6710   2.714   3.096  13.254  0.0136  1.1391  0.7084
  450TMC3    C8 6711   2.958   2.859  12.954  0.0608 -0.2531  0.2220
  450TMC3    O1 6712   2.780   3.169  13.325  0.2891  0.1279  0.1937
  450TMC3    O2 6713   2.875   2.768  12.931  0.0476  0.1562  0.0995
  451MPD2     C 6714   4.028   2.338   1.417 -0.2158 -0.0177 -0.0907
  451MPD2    C1 6715   4.117   2.438   1.390  0.3602  0.0129 -0.5096
  451MPD2    C2 6716   4.245   2.414   1.345 -0.1545 -0.1160 -0.3387
  451MPD2    C3 6717   4.283   2.276   1.326  0.0631 -1.0234 -0.0363
  451MPD2    C4 6718   4.199   2.178   1.367  0.4420  0.0493  0.0110
  451MPD2    C5 6719   4.072   2.209   1.418  0.2661 -0.3549  0.9570
  451MPD2     H 6720   4.308   2.500   1.323 -2.0428  1.6044  0.9299
  451MPD2    H1 6721   4.225   2.073   1.360  0.8855  0.1609 -0.0100
  451MPD2    H2 6722   3.924   2.354   1.441  0.0845  0.7556  0.6873
  451MPD2    H3 6723   4.004   2.131   1.448 -0.5411 -0.1148 -0.2451
  451MPD2     N 6724   4.403   2.238   1.267  0.1911  0.5436 -0.5961
  451MPD2    H5 6725   4.435   2.142   1.261 -0.3507  0.4228 -1.4792
  451MPD2    N1 6726   4.064   2.567   1.405  0.3248  0.5252  0.4592
  451MPD2    H7 6727   3.974   2.572   1.451  0.6253  0.4146  1.0684
  452TMC3    C1 6728   4.617   2.260   1.156 -0.5929 -0.3539  0.8268
  452TMC3    C2 6729   0.018   2.293   1.207  1.4850 -0.1786 -0.9899
  452TMC3    C3 6730   0.116   2.202   1.186 -0.0305 -0.1626 -0.1823
  452TMC3    C4 6731   4.590   2.149   1.089 -0.6134 -0.0205  0.1289
  452TMC3    C5 6732   4.694   2.061   1.074  0.0870 -0.0405 -0.0452
  452TMC3    C6 6733   0.096   2.078   1.127 -0.4712 -0.0740  0.0880
  452TMC3     C 6734   4.506   2.327   1.230 -0.3303 -0.5835 -0.0529
  452TMC3     O 6735   4.525   2.445   1.259  0.2714  0.3831 -0.1520
  452TMC3     H 6736   0.039   2.386   1.259  0.1861  0.0087 -0.7938
  452TMC3    H1 6737   4.493   2.146   1.041  0.3730  0.8019 -1.8788
  452TMC3    H2 6738   0.181   2.014   1.105 -0.6272 -0.4181  0.4892
  452TMC3    C7 6739   4.677   1.979   0.953 -0.1628 -1.0179  0.3758
  452TMC3    C8 6740   0.236   2.217   1.257 -0.1055  1.1467 -1.0555
  452TMC3    O1 6741   4.587   2.000   0.869  0.1572 -0.1807  0.2173
  452TMC3    O2 6742   0.281   2.113   1.309  0.3425 -0.4542 -0.3014
  453TMC3    C1 6743   1.177   3.791  11.357 -0.1350  0.0549  0.2509
  453TMC3    C2 6744   1.102   3.759  11.468 -0.6597 -0.0145 -0.5344
  453TMC3    C3 6745   0.967   3.745  11.451 -0.1013 -0.0090 -0.4923
  453TMC3    C4 6746   1.120   3.814  11.235 -0.9808 -0.3736 -0.2025
  453TMC3    C5 6747   0.982   3.793  11.220 -0.6321 -0.4601 -0.2409
  453TMC3    C6 6748   0.908   3.748  11.330 -1.1902 -0.0064 -0.0170
  453TMC3     C 6749   1.322   3.798  11.371  0.1819 -0.0687 -0.1814
  453TMC3     O 6750   1.394   3.852  11.284  0.6115 -0.0469 -0.5401
  453TMC3     H 6751   1.145   3.772  11.566  0.6062  1.7649 -1.3218
  453TMC3    H1 6752   1.190   3.834  11.155 -2.0398  0.1435 -0.9924
  453TMC3    H2 6753   0.801   3.736  11.314 -1.3963  0.6073  0.8526
  453TMC3    C7 6754   0.904   3.839  11.111  0.1490  0.2953 -0.9291
  453TMC3    C8 6755   0.888   3.709  11.570  0.6751  1.3597  0.4218
  453TMC3    O1 6756   0.781   3.858  11.114 -0.4560 -0.6814  0.1996
  453TMC3    O2 6757   0.769   3.731  11.570 -0.7466 -0.8747 -0.3246
  454MPD2     C 6758   4.273   3.713  15.951  0.2290  0.3368  0.1144
  454MPD2    C1 6759   4.199   3.596  15.956  0.1808 -0.1434 -0.3510
  454MPD2    C2 6760   4.117   3.577  16.062  0.7469 -0.9874 -0.6095
  454MPD2    C3 6761   4.093   3.680  16.155 -0.4704  0.2789 -0.3105
  454MPD2    C4 6762   4.156   3.799  16.139 -0.5782 -0.2599  0.0236
  454MPD2    C5 6763   4.252   3.811  16.044  0.5094  0.3850 -0.9158
  454MPD2     H 6764   4.063   3.483  16.066 -1.5574  0.3811  0.4686
  454MPD2    H1 6765   4.130   3.885  16.200  0.8682  2.1960 -2.8130
  454MPD2    H2 6766   4.342   3.728  15.869 -1.8715  0.3427 -1.6439
  454MPD2    H3 6767   4.307   3.903  16.026 -0.9734  0.9113 -2.7589
  454MPD2     N 6768   3.987   3.674  16.256 -0.8151  0.3270  0.0350
  454MPD2    H5 6769   3.957   3.753  16.312 -0.9444 -0.7692  1.5095
  454MPD2    N1 6770   4.196   3.493  15.862  0.3601 -0.1291 -0.2294
  454MPD2    H7 6771   4.132   3.416  15.877  1.1114 -0.7870 -0.3808
  455TMC3    C1 6772   3.775   3.601  16.340 -0.1108  0.2773 -0.3496
  455TMC3    C2 6773   3.740   3.730  16.345 -0.1522  0.2721  0.1584
  455TMC3    C3 6774   3.603   3.754  16.355 -0.3410 -0.3189  0.0984
  455TMC3    C4 6775   3.686   3.501  16.340  0.9024 -0.6622  0.4030
  455TMC3    C5 6776   3.547   3.524  16.345  1.3048 -0.1485 -0.5399
  455TMC3    C6 6777   3.509   3.653  16.365  0.0717 -0.8593 -0.3693
  455TMC3     C 6778   3.896   3.567  16.269  0.2202  0.1056 -0.2178
  455TMC3     O 6779   3.911   3.457  16.218 -0.0635  0.4654 -0.5677
  455TMC3     H 6780   3.809   3.810  16.320  1.4213 -0.3097  2.6130
  455TMC3    H1 6781   3.708   3.396  16.325 -3.6154 -1.6785  0.7905
  455TMC3    H2 6782   3.404   3.677  16.349  0.0605  0.0516  1.0702
  455TMC3    C7 6783   3.449   3.422  16.313 -0.0738 -0.0947  0.5114
  455TMC3    C8 6784   3.561   3.885  16.404  0.3592  1.0244 -0.0035
  455TMC3    O1 6785   3.351   3.425  16.387  0.3503  0.7187  0.2068
  455TMC3    O2 6786   3.448   3.916  16.384 -0.0741  0.2783  0.2538
  456MPD2     C 6787   1.973   3.169  15.965 -0.5668 -0.5766 -0.0423
  456MPD2    C1 6788   2.068   3.162  16.061  0.3665  0.7006  0.5647
  456MPD2    C2 6789   2.073   3.261  16.162 -0.0583 -0.3074  0.1783
  456MPD2    C3 6790   1.991   3.371  16.160 -0.9794  0.1475  0.1581
  456MPD2    C4 6791   1.893   3.378  16.062  0.1097  0.2178 -0.1678
  456MPD2    C5 6792   1.886   3.275  15.966  0.5407 -0.6088  0.1317
  456MPD2     H 6793   2.157   3.258  16.230  0.2850  0.2126 -0.2235
  456MPD2    H1 6794   1.826   3.463  16.052  0.0139  0.1319 -0.2516
  456MPD2    H2 6795   1.972   3.093  15.888 -2.6199 -1.3738  0.7492
  456MPD2    H3 6796   1.818   3.280  15.881 -1.2336 -1.2038  1.5041
  456MPD2     N 6797   2.015   3.481  16.249 -0.2102 -0.9231 -0.7001
  456MPD2    H5 6798   2.092   3.472  16.315 -0.8822 -0.7486  0.1025
  456MPD2    N1 6799   2.172   3.071  16.029  0.7664  0.2049  0.3900
  456MPD2    H7 6800   2.174   3.008  15.949 -0.8830  1.2437 -0.4598
  457TMC3    C1 6801   1.952   3.680  16.361 -0.6096 -0.7466 -0.4119
  457TMC3    C2 6802   1.895   3.806  16.348 -0.3163  0.7602 -0.3793
  457TMC3    C3 6803   1.853   3.867  16.465  0.5581 -0.1533  0.2884
  457TMC3    C4 6804   1.984   3.621  16.482  0.0071  0.3092  0.1688
  457TMC3    C5 6805   1.943   3.691  16.593 -0.5425 -0.7087 -0.0039
  457TMC3    C6 6806   1.876   3.810  16.588  0.3219  0.0105 -0.1458
  457TMC3     C 6807   1.948   3.601  16.247 -0.5138  0.4139 -0.0217
  457TMC3     O 6808   1.884   3.651  16.153 -0.2623 -0.5140 -0.2407
  457TMC3     H 6809   1.884   3.855  16.252  1.0446 -0.6014 -1.2080
  457TMC3    H1 6810   2.036   3.526  16.488  0.1086  0.3236 -0.5351
  457TMC3    H2 6811   1.844   3.853  16.681 -0.5115 -0.1951 -0.3394
  457TMC3    C7 6812   2.013   3.667  16.717  0.6056  0.3707  0.4013
  457TMC3    C8 6813   1.823   4.005  16.468  0.1693  0.2258  0.2081
  457TMC3    O1 6814   1.948   3.626  16.812 -0.5840  0.5265  0.0105
  457TMC3    O2 6815   1.854   4.060  16.573 -0.1380 -0.4986  0.0094
  458MPD2     C 6816   0.562   2.909  11.993  0.4820 -0.3797 -0.3880
  458MPD2    C1 6817   0.425   2.929  12.030  0.4358 -0.4601 -0.5680
  458MPD2    C2 6818   0.328   2.842  11.976  0.0697 -0.3268  0.2031
  458MPD2    C3 6819   0.369   2.747  11.890 -0.1780 -0.1169  0.0037
  458MPD2    C4 6820   0.498   2.733  11.858 -0.2229  0.6806  0.5213
  458MPD2    C5 6821   0.601   2.810  11.911  0.0149  0.3177  0.2962
  458MPD2     H 6822   0.223   2.847  12.001  0.4764 -0.3402  1.9702
  458MPD2    H1 6823   0.536   2.653  11.796  0.1114 -0.3174  1.9958
  458MPD2    H2 6824   0.638   2.970  12.040  0.2481  0.1593 -0.7112
  458MPD2    H3 6825   0.700   2.791  11.873 -0.9146 -0.3593 -1.7789
  458MPD2     N 6826   0.268   2.671  11.824 -0.0023 -0.0291 -0.1107
  458MPD2    H5 6827   0.176   2.697  11.859  1.0008  1.0461  1.7136
  458MPD2    N1 6828   0.396   3.021  12.128  0.4167  0.2959  0.0778
  458MPD2    H7 6829   0.474   3.066  12.173  0.8041  0.9964 -1.2981
  459TMC3    C1 6830   0.293   3.140  12.292  0.3865 -0.2657 -0.6357
  459TMC3    C2 6831   0.409   3.218  12.296 -0.7123 -0.6886 -0.0917
  459TMC3    C3 6832   0.467   3.244  12.420 -0.3066  0.2378  0.4332
  459TMC3    C4 6833   0.244   3.080  12.404 -0.2180 -0.3615 -0.1011
  459TMC3    C5 6834   0.294   3.114  12.523 -0.9051 -0.2553  0.2787
  459TMC3    C6 6835   0.406   3.191  12.530 -0.0771 -0.4600 -0.0111
  459TMC3     C 6836   0.271   3.063  12.168 -0.0586  0.2136 -0.3831
  459TMC3     O 6837   0.157   3.017  12.149 -0.5433  0.4932 -0.2159
  459TMC3     H 6838   0.455   3.267  12.211  1.7061 -0.5927  1.2754
  459TMC3    H1 6839   0.148   3.031  12.412  0.8623 -2.5671 -0.4802
  459TMC3    H2 6840   0.452   3.213  12.625 -1.5823  1.6357  0.2363
  459TMC3    C7 6841   0.260   3.021  12.626 -0.1155  0.1108  0.2411
  459TMC3    C8 6842   0.568   3.347  12.441  0.5164 -0.0277 -0.4684
  459TMC3    O1 6843   0.233   2.907  12.590  0.0981  0.0701  0.1208
  459TMC3    O2 6844   0.638   3.326  12.538  0.4828  0.4648  0.1999
  460MPD2     C 6845   4.088   4.464  10.318  0.1928  0.5838  0.2903
  460MPD2    C1 6846   4.033   4.587  10.344 -0.1564  0.1648 -0.5279
  460MPD2    C2 6847   3.961   4.653  10.241 -1.1740 -0.2620  0.5331
  460MPD2    C3 6848   3.934   4.585  10.120 -0.4685  0.0767  0.2173
  460MPD2    C4 6849   3.985   4.455  10.102 -0.2582  0.3601 -0.4220
  460MPD2    C5 6850   4.062   4.404  10.200  0.5331  0.3090  0.3055
  460MPD2     H 6851   3.936   0.033  10.250  0.1732  0.1805 -0.8403
  460MPD2    H1 6852   3.979   4.403  10.007  0.2707 -0.8081  0.1827
  460MPD2    H2 6853   4.168   4.418  10.375  0.4743 -2.1080 -2.2485
  460MPD2    H3 6854   4.104   4.305  10.186 -0.7487  0.1595 -2.6311
  460MPD2     N 6855   3.850   4.654  10.028 -0.7431 -0.2401  0.6639
  460MPD2    H5 6856   3.829   0.022  10.062  0.0350 -0.0863  0.7244
  460MPD2    N1 6857   4.067   4.637  10.471  0.0026 -0.0470 -0.0891
  460MPD2    H7 6858   4.095   4.575  10.546 -0.5405  2.6502  2.3155
  461TMC3    C1 6859   3.721   4.693   9.830  0.0125 -0.2171 -0.1760
  461TMC3    C2 6860   3.684   4.649   9.702 -0.0188 -0.7205  1.1241
  461TMC3    C3 6861   3.617   0.011   9.620 -0.5684  0.5550  0.5114
  461TMC3    C4 6862   3.680   0.095   9.878 -0.0094 -0.3567 -0.6527
  461TMC3    C5 6863   3.602   0.171   9.791 -0.1586  0.1492 -0.0585
  461TMC3    C6 6864   3.567   0.129   9.667 -0.1185 -0.5080  0.3677
  461TMC3     C 6865   3.805   4.601   9.905 -0.3793 -0.0618  0.8075
  461TMC3     O 6866   3.844   4.495   9.854  0.1689  0.2978  0.1117
  461TMC3     H 6867   3.707   4.546   9.679 -0.5849 -1.0963  2.2406
  461TMC3    H1 6868   3.698   0.132   9.978  0.1962 -0.2456 -0.7309
  461TMC3    H2 6869   3.529   0.203   9.597  2.4150  1.2071  0.7832
  461TMC3    C7 6870   3.581   0.312   9.818 -0.6697  0.1179 -0.2471
  461TMC3    C8 6871   3.599   4.705   9.479 -0.0501  0.3157 -0.5983
  461TMC3    O1 6872   3.482   0.358   9.761  0.5651 -0.0204 -0.5010
  461TMC3    O2 6873   3.506   0.037   9.429 -0.8871  0.2264  0.5186
  462TMC3    C1 6874   3.529   1.611   0.037 -0.1915  0.2266 -0.7966
  462TMC3    C2 6875   3.506   1.521  17.643  0.3730 -0.0011 -0.2689
  462TMC3    C3 6876   3.573   1.405  17.644 -0.2145  0.4201 -0.9652
  462TMC3    C4 6877   3.608   1.580   0.147 -0.2759  0.1006 -0.3144
  462TMC3    C5 6878   3.687   1.466   0.139 -0.0222 -0.5012  0.5941
  462TMC3    C6 6879   3.676   1.383   0.033 -0.1773 -0.0396 -0.1309
  462TMC3     C 6880   3.448   1.727   0.045  0.3192 -0.0334  0.6912
  462TMC3     O 6881   3.386   1.761  17.650 -0.4653  0.0196  0.1697
  462TMC3     H 6882   3.428   1.548  17.572 -0.6853 -2.3430  0.0088
  462TMC3    H1 6883   3.638   1.649   0.224  0.4466  0.1308 -0.6215
  462TMC3    H2 6884   3.723   1.286   0.045  1.2327  0.4123 -1.9456
  462TMC3    C7 6885   3.710   1.394   0.267 -0.2465 -0.2628 -0.1261
  462TMC3    C8 6886   3.529   1.303  17.558  0.6354  0.3079  0.0351
  462TMC3    O1 6887   3.682   1.275   0.256 -0.4625 -0.0398 -0.6795
  462TMC3    O2 6888   3.414   1.295  17.522 -0.5827  0.2726 -0.0701
  463MPD2     C 6889   0.102   4.424   2.356  0.2159 -0.6633 -0.6843
  463MPD2    C1 6890   0.058   4.531   2.280  0.1461  0.0729 -0.7192
  463MPD2    C2 6891   0.138   4.643   2.279  0.4388  0.2754 -0.5710
  463MPD2    C3 6892   0.249   4.651   2.360 -1.0844 -0.2209 -0.8520
  463MPD2    C4 6893   0.275   4.554   2.452  0.1670 -0.0142 -0.2165
  463MPD2    C5 6894   0.200   4.438   2.449 -0.5263 -0.5822  0.2813
  463MPD2     H 6895   0.108   0.008   2.226 -1.9127 -0.8767 -1.2115
  463MPD2    H1 6896   0.351   4.567   2.529  0.1095 -1.1872  0.0493
  463MPD2    H2 6897   0.053   4.327   2.358  2.7117 -1.8727  2.6514
  463MPD2    H3 6898   0.223   4.364   2.525 -1.5090  2.0288  3.1483
  463MPD2     N 6899   0.314   0.046   2.379 -0.5408  0.2244  0.0949
  463MPD2    H5 6900   0.384   0.054   2.452  0.1066  3.0529 -0.8510
  463MPD2    N1 6901   4.676   4.524   2.187 -0.0223  0.2492 -0.4996
  463MPD2    H7 6902   4.669   4.603   2.124  0.1920 -0.1830 -1.0748
  464TMC3    C1 6903   4.480   4.422   2.082  0.3123  0.3144  0.1496
  464TMC3    C2 6904   4.408   4.541   2.086 -0.0924 -0.3765 -0.1424
  464TMC3    C3 6905   4.291   4.540   2.021  0.8633  0.2437 -1.1269
  464TMC3    C4 6906   4.434   4.311   2.008 -0.2555  0.0407  0.7031
  464TMC3    C5 6907   4.309   4.315   1.958  0.2615 -0.3397  0.4266
  464TMC3    C6 6908   4.240   4.429   1.959  0.1288 -0.3839 -0.1709
  464TMC3     C 6909   4.598   4.409   2.161 -0.4542 -0.3259  0.0186
  464TMC3     O 6910   4.619   4.304   2.216  0.1412  0.1169  0.2334
  464TMC3     H 6911   4.448   4.636   2.119 -1.3491 -0.3553  1.3475
  464TMC3    H1 6912   4.500   4.226   1.997  1.2356  1.2607  0.1414
  464TMC3    H2 6913   4.136   4.433   1.928  0.0059 -1.9677  0.0610
  464TMC3    C7 6914   4.246   4.205   1.880  0.6489 -0.7771  0.2481
  464TMC3    C8 6915   4.249   4.677   1.970 -0.7748 -0.0242 -0.0478
  464TMC3    O1 6916   4.131   4.228   1.837  0.2456  0.1118 -0.5789
  464TMC3    O2 6917   4.207   4.693   1.854  0.2470  0.1308  0.3165
  465MPD2     C 6918   1.405   3.724  16.789  0.8241  0.1761 -0.4403
  465MPD2    C1 6919   1.297   3.742  16.875 -1.0328  0.3867  0.1892
  465MPD2    C2 6920   1.170   3.726  16.828 -0.0398 -0.7267 -0.0330
  465MPD2    C3 6921   1.156   3.714  16.693 -0.5859 -0.0872  0.1919
  465MPD2    C4 6922   1.257   3.687  16.606 -0.2712  0.0368 -0.0945
  465MPD2    C5 6923   1.383   3.691  16.659 -0.4493 -0.3764  0.2256
  465MPD2     H 6924   1.086   3.737  16.896  0.4296  0.3451  0.3725
  465MPD2    H1 6925   1.249   3.671  16.499 -1.9528  0.6226 -0.0502
  465MPD2    H2 6926   1.507   3.746  16.818  1.6732 -1.7033 -2.0171
  465MPD2    H3 6927   1.469   3.678  16.594 -0.6877  1.0972 -0.3931
  465MPD2     N 6928   1.020   3.735  16.654  0.2056  0.0448 -0.0050
  465MPD2    H5 6929   0.956   3.761  16.729 -0.0131  3.3630 -1.3213
  465MPD2    N1 6930   1.318   3.778  17.008  0.5801 -0.2788  0.5107
  465MPD2    H7 6931   1.240   3.802  17.069  2.6010  0.7766  2.6954
  466TMC3    C1 6932   0.656   3.826  16.638 -0.7849 -0.1816 -0.2061
  466TMC3    C2 6933   0.631   3.934  16.555 -0.4413 -0.7027  0.6739
  466TMC3    C3 6934   0.714   3.968  16.450  0.1266 -0.0604  0.1211
  466TMC3    C4 6935   0.764   3.745  16.615  0.5425  0.2927 -0.3309
  466TMC3    C5 6936   0.835   3.777  16.508 -0.2365  0.3466  0.5090
  466TMC3    C6 6937   0.816   3.880  16.425  0.1937  0.0718 -1.3107
  466TMC3     C 6938   0.579   3.799  16.758  0.0628 -0.3661  0.0977
  466TMC3     O 6939   0.523   3.889  16.815  0.5747 -0.1169  0.3464
  466TMC3     H 6940   0.544   3.995  16.571  0.5058  0.4655  1.2960
  466TMC3    H1 6941   0.791   3.656  16.671 -1.6352 -0.2640 -0.1759
  466TMC3    H2 6942   0.885   3.913  16.348  1.8034 -0.3150 -0.0320
  466TMC3    C7 6943   0.977   3.754  16.523 -0.1864  0.3134 -0.4825
  466TMC3    C8 6944   0.712   4.105  16.390  0.7262 -0.1619  0.6387
  466TMC3    O1 6945   1.051   3.750  16.423 -0.0255  0.2038 -0.2632
  466TMC3    O2 6946   0.794   4.118  16.300  0.1177 -0.6637 -0.0497
  467TMC3    C1 6947   1.642   2.424  13.847  0.2753  0.4968  1.4653
  467TMC3    C2 6948   1.575   2.524  13.778  0.0130 -0.5895 -0.5204
  467TMC3    C3 6949   1.449   2.491  13.721 -0.2692  0.3198  0.1894
  467TMC3    C4 6950   1.585   2.299  13.866 -0.4248 -0.9447  0.4762
  467TMC3    C5 6951   1.457   2.275  13.820 -0.4476 -0.1870 -0.2106
  467TMC3    C6 6952   1.392   2.366  13.742  0.1249 -0.1459 -1.0768
  467TMC3     C 6953   1.788   2.428  13.821  0.1352 -0.2369  0.0919
  467TMC3     O 6954   1.826   2.542  13.820 -0.0323 -0.0490 -0.5895
  467TMC3     H 6955   1.621   2.618  13.749 -2.3138  0.5321 -0.5720
  467TMC3    H1 6956   1.649   2.220  13.903  1.8500  0.2474 -0.9218
  467TMC3    H2 6957   1.307   2.341  13.680 -0.6779  2.2377 -0.9099
  467TMC3    C7 6958   1.402   2.153  13.864  0.1152  0.9254  0.0235
  467TMC3    C8 6959   1.435   2.559  13.597  0.3031  0.0709  0.1903
  467TMC3    O1 6960   1.490   2.068  13.890 -0.6683 -0.5325 -0.0956
  467TMC3    O2 6961   1.453   2.678  13.607 -1.0591  0.0095  0.3803
  468MPD2     C 6962   0.687   0.067  10.855  0.2236 -0.1570 -0.9073
  468MPD2    C1 6963   0.823   0.075  10.851 -0.7540 -0.2221  0.3763
  468MPD2    C2 6964   0.900   4.690  10.867  0.6233 -0.4197  0.5619
  468MPD2    C3 6965   0.843   4.569  10.877 -0.2746  0.9554 -0.6480
  468MPD2    C4 6966   0.705   4.567  10.888 -0.3921  0.4958  0.0022
  468MPD2    C5 6967   0.629   4.677  10.878 -0.3682  0.1188  0.6918
  468MPD2     H 6968   1.007   4.703  10.879  0.1593  3.1228  0.9200
  468MPD2    H1 6969   0.652   4.473  10.901  2.0276 -1.1087 -1.5420
  468MPD2    H2 6970   0.619   0.151  10.864 -0.5560 -0.8153 -0.5843
  468MPD2    H3 6971   0.525   4.679  10.906 -0.6410  1.3777 -0.4552
  468MPD2     N 6972   0.908   4.446  10.890 -0.9528  0.3657  0.2149
  468MPD2    H5 6973   0.848   4.375  10.930 -0.7332  0.2856  0.4059
  468MPD2    N1 6974   0.891   0.194  10.860  0.9431 -0.0577  0.0449
  468MPD2    H7 6975   0.990   0.175  10.874  0.9438  0.7055  1.0465
  469TMC3    C1 6976   0.931   0.420  10.887  0.4800 -0.0896  0.3768
  469TMC3    C2 6977   0.881   0.531  10.950  0.3406  0.1047  0.4016
  469TMC3    C3 6978   0.974   0.614  11.011  0.3874 -0.2995 -0.4837
  469TMC3    C4 6979   1.065   0.396  10.873  0.1905  0.2376 -0.0832
  469TMC3    C5 6980   1.154   0.480  10.934  0.0138  0.7175 -0.0061
  469TMC3    C6 6981   1.112   0.584  11.015  0.4715 -0.2087 -0.7116
  469TMC3     C 6982   0.837   0.321  10.849 -0.3691 -0.2978  0.1679
  469TMC3     O 6983   0.720   0.354  10.822 -0.3354 -0.5205 -0.1737
  469TMC3     H 6984   0.774   0.541  10.960  0.2946  0.3444 -0.3286
  469TMC3    H1 6985   1.106   0.313  10.817 -0.6645 -0.8094  0.8397
  469TMC3    H2 6986   1.184   0.638  11.076  2.0218 -2.4645 -0.5268
  469TMC3    C7 6987   1.287   0.426  10.954  0.5276 -0.6543 -0.3099
  469TMC3    C8 6988   0.911   0.719  11.085  0.1772 -0.5880 -0.4599
  469TMC3    O1 6989   1.296   0.304  10.949  0.1539  0.0699  0.9518
  469TMC3    O2 6990   0.789   0.730  11.085 -0.4737  0.0072 -0.1394
  470TMC3    C1 6991   2.674   2.435   0.399 -0.0262  0.3170  0.3753
  470TMC3    C2 6992   2.646   2.495   0.520  0.1531  0.5244 -0.3427
  470TMC3    C3 6993   2.755   2.526   0.597 -0.9709 -0.0576  0.5221
  470TMC3    C4 6994   2.802   2.416   0.348 -0.5532  0.6628 -0.1498
  470TMC3    C5 6995   2.907   2.449   0.430 -0.0709  0.0065  0.1120
  470TMC3    C6 6996   2.882   2.501   0.556  0.0063  0.7682 -0.2067
  470TMC3     C 6997   2.567   2.386   0.318 -0.1744 -0.0237 -0.1830
  470TMC3     O 6998   2.459   2.443   0.325 -0.0018  0.0385 -0.7726
  470TMC3     H 6999   2.548   2.493   0.566 -0.3868  0.9883 -1.4752
  470TMC3    H1 7000   2.827   2.378   0.250  1.3429  1.5883 -0.0271
  470TMC3    H2 7001   2.964   2.547   0.610 -0.4780  0.0215  1.1658
  470TMC3    C7 7002   3.034   2.405   0.403 -0.3675  0.6208 -0.0742
  470TMC3    C8 7003   2.752   2.622   0.708 -1.9240 -0.9442  0.1160
  470TMC3    O1 7004   3.058   2.382   0.284  1.2705 -0.5280 -0.3723
  470TMC3    O2 7005   2.843   2.616   0.787  0.1156  0.5151  0.3628
  471MPD2     C 7006   3.377   2.616  16.869  0.3948 -1.2324 -0.0490
  471MPD2    C1 7007   3.311   2.495  16.849  0.5314 -0.6485 -0.1172
  471MPD2    C2 7008   3.252   2.434  16.959 -0.1186 -0.0107  0.0284
  471MPD2    C3 7009   3.253   2.499  17.076 -0.0219  0.3853  0.5346
  471MPD2    C4 7010   3.310   2.627  17.093  0.6012 -0.6077 -0.0010
  471MPD2    C5 7011   3.377   2.679  16.988  0.0189  1.0124 -0.2763
  471MPD2     H 7012   3.215   2.333  16.943 -1.1104  0.6105 -1.6709
  471MPD2    H1 7013   3.321   2.661  17.196 -2.5166  0.7311 -0.0738
  471MPD2    H2 7014   3.422   2.674  16.789 -1.2398  0.0571 -0.0089
  471MPD2    H3 7015   3.432   2.773  16.993  1.1292  0.3359  0.1053
  471MPD2     N 7016   3.219   2.425  17.189 -0.4123  0.2575 -0.8370
  471MPD2    H5 7017   3.217   2.471  17.279 -0.2532  0.8108 -1.1188
  471MPD2    N1 7018   3.327   2.420  16.731  0.6536 -0.3026 -0.5857
  471MPD2    H7 7019   3.301   2.322  16.736  1.8800 -0.6182 -0.4587
  472TMC3    C1 7020   3.406   2.367  16.521  0.8000  0.3908 -0.2358
  472TMC3    C2 7021   3.430   2.402  16.394  0.6698 -0.0217  0.7307
  472TMC3    C3 7022   3.481   2.298  16.317  0.5164 -0.4919  0.2396
  472TMC3    C4 7023   3.439   2.249  16.582  0.4854 -0.1290 -0.8709
  472TMC3    C5 7024   3.489   2.152  16.499  0.0828 -0.1708 -0.4665
  472TMC3    C6 7025   3.504   2.171  16.365 -0.3952  0.0358 -0.3405
  472TMC3     C 7026   3.385   2.472  16.615  0.1993 -0.3110  0.2847
  472TMC3     O 7027   3.421   2.581  16.580 -0.2896  0.0691 -0.0140
  472TMC3     H 7028   3.405   2.497  16.349 -3.8426 -2.0050 -0.9676
  472TMC3    H1 7029   3.421   2.222  16.685  1.1320 -0.7831 -0.9285
  472TMC3    H2 7030   3.548   2.085  16.316  1.3401  0.5095  0.3799
  472TMC3    C7 7031   3.460   2.023  16.549  0.4805  0.6466 -0.0942
  472TMC3    C8 7032   3.407   2.265  16.193 -0.2932  0.8005  0.1012
  472TMC3    O1 7033   3.488   1.995  16.662  0.2421 -0.1757 -0.2630
  472TMC3    O2 7034   3.465   2.263  16.084  0.9617  0.1177  1.1548
  473MPD2     C 7035   3.472   4.098  14.185 -0.4554  0.2227 -0.4856
  473MPD2    C1 7036   3.450   4.211  14.116  0.0067  0.6699  0.8915
  473MPD2    C2 7037   3.498   4.335  14.164  0.1535 -0.1779  0.3024
  473MPD2    C3 7038   3.576   4.337  14.276  1.0309  0.5201 -0.0386
  473MPD2    C4 7039   3.601   4.219  14.345  0.6898 -0.5435  0.1279
  473MPD2    C5 7040   3.554   4.102  14.296 -0.1325  0.0105  0.5502
  473MPD2     H 7041   3.495   4.420  14.097  2.7447 -0.5534 -0.2692
  473MPD2    H1 7042   3.655   4.226  14.439  0.2704  0.7983  0.2684
  473MPD2    H2 7043   3.430   4.002  14.157 -0.0848 -0.7728  2.3586
  473MPD2    H3 7044   3.569   4.003  14.338  2.3063 -0.3155 -1.0847
  473MPD2     N 7045   3.655   4.456  14.312  0.4030  0.1240 -0.3211
  473MPD2    H5 7046   3.722   4.452  14.387  1.0108  0.8835 -0.8222
  473MPD2    N1 7047   3.378   4.205  13.995 -0.3166 -0.1911 -0.2285
  473MPD2    H7 7048   3.345   4.291  13.953 -1.7920 -1.2037 -1.1754
  474TMC3    C1 7049   3.669   4.691  14.356 -0.3429  0.3919 -0.7727
  474TMC3    C2 7050   3.574   0.048  14.411 -0.2538  0.1798 -0.0587
  474TMC3    C3 7051   3.617   0.141  14.501 -0.6139  0.2681  0.1574
  474TMC3    C4 7052   3.802   4.699  14.378  0.2616 -0.0110 -1.0688
  474TMC3    C5 7053   3.840   0.070  14.471  0.5519 -0.2026 -0.5345
  474TMC3    C6 7054   3.748   0.158  14.530  0.3606  0.4216  0.1493
  474TMC3     C 7055   3.609   4.583  14.278  0.2320 -0.3519 -0.3261
  474TMC3     O 7056   3.520   4.618  14.201 -0.5796  0.6721 -0.0772
  474TMC3     H 7057   3.469   0.036  14.385 -0.2694  0.8842 -0.3309
  474TMC3    H1 7058   3.882   4.640  14.335  0.9794 -2.3766  3.4860
  474TMC3    H2 7059   3.775   0.234  14.602 -0.3434  0.4938  0.3391
  474TMC3    C7 7060   3.981   0.088  14.512  0.2486 -0.9339 -0.6313
  474TMC3    C8 7061   3.508   0.217  14.555 -0.6303  0.5302  0.1870
  474TMC3    O1 7062   4.070   0.081  14.429  0.3283  0.1053 -0.3997
  474TMC3    O2 7063   3.405   0.154  14.585  0.8946  0.1771 -0.5965
  475MPD2     C 7064   2.376   3.281  10.874 -0.3194 -0.0557  0.2267
  475MPD2    C1 7065   2.342   3.199  10.767 -0.5673  0.2224 -0.3824
  475MPD2    C2 7066   2.204   3.203  10.735  0.2445  0.8489 -0.3142
  475MPD2    C3 7067   2.110   3.278  10.806  0.6667  0.6608  0.6132
  475MPD2    C4 7068   2.144   3.355  10.911 -1.1442 -0.2471 -0.0606
  475MPD2    C5 7069   2.279   3.349  10.940  0.0780 -0.4122  0.6839
  475MPD2     H 7070   2.171   3.154  10.644  1.7947  2.8140 -1.9176
  475MPD2    H1 7071   2.068   3.422  10.951  0.8577  1.2200  1.2824
  475MPD2    H2 7072   2.478   3.283  10.908 -0.8323 -2.0187  1.8986
  475MPD2    H3 7073   2.318   3.407  11.023 -0.9289  1.1010  0.1112
  475MPD2     N 7074   1.981   3.266  10.757  0.5785  0.0407  0.4523
  475MPD2    H5 7075   1.974   3.221  10.666  1.6561  0.6141  0.0843
  475MPD2    N1 7076   2.440   3.128  10.694 -0.4849 -0.1555 -0.5679
  475MPD2    H7 7077   2.535   3.153  10.717 -0.4600 -0.1253 -0.7042
  476TMC3    C1 7078   2.543   2.994  10.520 -0.1273 -0.0173 -0.3236
  476TMC3    C2 7079   2.517   2.986  10.389 -0.4133 -0.2090  1.0025
  476TMC3    C3 7080   2.619   3.007  10.304 -1.0569 -0.1293  0.1074
  476TMC3    C4 7081   2.665   3.031  10.575  0.3256  0.5097  0.5927
  476TMC3    C5 7082   2.763   3.070  10.487 -0.1228  0.1810  0.1780
  476TMC3    C6 7083   2.740   3.055  10.349 -0.2616  0.0452  0.1813
  476TMC3     C 7084   2.419   3.045  10.582 -0.2670 -0.5614 -0.3427
  476TMC3     O 7085   2.315   3.012  10.529  0.1289  0.0471  0.2370
  476TMC3     H 7086   2.425   2.957  10.341 -1.4398  0.3448  2.6366
  476TMC3    H1 7087   2.677   3.037  10.683  0.6328 -0.2063  0.6046
  476TMC3    H2 7088   2.818   3.070  10.276 -0.0716 -2.0292 -0.0360
  476TMC3    C7 7089   2.876   3.139  10.539  0.3846  0.6954 -1.0815
  476TMC3    C8 7090   2.627   2.956  10.171  0.1264  0.0400 -0.0972
  476TMC3    O1 7091   2.920   3.092  10.648  0.1524  0.4280  0.2327
  476TMC3    O2 7092   2.659   3.036  10.086 -0.7201 -0.3817 -0.1636
  477MPD2     C 7093   4.117   4.236  11.531 -0.7378  0.3380  0.7514
  477MPD2    C1 7094   4.088   4.363  11.571 -0.3683  0.1953  0.6345
  477MPD2    C2 7095   4.132   4.403  11.700  0.1571  0.3096 -0.4405
  477MPD2    C3 7096   4.204   4.315  11.780  0.5402  0.1891  0.1890
  477MPD2    C4 7097   4.235   4.189  11.735  0.0364  0.4757 -0.1676
  477MPD2    C5 7098   4.185   4.145  11.616  0.3189  0.8862  0.5149
  477MPD2     H 7099   4.107   4.498  11.746  1.4124  0.1532  0.5567
  477MPD2    H1 7100   4.290   4.122  11.801 -0.6577 -0.4997 -0.5885
  477MPD2    H2 7101   4.064   4.196  11.445 -0.2759  0.5328  0.3742
  477MPD2    H3 7102   4.200   4.043  11.584 -0.1784  0.8096  0.5184
  477MPD2     N 7103   4.252   4.374  11.897 -0.3591  0.3340 -0.6411
  477MPD2    H5 7104   4.190   4.445  11.933 -0.3878 -0.2391  0.4471
  477MPD2    N1 7105   3.999   4.445  11.503 -0.3743 -0.0008 -0.9341
  477MPD2    H7 7106   3.940   4.407  11.429 -3.2400  3.4362 -0.4420
  478TMC3    C1 7107   3.885   4.644  11.435 -0.1237  0.8073 -0.0965
  478TMC3    C2 7108   3.854   0.053  11.454 -0.2593  0.0053  0.3658
  478TMC3    C3 7109   3.798   0.122  11.351 -0.2643  0.1886  0.3945
  478TMC3    C4 7110   3.858   4.575  11.320 -0.3101  0.4039 -0.7150
  478TMC3    C5 7111   3.793   4.648  11.218  0.0443 -0.6874  0.5166
  478TMC3    C6 7112   3.759   0.062  11.239  0.4206  0.0568  0.6339
  478TMC3     C 7113   3.984   4.583  11.527 -0.1086  0.5467 -0.0292
  478TMC3     O 7114   4.035   4.657  11.608 -0.1469  0.3153  0.0633
  478TMC3     H 7115   3.882   0.102  11.546  3.6852 -2.4865  0.5124
  478TMC3    H1 7116   3.881   4.471  11.303 -0.8203  0.3926 -1.3246
  478TMC3    H2 7117   3.713   0.119  11.160  0.9582  0.6082  0.7181
  478TMC3    C7 7118   3.822   4.604  11.084  0.2664  0.0055  0.1943
  478TMC3    C8 7119   3.724   0.240  11.392 -0.2923 -0.0607 -0.7242
  478TMC3    O1 7120   3.920   4.535  11.068 -0.0986  0.0291  0.0709
  478TMC3    O2 7121   3.625   0.236  11.460 -0.2611 -0.0864 -0.0815
  479MPD2     C 7122   3.218   1.990  14.679  0.6797 -0.0339 -0.4370
  479MPD2    C1 7123   3.146   1.930  14.775  0.7865  0.1668 -0.4357
  479MPD2    C2 7124   3.201   1.927  14.899  0.1752 -0.5238 -0.7021
  479MPD2    C3 7125   3.312   2.007  14.930  0.8552 -0.9692  0.8289
  479MPD2    C4 7126   3.377   2.072  14.828 -0.2834  0.8284 -0.5606
  479MPD2    C5 7127   3.334   2.056  14.703  0.2483 -0.3842  1.2791
  479MPD2     H 7128   3.145   1.879  14.977 -0.1378 -1.0931 -1.2786
  479MPD2    H1 7129   3.453   2.146  14.854 -0.2026  0.5505 -0.0056
  479MPD2    H2 7130   3.172   2.000  14.582  1.0222  0.2884 -0.5639
  479MPD2    H3 7131   3.371   2.120  14.624 -0.7076 -1.2010  0.1667
  479MPD2     N 7132   3.368   2.040  15.052  0.3467 -0.1088 -0.4272
  479MPD2    H5 7133   3.458   2.082  15.033  0.6960 -1.1603 -1.0938
  479MPD2    N1 7134   3.015   1.880  14.745 -0.2972 -0.6427 -0.1932
  479MPD2    H7 7135   2.971   1.892  14.654  0.2072  0.2191 -0.3194
  480TMC3    C1 7136   3.016   1.872  15.309  0.3244  0.3134  0.5100
  480TMC3    C2 7137   2.914   1.951  15.260 -0.3437 -0.2496 -0.1520
  480TMC3    C3 7138   2.954   2.049  15.177  0.1899 -0.1036  0.3733
  480TMC3    C4 7139   3.147   1.898  15.287  0.3760 -0.0344 -0.6038
  480TMC3    C5 7140   3.180   1.995  15.198 -0.1681  0.3852  0.0304
  480TMC3    C6 7141   3.081   2.078  15.147 -0.0627  0.6105  0.1592
  480TMC3     C 7142   2.999   1.780  15.415  0.0602 -0.4694  0.1203
  480TMC3     O 7143   3.098   1.730  15.461  0.2838 -0.4204 -0.0221
  480TMC3     H 7144   2.814   1.947  15.302 -0.6740  0.5964 -0.8586
  480TMC3    H1 7145   3.229   1.839  15.326  0.3473 -0.9908 -2.0273
  480TMC3    H2 7146   3.119   2.165  15.094 -0.6551  0.7833  0.0155
  480TMC3    C7 7147   3.323   2.012  15.181  0.0601  0.9193  0.4284
  480TMC3    C8 7148   2.853   2.113  15.092 -0.1754  0.0176  0.9354
  480TMC3    O1 7149   3.386   2.006  15.281 -0.0636 -0.6120 -0.1928
  480TMC3    O2 7150   2.736   2.121  15.127 -0.0852 -0.8585 -0.5533
  481MPD2     C 7151   0.204   1.523  14.195  0.3672  0.2814 -0.4175
  481MPD2    C1 7152   0.088   1.440  14.203 -0.2523  0.1126  0.1059
  481MPD2    C2 7153   0.085   1.349  14.303 -0.3684 -0.1184 -0.7566
  481MPD2    C3 7154   0.186   1.332  14.402 -0.2694  0.5409  0.8502
  481MPD2    C4 7155   0.286   1.423  14.396 -1.2027  0.3732 -0.6415
  481MPD2    C5 7156   0.299   1.515  14.295  1.1213  0.1797 -0.2229
  481MPD2     H 7157   0.005   1.276  14.294  0.7408 -1.2710 -1.2434
  481MPD2    H1 7158   0.369   1.428  14.465  0.3263  0.6464 -2.5034
  481MPD2    H2 7159   0.202   1.598  14.117 -0.7290  0.2253 -0.4401
  481MPD2    H3 7160   0.382   1.583  14.303 -0.2699  1.7960  0.6293
  481MPD2     N 7161   0.191   1.226  14.500  0.1627 -0.4851 -0.0089
  481MPD2    H5 7162   0.280   1.214  14.546  1.7596 -1.2234 -3.2717
  481MPD2    N1 7163   4.720   1.447  14.099  0.9611 -0.8694 -0.2948
  481MPD2    H7 7164   0.019   1.512  14.024 -0.1819  0.0045  0.1034
  482TMC3    C1 7165   4.525   1.399  13.970  0.1766 -0.7886  0.4180
  482TMC3    C2 7166   4.441   1.303  13.929  0.2206  0.2506 -0.2304
  482TMC3    C3 7167   4.365   1.321  13.819  0.4490 -0.0295 -0.0936
  482TMC3    C4 7168   4.549   1.512  13.892  0.5593  0.0321  1.1892
  482TMC3    C5 7169   4.482   1.531  13.778 -0.7456 -0.5495 -0.5188
  482TMC3    C6 7170   4.391   1.431  13.738 -0.2611 -0.3480 -0.4302
  482TMC3     C 7171   4.603   1.373  14.086 -0.1451  0.5513  0.5471
  482TMC3     O 7172   4.552   1.290  14.162  0.0161  0.3767 -0.5302
  482TMC3     H 7173   4.421   1.219  13.995 -1.3433  0.2153 -0.7699
  482TMC3    H1 7174   4.600   1.600  13.930 -1.6212  2.0270 -0.4470
  482TMC3    H2 7175   4.342   1.438  13.642  1.7995  1.3101 -1.3520
  482TMC3    C7 7176   4.541   1.625  13.683  1.0058 -0.0388  0.1113
  482TMC3    C8 7177   4.301   1.205  13.763 -1.2656  0.2588 -0.6048
  482TMC3    O1 7178   4.631   1.697  13.725  0.3475  0.2242  0.0902
  482TMC3    O2 7179   4.341   1.101  13.812  0.0121  0.4832  0.1746
  483TMC3    C1 7180   2.896   0.499   1.419 -0.3552  0.6350  0.8306
  483TMC3    C2 7181   3.014   0.567   1.436 -0.1330  0.7403 -0.0255
  483TMC3    C3 7182   3.119   0.501   1.499  0.7494 -0.6479 -0.5300
  483TMC3    C4 7183   2.883   0.366   1.449  0.6154 -0.4713 -0.0036
  483TMC3    C5 7184   2.986   0.305   1.517  0.2071 -0.3618  0.2883
  483TMC3    C6 7185   3.104   0.373   1.539  0.0557  0.3190  1.2000
  483TMC3     C 7186   2.804   0.566   1.329 -0.3789 -0.4914  0.5568
  483TMC3     O 7187   2.818   0.688   1.333  0.8917 -0.2548  0.3256
  483TMC3     H 7188   3.028   0.657   1.377  1.2965 -0.3853 -1.4221
  483TMC3    H1 7189   2.786   0.319   1.437  0.7039  0.0226 -2.5554
  483TMC3    H2 7190   3.171   0.322   1.607  0.1799 -0.3479  0.5806
  483TMC3    C7 7191   3.000   0.161   1.506 -0.3652  0.4363 -0.2900
  483TMC3    C8 7192   3.245   0.560   1.468  0.2188  0.6340  0.5287
  483TMC3    O1 7193   3.115   0.119   1.500  0.1536 -0.4097 -0.5478
  483TMC3    O2 7194   3.251   0.660   1.397  0.2461  0.0733  0.1900
  484MPD2     C 7195   0.557   3.696  12.318 -0.0374  0.2458 -0.4972
  484MPD2    C1 7196   0.617   3.584  12.372 -0.4431  0.1716 -0.0696
  484MPD2    C2 7197   0.753   3.586  12.405 -0.4813  0.4905  0.7444
  484MPD2    C3 7198   0.829   3.697  12.386 -0.2000 -0.0120 -0.0743
  484MPD2    C4 7199   0.766   3.810  12.339  0.3046  0.5056  0.5229
  484MPD2    C5 7200   0.631   3.808  12.310  0.1055  0.1267  0.8974
  484MPD2     H 7201   0.800   3.491  12.424 -0.5747  0.2184 -0.3609
  484MPD2    H1 7202   0.823   3.902  12.329  0.7306  0.0358 -1.3287
  484MPD2    H2 7203   0.455   3.692  12.284  0.3704 -1.6997 -1.5278
  484MPD2    H3 7204   0.595   3.899  12.262  3.8914  2.1115  1.8728
  484MPD2     N 7205   0.962   3.714  12.433  0.2965  0.1342  0.2148
  484MPD2    H5 7206   0.992   3.810  12.445 -0.0155  0.3631 -0.7827
  484MPD2    N1 7207   0.538   3.459  12.371  0.8726  0.4203  0.6559
  484MPD2    H7 7208   0.438   3.462  12.356  1.0889  1.4791 -0.5479
  485TMC3    C1 7209   1.164   3.666  12.554 -0.0630  0.6397 -0.6290
  485TMC3    C2 7210   1.235   3.588  12.643 -0.1859 -0.0313 -0.5322
  485TMC3    C3 7211   1.357   3.622  12.694 -0.7222  0.2747 -0.6624
  485TMC3    C4 7212   1.225   3.769  12.499  0.0068 -0.4803 -0.3110
  485TMC3    C5 7213   1.348   3.803  12.547 -0.4055 -0.3966 -0.1929
  485TMC3    C6 7214   1.411   3.741  12.654 -0.0114  1.4418  0.1292
  485TMC3     C 7215   1.034   3.622  12.505  1.2404 -0.4563  0.2296
  485TMC3     O 7216   1.014   3.500  12.503 -0.2504  0.6990 -0.9405
  485TMC3     H 7217   1.190   3.494  12.673 -0.5509 -0.3606 -2.1298
  485TMC3    H1 7218   1.194   3.820  12.408 -0.8299 -1.0800 -0.3640
  485TMC3    H2 7219   1.508   3.773  12.693  0.5866  0.1763 -0.3278
  485TMC3    C7 7220   1.445   3.844  12.445 -0.5822  0.1662 -0.1243
  485TMC3    C8 7221   1.459   3.522  12.690  0.3232 -0.5811  0.4899
  485TMC3    O1 7222   1.405   3.902  12.346 -1.0733  0.4284 -0.0207
  485TMC3    O2 7223   1.571   3.561  12.662 -0.3673 -0.2432 -0.5284
  486MPD2     C 7224   2.384   2.209  12.932  0.5135  0.0860 -0.0128
  486MPD2    C1 7225   2.482   2.179  12.844  0.1088 -0.1051  0.1876
  486MPD2    C2 7226   2.546   2.285  12.783 -0.2214  0.5096  0.1947
  486MPD2    C3 7227   2.502   2.414  12.802 -0.2882 -0.1815  0.0229
  486MPD2    C4 7228   2.404   2.445  12.897 -0.2435 -0.2618  0.2699
  486MPD2    C5 7229   2.342   2.337  12.963 -0.2038  0.0913  0.2925
  486MPD2     H 7230   2.622   2.263  12.708  0.0878 -2.3597  1.3705
  486MPD2    H1 7231   2.356   2.540  12.915 -4.2019 -1.8996 -1.7492
  486MPD2    H2 7232   2.331   2.126  12.977  3.0801 -1.5149  0.0544
  486MPD2    H3 7233   2.264   2.347  13.038 -1.2074  0.7509 -0.8486
  486MPD2     N 7234   2.556   2.517  12.718  0.0993  0.6662 -0.4295
  486MPD2    H5 7235   2.619   2.490  12.642  1.6293  1.3345  0.5997
  486MPD2    N1 7236   2.510   2.038  12.832  0.2060  0.3790  0.1893
  486MPD2    H7 7237   2.463   1.975  12.896 -1.1043  0.4593 -0.6985
  487TMC3    C1 7238   2.585   1.835  12.723  0.1998 -0.2322 -0.2085
  487TMC3    C2 7239   2.549   1.777  12.607  0.5697 -0.3729 -0.4513
  487TMC3    C3 7240   2.522   1.643  12.613  0.2807 -0.3152  0.0832
  487TMC3    C4 7241   2.590   1.774  12.846  0.3789 -0.5311  0.0133
  487TMC3    C5 7242   2.549   1.640  12.851 -0.6086 -0.4665  0.4902
  487TMC3    C6 7243   2.529   1.575  12.734  0.3780  0.1768  0.5306
  487TMC3     C 7244   2.571   1.982  12.724 -0.0720  0.1833  0.7355
  487TMC3     O 7245   2.596   2.032  12.616 -0.3185  0.3942 -0.2459
  487TMC3     H 7246   2.513   1.835  12.524  0.8819 -1.1954 -1.1641
  487TMC3    H1 7247   2.639   1.828  12.926 -1.6787  1.0387  0.1938
  487TMC3    H2 7248   2.503   1.470  12.725  0.5960  0.4158 -2.6299
  487TMC3    C7 7249   2.426   1.639  12.930 -0.2019  0.0776 -0.4731
  487TMC3    C8 7250   2.391   1.627  12.558 -0.1786  0.0626 -0.1242
  487TMC3    O1 7251   2.385   1.743  12.979  0.5704  0.2416  0.2530
  487TMC3    O2 7252   2.313   1.718  12.588  0.2233 -0.0107 -0.1467
  488MPD2     C 7253   2.701   3.672  16.451  0.4051 -0.4916  0.9078
  488MPD2    C1 7254   2.715   3.804  16.475 -0.6619 -0.0574 -0.3174
  488MPD2    C2 7255   2.686   3.860  16.599 -0.2364 -0.9637 -0.7000
  488MPD2    C3 7256   2.646   3.774  16.696  0.2543  0.2268  0.5614
  488MPD2    C4 7257   2.636   3.635  16.676 -0.4979 -0.4465  0.1068
  488MPD2    C5 7258   2.673   3.589  16.558 -0.6652  0.3580  0.6241
  488MPD2     H 7259   2.694   3.967  16.615 -0.5359 -1.1477  0.7288
  488MPD2    H1 7260   2.602   3.568  16.754  0.0278 -0.3541  0.4151
  488MPD2    H2 7261   2.715   3.618  16.359  0.9798  2.3177 -0.6718
  488MPD2    H3 7262   2.666   3.483  16.537  2.2760  0.1095  0.8307
  488MPD2     N 7263   2.606   3.839  16.809 -0.2411  0.4130  0.7551
  488MPD2    H5 7264   2.615   3.940  16.804  1.5302  0.1902 -0.5725
  488MPD2    N1 7265   2.759   3.895  16.372  0.1913  0.6348  0.1649
  488MPD2    H7 7266   2.776   3.994  16.389 -0.0439  0.1573  3.0911
  489TMC3    C1 7267   2.554   3.873  17.039 -0.2704  0.0052 -0.6623
  489TMC3    C2 7268   2.623   3.988  17.035  0.3064 -0.3652  0.2194
  489TMC3    C3 7269   2.613   4.069  17.143 -0.1313 -0.3746 -0.8660
  489TMC3    C4 7270   2.501   3.822  17.155  0.3248  0.9904 -0.9868
  489TMC3    C5 7271   2.501   3.901  17.261  0.0380 -0.1424 -0.2393
  489TMC3    C6 7272   2.555   4.028  17.261 -0.0724 -0.1810 -0.0223
  489TMC3     C 7273   2.567   3.783  16.927  0.5043 -0.5422  0.3426
  489TMC3     O 7274   2.567   3.666  16.958 -0.4531  0.3832 -0.3478
  489TMC3     H 7275   2.683   4.030  16.955 -1.0076  1.8696  0.3831
  489TMC3    H1 7276   2.477   3.716  17.160  0.9236  0.8155 -1.7770
  489TMC3    H2 7277   2.548   4.086  17.353 -0.4977  0.4232 -0.4374
  489TMC3    C7 7278   2.420   3.865  17.382  0.2349 -0.1787 -0.2285
  489TMC3    C8 7279   2.691   4.186  17.131 -0.0303  0.8191  0.6358
  489TMC3    O1 7280   2.447   3.917  17.487  0.3939 -0.2128  0.1325
  489TMC3    O2 7281   2.786   4.191  17.052 -0.1929  0.8727  0.8812
  490MPD2     C 7282   3.456   3.779  17.212 -0.1290  0.2616 -0.3205
  490MPD2    C1 7283   3.463   3.669  17.297  0.4971  0.0595 -0.7612
  490MPD2    C2 7284   3.585   3.607  17.317  0.0435 -0.1913  0.6684
  490MPD2    C3 7285   3.703   3.651  17.257 -0.4296  0.5542 -0.3428
  490MPD2    C4 7286   3.695   3.755  17.169  0.4247  0.6007 -0.3877
  490MPD2    C5 7287   3.571   3.822  17.149 -0.7278  0.1389  0.7249
  490MPD2     H 7288   3.582   3.515  17.374  2.4958 -1.1927 -0.7823
  490MPD2    H1 7289   3.789   3.790  17.129  1.3337 -0.2608  1.0315
  490MPD2    H2 7290   3.362   3.830  17.193 -0.2337  0.8227  1.7647
  490MPD2    H3 7291   3.559   3.905  17.081  0.4452  0.7322  1.2342
  490MPD2     N 7292   3.832   3.606  17.274 -0.1832 -0.0235 -0.5282
  490MPD2    H5 7293   3.901   3.663  17.226 -0.2477  0.4266 -0.0925
  490MPD2    N1 7294   3.349   3.604  17.348  0.4117 -0.3527  0.4260
  490MPD2    H7 7295   3.366   3.535  17.419  1.0175 -0.9715 -0.3260
  491TMC3    C1 7296   3.113   3.572  17.374 -0.1208 -0.5114 -0.5126
  491TMC3    C2 7297   3.140   3.573  17.507  0.4966 -0.5116  0.1102
  491TMC3    C3 7298   3.056   3.494  17.577 -0.4170 -0.5415  0.7595
  491TMC3    C4 7299   3.015   3.503  17.319 -0.0478  0.2768 -0.8435
  491TMC3    C5 7300   2.938   3.426  17.393  0.1987 -0.4961  0.3787
  491TMC3    C6 7301   2.973   3.405  17.518  0.0457  0.1351 -0.2240
  491TMC3     C 7302   3.224   3.622  17.290 -0.3267  0.9633  0.3884
  491TMC3     O 7303   3.183   3.681  17.192  0.7112  0.1379  1.2407
  491TMC3     H 7304   3.206   3.653  17.538 -0.6179  0.5665 -0.2791
  491TMC3    H1 7305   3.005   3.507  17.211  1.8141 -1.5145 -1.0924
  491TMC3    H2 7306   2.909   3.342  17.578  1.0775 -0.0236  0.7110
  491TMC3    C7 7307   2.882   3.313  17.327 -0.0470 -0.0340  0.1022
  491TMC3    C8 7308   3.043   3.512   0.014  0.4723 -0.7165 -1.0716
  491TMC3    O1 7309   2.899   3.203  17.382 -0.2029 -0.8580 -0.8345
  491TMC3    O2 7310   2.960   3.438   0.068  0.3062 -0.1790 -0.8100
  492MPD2     C 7311   4.239   3.176  11.225 -0.8837  0.2374  0.3602
  492MPD2    C1 7312   4.135   3.109  11.165 -0.1757  0.4428  0.4765
  492MPD2    C2 7313   4.055   3.025  11.247 -0.0141  0.4923 -0.1562
  492MPD2    C3 7314   4.075   3.014  11.386 -0.2164  0.0435 -0.5118
  492MPD2    C4 7315   4.183   3.083  11.436  0.4108 -0.4649 -0.2168
  492MPD2    C5 7316   4.258   3.159  11.360 -0.5608 -0.0110  0.9314
  492MPD2     H 7317   3.967   2.971  11.212 -0.4728  0.5454  0.9060
  492MPD2    H1 7318   4.204   3.086  11.543  0.4805 -0.9013 -0.2201
  492MPD2    H2 7319   4.295   3.249  11.169 -0.9274  1.4992  1.9884
  492MPD2    H3 7320   4.346   3.202  11.404 -0.9144 -1.8600  3.4001
  492MPD2     N 7321   3.998   2.939  11.476 -0.1478  0.7438  0.1035
  492MPD2    H5 7322   4.039   2.937  11.569  1.4255  0.0537 -0.6003
  492MPD2    N1 7323   4.123   3.118  11.027 -0.1988 -0.1069  0.3186
  492MPD2    H7 7324   4.191   3.181  10.986 -0.4612 -0.6018 -0.8823
  493TMC3    C1 7325   4.031   3.068  10.809 -0.1137  0.3167  0.0639
  493TMC3    C2 7326   4.010   3.199  10.763 -0.4345 -0.0416  0.2094
  493TMC3    C3 7327   3.912   3.210  10.669 -0.4188  0.2944  0.4920
  493TMC3    C4 7328   3.953   2.966  10.768  0.2838  0.0975  1.3842
  493TMC3    C5 7329   3.853   2.986  10.682 -0.1998 -0.2874  0.7575
  493TMC3    C6 7330   3.828   3.111  10.632 -0.2763  0.5002 -0.2708
  493TMC3     C 7331   4.024   3.058  10.951  0.0320 -0.2033  0.2858
  493TMC3     O 7332   3.939   2.978  10.985  0.3866 -0.3109 -0.4842
  493TMC3     H 7333   4.061   3.286  10.803  0.3841  0.4855 -1.9412
  493TMC3    H1 7334   3.978   2.864  10.797  0.7239 -0.1780  0.0284
  493TMC3    H2 7335   3.733   3.126  10.581  0.0716 -0.0047 -1.0643
  493TMC3    C7 7336   3.734   2.907  10.717  0.1632  0.0109 -0.2861
  493TMC3    C8 7337   3.918   3.314  10.572  0.0239  0.0984  0.1044
  493TMC3    O1 7338   3.641   2.905  10.634  0.4606  0.4162  0.0477
  493TMC3    O2 7339   3.814   3.352  10.520 -0.3790 -0.2660 -0.3883
  494TMC3    C1 7340   4.392   0.067   0.746  0.5012 -0.5152  0.5309
  494TMC3    C2 7341   4.433   4.662   0.755  0.1224  0.3437 -0.2815
  494TMC3    C3 7342   4.486   4.599   0.642 -0.4503 -0.4043 -0.1689
  494TMC3    C4 7343   4.403   0.143   0.632  0.2366 -0.4643  0.1755
  494TMC3    C5 7344   4.449   0.077   0.519  0.3097  0.4114  0.4721
  494TMC3    C6 7345   4.500   4.672   0.530  0.1033 -0.3338  0.8482
  494TMC3     C 7346   4.333   0.129   0.863  0.5205 -0.1373 -0.0012
  494TMC3     O 7347   4.331   0.254   0.866 -0.0575 -0.5090  0.6622
  494TMC3     H 7348   4.435   4.605   0.847 -0.8876 -0.8595 -0.9967
  494TMC3    H1 7349   4.371   0.246   0.642 -0.0914 -0.7102  1.6231
  494TMC3    H2 7350   4.543   4.625   0.443 -1.4227  0.7997 -0.5212
  494TMC3    C7 7351   4.485   0.162   0.409  0.1111 -0.0256 -0.1283
  494TMC3    C8 7352   4.557   4.474   0.657 -0.3784  0.1862  0.2866
  494TMC3    O1 7353   4.573   0.121   0.336  0.2742 -0.4101  0.4835
  494TMC3    O2 7354   4.640   4.447   0.569 -0.4169  0.2217 -0.0625
  495TMC3    C1 7355   3.175   2.182  14.190 -1.0356 -0.0962 -0.1859
  495TMC3    C2 7356   3.090   2.235  14.097 -0.1281 -0.4171  0.0765
  495TMC3    C3 7357   2.993   2.325  14.134  0.1981  0.7218  0.7598
  495TMC3    C4 7358   3.170   2.227  14.323  0.3663  0.5200 -0.4600
  495TMC3    C5 7359   3.074   2.315  14.356  0.5472  0.3275  0.2911
  495TMC3    C6 7360   2.983   2.356  14.267  0.2940 -1.4824  0.0277
  495TMC3     C 7361   3.178   2.043  14.174 -0.2479  0.5176 -0.7333
  495TMC3     O 7362   3.138   1.996  14.070  0.3379  0.4399 -0.2036
  495TMC3     H 7363   3.091   2.191  13.998  1.4896  0.3333 -0.2558
  495TMC3    H1 7364   3.229   2.185  14.404  0.7478  2.0017  0.0279
  495TMC3    H2 7365   2.915   2.439  14.282  0.3090 -0.9697 -2.6935
  495TMC3    C7 7366   3.036   2.310  14.500 -0.0146  0.4190 -0.0623
  495TMC3    C8 7367   2.869   2.337  14.053  0.9435  0.7331  0.4864
  495TMC3    O1 7368   3.119   2.304  14.590  0.5386 -0.3241  0.2194
  495TMC3    O2 7369   2.764   2.367  14.106 -0.1236  0.3688  0.1577
  496MPD2     C 7370   0.344   2.298  15.377 -0.2999  0.1577 -0.2345
  496MPD2    C1 7371   0.292   2.181  15.430 -0.0221  0.3911  0.0640
  496MPD2    C2 7372   0.205   2.195  15.541  0.0807 -1.1074  0.3513
  496MPD2    C3 7373   0.176   2.322  15.592  0.2672 -0.1892 -0.5087
  496MPD2    C4 7374   0.249   2.434  15.551 -0.2596 -0.1117  0.0457
  496MPD2    C5 7375   0.328   2.419  15.440 -0.3188 -0.0339  0.3504
  496MPD2     H 7376   0.161   2.102  15.576 -0.3960 -1.5852 -1.5327
  496MPD2    H1 7377   0.242   2.529  15.603 -0.5112  0.6475 -1.3920
  496MPD2    H2 7378   0.415   2.286  15.297  0.8476 -0.1535  0.8249
  496MPD2    H3 7379   0.371   2.506  15.391 -0.9436  0.0226 -0.1031
  496MPD2     N 7380   0.088   2.343  15.697  0.5246 -0.0773  0.6928
  496MPD2    H5 7381   0.090   2.426  15.755 -1.8840  1.5657 -1.5812
  496MPD2    N1 7382   0.305   2.064  15.356 -0.1166  0.4062  0.3411
  496MPD2    H7 7383   0.370   2.065  15.278 -0.0314  0.6374  0.4147
  497TMC3    C1 7384   4.663   2.262  15.856 -0.4349  0.8498  0.1710
  497TMC3    C2 7385   4.550   2.189  15.861 -0.8297  0.0595 -0.0797
  497TMC3    C3 7386   4.538   2.089  15.956  0.6573 -0.4677 -0.4881
  497TMC3    C4 7387   0.036   2.247  15.949 -0.2931  0.2968 -0.2665
  497TMC3    C5 7388   0.028   2.151  16.044  0.0460  0.3762 -0.0725
  497TMC3    C6 7389   4.648   2.066  16.038  0.1519 -0.6150 -0.1643
  497TMC3     C 7390   4.722   2.246  15.722 -0.6469  0.0562  0.2091
  497TMC3     O 7391   4.678   2.145  15.660  0.6168 -0.3102  0.2788
  497TMC3     H 7392   4.474   2.210  15.786 -2.0622 -1.6427  0.6752
  497TMC3    H1 7393   0.114   2.322  15.957  0.2963 -0.2897 -0.6016
  497TMC3    H2 7394   4.646   1.978  16.101  1.5304  0.9299  2.0046
  497TMC3    C7 7395   0.072   2.184  16.176  0.3134  0.0237  0.0051
  497TMC3    C8 7396   4.488   1.964  15.908  0.4604  0.4650 -0.5985
  497TMC3    O1 7397   0.050   2.297  16.218 -0.1224  0.0195  0.3897
  497TMC3    O2 7398   4.450   1.875  15.992 -0.1590  0.0296  0.7148
  498MPD2     C 7399   0.592   2.615   9.932 -0.0828 -0.2300  0.7144
  498MPD2    C1 7400   0.717   2.583   9.978 -0.0001  0.4233  0.4137
  498MPD2    C2 7401   0.732   2.481  10.069  0.8714 -0.2189 -0.3824
  498MPD2    C3 7402   0.628   2.410  10.116  0.1269 -0.2957  0.1958
  498MPD2    C4 7403   0.500   2.447  10.070 -0.1664 -0.0266 -0.2179
  498MPD2    C5 7404   0.478   2.552   9.982 -0.3289  0.2130  0.0008
  498MPD2     H 7405   0.832   2.452  10.101  0.4815  1.2211  2.1009
  498MPD2    H1 7406   0.412   2.391  10.097 -0.9302  1.8819  1.2317
  498MPD2    H2 7407   0.566   2.686   9.855  1.7904  1.2957  1.4949
  498MPD2    H3 7408   0.388   2.586   9.930 -0.3719  1.2133  0.7193
  498MPD2     N 7409   0.652   2.304  10.202  0.1691 -0.4403 -0.6117
  498MPD2    H5 7410   0.748   2.277  10.220  0.3799  1.7205  1.5893
  498MPD2    N1 7411   0.832   2.658   9.944  0.6464  0.1037 -0.4437
  498MPD2    H7 7412   0.928   2.646   9.975  1.6308  1.2280 -3.0103
  499TMC3    C1 7413   0.958   2.833   9.838 -0.4354 -0.4836 -0.3350
  499TMC3    C2 7414   1.067   2.812   9.920 -0.4457  0.6187 -0.0961
  499TMC3    C3 7415   1.187   2.870   9.883  0.8021 -0.1085  0.1206
  499TMC3    C4 7416   0.952   2.929   9.741 -0.1020 -0.2054  0.7838
  499TMC3    C5 7417   1.072   2.987   9.706 -0.2130 -0.5986 -0.7818
  499TMC3    C6 7418   1.188   2.957   9.775 -0.2446  0.0135 -0.1575
  499TMC3     C 7419   0.833   2.759   9.849 -0.6401  0.5004  0.4102
  499TMC3     O 7420   0.742   2.792   9.773  0.1287 -0.2349  0.2313
  499TMC3     H 7421   1.054   2.771  10.019 -1.8006  1.4443  0.0775
  499TMC3    H1 7422   0.863   2.933   9.679  0.2643  1.0657  0.3411
  499TMC3    H2 7423   1.285   2.998   9.747 -1.2708  2.7279  0.3459
  499TMC3    C7 7424   1.085   3.097   9.615 -0.9852 -0.5075  0.5204
  499TMC3    C8 7425   1.302   2.855   9.971  0.1874  0.4528  0.6822
  499TMC3    O1 7426   1.201   3.136   9.599  0.1652 -0.1991  0.1431
  499TMC3    O2 7427   1.403   2.919   9.948  0.5106  0.0128  0.5542
  500MPD2     C 7428   3.020   3.528  10.099 -0.4711  0.2660  0.3389
  500MPD2    C1 7429   2.980   3.592   9.984  0.6339  0.2725 -0.0772
  500MPD2    C2 7430   2.879   3.543   9.898 -0.2821 -0.3145 -0.3458
  500MPD2    C3 7431   2.800   3.436   9.937 -0.7870  0.8879 -0.3974
  500MPD2    C4 7432   2.834   3.381  10.057 -0.0120  0.0864  0.3059
  500MPD2    C5 7433   2.944   3.420  10.133 -0.5115 -0.0507  0.2488
  500MPD2     H 7434   2.858   3.590   9.803 -2.4942  1.5085  1.0582
  500MPD2    H1 7435   2.767   3.299  10.081  0.4041  0.0289  1.2907
  500MPD2    H2 7436   3.097   3.568  10.163 -1.0518 -0.3368  1.4153
  500MPD2    H3 7437   2.971   3.367  10.223  0.6625 -0.8460 -0.5664
  500MPD2     N 7438   2.676   3.406   9.875  0.1110  0.1406 -1.0313
  500MPD2    H5 7439   2.610   3.351   9.930  1.9059 -0.3544  0.6211
  500MPD2    N1 7440   3.051   3.708   9.935 -0.2272  0.0909  0.4471
  500MPD2    H7 7441   3.005   3.759   9.860 -0.4590  0.1672  0.6419
  501TMC3    C1 7442   3.239   3.851   9.910  0.0895  0.5463  0.5427
  501TMC3    C2 7443   3.161   3.964   9.895 -0.5212 -0.1327  0.1787
  501TMC3    C3 7444   3.238   4.082   9.893  0.2488 -0.3054  0.1520
  501TMC3    C4 7445   3.374   3.847   9.910  0.3289 -0.1167  0.4037
  501TMC3    C5 7446   3.444   3.958   9.897 -0.1966  0.5176  0.2086
  501TMC3    C6 7447   3.376   4.079   9.880 -0.3504  0.4709 -0.0932
  501TMC3     C 7448   3.184   3.730   9.971 -0.2866 -0.0501  0.3280
  501TMC3     O 7449   3.262   3.669  10.039  0.9426  0.3509 -0.4784
  501TMC3     H 7450   3.053   3.961   9.900 -0.3959 -1.2023  1.9930
  501TMC3    H1 7451   3.425   3.753   9.928 -0.8333 -0.7254  0.4967
  501TMC3    H2 7452   3.436   4.161   9.843  0.3062  0.6848  1.4289
  501TMC3    C7 7453   3.564   3.964   9.975  0.0988  0.1861 -0.2900
  501TMC3    C8 7454   3.197   4.189   9.976  0.4910  0.0303 -0.8450
  501TMC3    O1 7455   3.602   3.862  10.031 -0.0769 -0.0553 -0.5310
  501TMC3    O2 7456   3.281   4.270  10.006  0.3805  0.2004 -0.3378
  502TMC3    C1 7457   2.733   2.852  15.158 -0.3348  0.5162 -0.0387
  502TMC3    C2 7458   2.698   2.918  15.041  0.1102 -0.1104 -0.1680
  502TMC3    C3 7459   2.564   2.912  14.998  0.5859 -0.4542 -0.1438
  502TMC3    C4 7460   2.641   2.779  15.223 -0.3148 -0.3115  0.2077
  502TMC3    C5 7461   2.509   2.775  15.180 -0.0731 -0.3073 -1.0441
  502TMC3    C6 7462   2.473   2.838  15.066  0.1604 -0.2744  0.9141
  502TMC3     C 7463   2.875   2.860  15.202 -0.2603 -0.7404 -0.7557
  502TMC3     O 7464   2.970   2.885  15.128  0.4380  0.1814 -0.4817
  502TMC3     H 7465   2.776   2.950  14.972 -0.2696 -0.4541 -0.7511
  502TMC3    H1 7466   2.660   2.718  15.310  1.8485 -0.9563 -0.7062
  502TMC3    H2 7467   2.371   2.832  15.028 -0.3281  3.1056  1.6584
  502TMC3    C7 7468   2.405   2.730  15.276  0.0606 -0.7498  0.2790
  502TMC3    C8 7469   2.523   3.034  14.929 -1.0738  0.0192  0.5885
  502TMC3    O1 7470   2.434   2.638  15.353  0.0477 -0.0106  0.7160
  502TMC3    O2 7471   2.605   3.126  14.918 -0.6414  0.0373  0.0084
  503MPD2     C 7472   4.648   3.827  16.862 -0.6909 -0.4014  0.3064
  503MPD2    C1 7473   4.661   3.832  17.000  0.7367 -0.0214  0.3294
  503MPD2    C2 7474   4.675   3.709  17.072 -0.0590  0.1229  0.5574
  503MPD2    C3 7475   4.669   3.595  16.998  0.2399  0.6318  0.0385
  503MPD2    C4 7476   4.649   3.595  16.861 -0.0487 -0.0511 -0.0760
  503MPD2    C5 7477   4.640   3.713  16.789  0.2198  0.0516  0.5946
  503MPD2     H 7478   4.694   3.697  17.178 -1.1780 -2.1448  0.5015
  503MPD2    H1 7479   4.635   3.508  16.798  0.2739  0.0832 -0.3310
  503MPD2    H2 7480   4.628   3.914  16.801 -2.7690 -0.2807  1.1663
  503MPD2    H3 7481   4.640   3.708  16.681 -2.7640 -0.7825  0.6031
  503MPD2     N 7482   4.708   3.471  17.063 -0.7041  0.6139 -0.0291
  503MPD2    H5 7483   0.016   3.490  17.157 -0.3020  0.1868 -0.0843
  503MPD2    N1 7484   4.649   3.949  17.080 -0.0429 -0.1604  0.0712
  503MPD2    H7 7485   4.629   3.944  17.180 -1.0981  2.8458  0.0011
  504TMC3    C1 7486   0.028   3.240  17.089  0.3504  0.7767  0.6731
  504TMC3    C2 7487   0.002   3.234  17.224  0.6562  0.9995 -0.3983
  504TMC3    C3 7488   0.061   3.133  17.298  0.4885 -0.0051 -0.2556
  504TMC3    C4 7489   0.111   3.143  17.024  0.0592  0.0204 -0.3243
  504TMC3    C5 7490   0.171   3.048  17.104 -0.1967 -0.1468 -0.4569
  504TMC3    C6 7491   0.148   3.042  17.240  0.0989 -0.0247 -0.0366
  504TMC3     C 7492   4.701   3.344  17.008 -0.2915  0.2453 -1.1965
  504TMC3     O 7493   4.674   3.301  16.897  0.2537 -0.2317  0.6624
  504TMC3     H 7494   4.658   3.303  17.271  0.8980  0.2875  0.9842
  504TMC3    H1 7495   0.132   3.144  16.917  1.5115 -2.5375 -0.0581
  504TMC3    H2 7496   0.167   2.954  17.300 -1.1139  0.0711  0.4928
  504TMC3    C7 7497   0.266   2.958  17.027  0.6411  0.4726  0.4000
  504TMC3    C8 7498   4.694   3.075  17.394  0.4394 -0.7674  0.4758
  504TMC3    O1 7499   0.254   2.955  16.905  0.0679  0.2245 -0.0030
  504TMC3    O2 7500   4.575   3.104  17.372  0.0774 -0.1406 -0.6843
  505MPD2     C 7501   0.914   1.854  11.409  0.2421  0.1736 -0.5805
  505MPD2    C1 7502   0.944   1.725  11.359 -0.2860  0.4398 -0.8318
  505MPD2    C2 7503   1.074   1.701  11.309 -0.4837 -0.5130  0.2150
  505MPD2    C3 7504   1.171   1.810  11.294 -0.0918  0.7721  0.3118
  505MPD2    C4 7505   1.126   1.933  11.336  0.2994 -0.1228  0.2108
  505MPD2    C5 7506   1.009   1.957  11.396  0.2651 -0.5191  0.4654
  505MPD2     H 7507   1.102   1.610  11.258 -1.4426 -0.1393 -0.9630
  505MPD2    H1 7508   1.186   2.021  11.317 -1.2786  0.8103 -0.4821
  505MPD2    H2 7509   0.815   1.877  11.444  0.1040 -2.2607  0.6309
  505MPD2    H3 7510   0.989   2.057  11.431 -1.2883 -0.0721 -1.6855
  505MPD2     N 7511   1.296   1.796  11.220  0.2462  0.2109  0.7406
  505MPD2    H5 7512   1.348   1.881  11.200 -1.2610  0.6906 -1.1319
  505MPD2    N1 7513   0.841   1.628  11.356  0.6254  0.0286 -0.8967
  505MPD2    H7 7514   0.752   1.672  11.375  1.1352 -0.8373  3.4398
  506TMC3    C1 7515   0.750   1.414  11.321  0.0107  0.5615 -0.3944
  506TMC3    C2 7516   0.638   1.467  11.260 -0.6273 -0.3045  0.1624
  506TMC3    C3 7517   0.557   1.382  11.193 -0.1183  0.0042 -0.1345
  506TMC3    C4 7518   0.782   1.277  11.310 -0.0255 -0.0200  0.5827
  506TMC3    C5 7519   0.712   1.199  11.221 -0.6434  0.0907 -0.0487
  506TMC3    C6 7520   0.596   1.252  11.167  1.1632 -0.0271 -0.3797
  506TMC3     C 7521   0.864   1.495  11.339 -0.2098 -0.8200 -0.6983
  506TMC3     O 7522   0.972   1.436  11.333 -0.0719 -0.1574 -0.3833
  506TMC3     H 7523   0.611   1.571  11.275 -1.7690 -0.0181 -3.7990
  506TMC3    H1 7524   0.855   1.241  11.381 -0.7611 -3.1618 -0.2760
  506TMC3    H2 7525   0.548   1.195  11.088 -1.1870  2.3324 -0.6506
  506TMC3    C7 7526   0.799   1.147  11.119  0.1369  0.0172  0.1403
  506TMC3    C8 7527   0.452   1.416  11.107 -0.1967  0.2567  0.0822
  506TMC3    O1 7528   0.749   1.080  11.036  0.0789 -0.3425 -0.2709
  506TMC3    O2 7529   0.374   1.326  11.077  0.1542  0.1111 -0.9250
  507TMC3    C1 7530   0.689   2.199  15.577 -0.0071 -0.6019  0.3919
  507TMC3    C2 7531   0.641   2.126  15.475  0.4397 -0.2131 -0.2112
  507TMC3    C3 7532   0.726   2.103  15.374  0.6469  0.1060  0.4489
  507TMC3    C4 7533   0.806   2.261  15.584 -0.3931 -0.8557  0.0676
  507TMC3    C5 7534   0.889   2.242  15.479 -0.7429  0.1470  0.7051
  507TMC3    C6 7535   0.852   2.160  15.376  0.0718  0.3462 -0.3025
  507TMC3     C 7536   0.602   2.199  15.698 -0.4392  0.4222  0.1981
  507TMC3     O 7537   0.483   2.167  15.677 -0.3437  0.3950 -0.2256
  507TMC3     H 7538   0.544   2.079  15.490 -0.0325  0.2835 -1.7952
  507TMC3    H1 7539   0.816   2.332  15.666  1.3893  3.5165 -3.9781
  507TMC3    H2 7540   0.920   2.140  15.293 -1.2659 -1.8001 -0.8913
  507TMC3    C7 7541   0.946   2.364  15.422 -0.3368 -0.8438  0.7355
  507TMC3    C8 7542   0.658   2.120  15.246 -0.3536  1.0601  0.1263
  507TMC3    O1 7543   0.909   2.389  15.310 -0.0356  1.0812  0.6374
  507TMC3    O2 7544   0.564   2.045  15.222 -0.3817  0.2180 -0.3444
  508MPD2     C 7545   1.613   1.035  15.997 -0.2920 -0.2528  0.2252
  508MPD2    C1 7546   1.724   1.095  15.945  0.2889  0.2424  0.7764
  508MPD2    C2 7547   1.745   1.094  15.813 -0.1520  0.1177  0.2920
  508MPD2    C3 7548   1.645   1.042  15.729  0.3337  0.7176 -0.2679
  508MPD2    C4 7549   1.531   0.988  15.786 -0.3845 -0.3871 -0.2638
  508MPD2    C5 7550   1.511   0.985  15.920  0.1188  0.3153 -0.4877
  508MPD2     H 7551   1.829   1.150  15.773  0.9983 -1.5014  0.4118
  508MPD2    H1 7552   1.454   0.938  15.728  0.7000 -1.0949 -1.0817
  508MPD2    H2 7553   1.608   1.028  16.105  0.1417  2.2577  0.4091
  508MPD2    H3 7554   1.423   0.938  15.961  0.9005  0.4834  1.4016
  508MPD2     N 7555   1.677   1.053  15.589  0.9571  0.4372 -0.2961
  508MPD2    H5 7556   1.769   1.089  15.564  0.8506  0.9490  0.0613
  508MPD2    N1 7557   1.818   1.147  16.036  0.0599  0.7610 -0.0001
  508MPD2    H7 7558   1.793   1.151  16.134  0.3613  4.1314 -0.0733
  509TMC3    C1 7559   1.588   1.014  15.131  0.4564 -0.9042 -0.4048
  509TMC3    C2 7560   1.705   1.085  15.103 -0.1124  0.1257  0.5717
  509TMC3    C3 7561   1.755   1.167  15.203  0.3770  0.7931 -1.0710
  509TMC3    C4 7562   1.545   1.004  15.258 -0.1447  0.8660 -0.1194
  509TMC3    C5 7563   1.624   1.052  15.360 -0.0690  0.2597  0.0080
  509TMC3    C6 7564   1.715   1.151  15.335 -0.3778 -0.1930  0.3085
  509TMC3     C 7565   1.479   1.045  15.047 -0.0604 -0.8114 -0.2126
  509TMC3     O 7566   1.371   1.007  15.085  0.0678 -0.6739  0.0873
  509TMC3     H 7567   1.748   1.087  15.004  2.9725 -1.3822  1.8883
  509TMC3    H1 7568   1.457   0.946  15.282  0.2213 -0.4845 -2.0250
  509TMC3    H2 7569   1.766   1.199  15.417 -1.2484 -0.0095  0.7502
  509TMC3    C7 7570   1.593   1.004  15.491 -0.1236 -0.2600  0.8693
  509TMC3    C8 7571   1.785   1.297  15.151 -0.0282 -0.0154  0.0153
  509TMC3    O1 7572   1.500   0.928  15.510 -0.3393 -0.6507 -0.1270
  509TMC3    O2 7573   1.779   1.310  15.031  0.3105  0.0943  0.7517
  510MPD2     C 7574   4.320   2.231  14.309 -0.7022  0.8870  0.3091
  510MPD2    C1 7575   4.376   2.314  14.407  0.4702  0.5861  0.3045
  510MPD2    C2 7576   4.493   2.379  14.377  0.7929 -0.0013 -0.8095
  510MPD2    C3 7577   4.543   2.372  14.246 -0.2324  0.2681  0.3765
  510MPD2    C4 7578   4.481   2.298  14.146 -0.4176 -0.7833 -0.7872
  510MPD2    C5 7579   4.364   2.235  14.181  0.8594  0.3511 -0.9644
  510MPD2     H 7580   4.536   2.437  14.459  4.5118 -1.1101 -1.9631
  510MPD2    H1 7581   4.519   2.305  14.045  0.8903  3.6053 -0.0146
  510MPD2    H2 7582   4.220   2.193  14.330 -1.2527  2.2766  0.2213
  510MPD2    H3 7583   4.316   2.178  14.102  0.0473 -1.0682  0.5525
  510MPD2     N 7584   4.670   2.430  14.232 -0.3648  0.0456  0.0737
  510MPD2    H5 7585   4.704   2.475  14.316 -2.2759 -0.3465  1.0845
  510MPD2    N1 7586   4.327   2.305  14.536 -0.1882 -0.6195  0.6463
  510MPD2    H7 7587   4.279   2.224  14.575 -3.4445  1.2631  0.5374
  511TMC3    C1 7588   4.305   2.361  14.763  0.0150 -0.1556 -0.1422
  511TMC3    C2 7589   4.194   2.412  14.819  0.0073  0.5279  0.1469
  511TMC3    C3 7590   4.115   2.324  14.895  0.4473  0.2093  0.3919
  511TMC3    C4 7591   4.343   2.229  14.774 -0.3364 -0.5771  0.1106
  511TMC3    C5 7592   4.256   2.145  14.839 -0.0616  0.1876  0.0094
  511TMC3    C6 7593   4.149   2.192  14.907 -0.8578  0.0850  0.0893
  511TMC3     C 7594   4.328   2.407  14.625  0.2030 -0.5485 -0.1363
  511TMC3     O 7595   4.361   2.523  14.602 -0.8181 -0.4049 -0.1673
  511TMC3     H 7596   4.170   2.516  14.801  0.3073  0.5172 -0.3367
  511TMC3    H1 7597   4.432   2.202  14.719  1.0628  2.2342  1.0156
  511TMC3    H2 7598   4.093   2.121  14.966 -0.0778 -0.6623 -0.0768
  511TMC3    C7 7599   4.225   2.039  14.743  0.0559 -1.1405 -0.2040
  511TMC3    C8 7600   4.014   2.388  14.970 -0.1331  0.4319  0.5214
  511TMC3    O1 7601   4.247   2.067  14.624  0.6952  0.1074 -0.2463
  511TMC3    O2 7602   4.004   2.510  14.969  0.1592 -0.5405 -0.5376
  512TMC3    C1 7603   2.583   1.636  13.338 -0.0127  0.4000  0.2574
  512TMC3    C2 7604   2.723   1.635  13.329 -0.3563  0.2929  0.3571
  512TMC3    C3 7605   2.781   1.516  13.291  0.9019 -0.0303 -0.1621
  512TMC3    C4 7606   2.505   1.522  13.315  0.2937  0.3257  0.1828
  512TMC3    C5 7607   2.567   1.416  13.257  0.3275 -0.3123  0.0621
  512TMC3    C6 7608   2.708   1.406  13.248  0.2966 -0.2056  0.7563
  512TMC3     C 7609   2.515   1.757  13.297 -0.5342  0.3219 -0.2185
  512TMC3     O 7610   2.393   1.761  13.307  0.2630  0.1357 -0.4864
  512TMC3     H 7611   2.779   1.723  13.361 -1.4522  0.4701  1.7877
  512TMC3    H1 7612   2.399   1.529  13.336  0.1245 -0.6976 -0.3333
  512TMC3    H2 7613   2.763   1.323  13.205  1.0751  1.3392 -1.2364
  512TMC3    C7 7614   2.485   1.300  13.238  0.2946 -0.1482  0.4464
  512TMC3    C8 7615   2.897   1.475  13.371  0.1048  0.2621  0.0573
  512TMC3    O1 7616   2.369   1.320  13.266  0.4977 -0.5442  0.0421
  512TMC3    O2 7617   2.921   1.353  13.386  0.4859 -0.3481 -0.0733
  513MPD2     C 7618   0.340   1.891  13.383  0.2614 -0.0228  0.1264
  513MPD2    C1 7619   0.467   1.888  13.337  0.1464 -0.3740  0.0983
  513MPD2    C2 7620   0.570   1.905  13.422  0.9980  0.3775  0.3606
  513MPD2    C3 7621   0.546   1.897  13.556 -0.0062 -0.1428 -0.2161
  513MPD2    C4 7622   0.416   1.881  13.608  0.6604 -0.3491 -0.3902
  513MPD2    C5 7623   0.313   1.875  13.522 -0.0931  0.9652  0.6492
  513MPD2     H 7624   0.673   1.902  13.388  0.7156 -1.5449 -0.3755
  513MPD2    H1 7625   0.395   1.856  13.711 -0.0715  0.6317 -0.3010
  513MPD2    H2 7626   0.260   1.873  13.312 -0.7503  1.1872  0.9464
  513MPD2    H3 7627   0.213   1.855  13.558 -0.2916 -2.1984 -1.6957
  513MPD2     N 7628   0.656   1.910  13.642  0.6540 -0.4606  0.7263
  513MPD2    H5 7629   0.739   1.912  13.583  0.1488 -1.4898 -0.0238
  513MPD2    N1 7630   0.498   1.877  13.196  0.0032  0.4209  0.4767
  513MPD2    H7 7631   0.598   1.870  13.179  0.1002 -0.1803  1.2903
  514TMC3    C1 7632   0.509   1.893  12.970  0.0138  0.1347 -0.3656
  514TMC3    C2 7633   0.500   2.002  12.890  0.3060 -0.0938 -0.8682
  514TMC3    C3 7634   0.618   2.047  12.838 -0.1469  0.2824 -0.0239
  514TMC3    C4 7635   0.623   1.825  12.992 -0.7961 -0.3825  0.1574
  514TMC3    C5 7636   0.740   1.876  12.948  0.6076  0.6174 -0.4715
  514TMC3    C6 7637   0.737   1.992  12.873 -0.4382 -0.5551 -0.6317
  514TMC3     C 7638   0.426   1.907  13.085 -0.7104  0.4316 -0.7936
  514TMC3     O 7639   0.318   1.967  13.080  0.2994 -0.0327  0.2554
  514TMC3     H 7640   0.411   2.058  12.865  0.0251  0.3707  1.2328
  514TMC3    H1 7641   0.621   1.737  13.055 -0.4265 -2.6484 -3.0020
  514TMC3    H2 7642   0.834   2.034  12.850 -0.6108 -0.3034 -0.9042
  514TMC3    C7 7643   0.823   1.881  13.066 -0.2038  0.0821 -0.0578
  514TMC3    C8 7644   0.623   2.187  12.787  0.7205 -0.8011  0.1999
  514TMC3    O1 7645   0.770   1.924  13.167 -0.5080 -0.0631 -0.5720
  514TMC3    O2 7646   0.529   2.260  12.819  0.8169 -0.0009 -0.1930
  515MPD2     C 7647   2.806   3.569  14.946  0.0866 -0.2676  0.5478
  515MPD2    C1 7648   2.888   3.542  14.833  0.0931  0.2736  0.7693
  515MPD2    C2 7649   3.022   3.585  14.845  0.1620  0.7234 -0.7687
  515MPD2    C3 7650   3.078   3.625  14.965 -0.5532  0.1694 -0.2401
  515MPD2    C4 7651   3.001   3.630  15.078 -0.0867 -0.6576  1.0687
  515MPD2    C5 7652   2.863   3.606  15.070  0.1133 -0.2614  0.0012
  515MPD2     H 7653   3.086   3.578  14.758  1.9810 -3.5193  0.9231
  515MPD2    H1 7654   3.046   3.655  15.174  0.4396 -0.0489  0.6636
  515MPD2    H2 7655   2.699   3.558  14.934  0.3895 -0.9765 -1.5724
  515MPD2    H3 7656   2.798   3.617  15.156  0.9239 -4.9561  1.2168
  515MPD2     N 7657   3.212   3.658  14.970  0.7624 -0.5907 -1.3778
  515MPD2    H5 7658   3.243   3.688  15.061  0.6207  2.9212 -2.4894
  515MPD2    N1 7659   2.854   3.483  14.712  0.0535 -0.1013  0.0563
  515MPD2    H7 7660   2.931   3.463  14.649 -1.4095 -0.7678 -1.5243
  516TMC3    C1 7661   2.730   3.382  14.548 -0.2951 -0.6619  0.6407
  516TMC3    C2 7662   2.640   3.391  14.440  0.6181  0.4163  0.4971
  516TMC3    C3 7663   2.624   3.273  14.364 -0.1701 -0.7650  0.2795
  516TMC3    C4 7664   2.792   3.259  14.573 -0.6939  0.2964  0.8278
  516TMC3    C5 7665   2.748   3.147  14.507 -0.4846  0.3957  0.0541
  516TMC3    C6 7666   2.661   3.151  14.401 -0.7132 -0.1200  0.4355
  516TMC3     C 7667   2.726   3.459  14.665  0.4297  0.0187 -0.0415
  516TMC3     O 7668   2.625   3.481  14.729 -0.1645  0.0038 -0.7368
  516TMC3     H 7669   2.584   3.481  14.419  0.4084  0.8237  2.7299
  516TMC3    H1 7670   2.857   3.249  14.660 -1.2106 -0.4076  1.1381
  516TMC3    H2 7671   2.651   3.062  14.340 -0.0301  0.5333 -0.6237
  516TMC3    C7 7672   2.765   3.025  14.583 -0.1481  0.1582  0.4887
  516TMC3    C8 7673   2.602   3.282  14.225  0.1696  0.8212 -0.0507
  516TMC3    O1 7674   2.852   3.027  14.669  0.5538 -0.6862  0.5125
  516TMC3    O2 7675   2.581   3.186  14.156 -0.9922  0.3105  0.0105
  517MPD2     C 7676   3.252   0.685   0.277  0.8184  0.5698 -0.4885
  517MPD2    C1 7677   3.341   0.585   0.317  0.1064  0.4443  0.3625
  517MPD2    C2 7678   3.424   0.619   0.425 -0.6805  0.6430  0.2188
  517MPD2    C3 7679   3.411   0.738   0.487 -0.2871  0.9308  0.7017
  517MPD2    C4 7680   3.306   0.821   0.451  0.0157 -0.2930  0.3904
  517MPD2    C5 7681   3.228   0.800   0.343  0.2712 -0.0648 -0.0323
  517MPD2     H 7682   3.506   0.550   0.448  3.1494  4.4544 -2.0647
  517MPD2    H1 7683   3.288   0.914   0.504  1.8079 -0.3833  1.1414
  517MPD2    H2 7684   3.191   0.664   0.189 -1.1302 -0.6937  1.1760
  517MPD2    H3 7685   3.153   0.871   0.310  1.3434  2.0091  1.9917
  517MPD2     N 7686   3.486   0.775   0.600 -0.3318  0.5361  0.3492
  517MPD2    H5 7687   3.480   0.870   0.636  0.1344  0.5216  0.4674
  517MPD2    N1 7688   3.355   0.465   0.245 -0.1717 -0.5293  0.2838
  517MPD2    H7 7689   3.437   0.410   0.268  0.3849 -0.5212 -1.6410
  518TMC3    C1 7690   3.306   0.308   0.079  0.3131  1.1772  0.4443
  518TMC3    C2 7691   3.217   0.219   0.031  0.3379 -0.0338 -0.0264
  518TMC3    C3 7692   3.263   0.127  17.644 -0.0281  0.1491  0.2905
  518TMC3    C4 7693   3.441   0.309   0.049 -0.3523 -0.1848  0.2172
  518TMC3    C5 7694   3.479   0.211  17.667  0.5301 -0.1703 -0.4205
  518TMC3    C6 7695   3.396   0.110  17.617  0.1272  0.0029 -0.3252
  518TMC3     C 7696   3.261   0.419   0.152  0.7567 -1.0009 -0.3468
  518TMC3     O 7697   3.151   0.460   0.125  0.0776  0.4926  0.3900
  518TMC3     H 7698   3.116   0.223   0.071  0.1885 -0.4168 -0.3647
  518TMC3    H1 7699   3.510   0.387   0.079  1.6123 -2.5658  1.8855
  518TMC3    H2 7700   3.427   0.051  17.531 -0.0366 -2.6828  1.4514
  518TMC3    C7 7701   3.592   0.250  17.584  0.1703 -0.4191 -0.0719
  518TMC3    C8 7702   3.175   0.018  17.600  0.5979  0.1099 -0.1813
  518TMC3    O1 7703   3.601   0.367  17.558 -0.0718  0.3977 -0.5800
  518TMC3    O2 7704   3.239   4.644  17.561  0.4333 -0.0782 -0.2754
  519MPD2     C 7705   4.325   3.288  14.256 -0.1735 -0.5255 -0.4102
  519MPD2    C1 7706   4.338   3.276  14.116  0.5432  0.2205 -0.7823
  519MPD2    C2 7707   4.415   3.177  14.060  0.4918 -0.1822  0.1787
  519MPD2    C3 7708   4.493   3.094  14.144 -0.5033  0.2729 -0.6600
  519MPD2    C4 7709   4.492   3.114  14.279 -0.0744 -0.4544 -0.0736
  519MPD2    C5 7710   4.400   3.206  14.331  0.4439  0.8561 -0.2086
  519MPD2     H 7711   4.428   3.178  13.952 -0.3352  1.4852  0.0919
  519MPD2    H1 7712   4.545   3.052  14.350 -0.0770  0.4374  0.7155
  519MPD2    H2 7713   4.280   3.376  14.300 -0.0846 -0.1188 -1.1331
  519MPD2    H3 7714   4.398   3.231  14.436  3.4672  0.0636  0.0341
  519MPD2     N 7715   4.569   2.980  14.098  0.0726 -0.0069  0.1480
  519MPD2    H5 7716   4.633   2.933  14.161  0.7910 -1.8235 -1.9876
  519MPD2    N1 7717   4.269   3.369  14.039 -0.8826 -0.1712  0.0700
  519MPD2    H7 7718   4.217   3.443  14.086 -1.2119 -0.9052  0.8607
  520TMC3    C1 7719   4.645   2.812  13.932 -0.6034 -0.2434 -0.3328
  520TMC3    C2 7720   4.611   2.740  13.821  0.8731 -0.3970  0.2555
  520TMC3    C3 7721   4.710   2.700  13.734 -0.8132  0.3923  0.5195
  520TMC3    C4 7722   0.051   2.839  13.964 -0.2068  1.0149  0.0092
  520TMC3    C5 7723   0.148   2.792  13.883  0.1964  0.1551  0.1314
  520TMC3    C6 7724   0.115   2.731  13.760 -0.4946 -0.1210 -0.0428
  520TMC3     C 7725   4.541   2.913  13.979  0.7180 -0.0797 -0.7018
  520TMC3     O 7726   4.448   2.918  13.899  0.6483 -0.1139  0.5089
  520TMC3     H 7727   4.508   2.737  13.788  0.9383 -2.3260  0.2122
  520TMC3    H1 7728   0.071   2.906  14.047  2.6797 -0.3905  0.4722
  520TMC3    H2 7729   0.189   2.699  13.688 -0.9289 -1.5913  0.1769
  520TMC3    C7 7730   0.284   2.830  13.909  0.3635  0.1225  0.3254
  520TMC3    C8 7731   4.682   2.637  13.605  0.1850 -0.6474  0.3035
  520TMC3    O1 7732   0.363   2.747  13.860 -0.2207 -0.0151  0.5911
  520TMC3    O2 7733   0.043   2.595  13.532  0.2964 -0.6252  0.2604
  521MPD2     C 7734   0.907   1.629  17.559  0.2363 -0.2387 -0.4843
  521MPD2    C1 7735   0.841   1.585  17.455  0.6931  0.0716 -0.2030
  521MPD2    C2 7736   0.897   1.611  17.329 -0.3654  0.7557 -0.1403
  521MPD2    C3 7737   1.021   1.669  17.312  0.0633  0.0397 -0.3039
  521MPD2    C4 7738   1.088   1.704  17.424 -0.3839  0.5302 -0.4957
  521MPD2    C5 7739   1.029   1.685  17.545 -0.0610 -0.0847 -0.0460
  521MPD2     H 7740   0.842   1.576  17.243 -2.9237 -0.4270  1.9742
  521MPD2    H1 7741   1.177   1.765  17.431 -1.9358  2.6306  0.8925
  521MPD2    H2 7742   0.868   1.620  17.660 -3.2950  0.5237 -1.7716
  521MPD2    H3 7743   1.079   1.720  17.634 -1.4888 -1.0570  1.1211
  521MPD2     N 7744   1.086   1.661  17.186 -0.1703  0.1618 -0.3387
  521MPD2    H5 7745   1.048   1.607  17.109 -0.5430 -0.0561 -0.0006
  521MPD2    N1 7746   0.712   1.518  17.482  0.0551 -0.0268 -0.2318
  521MPD2    H7 7747   0.682   1.509  17.579 -1.5072  1.2837 -0.5924
  522TMC3    C1 7748   1.287   1.649  17.049 -0.1077  0.1225 -0.0857
  522TMC3    C2 7749   1.411   1.707  17.018  0.0999 -0.2069  0.1962
  522TMC3    C3 7750   1.496   1.629  16.935  0.0186 -0.4577  0.1652
  522TMC3    C4 7751   1.246   1.521  17.002 -0.1958  0.3619  0.3116
  522TMC3    C5 7752   1.340   1.453  16.923  0.5004 -0.0368  0.1964
  522TMC3    C6 7753   1.456   1.510  16.891 -0.4915  0.2491 -0.3101
  522TMC3     C 7754   1.216   1.702  17.166  0.2447  0.0327  0.7637
  522TMC3     O 7755   1.288   1.779  17.229 -0.4701  0.4788 -0.8184
  522TMC3     H 7756   1.445   1.805  17.052  0.4084 -0.7503  1.4708
  522TMC3    H1 7757   1.151   1.472  17.023 -0.1548  0.5982  1.0432
  522TMC3    H2 7758   1.529   1.443  16.846  0.5612  0.1035  1.5958
  522TMC3    C7 7759   1.308   1.326  16.876 -0.4908  0.5327 -0.4145
  522TMC3    C8 7760   1.615   1.699  16.886 -0.0151 -0.4734  0.5486
  522TMC3    O1 7761   1.399   1.261  16.823 -0.5938  0.2642 -0.1335
  522TMC3    O2 7762   1.669   1.779  16.955 -0.2337  0.2853 -0.2175
  523MPD2     C 7763   3.815   0.541   9.974  0.0163  0.3567 -0.2988
  523MPD2    C1 7764   3.709   0.503   9.896  0.2354 -0.7061 -0.7547
  523MPD2    C2 7765   3.647   0.594   9.811 -0.5769 -0.4575 -0.1390
  523MPD2    C3 7766   3.699   0.729   9.800  0.3588  0.7871 -0.8994
  523MPD2    C4 7767   3.806   0.763   9.875 -0.0085 -0.7325 -0.4776
  523MPD2    C5 7768   3.853   0.676   9.966 -0.1745  0.2585 -0.0835
  523MPD2     H 7769   3.562   0.563   9.750 -2.7365  2.3678  1.4350
  523MPD2    H1 7770   3.851   0.861   9.872 -2.0060  0.1977 -0.5340
  523MPD2    H2 7771   3.867   0.480  10.047  0.1997  0.2474 -0.5188
  523MPD2    H3 7772   3.930   0.705  10.038  0.4567  0.1600 -0.7208
  523MPD2     N 7773   3.645   0.833   9.725 -0.4320  0.1121 -0.6073
  523MPD2    H5 7774   3.683   0.927   9.732 -1.3271  0.2779  1.9347
  523MPD2    N1 7775   3.677   0.363   9.899  0.6614  0.1724 -0.3767
  523MPD2    H7 7776   3.749   0.309   9.946 -1.6986 -0.5660  2.3927
  524TMC3    C1 7777   3.499   0.954   9.602 -0.5237  0.0081 -0.2788
  524TMC3    C2 7778   3.368   0.967   9.569  0.6184  0.0065 -0.9234
  524TMC3    C3 7779   3.324   1.083   9.527 -0.0141  0.5234  0.0827
  524TMC3    C4 7780   3.589   1.055   9.585 -0.6808  0.0873  0.5865
  524TMC3    C5 7781   3.538   1.175   9.538  0.3164  0.0394 -0.1013
  524TMC3    C6 7782   3.404   1.195   9.512  0.1353  0.2330  0.1952
  524TMC3     C 7783   3.531   0.827   9.656 -0.9791  0.2063  0.0897
  524TMC3     O 7784   3.453   0.736   9.641  0.1745 -0.4807  0.6624
  524TMC3     H 7785   3.294   0.890   9.588  1.1977 -0.4827 -0.6616
  524TMC3    H1 7786   3.695   1.041   9.601 -1.0218 -2.2720  0.8031
  524TMC3    H2 7787   3.369   1.298   9.507  2.7381  1.1674  0.5690
  524TMC3    C7 7788   3.625   1.289   9.570  0.3838  0.8521  0.8277
  524TMC3    C8 7789   3.180   1.092   9.510 -0.3761  0.0655  0.1056
  524TMC3    O1 7790   3.737   1.253   9.613 -0.1742 -0.3932 -0.6165
  524TMC3    O2 7791   3.111   1.042   9.597 -0.2563  0.6647  0.1705
  525MPD2     C 7792   1.202   2.756  14.288  0.0253  0.2299  0.3424
  525MPD2    C1 7793   1.323   2.781  14.353 -0.2452  0.3714 -0.2308
  525MPD2    C2 7794   1.389   2.898  14.331  0.2875 -0.9714 -0.1015
  525MPD2    C3 7795   1.331   2.995  14.250  0.5174  0.0773  1.3014
  525MPD2    C4 7796   1.211   2.970  14.189 -0.0573 -0.8814  0.0104
  525MPD2    C5 7797   1.148   2.851  14.215 -0.4182 -0.2159 -0.5683
  525MPD2     H 7798   1.479   2.921  14.387 -1.6378  1.6964  1.8273
  525MPD2    H1 7799   1.164   3.040  14.121 -0.1841 -1.6622 -0.7083
  525MPD2    H2 7800   1.153   2.660  14.297 -0.9494  0.4307 -3.0182
  525MPD2    H3 7801   1.052   2.829  14.170 -0.0607 -2.6113 -0.1949
  525MPD2     N 7802   1.384   3.128  14.244 -0.4412 -0.4744  0.0529
  525MPD2    H5 7803   1.327   3.198  14.198  0.4222  0.5660  0.5696
  525MPD2    N1 7804   1.379   2.693  14.448  0.2827 -0.2719  0.1953
  525MPD2    H7 7805   1.472   2.720  14.479  0.3134 -0.9309  0.6703
  526TMC3    C1 7806   1.419   2.486  14.548 -0.3844  0.0578  0.2438
  526TMC3    C2 7807   1.379   2.403  14.649 -0.4417  0.4223  0.2762
  526TMC3    C3 7808   1.466   2.302  14.684  0.0714 -0.6978  0.5742
  526TMC3    C4 7809   1.534   2.481  14.480  0.6245 -0.0067  0.3246
  526TMC3    C5 7810   1.622   2.387  14.525 -0.6405  0.2943  0.4690
  526TMC3    C6 7811   1.588   2.291  14.619  0.5646  0.0762  0.5942
  526TMC3     C 7812   1.321   2.578  14.490 -1.4799 -0.3831 -0.1053
  526TMC3     O 7813   1.203   2.544  14.507 -0.0957 -0.0335 -0.1374
  526TMC3     H 7814   1.283   2.415  14.698 -1.2474 -0.5757 -1.0503
  526TMC3    H1 7815   1.539   2.520  14.379  3.8014  0.5722  0.6906
  526TMC3    H2 7816   1.661   2.217  14.651 -1.3669 -1.1400  2.1595
  526TMC3    C7 7817   1.730   2.361  14.443  0.5014  0.8200  0.1580
  526TMC3    C8 7818   1.449   2.227  14.805 -1.0861 -0.3701 -0.1077
  526TMC3    O1 7819   1.777   2.246  14.444 -0.3436 -0.3448 -0.1789
  526TMC3    O2 7820   1.494   2.114  14.800 -0.2978  0.2129 -0.3208
  527MPD2     C 7821   4.508   0.961   1.721  0.0417 -0.2425  0.0385
  527MPD2    C1 7822   4.484   1.043   1.608  0.1976 -0.3329  0.6750
  527MPD2    C2 7823   4.465   0.986   1.483  0.5025 -0.6533 -0.5867
  527MPD2    C3 7824   4.481   0.856   1.462 -0.1725  0.5618  0.1197
  527MPD2    C4 7825   4.508   0.771   1.565 -0.0206  0.6971  0.4644
  527MPD2    C5 7826   4.526   0.828   1.692 -0.2497 -0.2836  0.6315
  527MPD2     H 7827   4.441   1.041   1.393 -1.9579  0.4787  0.7587
  527MPD2    H1 7828   4.538   0.667   1.554 -1.9728  0.1204  0.6504
  527MPD2    H2 7829   4.512   0.992   1.825 -2.0526 -0.9325  0.3121
  527MPD2    H3 7830   4.571   0.761   1.765 -3.0132 -1.6247  1.0947
  527MPD2     N 7831   4.483   0.815   1.325 -0.3526 -0.2040 -0.3978
  527MPD2    H5 7832   4.468   0.885   1.253  0.5635 -0.5295 -0.8998
  527MPD2    N1 7833   4.474   1.185   1.621  0.3391 -0.8168 -0.7498
  527MPD2    H7 7834   4.450   1.241   1.540  0.3953  2.8147  1.7141
  528TMC3    C1 7835   4.454   1.390   1.740 -0.2818 -0.5094 -0.3094
  528TMC3    C2 7836   4.536   1.467   1.822 -0.5681  0.3572  0.4127
  528TMC3    C3 7837   4.541   1.603   1.792  0.0283 -0.1733 -1.2261
  528TMC3    C4 7838   4.391   1.440   1.631 -0.5191  0.4993  0.2797
  528TMC3    C5 7839   4.396   1.576   1.606  0.0263  0.1850  0.6229
  528TMC3    C6 7840   4.463   1.655   1.694 -0.3856 -0.3457 -0.1325
  528TMC3     C 7841   4.501   1.255   1.736 -0.0343  0.0652 -0.0983
  528TMC3     O 7842   4.548   1.213   1.843 -0.4319 -0.0664 -0.2561
  528TMC3     H 7843   4.601   1.421   1.896  1.3969  2.1026 -0.2525
  528TMC3    H1 7844   4.343   1.375   1.560 -0.4795 -0.7469  1.3934
  528TMC3    H2 7845   4.474   1.762   1.680 -0.3487 -0.1831  1.1002
  528TMC3    C7 7846   4.320   1.646   1.500  0.0209  0.1219  0.1419
  528TMC3    C8 7847   4.607   1.695   1.883 -0.0554 -0.3448  0.5848
  528TMC3    O1 7848   4.369   1.752   1.458 -0.4702  0.3389  0.6142
  528TMC3    O2 7849   4.604   1.814   1.853  0.2280 -0.3127 -0.4934
  529MPD2     C 7850   1.965   0.161   0.673  0.4423  0.1028  0.0413
  529MPD2    C1 7851   1.928   0.040   0.610 -0.2646 -0.5168  0.2139
  529MPD2    C2 7852   1.924   0.032   0.469  0.7977  0.1966 -0.0333
  529MPD2    C3 7853   1.940   0.150   0.399  0.0502 -0.6215  0.3126
  529MPD2    C4 7854   1.988   0.263   0.463 -0.1450 -1.2006  0.3150
  529MPD2    C5 7855   2.001   0.267   0.593 -0.0048  0.2176  0.1147
  529MPD2     H 7856   1.897   4.659   0.432 -2.0493  0.6390  0.8260
  529MPD2    H1 7857   2.005   0.356   0.411 -0.8727 -2.4800 -2.2283
  529MPD2    H2 7858   1.977   0.177   0.779 -0.1270 -1.2689  0.3107
  529MPD2    H3 7859   2.029   0.360   0.640  0.3416  0.1809 -0.0118
  529MPD2     N 7860   1.929   0.152   0.256 -0.6490  0.0249 -0.0178
  529MPD2    H5 7861   1.962   0.235   0.209  0.6430  0.0090  0.8450
  529MPD2    N1 7862   1.885   4.650   0.681 -0.1838 -0.4312 -0.1004
  529MPD2    H7 7863   1.888   4.566   0.623  1.6405 -2.1471  2.4932
  530TMC3    C1 7864   1.854   4.502   0.873  0.2883 -0.4868 -0.7389
  530TMC3    C2 7865   1.889   4.478   1.005 -0.0994  0.2206 -0.1629
  530TMC3    C3 7866   1.877   4.350   1.058  0.2516  0.1380 -0.1337
  530TMC3    C4 7867   1.806   4.399   0.801  0.4034 -0.8762  0.4016
  530TMC3    C5 7868   1.788   4.273   0.858 -0.3726 -0.2985  0.5871
  530TMC3    C6 7869   1.838   4.245   0.983 -0.2414  0.3454 -0.1847
  530TMC3     C 7870   1.867   4.641   0.818 -0.4197  0.0678 -0.9538
  530TMC3     O 7871   1.857   0.001   0.906 -0.0416 -0.1617 -0.3294
  530TMC3     H 7872   1.924   4.557   1.070  1.4557 -0.3007 -0.3542
  530TMC3    H1 7873   1.755   4.426   0.710  2.0612  0.6820 -0.0666
  530TMC3    H2 7874   1.834   4.143   1.019  0.8199  0.2318 -0.3639
  530TMC3    C7 7875   1.701   4.179   0.793 -0.1000 -0.6029 -0.1641
  530TMC3    C8 7876   1.894   4.339   1.199  0.1276 -0.0305  0.0175
  530TMC3    O1 7877   1.624   4.213   0.700  0.3192  0.6533  0.5540
  530TMC3    O2 7878   1.865   4.436   1.267 -0.2091 -0.4384  0.5159
  531MPD2     C 7879   1.255   1.764  13.340  0.1484  0.2252 -0.4374
  531MPD2    C1 7880   1.137   1.817  13.382  0.3399 -0.6091 -0.5234
  531MPD2    C2 7881   1.026   1.820  13.294 -1.1238  0.2162  0.1223
  531MPD2    C3 7882   1.034   1.782  13.162 -1.0968  0.5871 -0.1212
  531MPD2    C4 7883   1.147   1.707  13.125 -0.2171  0.2768 -0.7258
  531MPD2    C5 7884   1.258   1.704  13.218 -0.2928 -0.4307  0.2812
  531MPD2     H 7885   0.929   1.860  13.323 -1.6519 -0.2155 -1.0776
  531MPD2    H1 7886   1.161   1.657  13.031 -0.8251 -2.0947  0.4510
  531MPD2    H2 7887   1.344   1.755  13.402 -0.7328  1.8946  1.0597
  531MPD2    H3 7888   1.352   1.659  13.188  1.4445  3.3096  0.0919
  531MPD2     N 7889   0.933   1.800  13.063  0.1432  0.2751  0.1918
  531MPD2    H5 7890   0.955   1.758  12.973  1.0635 -0.8612  0.9486
  531MPD2    N1 7891   1.124   1.862  13.515  0.8759  0.1112 -0.1608
  531MPD2    H7 7892   1.196   1.845  13.584  2.0877 -0.6855 -1.6157
  532TMC3    C1 7893   1.007   1.941  13.700  0.2330  0.2549 -0.6805
  532TMC3    C2 7894   0.880   1.988  13.732  0.8348  0.3187 -0.2778
  532TMC3    C3 7895   0.799   1.915  13.815 -0.7424 -0.7403  0.6446
  532TMC3    C4 7896   1.054   1.827  13.770 -0.3304 -0.1568 -0.4829
  532TMC3    C5 7897   0.969   1.757  13.851 -0.5109  0.4300  0.2092
  532TMC3    C6 7898   0.846   1.798  13.880 -0.0162  0.6985  0.5772
  532TMC3     C 7899   1.011   1.927  13.561 -0.9435  0.2942 -0.1557
  532TMC3     O 7900   0.913   1.967  13.497  0.8948  0.6036  0.3473
  532TMC3     H 7901   0.845   2.082  13.692 -1.0618 -0.4741 -0.4837
  532TMC3    H1 7902   1.156   1.790  13.767  0.0555  0.7355  1.7286
  532TMC3    H2 7903   0.780   1.734  13.939 -2.6714  0.7688 -2.2970
  532TMC3    C7 7904   1.029   1.655  13.946 -0.7606  0.7680 -0.6959
  532TMC3    C8 7905   0.655   1.918  13.780 -0.6045 -0.7536  0.0568
  532TMC3    O1 7906   0.981   1.635  14.056 -0.7592  0.0328 -0.0501
  532TMC3    O2 7907   0.571   1.906  13.867 -0.3105 -0.0121 -0.1158
  533TMC3    C1 7908   1.532   3.299  14.285  0.0566  0.2280 -0.6085
  533TMC3    C2 7909   1.657   3.362  14.261  0.3015 -0.0058  0.1607
  533TMC3    C3 7910   1.658   3.489  14.307 -0.2119  0.1830  0.3724
  533TMC3    C4 7911   1.426   3.362  14.346  0.1061 -0.9405 -0.0348
  533TMC3    C5 7912   1.440   3.484  14.400  0.9764  0.2096 -0.4296
  533TMC3    C6 7913   1.555   3.555  14.375  0.5501 -0.0649  0.3935
  533TMC3     C 7914   1.513   3.159  14.269  0.7679 -0.1670  0.8466
  533TMC3     O 7915   1.613   3.092  14.288 -0.2655 -0.1344 -0.3134
  533TMC3     H 7916   1.741   3.317  14.209  1.8779  1.4625  1.4629
  533TMC3    H1 7917   1.337   3.307  14.375 -0.6007 -1.3241 -2.9077
  533TMC3    H2 7918   1.566   3.657  14.411  1.7821 -1.0005  2.6939
  533TMC3    C7 7919   1.390   3.482  14.534 -0.0388 -0.2462 -0.0600
  533TMC3    C8 7920   1.773   3.572  14.284  0.6179 -0.1043  0.4638
  533TMC3    O1 7921   1.301   3.402  14.558  0.4287  0.4272 -0.3546
  533TMC3    O2 7922   1.783   3.673  14.350 -0.2064  0.3969  0.0725
  534MPD2     C 7923   4.353   3.858   1.836 -0.9441 -0.4056 -0.1771
  534MPD2    C1 7924   4.262   3.961   1.836 -0.0704  0.5734 -0.7596
  534MPD2    C2 7925   4.138   3.939   1.776 -0.4596 -0.4918 -0.0251
  534MPD2    C3 7926   4.103   3.810   1.736  0.0955  0.3360 -0.3404
  534MPD2    C4 7927   4.196   3.713   1.723 -0.1234  0.2343  0.5023
  534MPD2    C5 7928   4.318   3.738   1.780 -0.2781  0.2994 -0.6064
  534MPD2     H 7929   4.062   4.016   1.788 -2.2972 -2.2915 -0.1139
  534MPD2    H1 7930   4.175   3.611   1.691 -1.2919 -0.0699  2.2139
  534MPD2    H2 7931   4.451   3.877   1.877 -0.4811 -1.0938 -0.9580
  534MPD2    H3 7932   4.390   3.658   1.777  0.4213  0.9208 -0.4025
  534MPD2     N 7933   3.976   3.777   1.680  0.4723  0.0922 -0.0935
  534MPD2    H5 7934   3.978   3.700   1.613 -1.4046  0.0286 -0.0762
  534MPD2    N1 7935   4.311   4.086   1.895  0.3035  0.6303  0.7864
  534MPD2    H7 7936   4.391   4.087   1.957  0.7253  1.3337  0.2219
  535TMC3    C1 7937   3.769   3.822   1.569  0.2825 -0.6485 -0.1916
  535TMC3    C2 7938   3.645   3.881   1.585  0.0238 -0.2608 -0.3200
  535TMC3    C3 7939   3.573   3.907   1.473 -0.0870 -0.1144 -0.3380
  535TMC3    C4 7940   3.821   3.796   1.447 -0.0873 -0.1597 -0.0399
  535TMC3    C5 7941   3.748   3.831   1.338  0.0704  0.3130  0.9908
  535TMC3    C6 7942   3.627   3.885   1.350  0.1712  0.6392 -0.0250
  535TMC3     C 7943   3.865   3.860   1.675  0.1097  0.0712 -0.0102
  535TMC3     O 7944   3.835   3.949   1.752  0.4941 -1.0448  0.2025
  535TMC3     H 7945   3.599   3.880   1.683 -0.5695  1.6382 -0.5661
  535TMC3    H1 7946   3.920   3.755   1.426 -0.2294 -1.1365  1.1835
  535TMC3    H2 7947   3.576   3.928   1.265  0.7284 -0.7397 -1.0624
  535TMC3    C7 7948   3.829   3.868   1.214  0.6642  0.1599  0.2653
  535TMC3    C8 7949   3.433   3.953   1.484  0.3916 -0.0045 -0.0296
  535TMC3    O1 7950   3.912   3.789   1.173 -0.4717 -0.3087  0.0499
  535TMC3    O2 7951   3.364   3.946   1.379 -0.5342  0.2898 -0.0185
  536MPD2     C 7952   3.151   2.769  16.512 -0.2336 -0.1611 -0.4603
  536MPD2    C1 7953   3.088   2.649  16.541  0.1520  0.0443 -0.1051
  536MPD2    C2 7954   3.047   2.571  16.437 -0.0346 -0.2677  0.6002
  536MPD2    C3 7955   3.074   2.596  16.305  0.3232  0.1991  0.1225
  536MPD2    C4 7956   3.136   2.717  16.276  0.7001 -0.5898 -0.1596
  536MPD2    C5 7957   3.184   2.794  16.384  0.5994 -0.7767  0.3693
  536MPD2     H 7958   3.004   2.475  16.466 -0.5025 -0.0935  0.4886
  536MPD2    H1 7959   3.150   2.751  16.174 -2.1933 -0.5377 -0.5296
  536MPD2    H2 7960   3.175   2.838  16.592 -4.0297 -0.8190  1.2273
  536MPD2    H3 7961   3.245   2.878  16.353  1.8161 -1.2721  1.4108
  536MPD2     N 7962   3.039   2.521  16.193 -0.3315 -0.4291 -0.4770
  536MPD2    H5 7963   3.060   2.569  16.106  2.0425  1.8899  1.3972
  536MPD2    N1 7964   3.049   2.643  16.676  0.2275 -0.1843 -0.0259
  536MPD2    H7 7965   3.061   2.725  16.734 -0.6501  0.1682 -0.3498
  537TMC3    C1 7966   2.941   2.574  16.867  0.7289 -0.0023 -0.2029
  537TMC3    C2 7967   2.893   2.701  16.881  0.7304 -0.0646 -0.2600
  537TMC3    C3 7968   2.835   2.727  17.001  0.3993  0.2706  1.1391
  537TMC3    C4 7969   2.906   2.471  16.946  0.2352  0.4084  0.7300
  537TMC3    C5 7970   2.852   2.495  17.073  0.1660  0.5653  0.6688
  537TMC3    C6 7971   2.821   2.627  17.098  0.4182 -0.1235 -0.0795
  537TMC3     C 7972   2.987   2.541  16.737  0.4840 -0.0736  0.1823
  537TMC3     O 7973   2.942   2.437  16.691 -0.5118  0.5551  0.1634
  537TMC3     H 7974   2.895   2.784  16.810  0.7536 -0.1932 -0.4103
  537TMC3    H1 7975   2.948   2.373  16.927  0.8000  1.0013 -1.0513
  537TMC3    H2 7976   2.773   2.646  17.193  1.4277 -1.3239  0.6565
  537TMC3    C7 7977   2.754   2.405  17.125 -0.0391  0.1156  0.2515
  537TMC3    C8 7978   2.824   2.857  17.051 -0.5743  0.8637 -0.3252
  537TMC3    O1 7979   2.639   2.438  17.148 -0.0246  0.0504 -0.2018
  537TMC3    O2 7980   2.827   2.871  17.174  0.1315  0.0351 -0.1653
  538TMC3    C1 7981   4.358   0.828  10.790 -0.4625  0.3862 -0.9891
  538TMC3    C2 7982   4.465   0.820  10.703 -1.0366 -0.2073 -0.0326
  538TMC3    C3 7983   4.460   0.898  10.586 -0.3421 -0.4250  0.1879
  538TMC3    C4 7984   4.242   0.899  10.765 -0.2280 -0.7628  0.7489
  538TMC3    C5 7985   4.235   0.962  10.644  0.2012  0.2161 -0.8601
  538TMC3    C6 7986   4.343   0.963  10.556 -0.3057  0.2725 -0.0203
  538TMC3     C 7987   4.385   0.799  10.926  0.0912 -0.7067  0.2606
  538TMC3     O 7988   4.309   0.856  11.005  0.4848 -0.3725 -0.6367
  538TMC3     H 7989   4.551   0.762  10.735 -1.1928 -0.5039 -0.1508
  538TMC3    H1 7990   4.163   0.896  10.839 -0.1336 -0.9284  0.8448
  538TMC3    H2 7991   4.340   1.001  10.455 -0.5311 -1.4243 -0.6472
  538TMC3    C7 7992   4.111   1.027  10.605  0.2438 -0.7366 -0.2484
  538TMC3    C8 7993   4.578   0.897  10.496 -0.1453 -0.2612 -0.4904
  538TMC3    O1 7994   4.015   0.997  10.672 -1.1992 -0.5686 -0.6495
  538TMC3    O2 7995   4.663   0.806  10.509 -0.0488  0.3727 -0.1400
  539MPD2     C 7996   3.608   0.513  11.383 -0.0655  0.4760 -0.8379
  539MPD2    C1 7997   3.731   0.474  11.328  0.3703  0.2227  0.2518
  539MPD2    C2 7998   3.810   0.571  11.269 -0.3110  0.1601 -0.4246
  539MPD2    C3 7999   3.758   0.703  11.251  0.3580  0.2652  0.8273
  539MPD2    C4 8000   3.645   0.744  11.320 -0.2959 -0.6039 -0.6048
  539MPD2    C5 8001   3.570   0.649  11.388 -0.6758  0.0256 -0.3943
  539MPD2     H 8002   3.903   0.535  11.226  1.4048  1.6496  2.0619
  539MPD2    H1 8003   3.604   0.842  11.302  1.3100 -0.3637 -3.0229
  539MPD2    H2 8004   3.540   0.442  11.430  0.8815 -1.1256 -1.9016
  539MPD2    H3 8005   3.472   0.672  11.429  0.1074 -1.5782  2.3408
  539MPD2     N 8006   3.824   0.798  11.174  0.1925  0.4852  0.7640
  539MPD2    H5 8007   3.781   0.890  11.176 -1.6714 -0.3541 -0.7227
  539MPD2    N1 8008   3.783   0.349  11.336 -0.0882 -0.2769 -0.2052
  539MPD2    H7 8009   3.877   0.338  11.299 -0.1023 -0.7614 -0.0940
  540TMC3    C1 8010   3.925   0.891  10.984 -0.0002  0.0447 -0.1499
  540TMC3    C2 8011   3.849   0.872  10.875 -0.5754  0.8606  0.7191
  540TMC3    C3 8012   3.769   0.978  10.835 -0.4922  0.0287 -0.4482
  540TMC3    C4 8013   3.910   1.006  11.055  0.0187 -0.5974 -0.0095
  540TMC3    C5 8014   3.827   1.109  11.021  1.1438  0.3091 -0.1520
  540TMC3    C6 8015   3.768   1.096  10.905  0.2749 -0.5780 -0.5253
  540TMC3     C 8016   3.915   0.779  11.070 -0.4080  0.1936 -0.4362
  540TMC3     O 8017   3.949   0.672  11.028 -0.3980  0.7717 -0.3548
  540TMC3     H 8018   3.856   0.776  10.826  0.3553  1.4321 -0.2755
  540TMC3    H1 8019   3.950   1.010  11.156  1.5906 -0.8129 -0.6282
  540TMC3    H2 8020   3.701   1.176  10.876 -1.0553 -1.7085 -0.5799
  540TMC3    C7 8021   3.758   1.155  11.138 -0.3039 -0.0453  0.5771
  540TMC3    C8 8022   3.671   0.972  10.723  0.0288  0.8866 -0.3846
  540TMC3    O1 8023   3.682   1.069  11.177  0.7202 -0.3680  0.5149
  540TMC3    O2 8024   3.641   1.073  10.663  0.1640 -0.1384 -0.3498
  541MPD2     C 8025   1.813   2.031  13.105 -0.2023 -0.0340  0.2090
  541MPD2    C1 8026   1.866   1.949  13.011 -0.6081 -0.7169 -0.7984
  541MPD2    C2 8027   1.940   2.011  12.916  0.0867  0.0799  0.9317
  541MPD2    C3 8028   1.970   2.144  12.916  0.0196 -0.1078 -0.5900
  541MPD2    C4 8029   1.910   2.225  13.007  0.4559  0.5025 -0.0920
  541MPD2    C5 8030   1.828   2.166  13.098 -0.4492  0.1268 -0.0310
  541MPD2     H 8031   1.972   1.947  12.835  1.5329  1.6179  0.2725
  541MPD2    H1 8032   1.952   2.322  13.031  0.9219  0.4360 -0.6281
  541MPD2    H2 8033   1.745   1.993  13.180 -1.6174  1.1010 -0.5118
  541MPD2    H3 8034   1.786   2.209  13.188 -1.8631 -2.1577  0.4150
  541MPD2     N 8035   2.056   2.200  12.818  0.1921 -0.2161  0.7098
  541MPD2    H5 8036   2.075   2.299  12.831 -1.9785  0.3441 -0.3676
  541MPD2    N1 8037   1.834   1.815  12.995 -0.6951 -0.3900  0.0714
  541MPD2    H7 8038   1.895   1.768  12.929  0.9272 -0.6469  1.7446
  542TMC3    C1 8039   2.210   2.221  12.635 -0.0389 -0.3979  0.1503
  542TMC3    C2 8040   2.296   2.153  12.547 -0.0443 -0.3322  0.1536
  542TMC3    C3 8041   2.347   2.230  12.448  0.2587 -0.0724  0.5713
  542TMC3    C4 8042   2.167   2.347  12.610  0.1020  0.2152 -0.7770
  542TMC3    C5 8043   2.229   2.423  12.510 -0.3881 -0.4200  0.1665
  542TMC3    C6 8044   2.320   2.361  12.429  0.7116  0.4177  0.2317
  542TMC3     C 8045   2.138   2.134  12.731 -0.0372 -0.1040 -0.2604
  542TMC3     O 8046   2.146   2.011  12.715  0.0758  0.4915  0.6802
  542TMC3     H 8047   2.324   2.050  12.567 -0.2913 -0.5905 -0.8413
  542TMC3    H1 8048   2.102   2.397  12.681  0.7172  0.9788 -0.7581
  542TMC3    H2 8049   2.353   2.406  12.337 -0.8573  0.4617 -0.3145
  542TMC3    C7 8050   2.229   2.566  12.538  0.4919 -0.4999 -0.5346
  542TMC3    C8 8051   2.401   2.161  12.332  0.4982 -0.2598  0.4642
  542TMC3    O1 8052   2.147   2.605  12.621  0.3431 -0.0526 -0.5649
  542TMC3    O2 8053   2.345   2.177  12.224  0.0832  0.8432  0.0575
  543TMC3    C1 8054   1.210   3.301  16.466  0.4516 -0.2328  0.8975
  543TMC3    C2 8055   1.082   3.314  16.416 -0.8107  0.4132 -0.1072
  543TMC3    C3 8056   0.986   3.341  16.506  0.8286 -0.5121 -0.0408
  543TMC3    C4 8057   1.241   3.313  16.600  0.3926 -0.5507  0.6388
  543TMC3    C5 8058   1.143   3.358  16.677  0.2426  0.3106 -0.5770
  543TMC3    C6 8059   1.013   3.372  16.635  0.1553 -0.1632 -0.2891
  543TMC3     C 8060   1.319   3.238  16.387 -0.7036  0.5772  0.3167
  543TMC3     O 8061   1.404   3.177  16.454  0.3555 -0.5228  0.1937
  543TMC3     H 8062   1.059   3.285  16.315 -1.2865  1.4184 -0.2867
  543TMC3    H1 8063   1.342   3.295  16.635  0.2451  0.6102  1.6508
  543TMC3    H2 8064   0.933   3.405  16.700  0.3055 -0.8036  0.2124
  543TMC3    C7 8065   1.177   3.393  16.820  0.4739  0.3991 -0.5948
  543TMC3    C8 8066   0.861   3.374  16.449 -0.8243 -0.1098 -0.2893
  543TMC3    O1 8067   1.075   3.407  16.888  0.6140 -0.0312  0.1184
  543TMC3    O2 8068   0.865   3.464  16.363  0.1830  0.3317 -0.2010
  544MPD2     C 8069   0.678   3.048  16.813 -0.7819 -0.0370  0.2280
  544MPD2    C1 8070   0.808   3.045  16.758  0.9371 -0.4173 -0.0848
  544MPD2    C2 8071   0.836   3.136  16.648  0.3559  0.5302 -1.3183
  544MPD2    C3 8072   0.738   3.224  16.608  0.0019  0.1585 -0.7833
  544MPD2    C4 8073   0.617   3.215  16.671  0.1565 -0.5916  0.3003
  544MPD2    C5 8074   0.588   3.133  16.771  0.8156 -0.0859  0.1523
  544MPD2     H 8075   0.929   3.125  16.594  0.1703  1.2344 -1.7715
  544MPD2    H1 8076   0.540   3.285  16.639 -0.8385 -0.5781  2.7253
  544MPD2    H2 8077   0.657   2.995  16.906  4.3159 -1.5933  0.5081
  544MPD2    H3 8078   0.491   3.136  16.819 -0.0357  1.2994 -1.6394
  544MPD2     N 8079   0.748   3.321  16.510  0.2073  0.4958  0.1086
  544MPD2    H5 8080   0.657   3.364  16.497  0.8744  2.4609  1.9506
  544MPD2    N1 8081   0.896   2.946  16.804 -0.0168  0.1677  0.0525
  544MPD2    H7 8082   0.858   2.881  16.871  3.1636 -0.4688  1.2423
  545TMC3    C1 8083   1.081   2.809  16.846 -0.6784  0.9785  0.1252
  545TMC3    C2 8084   1.213   2.780  16.821  0.0198 -0.1135  0.0445
  545TMC3    C3 8085   1.286   2.726  16.920  0.1352  0.0523  0.2927
  545TMC3    C4 8086   1.030   2.794  16.975 -0.0063  0.4492  0.1638
  545TMC3    C5 8087   1.114   2.741  17.069 -0.4134 -0.8685  0.1977
  545TMC3    C6 8088   1.237   2.698  17.045  0.5465 -0.2382 -0.5547
  545TMC3     C 8089   1.022   2.918  16.763  0.3528  0.0737 -0.7390
  545TMC3     O 8090   1.081   2.960  16.660 -0.4730 -0.0905  0.2065
  545TMC3     H 8091   1.251   2.807  16.723  0.1580 -3.1223 -0.7219
  545TMC3    H1 8092   0.929   2.808  17.012  0.5200  1.8529  1.0755
  545TMC3    H2 8093   1.312   2.670  17.118 -1.8126  3.1177  3.1480
  545TMC3    C7 8094   1.090   2.774  17.212 -0.1297 -0.6464 -0.2863
  545TMC3    C8 8095   1.428   2.690  16.901 -0.2392  1.1014 -0.3079
  545TMC3    O1 8096   1.000   2.849  17.244 -0.4526  0.2744 -0.5359
  545TMC3    O2 8097   1.478   2.619  16.992 -0.4813 -0.4161  0.3205
  546MPD2     C 8098   2.548   3.392  17.636 -0.0545  0.1440 -0.5455
  546MPD2    C1 8099   2.553   3.401  17.503  0.5393  1.2851  0.1264
  546MPD2    C2 8100   2.597   3.515  17.450 -0.4531 -0.0868  0.1846
  546MPD2    C3 8101   2.651   3.610  17.535 -0.5003  0.0182  0.4650
  546MPD2    C4 8102   2.632   3.602  17.669  0.6258  0.3147  1.2956
  546MPD2    C5 8103   2.582   3.490   0.018 -0.1510  0.1764  0.3438
  546MPD2     H 8104   2.602   3.528  17.343 -0.0482 -3.0344 -0.1571
  546MPD2    H1 8105   2.667   3.682   0.032 -0.7571  1.9917 -0.0141
  546MPD2    H2 8106   2.515   3.299  17.679 -0.9679  0.1800 -1.1612
  546MPD2    H3 8107   2.578   3.467   0.123  2.6313  2.4274  0.9281
  546MPD2     N 8108   2.728   3.724  17.493  0.3453  0.1866 -0.6517
  546MPD2    H5 8109   2.773   3.785  17.559  0.9803 -0.6861 -0.2754
  546MPD2    N1 8110   2.521   3.285  17.425  0.4577 -0.7733  0.1172
  546MPD2    H7 8111   2.521   3.197  17.476 -0.0033 -0.8785 -0.0630
  547TMC3    C1 8112   2.475   3.150  17.234 -0.2932  0.6242  0.1119
  547TMC3    C2 8113   2.435   3.148  17.101 -0.0379  0.6379  0.2179
  547TMC3    C3 8114   2.418   3.029  17.045 -0.2416  0.1342 -0.0642
  547TMC3    C4 8115   2.499   3.036  17.311 -0.2201 -0.5463 -0.4822
  547TMC3    C5 8116   2.476   2.916  17.248  0.1548  0.1452 -0.1135
  547TMC3    C6 8117   2.435   2.911  17.112 -0.4522 -0.0974  0.3997
  547TMC3     C 8118   2.493   3.283  17.291  0.1851 -0.6453  0.8067
  547TMC3     O 8119   2.476   3.379  17.210  0.7086  0.6343  0.1658
  547TMC3     H 8120   2.421   3.240  17.045 -2.4541 -0.1306 -0.4225
  547TMC3    H1 8121   2.520   3.042  17.417  1.1541  0.1555 -0.8018
  547TMC3    H2 8122   2.422   2.815  17.062 -1.4284  0.8149 -1.0829
  547TMC3    C7 8123   2.452   2.808  17.334 -0.0818  0.7428  0.3415
  547TMC3    C8 8124   2.340   3.021  16.926 -0.0743  0.2855  0.4330
  547TMC3    O1 8125   2.506   2.700  17.318  0.2067  0.7470  0.1379
  547TMC3    O2 8126   2.342   2.916  16.860 -0.2170  0.6483  0.2745
  548MPD2     C 8127   3.023   3.962  11.902 -0.3949  0.3487 -0.9683
  548MPD2    C1 8128   2.995   3.859  11.989 -0.5092 -0.1086 -0.1149
  548MPD2    C2 8129   3.084   3.753  12.004  0.9557 -0.7035  0.5037
  548MPD2    C3 8130   3.212   3.752  11.945  0.1678 -0.4230 -0.0189
  548MPD2    C4 8131   3.240   3.853  11.857  0.0023  0.0311 -0.3541
  548MPD2    C5 8132   3.147   3.959  11.837 -0.2817 -0.1947  0.2059
  548MPD2     H 8133   3.068   3.671  12.074  2.5717 -0.8760  0.6799
  548MPD2    H1 8134   3.335   3.862  11.806  0.3300 -0.9306  0.0817
  548MPD2    H2 8135   2.961   4.050  11.885 -1.2401 -0.0788 -0.1574
  548MPD2    H3 8136   3.177   4.042  11.774  0.4153 -1.4248 -1.0956
  548MPD2     N 8137   3.305   3.655  12.000 -0.2572 -0.1586  0.2916
  548MPD2    H5 8138   3.265   3.595  12.072 -0.3279  0.7156  0.9823
  548MPD2    N1 8139   2.874   3.874  12.059 -0.0438 -0.6623  0.1318
  548MPD2    H7 8140   2.828   3.964  12.047  0.6669  0.1002  3.0918
  549TMC3    C1 8141   2.715   3.855  12.243 -0.0509  0.6419  0.7862
  549TMC3    C2 8142   2.642   3.966  12.190  0.4546  0.0387 -0.1128
  549TMC3    C3 8143   2.539   4.014  12.263  0.6560  0.0177 -0.2041
  549TMC3    C4 8144   2.666   3.791  12.352 -0.3203 -0.1331 -0.2614
  549TMC3    C5 8145   2.554   3.843  12.420 -0.0072 -0.0472 -0.7133
  549TMC3    C6 8146   2.494   3.958  12.377 -0.6039  0.2878  0.2576
  549TMC3     C 8147   2.824   3.795  12.165 -0.3556 -0.6741 -0.4584
  549TMC3     O 8148   2.863   3.685  12.202 -0.5189  0.1674 -0.1915
  549TMC3     H 8149   2.667   4.013  12.096 -0.9421  1.5028  0.2361
  549TMC3    H1 8150   2.721   3.705  12.389  0.2294 -0.1591 -1.1580
  549TMC3    H2 8151   2.411   3.993  12.437 -0.9370 -2.0670  1.1741
  549TMC3    C7 8152   2.469   3.749  12.488 -0.4578  0.6433  0.2926
  549TMC3    C8 8153   2.454   4.104  12.184 -0.7930 -0.1642 -0.2671
  549TMC3    O1 8154   2.359   3.784  12.511 -0.1224 -0.3673 -0.2717
  549TMC3    O2 8155   2.483   4.125  12.068 -0.3176  0.1241 -0.7466
  550TMC3    C1 8156   1.850   2.035  12.531  0.4767  0.2782 -0.3513
  550TMC3    C2 8157   1.781   2.070  12.646 -0.9239 -0.5812 -0.3674
  550TMC3    C3 8158   1.743   2.200  12.658 -0.2334  0.0934 -0.3729
  550TMC3    C4 8159   1.879   2.117  12.427  0.2114 -0.5448  0.0007
  550TMC3    C5 8160   1.829   2.244  12.436 -0.4436 -0.0636 -0.0037
  550TMC3    C6 8161   1.766   2.288  12.554  0.4661 -0.4778 -0.6641
  550TMC3     C 8162   1.863   1.896  12.504  0.4182  0.0053 -1.2241
  550TMC3     O 8163   1.865   1.810  12.593  0.0448 -0.3663  0.6611
  550TMC3     H 8164   1.728   1.995  12.705 -0.7232 -1.1686 -0.9367
  550TMC3    H1 8165   1.933   2.092  12.336 -0.8951 -0.0816 -0.7770
  550TMC3    H2 8166   1.720   2.386  12.553 -2.3675 -1.8200 -0.3853
  550TMC3    C7 8167   1.741   2.285  12.327  0.2532  0.4336 -0.1643
  550TMC3    C8 8168   1.649   2.247  12.764  0.0029 -0.0520 -0.8131
  550TMC3    O1 8169   1.629   2.337  12.347  0.7331 -0.0936 -0.3529
  550TMC3    O2 8170   1.603   2.358  12.751 -0.3098  0.0378 -0.0767
  551TMC3    C1 8171   3.333   4.162  13.264 -0.7477  0.7685  0.8072
  551TMC3    C2 8172   3.335   4.280  13.205  0.1461  0.8216 -0.6333
  551TMC3    C3 8173   3.423   4.373  13.240  0.5225  0.0832 -0.1251
  551TMC3    C4 8174   3.400   4.140  13.381  0.6139  0.6283  0.5268
  551TMC3    C5 8175   3.485   4.242  13.420 -0.0889 -0.2973 -0.3162
  551TMC3    C6 8176   3.498   4.355  13.353 -0.1407 -0.4851 -0.5005
  551TMC3     C 8177   3.320   4.051  13.172 -0.2949 -0.4342  0.6839
  551TMC3     O 8178   3.323   4.086  13.056 -0.1650 -0.2481  0.8983
  551TMC3     H 8179   3.274   4.297  13.117  1.2607 -0.3009 -1.6266
  551TMC3    H1 8180   3.407   4.054  13.448 -0.6852  0.0428 -0.0991
  551TMC3    H2 8181   3.575   4.427  13.377 -1.4852  0.4280  1.0549
  551TMC3    C7 8182   3.536   4.238  13.552  0.0210 -0.0198  0.1541
  551TMC3    C8 8183   3.451   4.486  13.153 -0.1296 -0.3580 -0.2625
  551TMC3    O1 8184   3.542   4.133  13.615  0.1897 -0.3093 -0.0050
  551TMC3    O2 8185   3.364   4.515  13.072  0.4757 -0.0677 -0.1219
  552MPD2     C 8186   0.694   1.189  14.574  0.1983  0.6389  0.6147
  552MPD2    C1 8187   0.738   1.232  14.454  0.2672 -0.1733  0.7231
  552MPD2    C2 8188   0.879   1.260  14.441  0.5855 -0.1403 -0.1758
  552MPD2    C3 8189   0.966   1.248  14.552 -0.0235  0.3821  0.3482
  552MPD2    C4 8190   0.911   1.217  14.673 -0.2954 -0.0403  0.0771
  552MPD2    C5 8191   0.773   1.187  14.687  0.3632 -0.5360  0.1568
  552MPD2     H 8192   0.905   1.304  14.345  2.8168 -0.5432  0.2514
  552MPD2    H1 8193   0.970   1.221  14.764  1.4303  0.2724 -1.0526
  552MPD2    H2 8194   0.593   1.165  14.606 -0.4365  2.1412 -0.2825
  552MPD2    H3 8195   0.735   1.159  14.784 -4.2773  2.3973 -0.8056
  552MPD2     N 8196   1.102   1.290  14.555  0.0878 -0.3167  0.1884
  552MPD2    H5 8197   1.147   1.282  14.645 -1.2331  0.4055  0.9119
  552MPD2    N1 8198   0.644   1.237  14.341 -0.3778  0.0251 -0.5578
  552MPD2    H7 8199   0.674   1.267  14.248  1.1092 -3.5970 -1.2519
  553TMC3    C1 8200   0.454   1.180  14.209  0.3348 -0.0363  0.0431
  553TMC3    C2 8201   0.470   1.285  14.127 -1.2798  0.1104  0.4522
  553TMC3    C3 8202   0.414   1.275  14.001 -0.7112 -0.6703 -0.7926
  553TMC3    C4 8203   0.398   1.057  14.174 -0.4777  0.0309 -0.7699
  553TMC3    C5 8204   0.367   1.050  14.045  0.2152  0.5069  0.5771
  553TMC3    C6 8205   0.380   1.150  13.958 -0.3302  0.4888  0.2639
  553TMC3     C 8206   0.522   1.175  14.337 -0.1226 -0.3047 -0.3234
  553TMC3     O 8207   0.483   1.091  14.416  0.1958  0.0048 -0.0707
  553TMC3     H 8208   0.489   1.383  14.170 -2.5020  1.4484 -2.0718
  553TMC3    H1 8209   0.406   0.963  14.229  0.5626 -0.1877 -1.3030
  553TMC3    H2 8210   0.353   1.136  13.854  1.0906 -0.3719  0.0142
  553TMC3    C7 8211   0.384   0.919  13.989 -0.2431  0.8657 -0.9888
  553TMC3    C8 8212   0.400   1.378  13.899 -0.1657  0.1943  0.3441
  553TMC3    O1 8213   0.313   0.834  14.038  0.3261  0.1967 -0.3637
  553TMC3    O2 8214   0.490   1.454  13.879  0.5700 -0.5065  0.2303
  554TMC3    C1 8215   2.843   0.511  11.358  0.0481 -0.2128  0.1876
  554TMC3    C2 8216   2.763   0.485  11.245 -0.3437  0.8589 -0.3862
  554TMC3    C3 8217   2.823   0.509  11.124  0.3964 -0.4439  0.9151
  554TMC3    C4 8218   2.973   0.544  11.350  0.4251  0.6401 -0.4426
  554TMC3    C5 8219   3.021   0.575  11.228  0.1580 -0.0421 -1.0022
  554TMC3    C6 8220   2.953   0.551  11.108  0.3187  0.3458  0.0552
  554TMC3     C 8221   2.793   0.466  11.488 -0.2464 -0.6060  0.5410
  554TMC3     O 8222   2.674   0.464  11.512  0.0244 -0.4547 -0.2487
  554TMC3     H 8223   2.659   0.458  11.261 -0.8844  2.3025 -1.5149
  554TMC3    H1 8224   3.016   0.583  11.442 -0.2675  1.6084 -0.5315
  554TMC3    H2 8225   2.999   0.549  11.010  0.1419  1.7834 -0.0489
  554TMC3    C7 8226   3.152   0.641  11.221 -0.6838  0.1061 -0.3102
  554TMC3    C8 8227   2.742   0.503  11.006 -0.5191 -0.8076  0.0008
  554TMC3    O1 8228   3.219   0.645  11.325  0.2843 -0.4730  0.2219
  554TMC3    O2 8229   2.796   0.557  10.910  0.6262 -0.1606 -0.4066
  555TMC3    C1 8230   2.012   0.052  15.434 -0.1610  0.7103  0.3403
  555TMC3    C2 8231   2.104   0.079  15.533 -0.6093  0.5395 -0.7425
  555TMC3    C3 8232   2.130   4.700  15.621  0.1009 -0.4309 -0.5599
  555TMC3    C4 8233   1.940   4.659  15.435  0.0239 -0.5291  0.2159
  555TMC3    C5 8234   1.971   4.569  15.532 -0.3363  0.1550 -0.4700
  555TMC3    C6 8235   2.069   4.581  15.619  0.2461  0.0315 -0.1568
  555TMC3     C 8236   1.993   0.154  15.337 -0.0275  0.0160  0.5915
  555TMC3     O 8237   2.087   0.221  15.305 -0.2860 -0.1851 -0.3396
  555TMC3     H 8238   2.169   0.165  15.519  1.0253 -0.3366  1.4949
  555TMC3    H1 8239   1.881   4.625  15.351  1.1136 -0.2214 -0.6770
  555TMC3    H2 8240   2.079   4.503  15.694  1.3576 -0.2578 -0.6053
  555TMC3    C7 8241   1.936   4.430  15.508 -0.2725  0.6080 -0.6706
  555TMC3    C8 8242   2.196   0.004  15.751 -0.8137 -0.2449 -0.2519
  555TMC3    O1 8243   1.815   4.407  15.504 -0.5821  0.1285  0.1925
  555TMC3    O2 8244   2.239   4.636  15.811 -0.0620  0.0424 -0.0121
  556MPD2     C 8245   4.448   1.996  10.630  0.6636 -0.4772 -0.1242
  556MPD2    C1 8246   4.581   1.972  10.615 -0.3250 -0.0581 -0.0114
  556MPD2    C2 8247   4.621   1.934  10.493 -0.0629 -0.3639 -0.0221
  556MPD2    C3 8248   4.541   1.921  10.381  0.0124  0.1751  0.3390
  556MPD2    C4 8249   4.413   1.970  10.392 -0.6298 -0.1644 -0.5141
  556MPD2    C5 8250   4.373   2.002  10.515  0.6462 -0.1516  0.6672
  556MPD2     H 8251   0.000   1.911  10.476  0.0758 -0.2360  0.6713
  556MPD2    H1 8252   4.342   1.975  10.310  0.1058  1.0063 -1.0788
  556MPD2    H2 8253   4.405   2.029  10.724  2.8701 -1.1920  1.1407
  556MPD2    H3 8254   4.270   2.031  10.533  0.3225 -0.0902 -1.2550
  556MPD2     N 8255   4.597   1.857  10.267 -0.1175 -0.0807 -0.7234
  556MPD2    H5 8256   4.693   1.826  10.276 -0.5956 -1.1581  0.6823
  556MPD2    N1 8257   4.667   1.970  10.725 -0.1537 -0.1909  0.5211
  556MPD2    H7 8258   0.039   1.944  10.710  0.8654  2.4923  2.3210
  557TMC3    C1 8259   4.603   1.742  10.070  0.9561  0.0914 -0.2341
  557TMC3    C2 8260   4.566   1.731   9.940  0.2928 -0.0238 -0.4654
  557TMC3    C3 8261   4.599   1.620   9.870 -0.0384 -0.1936  0.4352
  557TMC3    C4 8262   4.682   1.650  10.133  0.2439 -0.8084  0.1537
  557TMC3    C5 8263   4.710   1.540  10.059  0.0690 -0.4905 -0.7540
  557TMC3    C6 8264   4.676   1.521   9.924 -0.2104  0.8678  0.4727
  557TMC3     C 8265   4.528   1.829  10.150 -0.0656  0.0611 -0.4722
  557TMC3     O 8266   4.424   1.873  10.106  0.0125  0.1601 -0.0078
  557TMC3     H 8267   4.506   1.809   9.894 -2.8234 -1.6102  0.8777
  557TMC3    H1 8268   4.693   1.651  10.241 -0.9566 -0.3371  0.2738
  557TMC3    H2 8269   4.694   1.428   9.871 -0.3164 -0.3733  2.5728
  557TMC3    C7 8270   4.724   1.416  10.138  0.2088  0.0071  0.6247
  557TMC3    C8 8271   4.578   1.620   9.731 -0.5374 -0.0745 -0.0407
  557TMC3    O1 8272   4.706   1.434  10.258  0.3210 -0.3992  0.2912
  557TMC3    O2 8273   4.583   1.733   9.674 -0.3895  0.1852 -0.1603
  558TMC3    C1 8274   2.485   3.441   9.735  0.9899  0.1609  0.0296
  558TMC3    C2 8275   2.413   3.507   9.825 -0.1254  0.1751 -0.3730
  558TMC3    C3 8276   2.282   3.535   9.786  0.8340  0.2407  0.6384
  558TMC3    C4 8277   2.439   3.411   9.611  0.1786  0.0297  0.2169
  558TMC3    C5 8278   2.310   3.443   9.574  0.0118  0.2685  0.0459
  558TMC3    C6 8279   2.226   3.494   9.667  1.2498  0.1313 -0.0621
  558TMC3     C 8280   2.630   3.447   9.752 -0.2274 -0.3901  0.2592
  558TMC3     O 8281   2.698   3.473   9.657 -0.2625 -0.3821  0.2152
  558TMC3     H 8282   2.454   3.539   9.921 -2.2728 -1.5634  1.1281
  558TMC3    H1 8283   2.503   3.372   9.533  0.0405 -0.1139  0.1763
  558TMC3    H2 8284   2.119   3.508   9.657  1.5336 -0.0202 -3.3740
  558TMC3    C7 8285   2.248   3.371   9.461 -1.2546  1.1730  0.4939
  558TMC3    C8 8286   2.194   3.634   9.857 -0.0535 -0.5204  0.2057
  558TMC3    O1 8287   2.312   3.275   9.414  0.1936  0.4428 -0.2128
  558TMC3    O2 8288   2.110   3.686   9.787 -0.2767  0.5573 -0.0718
  559MPD2     C 8289   2.471   0.251  10.213  0.3916  0.3445  0.1833
  559MPD2    C1 8290   2.436   0.175  10.323  0.4145 -0.0147 -0.3088
  559MPD2    C2 8291   2.518   0.169  10.422  0.1125 -0.2561 -0.9895
  559MPD2    C3 8292   2.636   0.245  10.425 -0.0544 -0.7437  0.2704
  559MPD2    C4 8293   2.679   0.316  10.316  0.2566 -0.2603  0.7040
  559MPD2    C5 8294   2.590   0.318  10.212 -0.1300  0.6716 -0.1264
  559MPD2     H 8295   2.497   0.113  10.512  0.7285  2.0440  0.5830
  559MPD2    H1 8296   2.768   0.377  10.315 -0.5440  0.8225 -1.9314
  559MPD2    H2 8297   2.414   0.248  10.121  0.4696  0.6808  0.1231
  559MPD2    H3 8298   2.616   0.375  10.124 -0.2808  1.6970  0.4901
  559MPD2     N 8299   2.708   0.249  10.546  0.0089 -0.1285  0.1568
  559MPD2    H5 8300   2.670   0.189  10.619  1.2595 -0.3220  0.6485
  559MPD2    N1 8301   2.310   0.110  10.322  0.6498  0.5168  1.3856
  559MPD2    H7 8302   2.244   0.154  10.259 -0.4944 -1.3517  1.2898
  560TMC3    C1 8303   2.906   0.283  10.670 -0.2922 -0.1092 -0.4155
  560TMC3    C2 8304   2.916   0.138  10.695  0.2374  0.2891 -0.1830
  560TMC3    C3 8305   3.013   0.092  10.779 -0.0894  0.1298 -0.2084
  560TMC3    C4 8306   2.992   0.370  10.719 -0.5218  0.4459  0.4335
  560TMC3    C5 8307   3.098   0.315  10.788  0.7082 -0.0821  0.1212
  560TMC3    C6 8308   3.109   0.182  10.818  0.5739 -0.1369 -0.2478
  560TMC3     C 8309   2.807   0.336  10.581  0.1276 -0.5282  0.0675
  560TMC3     O 8310   2.827   0.448  10.535  0.1037  0.0101  0.2608
  560TMC3     H 8311   2.845   0.066  10.659  1.2242  0.9016 -3.3478
  560TMC3    H1 8312   2.976   0.477  10.717  0.4524  0.5689 -1.4247
  560TMC3    H2 8313   3.201   0.148  10.863 -1.4223 -2.8523  1.7780
  560TMC3    C7 8314   3.205   0.399  10.821  0.0480 -0.2970  0.0346
  560TMC3    C8 8315   3.040   4.674  10.769 -0.3276  0.0292  0.1864
  560TMC3    O1 8316   3.170   0.506  10.869  0.1248 -0.2520 -0.1700
  560TMC3    O2 8317   2.942   4.602  10.757 -0.3002 -0.3539  0.2486
  561TMC3    C1 8318   0.562   3.938  11.844 -0.2156  0.0131  0.0989
  561TMC3    C2 8319   0.515   3.995  11.961  0.0771 -0.4233 -0.3321
  561TMC3    C3 8320   0.609   4.059  12.043  0.3497  0.0643  0.2830
  561TMC3    C4 8321   0.692   3.945  11.806  0.9231 -0.0081  0.2392
  561TMC3    C5 8322   0.786   3.993  11.900  0.0696 -0.2915 -0.1765
  561TMC3    C6 8323   0.744   4.047  12.013 -0.1071  1.0789 -0.3042
  561TMC3     C 8324   0.463   3.890  11.742  0.0331 -0.5598  0.1125
  561TMC3     O 8325   0.347   3.917  11.769 -0.8633 -0.1720 -0.0824
  561TMC3     H 8326   0.409   3.989  11.982  0.3358  1.7659  1.5928
  561TMC3    H1 8327   0.717   3.918  11.704  0.3588  0.5108 -0.0374
  561TMC3    H2 8328   0.815   4.094  12.080 -0.4096  0.3549  0.5293
  561TMC3    C7 8329   0.923   4.031  11.870 -0.0467 -0.6091  0.3097
  561TMC3    C8 8330   0.573   4.147  12.150 -0.7622  0.9730 -0.2112
  561TMC3    O1 8331   1.000   4.053  11.959  0.7667  0.5280 -0.2711
  561TMC3    O2 8332   0.659   4.195  12.216  0.2351 -0.3021  0.2334
  562TMC3    C1 8333   1.661   0.265  16.248 -0.0465 -0.2212  0.0448
  562TMC3    C2 8334   1.616   0.388  16.221  0.5918  0.1530  0.2722
  562TMC3    C3 8335   1.620   0.429  16.089  0.2647 -0.5673 -0.1711
  562TMC3    C4 8336   1.710   0.182  16.147  0.0848 -0.2257 -0.6604
  562TMC3    C5 8337   1.715   0.234  16.018 -0.2514 -0.5916  0.2783
  562TMC3    C6 8338   1.677   0.354  15.985 -0.0486 -0.5670 -0.6095
  562TMC3     C 8339   1.676   0.221  16.384 -0.3842  0.0177  0.0538
  562TMC3     O 8340   1.708   0.103  16.389 -0.4894  0.0820  0.0293
  562TMC3     H 8341   1.584   0.456  16.299  1.0910 -0.1684  0.7609
  562TMC3    H1 8342   1.750   0.085  16.173 -0.9506 -0.0160  1.7079
  562TMC3    H2 8343   1.704   0.397  15.889  0.3170 -2.6052 -1.4180
  562TMC3    C7 8344   1.770   0.149  15.917 -0.5086 -0.0012 -0.3210
  562TMC3    C8 8345   1.519   0.518  16.046 -0.0985 -0.2920 -0.0789
  562TMC3    O1 8346   1.746   0.163  15.796 -0.2017  0.4939 -0.2468
  562TMC3    O2 8347   1.463   0.584  16.128  0.6472 -0.0067  0.1158
  563MPD2     C 8348   3.923   1.657  15.680  0.1616 -0.1284 -0.3790
  563MPD2    C1 8349   3.869   1.734  15.779 -0.3938  0.4475  0.3864
  563MPD2    C2 8350   3.921   1.718  15.905  0.0734 -0.0656 -0.0714
  563MPD2    C3 8351   4.043   1.652  15.932 -1.0302  0.3407 -0.2434
  563MPD2    C4 8352   4.102   1.578  15.826  0.6483  0.0167  0.0694
  563MPD2    C5 8353   4.033   1.573  15.705 -0.3520  0.0020 -0.4879
  563MPD2     H 8354   3.877   1.779  15.984  1.0959 -1.2375  1.3961
  563MPD2    H1 8355   4.168   1.495  15.846  0.1432 -0.5634 -0.6674
  563MPD2    H2 8356   3.876   1.654  15.582 -0.2552 -0.6624 -0.1597
  563MPD2    H3 8357   4.070   1.499  15.634  1.2120  0.1453  0.1812
  563MPD2     N 8358   4.094   1.643  16.065  0.8894 -0.7599  0.7774
  563MPD2    H5 8359   4.034   1.686  16.135 -0.0765  0.5969 -0.8754
  563MPD2    N1 8360   3.744   1.790  15.765  0.6183 -0.3783 -0.5250
  563MPD2    H7 8361   3.681   1.755  15.694  0.1142 -0.2412 -0.1507
  564TMC3    C1 8362   3.583   1.885  15.919  0.1453 -0.3564  0.4755
  564TMC3    C2 8363   3.495   1.805  15.867 -0.3758 -0.4937 -0.4389
  564TMC3    C3 8364   3.412   1.744  15.953 -0.5220 -0.1801 -0.5189
  564TMC3    C4 8365   3.594   1.904  16.052 -0.3182 -0.6409 -0.0237
  564TMC3    C5 8366   3.521   1.833  16.142 -0.2862 -0.1373  0.1872
  564TMC3    C6 8367   3.419   1.758  16.090 -1.1517 -0.0117  0.0861
  564TMC3     C 8368   3.707   1.892  15.851 -0.0876 -0.9507  0.3342
  564TMC3     O 8369   3.778   1.983  15.887  0.1951  0.3203  0.1920
  564TMC3     H 8370   3.489   1.793  15.760 -0.4388 -0.2581 -0.4615
  564TMC3    H1 8371   3.661   1.977  16.096 -1.0781  0.4029 -0.6005
  564TMC3    H2 8372   3.367   1.679  16.142 -0.2136 -0.8738 -0.2795
  564TMC3    C7 8373   3.609   1.747  16.221 -0.1593 -0.0620  0.1747
  564TMC3    C8 8374   3.373   1.610  15.907 -0.2767  0.7635  0.1914
  564TMC3    O1 8375   3.699   1.804  16.279 -0.7663  0.0410  0.7368
  564TMC3    O2 8376   3.376   1.520  15.991 -0.0746 -0.1251 -0.0167
  565TMC3    C1 8377   4.400   2.663  10.192  0.2132  0.1806  0.3150
  565TMC3    C2 8378   4.375   2.577  10.295 -0.2148  0.2220 -0.5289
  565TMC3    C3 8379   4.284   2.481  10.277  0.9358  0.8871 -0.1218
  565TMC3    C4 8380   4.337   2.647  10.068  0.0226 -0.5792 -0.1017
  565TMC3    C5 8381   4.251   2.541  10.051 -0.7304  0.4754  0.4139
  565TMC3    C6 8382   4.216   2.456  10.155  1.3008  0.2555 -0.6882
  565TMC3     C 8383   4.509   2.752  10.193 -0.3466 -0.9870 -0.1708
  565TMC3     O 8384   4.531   2.809  10.090 -0.1893  0.1512  0.0179
  565TMC3     H 8385   4.422   2.576  10.392  1.5372 -2.5585 -1.3827
  565TMC3    H1 8386   4.349   2.709   9.979 -0.6927  2.1074  1.6598
  565TMC3    H2 8387   4.174   2.362  10.121 -1.7865  1.1579  0.5930
  565TMC3    C7 8388   4.169   2.518   9.935 -0.1043 -0.2145 -0.2313
  565TMC3    C8 8389   4.240   2.414  10.398 -0.2733  0.2320  0.3581
  565TMC3    O1 8390   4.091   2.421   9.939 -0.4495  0.1310  0.4695
  565TMC3    O2 8391   4.302   2.426  10.503  0.4659 -0.5618 -0.3446
  566MPD2     C 8392   0.744   4.565  14.147  0.3313  0.4879 -0.1560
  566MPD2    C1 8393   0.849   4.503  14.083  0.3886  0.0248  0.0306
  566MPD2    C2 8394   0.821   4.410  13.982  0.1104  0.6993 -0.1853
  566MPD2    C3 8395   0.693   4.380  13.941 -0.6814 -0.2959  0.0585
  566MPD2    C4 8396   0.589   4.448  14.005 -0.4514 -0.7086 -0.5242
  566MPD2    C5 8397   0.614   4.535  14.106  0.2029 -0.0896 -0.3903
  566MPD2     H 8398   0.907   4.362  13.935 -0.5530 -2.6902  2.0345
  566MPD2    H1 8399   0.490   4.418  13.972 -1.0371  0.1370  0.4666
  566MPD2    H2 8400   0.758   4.635  14.228  0.8936  1.0216 -0.7184
  566MPD2    H3 8401   0.526   4.575  14.155  0.0262 -1.4609  0.4095
  566MPD2     N 8402   0.668   4.293  13.833 -0.0001 -0.5174  0.1601
  566MPD2    H5 8403   0.585   4.310  13.777 -0.5134  0.2259  1.1627
  566MPD2    N1 8404   0.984   4.534  14.118 -0.1959  0.2002 -0.2799
  566MPD2    H7 8405   1.052   4.470  14.077 -0.9894  0.0890 -1.4213
  567TMC3    C1 8406   1.174   4.653  14.204 -0.4145 -0.1500  0.5746
  567TMC3    C2 8407   1.232   4.653  14.080  0.4213 -1.1447  0.4525
  567TMC3    C3 8408   1.357   4.691  14.060 -0.4114 -0.1246 -0.7907
  567TMC3    C4 8409   1.245   4.691  14.302  0.7749 -0.6822  0.4684
  567TMC3    C5 8410   1.377   0.005  14.283  0.0356 -0.6500 -0.7173
  567TMC3    C6 8411   1.436   0.010  14.165  0.5255  0.7216  0.6060
  567TMC3     C 8412   1.029   4.629  14.208  0.8915  0.1583  0.3726
  567TMC3     O 8413   0.962   4.695  14.285  0.2269  0.4825 -0.3826
  567TMC3     H 8414   1.175   4.639  13.989  0.5241 -0.1437  0.2349
  567TMC3    H1 8415   1.200   4.715  14.398 -0.8291 -0.1704 -0.4080
  567TMC3    H2 8416   1.537   0.047  14.154  0.7717  0.2650  1.2598
  567TMC3    C7 8417   1.452   0.029  14.403 -0.3027 -0.6355  0.5905
  567TMC3    C8 8418   1.396   0.009  13.925 -0.8342  1.0591 -0.0362
  567TMC3    O1 8419   1.526   0.128  14.392 -0.1149  0.6026  0.2603
  567TMC3    O2 8420   1.307   0.032  13.848  0.1214 -0.6909 -0.2770
  568MPD2     C 8421   3.356   0.220  16.272 -0.6953 -0.0459  0.7376
  568MPD2    C1 8422   3.456   0.294  16.315 -0.1232 -0.7102  0.4812
  568MPD2    C2 8423   3.474   0.417  16.262  0.3779  0.2877 -0.3106
  568MPD2    C3 8424   3.401   0.458  16.156  0.2792 -0.0892 -0.2699
  568MPD2    C4 8425   3.297   0.385  16.106 -0.2765  0.0427 -0.4880
  568MPD2    C5 8426   3.266   0.269  16.175 -0.2932  0.4027 -0.4107
  568MPD2     H 8427   3.558   0.479  16.289  0.1283  0.8688 -0.8641
  568MPD2    H1 8428   3.239   0.417  16.020  1.2618  2.2342 -0.7124
  568MPD2    H2 8429   3.343   0.116  16.298 -2.2938 -0.6542 -2.4663
  568MPD2    H3 8430   3.193   0.202  16.133 -0.8872  1.4510 -1.0401
  568MPD2     N 8431   3.437   0.579  16.101 -0.5806  0.0912 -0.2584
  568MPD2    H5 8432   3.517   0.630  16.136  0.0511  1.3302 -3.4797
  568MPD2    N1 8433   3.543   0.244  16.417  0.6769 -0.5600 -0.0469
  568MPD2    H7 8434   3.508   0.169  16.476  1.2137 -1.2232 -0.5683
  569TMC3    C1 8435   3.437   0.775  15.968  0.6557  0.1250  0.2503
  569TMC3    C2 8436   3.483   0.850  16.074 -0.2307  0.6695  0.8979
  569TMC3    C3 8437   3.566   0.954  16.056 -0.8556 -0.1778  0.1845
  569TMC3    C4 8438   3.458   0.810  15.838  0.3200 -0.1374 -0.2974
  569TMC3    C5 8439   3.532   0.923  15.818  0.0615 -0.3860  0.4353
  569TMC3    C6 8440   3.596   0.987  15.924  0.3162  0.7436  0.5437
  569TMC3     C 8441   3.378   0.647  15.994 -0.4325 -0.1841  0.3460
  569TMC3     O 8442   3.295   0.610  15.914 -0.5221  0.1105 -0.1429
  569TMC3     H 8443   3.469   0.807  16.172 -0.2078 -0.6788  0.3132
  569TMC3    H1 8444   3.410   0.758  15.756  1.0393  0.3635 -1.0431
  569TMC3    H2 8445   3.653   1.078  15.903 -0.1984  0.5951 -1.5122
  569TMC3    C7 8446   3.474   1.007  15.710  0.2550 -0.5350 -0.6789
  569TMC3    C8 8447   3.527   1.072  16.124 -0.5808 -0.5415  0.2161
  569TMC3    O1 8448   3.440   0.954  15.605  0.1579 -0.5837 -0.3628
  569TMC3    O2 8449   3.484   1.162  16.045 -0.3041  0.4493  0.2201
  570TMC3    C1 8450   2.813   3.980  16.159 -0.6580  0.1713 -0.2108
  570TMC3    C2 8451   2.852   3.958  16.029  0.3772 -0.1073  0.2839
  570TMC3    C3 8452   2.880   4.065  15.957  0.4845 -0.4185 -0.3487
  570TMC3    C4 8453   2.815   4.108  16.213 -0.3011 -0.1094  0.1192
  570TMC3    C5 8454   2.834   4.210  16.132 -0.3398  0.3625  0.1309
  570TMC3    C6 8455   2.881   4.194  15.999 -0.3169 -0.0029  0.3817
  570TMC3     C 8456   2.765   3.865  16.241 -0.7386 -0.0900  0.5486
  570TMC3     O 8457   2.773   3.755  16.184  0.0415  0.0103  0.6836
  570TMC3     H 8458   2.840   3.864  15.977 -0.3181 -0.1020  0.4301
  570TMC3    H1 8459   2.793   4.129  16.317 -0.2533  0.4925  0.0085
  570TMC3    H2 8460   2.865   4.277  15.931 -0.1132 -0.2743 -0.0003
  570TMC3    C7 8461   2.868   4.337  16.187 -0.8916 -0.1068 -0.2738
  570TMC3    C8 8462   2.985   4.054  15.868 -0.1079 -0.0717  0.4808
  570TMC3    O1 8463   2.899   4.331  16.306 -0.4295  0.0450  0.0715
  570TMC3    O2 8464   3.037   4.163  15.844 -0.1738 -0.3503 -0.3732
  571MPD2     C 8465   0.891   0.653  17.511 -0.2744  0.0878 -0.3942
  571MPD2    C1 8466   0.811   0.549  17.541 -0.6363  0.9523 -0.7328
  571MPD2    C2 8467   0.701   0.554  17.629  0.5592  0.4216 -0.9991
  571MPD2    C3 8468   0.686   0.670   0.001 -0.2330  0.4241 -0.0608
  571MPD2    C4 8469   0.778   0.772  17.669  0.1569 -0.4755 -0.5568
  571MPD2    C5 8470   0.878   0.768  17.576 -0.1347  0.7668  0.3060
  571MPD2     H 8471   0.636   0.468  17.641  0.4678  0.8710  1.6465
  571MPD2    H1 8472   0.769   0.869   0.015 -1.0446 -0.6714 -0.4016
  571MPD2    H2 8473   0.972   0.642  17.440 -1.5457 -1.2425 -1.6151
  571MPD2    H3 8474   0.932   0.860  17.556 -1.7691  1.8263  0.7481
  571MPD2     N 8475   0.582   0.691   0.096  0.1045  0.8595  0.0191
  571MPD2    H5 8476   0.576   0.781   0.141 -0.4727  0.8511 -0.0361
  571MPD2    N1 8477   0.857   0.428  17.481  0.1946 -0.1088  0.6420
  571MPD2    H7 8478   0.930   0.447  17.413 -1.1433 -1.4195 -1.1314
  572TMC3    C1 8479   0.433   0.652   0.267 -0.1087  0.0889 -0.1863
  572TMC3    C2 8480   0.393   0.568   0.371 -0.2427  0.0553  0.0531
  572TMC3    C3 8481   0.356   0.641   0.488 -0.3541  0.4141  0.4462
  572TMC3    C4 8482   0.418   0.790   0.260 -0.3701  0.3330  0.7438
  572TMC3    C5 8483   0.381   0.849   0.377 -0.1029  0.5022  0.7102
  572TMC3    C6 8484   0.350   0.779   0.498 -0.5466  0.1504  0.2607
  572TMC3     C 8485   0.506   0.593   0.158  0.4360 -0.4639 -0.4099
  572TMC3     O 8486   0.504   0.472   0.151 -0.3595  0.3660  0.1333
  572TMC3     H 8487   0.425   0.464   0.370  0.0555  0.1545 -0.6304
  572TMC3    H1 8488   0.410   0.839   0.164  2.7948  1.5521  1.1270
  572TMC3    H2 8489   0.301   0.827   0.582 -2.4860  2.5819 -2.2554
  572TMC3    C7 8490   0.370   0.997   0.369  0.4232 -0.0952  0.1853
  572TMC3    C8 8491   0.343   0.561   0.607  0.0153 -0.3078 -0.1598
  572TMC3    O1 8492   0.400   1.050   0.263 -0.4432  0.0212  0.2063
  572TMC3    O2 8493   0.358   0.443   0.586 -0.2058  0.0682 -0.0635
  573MPD2     C 8494   2.007   1.821   0.507  0.0485  0.4534 -0.1919
  573MPD2    C1 8495   1.986   1.952   0.558  0.2194  0.3283  0.2941
  573MPD2    C2 8496   1.889   2.042   0.506 -0.5095  0.1189  0.8230
  573MPD2    C3 8497   1.818   2.000   0.397 -0.2836  0.5067  0.6862
  573MPD2    C4 8498   1.847   1.877   0.340  0.3033  0.5241 -0.1801
  573MPD2    C5 8499   1.930   1.785   0.395 -0.1699  0.4488  0.4673
  573MPD2     H 8500   1.872   2.142   0.546  1.6363  0.7330  0.1957
  573MPD2    H1 8501   1.808   1.846   0.243 -2.1275  0.5898  0.7902
  573MPD2    H2 8502   2.084   1.753   0.542  0.5485  0.3353 -1.5168
  573MPD2    H3 8503   1.944   1.688   0.348  1.5668  0.8860  0.0581
  573MPD2     N 8504   1.737   2.081   0.321  0.5964  0.1302  0.0885
  573MPD2    H5 8505   1.701   2.051   0.231  0.4263  2.3477 -0.5878
  573MPD2    N1 8506   2.056   1.996   0.680 -0.0856 -0.3213  0.4622
  573MPD2    H7 8507   2.027   2.080   0.729 -0.1743  0.0599 -0.2519
  574TMC3    C1 8508   1.659   2.278   0.229 -0.2091  0.2611 -0.0278
  574TMC3    C2 8509   1.543   2.352   0.221  0.3318 -0.3948 -0.0338
  574TMC3    C3 8510   1.510   2.412   0.105  0.2505  0.1245  0.4308
  574TMC3    C4 8511   1.746   2.271   0.119  0.2417 -0.4254 -0.0320
  574TMC3    C5 8512   1.717   2.333   0.006 -0.1573  0.5621 -0.5436
  574TMC3    C6 8513   1.603   2.404   0.001  0.1609  0.2928  0.3205
  574TMC3     C 8514   1.696   2.207   0.352  0.2541 -0.4394  0.0906
  574TMC3     O 8515   1.654   2.254   0.457 -0.3009  0.2404  0.1299
  574TMC3     H 8516   1.472   2.348   0.303 -1.3563 -1.5473 -1.5343
  574TMC3    H1 8517   1.843   2.223   0.129 -0.9149 -2.8076 -0.2877
  574TMC3    H2 8518   1.579   2.457  17.611  0.3669 -1.4932 -0.7636
  574TMC3    C7 8519   1.797   2.301  17.591 -0.1664  0.5044 -0.3260
  574TMC3    C8 8520   1.388   2.493   0.102 -0.7085  0.4596 -0.1300
  574TMC3    O1 8521   1.888   2.222  17.610  0.0672  0.0415  0.6715
  574TMC3    O2 8522   1.357   2.536   0.214  0.1220 -0.0992  0.0092
  575TMC3    C1 8523   4.280   2.112  11.221 -0.2673 -1.1946  0.2741
  575TMC3    C2 8524   4.229   1.985  11.252 -0.7136  0.2084 -0.8985
  575TMC3    C3 8525   4.179   1.905  11.156  0.0849 -0.1642 -0.1741
  575TMC3    C4 8526   4.262   2.155  11.092  0.5935  0.9546  0.5546
  575TMC3    C5 8527   4.195   2.083  11.004 -0.4451  0.1021 -0.8014
  575TMC3    C6 8528   4.148   1.964  11.037  0.2712  1.1283 -0.1468
  575TMC3     C 8529   4.414   2.133  11.273 -0.7554  0.1207 -0.0592
  575TMC3     O 8530   4.434   2.092  11.384 -0.2443 -0.5086  0.4249
  575TMC3     H 8531   4.273   1.944  11.342 -1.4633 -0.8243 -0.9943
  575TMC3    H1 8532   4.297   2.251  11.055  0.2723  2.3013  3.7194
  575TMC3    H2 8533   4.102   1.898  10.964  2.1568 -1.0168  0.5842
  575TMC3    C7 8534   4.177   2.134  10.868  0.7402  0.4659 -0.0977
  575TMC3    C8 8535   4.264   1.789  11.154 -0.2654 -0.1747  0.3391
  575TMC3    O1 8536   4.258   2.223  10.833  0.2152  0.1044 -0.0986
  575TMC3    O2 8537   4.300   1.737  11.258  0.4121 -0.1250 -0.3729
  576MPD2     C 8538   4.022   4.286  12.581 -0.7706  0.2147  0.1275
  576MPD2    C1 8539   3.994   4.391  12.491 -0.4774  0.1134  1.2936
  576MPD2    C2 8540   3.872   4.458  12.497  0.5861  0.2739  0.5594
  576MPD2    C3 8541   3.777   4.418  12.588 -0.7093  0.0093 -0.4497
  576MPD2    C4 8542   3.807   4.316  12.673  0.1739 -0.0430 -0.0965
  576MPD2    C5 8543   3.927   4.250  12.667 -0.5747 -0.1321  0.5223
  576MPD2     H 8544   3.845   4.530  12.422 -1.7574 -1.7797 -0.5647
  576MPD2    H1 8545   3.743   4.281  12.754  0.7631 -3.3053 -1.0403
  576MPD2    H2 8546   4.116   4.233  12.584 -0.6595  0.4283  0.4628
  576MPD2    H3 8547   3.942   4.163  12.729  0.4958 -2.0788 -2.4889
  576MPD2     N 8548   3.649   4.491  12.591  0.1182  0.0072  0.5189
  576MPD2    H5 8549   3.640   4.575  12.536 -0.3635 -0.6303 -0.3722
  576MPD2    N1 8550   4.086   4.433  12.393  0.0358  0.0343 -0.4234
  576MPD2    H7 8551   4.057   4.512  12.336  1.6374  0.8341 -0.1453
  577TMC3    C1 8552   4.294   4.479  12.282  0.0504 -0.2591 -0.3116
  577TMC3    C2 8553   4.422   4.507  12.327 -0.1104  0.1244 -0.2132
  577TMC3    C3 8554   4.535   4.480  12.249  0.2874  0.6779 -0.4492
  577TMC3    C4 8555   4.272   4.436  12.157 -0.3371 -0.1424  0.3722
  577TMC3    C5 8556   4.384   4.408  12.082  0.2936  0.2157 -0.4496
  577TMC3    C6 8557   4.515   4.431  12.124  0.1954  0.1744  0.0244
  577TMC3     C 8558   4.223   4.409  12.387  0.3869  0.5558 -0.8056
  577TMC3     O 8559   4.280   4.320  12.447 -0.1205  0.7551  0.3780
  577TMC3     H 8560   4.429   4.551  12.426 -0.8578 -1.0600  0.3653
  577TMC3    H1 8561   4.179   4.382  12.146 -0.1506 -0.2763 -0.5793
  577TMC3    H2 8562   4.597   4.407  12.057 -0.6916  1.0172 -1.3763
  577TMC3    C7 8563   4.367   4.328  11.962  0.1777 -0.3925 -0.9019
  577TMC3    C8 8564   4.666   4.494  12.300 -0.2254 -0.5044 -0.4018
  577TMC3    O1 8565   4.464   4.261  11.917 -0.1036  0.4501 -0.0619
  577TMC3    O2 8566   4.682   4.567  12.396  0.4286 -0.2436  0.5733
  578MPD2     C 8567   2.155   4.678   1.181  0.2719  0.2231 -0.5220
  578MPD2    C1 8568   2.240   4.634   1.086  0.1400  0.3231  0.2914
  578MPD2    C2 8569   2.322   4.524   1.109 -0.2887  0.4298 -0.4244
  578MPD2    C3 8570   2.317   4.469   1.235 -0.0591 -0.1851  0.0755
  578MPD2    C4 8571   2.227   4.510   1.331 -0.0766  0.2796  0.8455
  578MPD2    C5 8572   2.146   4.614   1.301  0.4126  0.6501 -0.6840
  578MPD2     H 8573   2.398   4.495   1.038  0.2190  0.1982  0.2160
  578MPD2    H1 8574   2.213   4.461   1.426  1.6238  0.8729  1.3933
  578MPD2    H2 8575   2.084   0.033   1.167  0.1909  0.5644  1.8019
  578MPD2    H3 8576   2.079   4.652   1.377  1.7643 -0.4589  1.0705
  578MPD2     N 8577   2.410   4.364   1.269  0.3949 -0.4552  0.3049
  578MPD2    H5 8578   2.449   4.307   1.195  3.3314  0.4017  1.2037
  578MPD2    N1 8579   2.229   4.707   0.967 -0.1758 -0.1369 -0.2587
  578MPD2    H7 8580   2.164   0.060   0.968  0.2922  0.2082  2.6478
  579TMC3    C1 8581   2.502   4.203   1.415  0.1603  0.0433  0.2686
  579TMC3    C2 8582   2.606   4.195   1.499 -0.1680  0.8581 -0.5085
  579TMC3    C3 8583   2.691   4.097   1.491 -0.4324  0.1481  0.3939
  579TMC3    C4 8584   2.484   4.117   1.313 -0.0155  0.4889 -0.2648
  579TMC3    C5 8585   2.573   4.018   1.298 -0.4600  0.2092 -0.0654
  579TMC3    C6 8586   2.676   4.006   1.388 -0.1500  0.2067  0.5215
  579TMC3     C 8587   2.434   4.332   1.400 -0.3161 -0.1209  0.0408
  579TMC3     O 8588   2.441   4.407   1.495 -0.4010  0.4734 -0.2755
  579TMC3     H 8589   2.609   4.269   1.578  0.4018  0.7911 -0.4645
  579TMC3    H1 8590   2.388   4.127   1.264 -0.6608  4.0569  1.7637
  579TMC3    H2 8591   2.751   3.931   1.367  0.2819  1.1890 -1.4594
  579TMC3    C7 8592   2.544   3.903   1.218  0.2178 -0.2732  0.3693
  579TMC3    C8 8593   2.776   4.081   1.605 -0.0725  0.5622 -0.1841
  579TMC3    O1 8594   2.610   3.804   1.247 -0.1494  1.1948 -0.4755
  579TMC3    O2 8595   2.733   4.102   1.716 -0.0517 -0.0584  0.0120
  580TMC3    C1 8596   2.458   3.552  12.030  0.2859  0.9382 -0.1936
  580TMC3    C2 8597   2.496   3.669  11.966  0.2319  0.1398 -0.3960
  580TMC3    C3 8598   2.567   3.648  11.850  0.6716 -0.0729 -0.2558
  580TMC3    C4 8599   2.503   3.432  11.990  0.1382 -0.0793  0.2743
  580TMC3    C5 8600   2.581   3.420  11.880  0.0115 -0.5532 -0.1236
  580TMC3    C6 8601   2.613   3.530  11.805 -0.1799 -0.1491  0.0322
  580TMC3     C 8602   2.416   3.557  12.168 -0.5004 -0.0671 -0.0491
  580TMC3     O 8603   2.487   3.489  12.240  0.0549  0.0005 -0.0880
  580TMC3     H 8604   2.485   3.767  12.011 -2.8809 -0.3252 -0.1457
  580TMC3    H1 8605   2.477   3.348  12.054 -1.9580 -0.6489 -1.3202
  580TMC3    H2 8606   2.665   3.516  11.711 -0.4869  0.4423 -0.2279
  580TMC3    C7 8607   2.635   3.288  11.846  0.0208 -0.5249  0.0666
  580TMC3    C8 8608   2.632   3.775  11.796 -0.3479 -0.1533 -0.6692
  580TMC3    O1 8609   2.637   3.245  11.733  0.3692  0.2754  0.4844
  580TMC3    O2 8610   2.613   3.885  11.846  0.0545  0.0129 -0.0498
  581MPD2     C 8611   0.194   2.572  14.780 -0.1913 -0.4103 -0.5276
  581MPD2    C1 8612   0.067   2.527  14.818  0.6402 -0.5865  0.0882
  581MPD2    C2 8613   4.684   2.555  14.736 -0.1772  0.6381 -0.1206
  581MPD2    C3 8614   4.700   2.632  14.619  0.1876  0.3937  0.4155
  581MPD2    C4 8615   0.102   2.672  14.591  0.4633 -0.3300 -0.3736
  581MPD2    C5 8616   0.208   2.641  14.662 -0.0985 -0.3268  0.1184
  581MPD2     H 8617   4.583   2.527  14.765 -0.2320 -0.5034 -1.4225
  581MPD2    H1 8618   0.119   2.733  14.502  2.2297 -0.3323 -0.0352
  581MPD2    H2 8619   0.285   2.567  14.840 -1.4027  0.9411  1.4311
  581MPD2    H3 8620   0.308   2.671  14.632 -1.0232  2.1940 -0.4697
  581MPD2     N 8621   4.594   2.675  14.546  0.0616  0.1042  0.9707
  581MPD2    H5 8622   4.497   2.666  14.576 -0.1077  1.2179  0.7525
  581MPD2    N1 8623   0.061   2.471  14.947 -0.3077  0.2543 -0.1694
  581MPD2    H7 8624   0.147   2.467  15.000 -0.4061  1.3627  0.0601
  582TMC3    C1 8625   4.713   2.341  15.121 -0.5194  0.7797 -1.4954
  582TMC3    C2 8626   4.696   2.411  15.241 -0.3826  0.1181 -0.1552
  582TMC3    C3 8627   4.664   2.333  15.353 -0.2633  0.1062 -1.0530
  582TMC3    C4 8628   4.664   2.212  15.113 -0.0634 -0.2105 -0.7101
  582TMC3    C5 8629   4.617   2.143  15.216 -0.4051  0.2517 -0.7921
  582TMC3    C6 8630   4.644   2.197  15.337 -0.3874  0.0648  0.1895
  582TMC3     C 8631   4.677   2.415  15.004 -0.1468 -0.4721 -0.1301
  582TMC3     O 8632   4.559   2.403  14.975 -0.8266 -0.3663  0.0927
  582TMC3     H 8633   4.687   2.519  15.250  0.9313  0.0973  1.4519
  582TMC3    H1 8634   4.650   2.173  15.013 -1.6890 -0.0171 -0.5589
  582TMC3    H2 8635   4.622   2.144  15.429  1.2436  2.0519  1.7243
  582TMC3    C7 8636   4.477   2.108  15.215 -0.0813  0.2222 -0.1962
  582TMC3    C8 8637   4.598   2.405  15.457 -0.9945 -0.1181  0.1453
  582TMC3    O1 8638   4.438   2.025  15.293  0.0786  0.2267  0.8352
  582TMC3    O2 8639   4.624   2.523  15.464 -0.2344  0.9138  0.8607
  583MPD2     C 8640   0.156   4.444  16.863 -0.0322  0.4496 -0.1340
  583MPD2    C1 8641   0.155   4.571  16.811  0.3077 -0.0899  0.5340
  583MPD2    C2 8642   0.094   4.671  16.884  0.2128 -0.0440  0.4180
  583MPD2    C3 8643   0.061   4.661  17.024 -0.6171  0.5666  0.6615
  583MPD2    C4 8644   0.074   4.533  17.085 -0.3830 -0.4390 -0.5063
  583MPD2    C5 8645   0.125   4.431  16.999 -0.9046 -0.5422  0.4233
  583MPD2     H 8646   0.088   0.050  16.852  3.4695 -0.1658 -0.5870
  583MPD2    H1 8647   0.041   4.512  17.186  1.8742 -3.3724 -0.3604
  583MPD2    H2 8648   0.191   4.353  16.816 -1.6462 -0.7808  1.0438
  583MPD2    H3 8649   0.150   4.334  17.041 -0.5088 -0.5889  0.0710
  583MPD2     N 8650   0.007   0.047  17.095  0.3572 -0.2177  0.2751
  583MPD2    H5 8651   0.001   0.136  17.047  0.2135 -0.9373 -1.0234
  583MPD2    N1 8652   0.202   4.613  16.686  0.6771 -0.0012 -0.4130
  583MPD2    H7 8653   0.183   4.710  16.665  1.3192  0.1254 -0.3989
  584TMC3    C1 8654   4.658   0.175  17.283  0.1483 -0.5726 -0.1450
  584TMC3    C2 8655   4.686   0.292  17.213 -0.2650  0.2729 -0.2929
  584TMC3    C3 8656   4.683   0.412  17.272  0.1110  0.2189  0.1056
  584TMC3    C4 8657   4.589   0.177  17.399 -0.5081 -0.4317 -0.0806
  584TMC3    C5 8658   4.571   0.303  17.451  0.3765  0.3565  0.1247
  584TMC3    C6 8659   4.619   0.419  17.396  0.2584  0.6541 -0.5465
  584TMC3     C 8660   4.679   0.040  17.226  0.5598 -0.1754 -0.4373
  584TMC3     O 8661   4.661   4.667  17.299 -0.1967  0.0092  0.5652
  584TMC3     H 8662   4.714   0.277  17.109  2.3277 -0.8346  0.5605
  584TMC3    H1 8663   4.562   0.081  17.442 -0.5690 -0.3020  0.1667
  584TMC3    H2 8664   4.598   0.513  17.445  0.9947  0.3537  0.3573
  584TMC3    C7 8665   4.554   0.311  17.594  0.0940  0.6719 -0.2060
  584TMC3    C8 8666   4.691   0.523  17.188  0.3658  0.0981  0.3388
  584TMC3    O1 8667   4.566   0.204  17.649  0.4328  0.0382  0.4445
  584TMC3    O2 8668   4.669   0.497  17.070  0.4745  0.1258  0.2566
  585MPD2     C 8669   3.976   3.550   0.523  0.6504  0.6788 -0.1308
  585MPD2    C1 8670   4.096   3.592   0.471  0.3558  0.4300 -0.2535
  585MPD2    C2 8671   4.125   3.575   0.342  0.4428 -0.7664 -0.1398
  585MPD2    C3 8672   4.037   3.503   0.261 -0.4217 -0.3143 -0.3588
  585MPD2    C4 8673   3.915   3.468   0.313  1.4691  0.7058  0.6830
  585MPD2    C5 8674   3.885   3.506   0.435 -0.1332 -0.4762 -0.3670
  585MPD2     H 8675   4.219   3.611   0.303 -0.5272  1.0662 -0.8115
  585MPD2    H1 8676   3.839   3.422   0.250  2.0294  2.3221 -1.1779
  585MPD2    H2 8677   3.949   3.559   0.628  1.0793 -1.1367  0.1454
  585MPD2    H3 8678   3.785   3.496   0.475 -0.4730 -0.1522 -1.1379
  585MPD2     N 8679   4.063   3.475   0.126 -0.8568 -0.0504 -0.3058
  585MPD2    H5 8680   3.996   3.412   0.083 -0.1618 -1.9948  1.4750
  585MPD2    N1 8681   4.185   3.661   0.557 -0.3370  0.7202 -0.1860
  585MPD2    H7 8682   4.162   3.662   0.656  0.1995 -1.9070 -0.0300
  586TMC3    C1 8683   4.142   3.540  17.613 -0.1014 -0.0179 -0.3816
  586TMC3    C2 8684   4.251   3.572  17.534  0.6570  0.1674 -0.9422
  586TMC3    C3 8685   4.243   3.567  17.401 -0.2912 -0.6160 -0.1756
  586TMC3    C4 8686   4.015   3.524  17.560 -0.1509  0.1881 -0.2040
  586TMC3    C5 8687   4.006   3.528  17.422  0.0479  0.2983 -0.1285
  586TMC3    C6 8688   4.117   3.540  17.345 -0.5844  0.2690  0.3809
  586TMC3     C 8689   4.168   3.528   0.058 -0.5392  0.6769  0.2901
  586TMC3     O 8690   4.282   3.545   0.098 -0.5078  0.1153  0.3640
  586TMC3     H 8691   4.346   3.598  17.581  0.0715 -0.3547  0.5294
  586TMC3    H1 8692   3.927   3.521  17.623 -0.4810  1.5937 -0.6069
  586TMC3    H2 8693   4.106   3.536  17.237 -1.2138 -0.5348  0.4712
  586TMC3    C7 8694   3.869   3.511  17.369 -0.1271 -0.3750  0.2626
  586TMC3    C8 8695   4.324   3.665  17.331 -0.3788 -0.8048 -0.1207
  586TMC3    O1 8696   3.790   3.439  17.430  0.0163 -0.1437 -0.3313
  586TMC3    O2 8697   4.334   3.768  17.393  0.5124 -0.4597 -0.0718
  587TMC3    C1 8698   1.819   2.153  16.625  0.6190 -1.0132  0.3013
  587TMC3    C2 8699   1.757   2.243  16.542  0.2593  0.5673  0.2649
  587TMC3    C3 8700   1.830   2.350  16.499 -0.4098  0.3104  0.2287
  587TMC3    C4 8701   1.945   2.162  16.668 -0.5927 -0.3374 -1.3317
  587TMC3    C5 8702   2.015   2.263  16.608  0.4973  0.2194  0.3299
  587TMC3    C6 8703   1.963   2.360  16.525 -0.1711  0.0516  0.1754
  587TMC3     C 8704   1.731   2.106  16.724 -0.0974  0.8681  0.0781
  587TMC3     O 8705   1.764   2.122  16.839  0.3725 -0.4342 -0.0623
  587TMC3     H 8706   1.658   2.223  16.502  0.0798 -0.9011  1.4665
  587TMC3    H1 8707   1.986   2.098  16.746 -0.5569  1.1875 -0.1095
  587TMC3    H2 8708   2.026   2.438  16.484 -0.4032 -0.7282 -1.6590
  587TMC3    C7 8709   2.161   2.253  16.598 -0.1604 -0.6265  0.4040
  587TMC3    C8 8710   1.771   2.430  16.391  1.0001 -0.2177 -0.0028
  587TMC3    O1 8711   2.214   2.353  16.558 -0.3564 -0.1258 -0.7117
  587TMC3    O2 8712   1.847   2.493  16.324  0.2352  0.2831  0.0318
  588TMC3    C1 8713   4.443   0.181   9.715 -0.7012  0.6856 -0.5539
  588TMC3    C2 8714   4.508   0.058   9.706  0.6014  0.2604 -0.2470
  588TMC3    C3 8715   4.559   0.006   9.820 -0.4162 -0.5350  0.2717
  588TMC3    C4 8716   4.440   0.249   9.830  0.6048  0.4090  0.5915
  588TMC3    C5 8717   4.499   0.196   9.941  0.3544  0.0290 -0.1171
  588TMC3    C6 8718   4.549   0.070   9.945 -0.9751  0.5781  1.2117
  588TMC3     C 8719   4.359   0.232   9.612  0.0672 -1.0048 -0.2042
  588TMC3     O 8720   4.273   0.160   9.556 -0.3064  0.3624  0.4203
  588TMC3     H 8721   4.512   0.001   9.614  2.7619 -1.2317  0.7896
  588TMC3    H1 8722   4.377   0.336   9.843  0.4074  0.2608  0.6189
  588TMC3    H2 8723   4.596   0.029  10.033  0.3781 -2.2671 -0.8611
  588TMC3    C7 8724   4.522   0.283  10.052  0.8013  0.5461  0.0279
  588TMC3    C8 8725   4.621   4.598   9.803  0.1968  0.1831 -0.3318
  588TMC3    O1 8726   4.538   0.233  10.162 -0.3316 -0.0521  0.4789
  588TMC3    O2 8727   4.690   4.579   9.708  0.2257  0.4726  0.1798
  589TMC3    C1 8728   2.709   3.101   1.463 -0.0573 -0.6383  0.3642
  589TMC3    C2 8729   2.800   3.050   1.550 -0.0324  0.3570  0.1465
  589TMC3    C3 8730   2.898   2.964   1.510 -0.3966  0.6552 -1.2515
  589TMC3    C4 8731   2.700   3.053   1.336  0.6579  0.1618  0.0566
  589TMC3    C5 8732   2.784   2.950   1.302  0.9018 -0.2249 -0.0731
  589TMC3    C6 8733   2.888   2.902   1.385 -0.1919 -0.3213 -0.9607
  589TMC3     C 8734   2.585   3.159   1.515 -0.4802  0.2453 -0.4694
  589TMC3     O 8735   2.488   3.128   1.452 -0.0371 -0.0379 -0.1197
  589TMC3     H 8736   2.799   3.078   1.655 -2.3012 -1.1967  0.5276
  589TMC3    H1 8737   2.627   3.099   1.271  0.0096 -1.6690 -0.5020
  589TMC3    H2 8738   2.962   2.834   1.344  1.6482  0.1184  1.7065
  589TMC3    C7 8739   2.752   2.874   1.188  0.6446 -1.0329  0.6767
  589TMC3    C8 8740   2.999   2.929   1.608  0.1980 -0.2614 -0.3901
  589TMC3    O1 8741   2.834   2.795   1.149  0.3739  0.8158  0.1640
  589TMC3    O2 8742   2.968   2.943   1.725  0.5700  0.1249 -0.8594
  590MPD2     C 8743   2.531   0.971  16.390 -0.1327  0.6013  0.4760
  590MPD2    C1 8744   2.521   1.090  16.329 -0.7563 -0.2537  0.6763
  590MPD2    C2 8745   2.635   1.171  16.307 -0.0215 -0.6916 -0.3145
  590MPD2    C3 8746   2.754   1.123  16.351  0.3860 -0.0071  0.1271
  590MPD2    C4 8747   2.769   1.003  16.414  0.0302 -0.6193 -0.7507
  590MPD2    C5 8748   2.653   0.925  16.426 -0.0287 -0.4967 -0.1865
  590MPD2     H 8749   2.636   1.267  16.258  0.3629 -0.6904 -0.3087
  590MPD2    H1 8750   2.871   0.968  16.428  0.2385  0.9109  1.5835
  590MPD2    H2 8751   2.443   0.908  16.392  0.5486 -0.3355  0.6853
  590MPD2    H3 8752   2.662   0.827  16.471 -0.8608  0.1631  1.4244
  590MPD2     N 8753   2.866   1.204  16.312 -0.2173 -0.1861 -0.1432
  590MPD2    H5 8754   2.856   1.264  16.231 -1.6119 -3.2737 -2.2630
  590MPD2    N1 8755   2.400   1.121  16.273  0.0362  0.4154 -0.4924
  590MPD2    H7 8756   2.333   1.045  16.270 -0.1780  0.6195 -0.9383
  591TMC3    C1 8757   3.084   1.260  16.266  0.1370 -0.2358  0.1865
  591TMC3    C2 8758   3.165   1.179  16.193 -0.2385 -0.2368  0.2365
  591TMC3    C3 8759   3.187   1.207  16.058 -0.1734  0.2449 -0.6024
  591TMC3    C4 8760   3.032   1.374  16.204  0.1316  0.4039  0.0602
  591TMC3    C5 8761   3.064   1.405  16.074  0.2028  0.2856  0.2172
  591TMC3    C6 8762   3.148   1.326  16.000 -0.0975  0.5423  0.9740
  591TMC3     C 8763   2.999   1.184  16.350 -0.1817 -0.4515 -0.4109
  591TMC3     O 8764   3.051   1.099  16.422 -0.5172 -0.6762 -0.2271
  591TMC3     H 8765   3.223   1.105  16.247 -1.2461 -0.8765  0.4455
  591TMC3    H1 8766   2.979   1.443  16.268 -1.3899  0.3674 -1.1549
  591TMC3    H2 8767   3.173   1.341  15.896 -3.4081  0.8775  0.2283
  591TMC3    C7 8768   2.985   1.514  16.011  1.0869  0.2732 -0.3654
  591TMC3    C8 8769   3.170   1.082  15.980 -0.2462  0.1363  0.3156
  591TMC3    O1 8770   2.942   1.606  16.076 -0.1949  0.0595  0.0493
  591TMC3    O2 8771   3.179   0.970  16.040  0.2636 -0.0439 -0.3688
  592MPD2     C 8772   3.450   2.744  11.415 -0.1667  0.3435  1.0251
  592MPD2    C1 8773   3.471   2.814  11.533  0.0592 -0.1833  0.0500
  592MPD2    C2 8774   3.404   2.764  11.643  0.3470 -0.5927  0.3183
  592MPD2    C3 8775   3.325   2.644  11.643 -0.6225  0.1121 -0.0534
  592MPD2    C4 8776   3.317   2.576  11.521  0.1045  0.0423  1.0198
  592MPD2    C5 8777   3.380   2.631  11.410 -0.5493 -0.4634 -0.0750
  592MPD2     H 8778   3.393   2.823  11.733 -0.3344 -2.2598  1.3289
  592MPD2    H1 8779   3.267   2.482  11.499  1.5203 -0.6380  0.7213
  592MPD2    H2 8780   3.482   2.780  11.318  1.7246 -1.1981  1.0866
  592MPD2    H3 8781   3.375   2.594  11.308 -0.5614  2.0158 -0.9619
  592MPD2     N 8782   3.269   2.593  11.762 -0.1355  0.1923  0.0881
  592MPD2    H5 8783   3.300   2.637  11.848 -0.3883  0.4639  0.0369
  592MPD2    N1 8784   3.536   2.937  11.516 -0.2152  0.1587 -0.8369
  592MPD2    H7 8785   3.569   2.961  11.423  1.2382  1.6971  0.0791
  593TMC3    C1 8786   3.654   3.139  11.557  0.1413  0.5299 -0.0743
  593TMC3    C2 8787   3.692   3.229  11.650 -0.1912  0.5877 -0.2469
  593TMC3    C3 8788   3.774   3.328  11.607  0.2373  0.4780  0.1987
  593TMC3    C4 8789   3.679   3.143  11.424  0.2908 -0.0747  0.5112
  593TMC3    C5 8790   3.770   3.240  11.393 -0.1457 -0.4264 -0.2470
  593TMC3    C6 8791   3.814   3.340  11.476 -0.2697 -0.0421 -0.2226
  593TMC3     C 8792   3.577   3.032  11.609  0.0994 -0.9663 -0.8634
  593TMC3     O 8793   3.574   3.015  11.729 -0.2326 -0.0174 -0.5656
  593TMC3     H 8794   3.661   3.222  11.754 -2.2850 -0.2833 -0.9274
  593TMC3    H1 8795   3.659   3.060  11.357  1.0503 -0.5366  0.8664
  593TMC3    H2 8796   3.875   3.421  11.438 -1.5791  2.8101  3.7905
  593TMC3    C7 8797   3.793   3.271  11.249  0.1553 -0.4165  0.1708
  593TMC3    C8 8798   3.797   3.458  11.676  0.1011 -0.5557 -0.0910
  593TMC3    O1 8799   3.881   3.349  11.218  0.1818 -0.4842 -0.3241
  593TMC3    O2 8800   3.789   3.562  11.613  0.1382  0.3772 -0.3608
  594MPD2     C 8801   1.962   1.515  14.573 -0.5841  0.2992  0.4448
  594MPD2    C1 8802   1.876   1.515  14.471  0.2107  0.4801  0.5727
  594MPD2    C2 8803   1.898   1.586  14.356 -0.0065  0.0141  0.0509
  594MPD2    C3 8804   2.027   1.643  14.345 -0.7059  0.1595  0.2342
  594MPD2    C4 8805   2.107   1.651  14.455 -0.1554 -0.3799 -0.5503
  594MPD2    C5 8806   2.077   1.590  14.572 -0.7164 -0.7657  0.0191
  594MPD2     H 8807   1.829   1.580  14.272  0.2662 -0.9808 -0.1067
  594MPD2    H1 8808   2.205   1.697  14.454  0.0161 -0.5417  4.3139
  594MPD2    H2 8809   1.920   1.471  14.663  1.5827 -2.5711  0.0702
  594MPD2    H3 8810   2.122   1.612  14.668 -1.0021 -0.3907  0.0682
  594MPD2     N 8811   2.071   1.708  14.222  0.1799  0.5955 -0.1766
  594MPD2    H5 8812   2.005   1.698  14.146 -2.6390  0.9769  2.1840
  594MPD2    N1 8813   1.758   1.446  14.489 -0.4417 -0.2695 -0.2185
  594MPD2    H7 8814   1.745   1.394  14.576 -3.4081  1.9715  0.6983
  595TMC3    C1 8815   2.312   1.996  13.940  0.6949  0.5025  0.8523
  595TMC3    C2 8816   2.312   1.889  14.027  0.3959 -0.5844 -0.6104
  595TMC3    C3 8817   2.193   1.852  14.083 -0.6211 -0.5531 -0.0543
  595TMC3    C4 8818   2.192   2.067  13.912  0.1715  1.0089  0.6704
  595TMC3    C5 8819   2.081   2.030  13.983 -0.9374 -0.4217  0.3770
  595TMC3    C6 8820   2.075   1.926  14.074 -0.6025 -0.0068 -0.5334
  595TMC3     C 8821   2.443   2.066  13.924 -0.1916  0.4875 -0.8970
  595TMC3     O 8822   2.517   2.053  14.022 -0.0324  0.0835 -0.1259
  595TMC3     H 8823   2.390   1.814  14.030 -0.6344 -1.6385 -0.2673
  595TMC3    H1 8824   2.201   2.158  13.852 -0.7424 -0.4645 -1.7012
  595TMC3    H2 8825   1.985   1.918  14.134 -0.5017  1.4796 -0.1936
  595TMC3    C7 8826   1.996   2.141  14.024  0.4061 -0.1433 -0.1989
  595TMC3    C8 8827   2.198   1.761  14.197 -0.3994  1.0718  0.1108
  595TMC3    O1 8828   1.882   2.119  14.058  0.0922 -0.2936  0.1236
  595TMC3    O2 8829   2.304   1.764  14.260  0.3309 -0.7282  0.5045
  596MPD2     C 8830   0.961   4.436  16.777 -0.3689 -0.0708 -0.5790
  596MPD2    C1 8831   0.993   4.558  16.723 -0.4659 -0.8402  0.2593
  596MPD2    C2 8832   1.039   4.573  16.591 -0.0459  0.2423 -0.1020
  596MPD2    C3 8833   1.035   4.466  16.505 -0.4531 -0.5108 -0.0657
  596MPD2    C4 8834   0.998   4.342  16.563 -0.6515  0.6136 -0.2260
  596MPD2    C5 8835   0.960   4.324  16.695 -0.0184  0.2968  0.5868
  596MPD2     H 8836   1.072   4.668  16.551 -0.7537  0.9225  0.9279
  596MPD2    H1 8837   1.002   4.250  16.505 -0.1672  0.3993  0.1556
  596MPD2    H2 8838   0.923   4.421  16.877 -1.2851  0.3255 -0.8694
  596MPD2    H3 8839   0.941   4.222  16.727  3.1757 -0.9150 -1.3277
  596MPD2     N 8840   1.056   4.474  16.361 -0.3807 -0.1633 -0.4014
  596MPD2    H5 8841   1.037   4.391  16.305 -2.0233  0.1653 -0.3307
  596MPD2    N1 8842   0.972   4.682  16.799  0.6702  0.0434 -0.1808
  596MPD2    H7 8843   0.978   0.044  16.747  1.7059  0.0957  0.0295
  597TMC3    C1 8844   0.918   0.109  16.967 -0.3098 -0.0364 -0.1845
  597TMC3    C2 8845   0.990   0.208  16.903  0.3364  0.1167  0.0557
  597TMC3    C3 8846   0.960   0.343  16.924  0.1868  0.2380 -0.2310
  597TMC3    C4 8847   0.820   0.145  17.057  0.0578  0.0877 -0.6526
  597TMC3    C5 8848   0.808   0.279  17.089 -0.0671  0.2429  0.4304
  597TMC3    C6 8849   0.882   0.382  17.029 -0.3996  0.3960  0.2053
  597TMC3     C 8850   0.931   4.694  16.930 -0.1541 -0.5590 -0.2830
  597TMC3     O 8851   0.891   4.614  17.014  0.3199 -0.4436 -0.2445
  597TMC3     H 8852   1.060   0.170  16.828  0.5904 -0.1807  0.4451
  597TMC3    H1 8853   0.764   0.071  17.112 -1.3710 -0.3268 -2.6324
  597TMC3    H2 8854   0.883   0.489  17.048  0.7285  0.5145 -0.4796
  597TMC3    C7 8855   0.703   0.323  17.176  0.3567  0.0911 -0.4524
  597TMC3    C8 8856   1.004   0.440  16.829 -0.4562  0.0513 -0.7335
  597TMC3    O1 8857   0.650   0.234  17.244  0.3046  0.5468  0.1157
  597TMC3    O2 8858   0.933   0.537  16.829 -0.2893  0.1649 -0.7475
  598TMC3    C1 8859   3.668   1.379  15.157  0.0329 -0.1725 -0.2025
  598TMC3    C2 8860   3.554   1.306  15.136 -0.2216 -0.5540  0.4968
  598TMC3    C3 8861   3.508   1.303  15.012 -0.9106  0.1267 -0.3771
  598TMC3    C4 8862   3.741   1.448  15.058 -0.3471  0.3603  0.1784
  598TMC3    C5 8863   3.693   1.429  14.924 -0.1143 -0.3751 -0.3987
  598TMC3    C6 8864   3.578   1.354  14.905 -0.2239 -0.4768  0.1817
  598TMC3     C 8865   3.735   1.377  15.286 -0.6715  0.3943 -0.7256
  598TMC3     O 8866   3.821   1.457  15.318  0.4856 -0.2333  0.0824
  598TMC3     H 8867   3.483   1.299  15.217  0.0849 -1.5361  0.6828
  598TMC3    H1 8868   3.824   1.507  15.093  0.8320 -0.8077 -0.6455
  598TMC3    H2 8869   3.535   1.346  14.806  0.6152 -0.5147 -0.1781
  598TMC3    C7 8870   3.751   1.501  14.816 -0.2952  0.0604 -0.2627
  598TMC3    C8 8871   3.378   1.238  14.975  0.4395  0.6746 -0.4353
  598TMC3    O1 8872   3.686   1.506  14.711 -0.3542 -0.2105 -0.6859
  598TMC3    O2 8873   3.325   1.264  14.869 -0.0498  0.3414 -0.1332
  599MPD2     C 8874   3.931   3.831  15.838 -0.2494 -0.1269  0.5457
  599MPD2    C1 8875   3.843   3.728  15.809 -0.2934 -0.3193  0.0315
  599MPD2    C2 8876   3.708   3.730  15.846 -1.1600  0.3217 -0.0906
  599MPD2    C3 8877   3.667   3.837  15.918 -0.4351 -0.0959 -0.0704
  599MPD2    C4 8878   3.752   3.943  15.943  0.6476 -0.0605  0.4918
  599MPD2    C5 8879   3.886   3.933  15.920 -0.4358  0.4993 -0.3325
  599MPD2     H 8880   3.651   3.638  15.844  0.2242 -0.5185 -0.6247
  599MPD2    H1 8881   3.713   4.025  16.002 -1.4417 -0.4969 -0.2720
  599MPD2    H2 8882   4.034   3.832  15.806 -0.7833  1.6319 -1.1205
  599MPD2    H3 8883   3.952   4.010  15.959  0.3563 -0.9382  1.1469
  599MPD2     N 8884   3.533   3.858  15.968  0.1417  0.0586  0.2665
  599MPD2    H5 8885   3.508   3.955  15.986  1.8607  0.5457 -0.0170
  599MPD2    N1 8886   3.906   3.613  15.750 -0.0023  0.6233  0.1391
  599MPD2    H7 8887   4.007   3.617  15.743 -0.2292  2.6108 -1.8816
  600TMC3    C1 8888   3.312   3.805  16.035 -0.2645  0.3823  0.0494
  600TMC3    C2 8889   3.232   3.707  16.092 -0.5706  0.4774  0.4300
  600TMC3    C3 8890   3.152   3.740  16.202 -0.6004  0.1380 -0.4615
  600TMC3    C4 8891   3.301   3.938  16.074  0.4083 -0.8300  0.0131
  600TMC3    C5 8892   3.201   3.966  16.167 -1.0098 -0.6472  0.4809
  600TMC3    C6 8893   3.131   3.870  16.239 -0.0007 -0.7900 -0.1942
  600TMC3     C 8894   3.437   3.759  15.981  0.0032 -0.7087  0.0895
  600TMC3     O 8895   3.435   3.636  15.966  0.1116 -0.4822  0.1013
  600TMC3     H 8896   3.260   3.605  16.070  1.6507  1.4571 -1.2362
  600TMC3    H1 8897   3.351   4.017  16.020  0.5248 -0.1476  1.1198
  600TMC3    H2 8898   3.064   3.897  16.320 -1.7256 -0.0073 -1.8946
  600TMC3    C7 8899   3.202   4.106  16.222 -0.4101  0.1643 -0.6478
  600TMC3    C8 8900   3.113   3.633  16.291  0.4579  0.3890 -0.7935
  600TMC3    O1 8901   3.128   4.123  16.321  0.0335  0.0399  0.0579
  600TMC3    O2 8902   3.108   3.662  16.412 -0.3789 -0.2380  0.5601
  601MPD2     C 8903   0.323   1.468   0.566  0.4200 -0.1789  0.0303
  601MPD2    C1 8904   0.327   1.430   0.435 -0.4869 -0.1279 -0.2448
  601MPD2    C2 8905   0.320   1.291   0.407 -0.0162 -0.0622  0.0311
  601MPD2    C3 8906   0.328   1.192   0.505 -0.0537  0.7906 -0.3657
  601MPD2    C4 8907   0.337   1.241   0.635 -0.0684  0.1038 -0.5801
  601MPD2    C5 8908   0.331   1.373   0.661  0.4581  0.4065 -0.6629
  601MPD2     H 8909   0.322   1.257   0.304  2.0541 -0.0957  0.0809
  601MPD2    H1 8910   0.342   1.175   0.722 -0.4737  0.1283 -0.5374
  601MPD2    H2 8911   0.319   1.570   0.601  2.0101  0.2838 -1.1198
  601MPD2    H3 8912   0.349   1.408   0.761  0.2651 -0.5337 -0.2950
  601MPD2     N 8913   0.343   1.055   0.491  0.2876  0.8784  0.1321
  601MPD2    H5 8914   0.324   0.997   0.572 -1.8582 -0.0771 -1.0574
  601MPD2    N1 8915   0.326   1.524   0.324 -0.4009  0.0713 -0.5161
  601MPD2    H7 8916   0.321   1.487   0.230  1.3878  3.0531 -1.7932
  602TMC3    C1 8917   0.329   1.720   0.193  0.3233  0.9129  0.6737
  602TMC3    C2 8918   0.411   1.830   0.168  0.3030 -0.0079 -0.0029
  602TMC3    C3 8919   0.405   1.888   0.049 -0.1604 -0.3341  0.2147
  602TMC3    C4 8920   0.244   1.674   0.090  0.6214  0.2189 -1.2027
  602TMC3    C5 8921   0.257   1.729  17.665  0.1357  0.3400  0.2856
  602TMC3    C6 8922   0.332   1.840  17.651 -0.1900 -0.0546 -0.7175
  602TMC3     C 8923   0.348   1.661   0.325 -0.4768 -0.1895 -0.2401
  602TMC3     O 8924   0.401   1.720   0.419 -0.4453  0.5900 -0.6139
  602TMC3     H 8925   0.462   1.888   0.244 -0.9756  1.9026 -0.5972
  602TMC3    H1 8926   0.163   1.606   0.111 -0.3924  1.4249 -1.2175
  602TMC3    H2 8927   0.343   1.878  17.550 -1.3873 -1.4214 -1.3558
  602TMC3    C7 8928   0.150   1.715  17.570  0.2089  0.0656  0.1471
  602TMC3    C8 8929   0.461   2.013   0.023 -0.0095  0.0206  0.6259
  602TMC3    O1 8930   0.086   1.611  17.563 -0.5702  0.0563  0.5573
  602TMC3    O2 8931   0.580   2.028   0.056  0.2261  0.2642  1.0652
  603TMC3    C1 8932   3.694   2.356  10.794 -0.0213 -0.8832 -0.8635
  603TMC3    C2 8933   3.758   2.315  10.909  0.1208 -0.3978 -0.2354
  603TMC3    C3 8934   3.879   2.374  10.941 -0.3880  0.0601 -0.6831
  603TMC3    C4 8935   3.746   2.453  10.717 -0.3423 -0.7081  0.4860
  603TMC3    C5 8936   3.867   2.519  10.758  0.8833  0.2823 -0.3343
  603TMC3    C6 8937   3.937   2.468  10.866  0.2204 -0.3469 -0.2168
  603TMC3     C 8938   3.554   2.311  10.781 -0.5170  0.5137  0.7621
  603TMC3     O 8939   3.509   2.272  10.890  0.0759  0.2619  0.1052
  603TMC3     H 8940   3.716   2.248  10.983  0.6064 -1.3017 -0.7813
  603TMC3    H1 8941   3.682   2.508  10.649  0.6130 -1.2263 -0.8466
  603TMC3    H2 8942   4.023   2.526  10.898 -0.6334  0.6209  0.3140
  603TMC3    C7 8943   3.945   2.598  10.658  0.2907 -0.5842 -0.4788
  603TMC3    C8 8944   3.930   2.338  11.075  0.2581 -0.4289 -0.4334
  603TMC3    O1 8945   4.049   2.647  10.698  0.0239 -0.1082 -0.0951
  603TMC3    O2 8946   3.920   2.223  11.116  0.3160 -0.1956  0.0989
  604MPD2     C 8947   4.703   0.920  16.521 -0.5347  0.9422  0.2712
  604MPD2    C1 8948   4.639   1.016  16.445 -0.1556  0.7450  0.5588
  604MPD2    C2 8949   4.674   1.025  16.305 -0.5498 -0.4481 -0.1341
  604MPD2    C3 8950   0.050   0.944  16.246 -0.1741 -0.4186 -0.8645
  604MPD2    C4 8951   0.112   0.854  16.325  0.2007  0.2085 -0.5275
  604MPD2    C5 8952   0.064   0.836  16.453  0.5166  0.1994 -0.5253
  604MPD2     H 8953   4.625   1.104  16.249  1.5616 -1.5252 -3.5106
  604MPD2    H1 8954   0.187   0.784  16.289 -0.5737 -1.7252  1.6236
  604MPD2    H2 8955   4.668   0.911  16.623 -0.3449 -0.7373  0.1763
  604MPD2    H3 8956   0.110   0.757  16.511 -0.4421 -0.3685 -0.5429
  604MPD2     N 8957   0.077   0.972  16.105 -0.3127  1.0489  0.0772
  604MPD2    H5 8958   0.008   1.029  16.058 -3.5628 -2.6999  0.2384
  604MPD2    N1 8959   4.536   1.108  16.500 -1.2785  0.1669 -1.0165
  604MPD2    H7 8960   4.515   1.105  16.599 -0.1600  0.4811 -0.7664
  605TMC3    C1 8961   4.350   1.259  16.510 -0.5041 -0.3794  0.1101
  605TMC3    C2 8962   4.391   1.305  16.634  0.0040  0.2983 -0.4841
  605TMC3    C3 8963   4.317   1.402  16.696 -0.0131  0.6715  0.3387
  605TMC3    C4 8964   4.232   1.306  16.450  0.2190 -0.3346 -0.5289
  605TMC3    C5 8965   4.155   1.398  16.526  0.1801 -0.2304 -0.6414
  605TMC3    C6 8966   4.200   1.449  16.646 -0.6865  0.2890  0.4723
  605TMC3     C 8967   4.447   1.185  16.430 -0.4900  0.5644 -0.3509
  605TMC3     O 8968   4.427   1.183  16.311 -0.0445 -0.3217 -0.7395
  605TMC3     H 8969   4.474   1.276  16.696 -0.9700  2.7042  1.8985
  605TMC3    H1 8970   4.204   1.268  16.352 -0.7093  0.8105 -0.7085
  605TMC3    H2 8971   4.139   1.519  16.701  0.8444  1.3261  0.8597
  605TMC3    C7 8972   4.031   1.458  16.463 -0.0454 -0.0936 -0.4094
  605TMC3    C8 8973   4.376   1.483  16.811 -0.4086 -0.6412 -0.0057
  605TMC3    O1 8974   3.977   1.559  16.508 -0.4488 -0.2864  0.1925
  605TMC3    O2 8975   4.313   1.496  16.913  0.1901 -0.2701  0.0267
  606TMC3    C1 8976   1.176   4.216  17.063  0.6676  0.5931  0.1396
  606TMC3    C2 8977   1.161   4.313  17.156  0.2441 -0.1056 -0.0819
  606TMC3    C3 8978   1.099   4.272  17.264 -0.3570  0.2037  0.1192
  606TMC3    C4 8979   1.147   4.085  17.082  0.4732 -0.3250  0.0532
  606TMC3    C5 8980   1.082   4.050  17.196  0.3132 -0.8743  0.7894
  606TMC3    C6 8981   1.059   4.145  17.290  0.7864 -0.1025 -0.1441
  606TMC3     C 8982   1.244   4.258  16.944 -0.1798 -0.0052 -0.3897
  606TMC3     O 8983   1.310   4.359  16.946  0.0198 -0.2283 -0.4200
  606TMC3     H 8984   1.186   4.417  17.139 -0.2319 -0.1256 -0.9025
  606TMC3    H1 8985   1.160   4.008  17.006 -0.0179  0.6092 -0.9751
  606TMC3    H2 8986   1.011   4.124  17.385 -0.3984 -2.0244 -1.1742
  606TMC3    C7 8987   1.022   3.919  17.201  0.1348  0.0715 -0.6934
  606TMC3    C8 8988   1.093   4.364  17.380  0.1971 -0.0164 -0.1446
  606TMC3    O1 8989   1.064   3.828  17.127  0.8528 -0.4198  0.1335
  606TMC3    O2 8990   1.011   4.334  17.467 -0.1173 -0.4044  0.2780
  607MPD2     C 8991   3.474   2.267  11.694  0.3636  0.3834  0.4063
  607MPD2    C1 8992   3.519   2.359  11.783 -0.3447 -0.4762  0.3033
  607MPD2    C2 8993   3.481   2.353  11.915  0.1540 -0.7204 -0.4913
  607MPD2    C3 8994   3.403   2.251  11.955 -0.2691  0.2033 -0.5827
  607MPD2    C4 8995   3.343   2.165  11.866  0.8333 -0.7840 -0.3538
  607MPD2    C5 8996   3.386   2.173  11.733 -0.0357  0.3391 -0.1332
  607MPD2     H 8997   3.529   2.415  11.990 -0.2898 -1.8213  0.7094
  607MPD2    H1 8998   3.274   2.084  11.887  0.1747 -0.5106 -1.4278
  607MPD2    H2 8999   3.505   2.264  11.590 -0.8498  3.1529 -0.0370
  607MPD2    H3 9000   3.341   2.104  11.662  2.1546  0.1405 -1.3410
  607MPD2     N 9001   3.372   2.248  12.090  0.1211  0.0675 -0.8182
  607MPD2    H5 9002   3.403   2.322  12.153  2.1262 -1.6200  0.1584
  607MPD2    N1 9003   3.611   2.462  11.758  0.3305  0.4441  0.4550
  607MPD2    H7 9004   3.615   2.536  11.828  1.4996  0.7797  0.0379
  608TMC3    C1 9005   3.762   2.599  11.662 -0.2534 -0.2526  0.5854
  608TMC3    C2 9006   3.764   2.653  11.786  0.0611  0.2319  0.0084
  608TMC3    C3 9007   3.817   2.776  11.795  0.7012 -0.0314 -0.4008
  608TMC3    C4 9008   3.807   2.660  11.545 -0.1836  0.0387 -0.3108
  608TMC3    C5 9009   3.848   2.786  11.566  0.4074  0.5394  0.2021
  608TMC3    C6 9010   3.865   2.845  11.687 -0.6007  0.2020 -0.6920
  608TMC3     C 9011   3.684   2.480  11.643 -0.5225 -0.2802  0.4197
  608TMC3     O 9012   3.709   2.408  11.547 -0.2362 -0.2110  0.0437
  608TMC3     H 9013   3.733   2.612  11.882  0.3398  0.1215  0.0534
  608TMC3    H1 9014   3.798   2.620  11.445  0.4802 -0.9678  0.0313
  608TMC3    H2 9015   3.898   2.948  11.695  1.9049 -0.5894 -0.6255
  608TMC3    C7 9016   3.885   2.857  11.450 -0.0020  0.3291  0.1135
  608TMC3    C8 9017   3.827   2.849  11.923  0.2567  0.9064 -0.4419
  608TMC3    O1 9018   3.819   2.838  11.353 -0.5617 -0.3599 -0.0267
  608TMC3    O2 9019   3.918   2.923  11.946 -0.4359 -0.2637  0.1088
  609TMC3    C1 9020   2.308   0.761   9.253 -0.4271  0.3593 -0.7165
  609TMC3    C2 9021   2.266   0.653   9.182 -0.1551 -0.4653  0.0600
  609TMC3    C3 9022   2.344   0.543   9.177 -0.2452 -0.0739 -0.4581
  609TMC3    C4 9023   2.430   0.756   9.327  0.1324  0.3879 -0.7111
  609TMC3    C5 9024   2.499   0.632   9.324 -0.1558  0.3532  0.5425
  609TMC3    C6 9025   2.461   0.528   9.246  0.2086 -0.2295 -0.5326
  609TMC3     C 9026   2.198   0.855   9.286 -0.6096 -0.3561  0.2760
  609TMC3     O 9027   2.091   0.801   9.315  0.1605  0.1636  0.5210
  609TMC3     H 9028   2.172   0.666   9.129 -0.0751 -0.6990 -0.1401
  609TMC3    H1 9029   2.458   0.834   9.397  2.7251  0.3758 -1.7662
  609TMC3    H2 9030   2.519   0.438   9.229 -1.3249 -0.9091 -2.1107
  609TMC3    C7 9031   2.602   0.607   9.417  0.3100  0.4526  0.2529
  609TMC3    C8 9032   2.278   0.425   9.123 -0.6755  0.5043  0.8149
  609TMC3    O1 9033   2.621   0.695   9.497  0.1090 -0.6465 -0.5813
  609TMC3    O2 9034   2.329   0.317   9.150 -0.4612  0.0351  0.1478
  610TMC3    C1 9035   3.998   2.640  12.305 -0.3437 -0.2122 -0.3219
  610TMC3    C2 9036   3.974   2.578  12.182 -0.3562 -0.1707  0.5397
  610TMC3    C3 9037   3.947   2.438  12.174  0.4506 -1.0435  1.0830
  610TMC3    C4 9038   3.970   2.572  12.423 -0.2719 -0.1172 -0.1259
  610TMC3    C5 9039   3.953   2.439  12.407 -0.5977  0.8935 -0.4526
  610TMC3    C6 9040   3.940   2.369  12.296  0.3907 -0.3464 -0.1478
  610TMC3     C 9041   4.101   2.739  12.311 -0.5957  0.2213  0.0776
  610TMC3     O 9042   4.116   2.795  12.421 -0.2874  0.7297 -0.2408
  610TMC3     H 9043   3.981   2.624  12.084  0.4876  3.2682  2.2181
  610TMC3    H1 9044   3.996   2.617  12.518 -2.1022 -0.6648  0.6309
  610TMC3    H2 9045   3.948   2.261  12.288  2.4382 -0.2227  0.2174
  610TMC3    C7 9046   3.939   2.362  12.530 -0.3511  1.2201  0.2853
  610TMC3    C8 9047   3.899   2.379  12.055 -0.1939  0.6438 -0.5859
  610TMC3    O1 9048   3.873   2.424  12.615 -0.1913 -0.4742  0.7072
  610TMC3    O2 9049   3.935   2.431  11.951 -0.7507 -0.5883 -0.8483
  611MPD2     C 9050   3.189   2.194   9.918  0.2525 -0.5515  0.1669
  611MPD2    C1 9051   3.153   2.327   9.909 -0.5013  0.1015  0.2410
  611MPD2    C2 9052   3.256   2.419   9.886  0.7643  0.7940 -1.0419
  611MPD2    C3 9053   3.384   2.371   9.872 -0.4039  0.4254 -0.7085
  611MPD2    C4 9054   3.410   2.241   9.885 -0.5647 -0.0107  0.1296
  611MPD2    C5 9055   3.313   2.145   9.909  0.7397  0.6688  0.1287
  611MPD2     H 9056   3.219   2.521   9.873  1.1648  0.6591 -3.1664
  611MPD2    H1 9057   3.512   2.208   9.874  0.0588  1.6248  1.2087
  611MPD2    H2 9058   3.112   2.121   9.938  0.3557 -0.0724  2.3006
  611MPD2    H3 9059   3.339   2.040   9.914  1.0197  0.6667 -1.5420
  611MPD2     N 9060   3.490   2.444   9.824  0.1138  0.5160 -0.0470
  611MPD2    H5 9061   3.581   2.401   9.830 -0.1048 -0.1794 -1.7493
  611MPD2    N1 9062   3.016   2.367   9.923  0.2417 -0.9801  0.0250
  611MPD2    H7 9063   2.951   2.289   9.931 -0.4309 -0.2708  1.5482
  612TMC3    C1 9064   3.602   2.646   9.755 -0.1634  0.4116 -0.2026
  612TMC3    C2 9065   3.708   2.639   9.842 -0.2115  0.0112  0.6236
  612TMC3    C3 9066   3.818   2.719   9.818 -0.3512  0.0866  0.0422
  612TMC3    C4 9067   3.597   2.735   9.658  0.0133  0.7018  0.6255
  612TMC3    C5 9068   3.710   2.805   9.624  0.7613 -0.3111  0.1565
  612TMC3    C6 9069   3.821   2.802   9.706 -0.1528 -0.1778  0.5729
  612TMC3     C 9070   3.478   2.577   9.781 -0.1968  0.6696 -0.1082
  612TMC3     O 9071   3.375   2.636   9.749  0.4688  0.0351 -0.0898
  612TMC3     H 9072   3.718   2.560   9.915 -2.1648 -0.4858  0.3554
  612TMC3    H1 9073   3.507   2.738   9.597 -0.2030 -0.1065  0.8962
  612TMC3    H2 9074   3.915   2.846   9.675 -0.4964  1.1062  1.3242
  612TMC3    C7 9075   3.704   2.912   9.525  0.0592 -0.5833 -0.0057
  612TMC3    C8 9076   3.906   2.754   9.932  0.0985 -0.1449  0.2813
  612TMC3    O1 9077   3.807   2.937   9.465 -0.0185  0.3662  0.4143
  612TMC3    O2 9078   3.986   2.841   9.906 -0.0612  0.4271  0.2084
  613MPD2     C 9079   2.376   4.501  17.015 -0.2663  0.0276  0.1425
  613MPD2    C1 9080   2.410   4.538  16.882 -0.2654  0.3084 -0.4261
  613MPD2    C2 9081   2.334   4.486  16.771  0.5447  0.6878  0.5496
  613MPD2    C3 9082   2.236   4.384  16.796  0.3843  0.5937  0.1338
  613MPD2    C4 9083   2.213   4.349  16.926  0.0684  0.5349  0.2380
  613MPD2    C5 9084   2.277   4.412  17.035  0.2183  0.4534  0.7003
  613MPD2     H 9085   2.339   4.524  16.670  1.5254 -0.3337  0.2158
  613MPD2    H1 9086   2.139   4.276  16.957 -0.1316 -0.8368 -3.4261
  613MPD2    H2 9087   2.421   4.546  17.103  1.6524 -2.8192  0.6373
  613MPD2    H3 9088   2.252   4.380  17.136 -1.2082  0.6147  0.3987
  613MPD2     N 9089   2.163   4.323  16.693 -0.3098 -0.2599 -0.0046
  613MPD2    H5 9090   2.110   4.247  16.733  0.7087  0.0340  1.9067
  613MPD2    N1 9091   2.513   4.642  16.874  0.0905  0.4674 -0.1076
  613MPD2    H7 9092   2.545   4.673  16.965  1.2317 -0.2778 -0.2557
  614TMC3    C1 9093   2.520   4.664  16.635 -0.4288  0.3735 -0.4045
  614TMC3    C2 9094   2.573   4.550  16.593  0.4238  0.1942  0.1789
  614TMC3    C3 9095   2.584   4.524  16.461  0.7762  0.5074  0.5980
  614TMC3    C4 9096   2.498   0.039  16.549  0.1400  1.1066  0.7523
  614TMC3    C5 9097   2.494   0.009  16.419 -0.0549  1.2366 -0.5533
  614TMC3    C6 9098   2.541   4.619  16.370  0.1278 -0.9119 -0.3581
  614TMC3     C 9099   2.558   4.716  16.762  0.2761 -0.1455 -0.2538
  614TMC3     O 9100   2.625   0.095  16.771 -0.0889  0.0093 -0.0143
  614TMC3     H 9101   2.601   4.476  16.667 -0.0362 -1.4916 -1.3359
  614TMC3    H1 9102   2.470   0.136  16.589 -1.8158 -0.3313  2.8170
  614TMC3    H2 9103   2.551   4.607  16.263 -0.0156  0.2452 -0.4963
  614TMC3    C7 9104   2.453   0.115  16.335 -0.3757  0.1202 -0.4595
  614TMC3    C8 9105   2.553   4.384  16.425 -0.0860  0.1284 -0.3466
  614TMC3    O1 9106   2.461   0.225  16.386 -0.4943  0.1325 -0.0969
  614TMC3    O2 9107   2.531   4.313  16.520 -0.0356 -0.3755  0.3823
  615MPD2     C 9108   1.600   1.481  15.852 -0.1233 -0.5853  0.3511
  615MPD2    C1 9109   1.505   1.429  15.945  0.6940  0.3821 -0.3572
  615MPD2    C2 9110   1.400   1.347  15.910 -0.3361  0.3735 -0.2518
  615MPD2    C3 9111   1.393   1.307  15.777  0.3554  0.4582 -0.4645
  615MPD2    C4 9112   1.477   1.367  15.691  0.7315  0.3096 -0.8295
  615MPD2    C5 9113   1.576   1.454  15.719 -0.6495  0.1153 -0.3813
  615MPD2     H 9114   1.331   1.311  15.985  0.2550  1.8238  0.9725
  615MPD2    H1 9115   1.477   1.329  15.590  3.4137 -0.6558 -0.4530
  615MPD2    H2 9116   1.682   1.547  15.878  1.1268 -1.2431 -1.8995
  615MPD2    H3 9117   1.646   1.498  15.649 -0.4656  0.0650 -0.2317
  615MPD2     N 9118   1.309   1.208  15.728 -0.7093 -0.0127 -0.1818
  615MPD2    H5 9119   1.317   1.189  15.628  1.1325  1.4896 -0.3009
  615MPD2    N1 9120   1.517   1.456  16.089 -0.1574  0.0434 -0.4823
  615MPD2    H7 9121   1.437   1.437  16.149  1.4532 -2.4444  0.8970
  616TMC3    C1 9122   1.606   1.582  16.266  0.5234 -0.4313 -1.0110
  616TMC3    C2 9123   1.694   1.687  16.289 -0.3614 -0.6026 -0.1473
  616TMC3    C3 9124   1.657   1.789  16.368 -0.0332  0.4510  0.7364
  616TMC3    C4 9125   1.477   1.589  16.319 -0.0303  0.4309  0.1511
  616TMC3    C5 9126   1.451   1.693  16.408  0.1353  0.3748  0.1199
  616TMC3    C6 9127   1.539   1.789  16.441  0.1296 -0.2557  0.2798
  616TMC3     C 9128   1.629   1.508  16.146  0.2018 -0.0513 -0.3937
  616TMC3     O 9129   1.741   1.526  16.099 -0.1882 -0.3390 -0.1502
  616TMC3     H 9130   1.788   1.694  16.236 -0.3804 -2.1077 -0.3607
  616TMC3    H1 9131   1.410   1.506  16.301  1.2929 -0.6140 -0.0036
  616TMC3    H2 9132   1.519   1.882  16.494 -0.4239 -0.2294  0.0242
  616TMC3    C7 9133   1.350   1.674  16.509  0.2228 -0.0100  0.1359
  616TMC3    C8 9134   1.725   1.910  16.366 -0.2231 -0.2810 -0.6187
  616TMC3    O1 9135   1.377   1.723  16.620 -0.3364 -0.1183  0.4322
  616TMC3    O2 9136   1.660   2.016  16.376  0.1965 -0.3190  0.0971
  617MPD2     C 9137   4.036   4.236  13.623 -0.2659  0.0232 -0.3307
  617MPD2    C1 9138   4.104   4.169  13.717  0.1271  0.2111 -0.3749
  617MPD2    C2 9139   4.052   4.049  13.767  0.2341  1.0850  0.3705
  617MPD2    C3 9140   3.936   3.997  13.715 -0.2226 -0.1920  0.3363
  617MPD2    C4 9141   3.867   4.065  13.621 -0.3536 -0.3606  0.1187
  617MPD2    C5 9142   3.919   4.181  13.576 -0.8543 -0.6032 -0.5010
  617MPD2     H 9143   4.102   4.000  13.850 -1.2547  2.3639  2.0143
  617MPD2    H1 9144   3.782   4.022  13.570  2.8151 -1.4314 -4.2932
  617MPD2    H2 9145   4.066   4.332  13.582 -2.5830 -0.3344 -2.7979
  617MPD2    H3 9146   3.868   4.221  13.489 -1.3571  0.5438  0.3065
  617MPD2     N 9147   3.879   3.869  13.750 -0.5934  0.6974 -0.1976
  617MPD2    H5 9148   3.788   3.849  13.709 -0.6479 -0.1345  0.3347
  617MPD2    N1 9149   4.224   4.226  13.768 -0.0979 -0.1893  0.3474
  617MPD2    H7 9150   4.256   4.304  13.712  0.1670 -0.4669  0.1112
  618TMC3    C1 9151   4.426   4.237  13.895 -0.7893 -0.0329 -0.1612
  618TMC3    C2 9152   4.494   4.192  14.008  0.2098 -0.2391 -0.4088
  618TMC3    C3 9153   4.633   4.207  14.018  0.7867  0.0581  0.2375
  618TMC3    C4 9154   4.504   4.270  13.782  0.4273 -1.3021  0.1707
  618TMC3    C5 9155   4.645   4.273  13.793  0.1364 -0.1249 -1.0336
  618TMC3    C6 9156   4.713   4.239  13.913 -0.2764 -0.2908  0.1298
  618TMC3     C 9157   4.296   4.173  13.880  0.4130 -0.2814 -0.2252
  618TMC3     O 9158   4.262   4.094  13.968 -0.3851 -0.2037  0.7921
  618TMC3     H 9159   4.436   4.155  14.091 -1.4116  2.9242 -0.1201
  618TMC3    H1 9160   4.461   4.283  13.684 -0.0333 -0.4061  0.4953
  618TMC3    H2 9161   0.094   4.262  13.918 -0.4351  0.8657 -1.6286
  618TMC3    C7 9162   4.717   4.279  13.667 -0.5306 -0.0944  0.0755
  618TMC3    C8 9163   4.677   4.221  14.159 -0.2094  0.1190  0.2338
  618TMC3    O1 9164   4.668   4.338  13.573  0.1346  0.6708  0.3646
  618TMC3    O2 9165   4.596   4.224  14.253 -0.4916  0.0157  0.0959
  619MPD2     C 9166   0.547   0.965  13.382 -0.0127 -0.0532 -0.0972
  619MPD2    C1 9167   0.492   1.092  13.370 -0.6637  0.0991 -0.0414
  619MPD2    C2 9168   0.366   1.121  13.426  0.5197  0.0708 -0.8711
  619MPD2    C3 9169   0.287   1.015  13.479  0.4632  0.4451  0.2990
  619MPD2    C4 9170   0.351   0.897  13.496 -0.0141 -0.1997  0.0747
  619MPD2    C5 9171   0.481   0.870  13.451 -0.4430  0.4304 -0.1285
  619MPD2     H 9172   0.326   1.221  13.415 -1.2775 -0.5923 -0.5047
  619MPD2    H1 9173   0.303   0.814  13.546  2.3198 -0.8543  1.2255
  619MPD2    H2 9174   0.648   0.937  13.357  0.1135 -0.0492  0.4032
  619MPD2    H3 9175   0.527   0.776  13.478 -0.4259  0.1029 -1.3126
  619MPD2     N 9176   0.154   1.034  13.520  0.5126 -0.7879 -0.0656
  619MPD2    H5 9177   0.109   0.964  13.577 -2.6550  0.8628 -0.5042
  619MPD2    N1 9178   0.561   1.197  13.314  0.4618  0.3396 -0.0640
  619MPD2    H7 9179   0.522   1.289  13.331 -2.2381 -0.7379 -0.5141
  620TMC3    C1 9180   0.706   1.339  13.205 -0.3268 -0.2482  0.3275
  620TMC3    C2 9181   0.617   1.439  13.243  0.7892 -0.0449 -0.5159
  620TMC3    C3 9182   0.663   1.553  13.305  0.3788  0.1021  0.4258
  620TMC3    C4 9183   0.844   1.369  13.208 -0.5396  0.1964  0.2049
  620TMC3    C5 9184   0.886   1.489  13.257 -0.3255 -0.0509 -0.1082
  620TMC3    C6 9185   0.799   1.573  13.319  0.3729  0.5172  0.8268
  620TMC3     C 9186   0.679   1.202  13.241  0.1426 -0.2847 -0.6099
  620TMC3     O 9187   0.766   1.118  13.212 -0.3745  0.1734  0.4762
  620TMC3     H 9188   0.515   1.414  13.216  0.1064  3.7538 -1.4853
  620TMC3    H1 9189   0.912   1.305  13.152 -0.6788  0.3754 -0.1749
  620TMC3    H2 9190   0.837   1.662  13.369 -1.3576  1.0466  1.1997
  620TMC3    C7 9191   1.013   1.473  13.322  0.5745 -0.3766 -0.5078
  620TMC3    C8 9192   0.589   1.577  13.426 -0.3040  0.5275 -0.6054
  620TMC3    O1 9193   1.105   1.412  13.269 -0.2760 -0.8038 -0.1527
  620TMC3    O2 9194   0.650   1.591  13.532 -0.1545 -0.5671  0.2372
  621MPD2     C 9195   1.601   0.750   9.832 -0.0242 -0.0533  0.5037
  621MPD2    C1 9196   1.657   0.704   9.953 -0.2890  0.0138  0.0482
  621MPD2    C2 9197   1.737   0.799  10.028 -0.6276 -0.6593 -0.6404
  621MPD2    C3 9198   1.743   0.928   9.983  0.2159 -0.1871  0.7222
  621MPD2    C4 9199   1.685   0.969   9.870  0.4961 -0.2846  0.5374
  621MPD2    C5 9200   1.607   0.885   9.791  0.8603  0.4000 -0.0595
  621MPD2     H 9201   1.797   0.757  10.108 -0.4919  0.3775 -0.2006
  621MPD2    H1 9202   1.683   1.072   9.834  0.2779 -0.3127  0.4654
  621MPD2    H2 9203   1.543   0.683   9.769 -1.1540  1.2553  0.1340
  621MPD2    H3 9204   1.566   0.908   9.694 -1.3663 -1.4809  0.4297
  621MPD2     N 9205   1.839   1.014  10.044  0.1976 -0.1600 -0.4298
  621MPD2    H5 9206   1.895   0.971  10.117 -1.5570 -0.2071  0.8573
  621MPD2    N1 9207   1.648   0.568   9.992  0.0511 -0.5477 -0.9117
  621MPD2    H7 9208   1.703   0.537  10.072 -2.3331 -0.8270  0.6195
  622TMC3    C1 9209   1.560   0.360  10.016 -0.0921 -0.0779  0.4970
  622TMC3    C2 9210   1.449   0.283   9.989 -0.9173 -0.6658 -0.0288
  622TMC3    C3 9211   1.456   0.152  10.024  0.3133 -0.9285 -0.7219
  622TMC3    C4 9212   1.683   0.311  10.051 -0.6205  0.2369 -0.0773
  622TMC3    C5 9213   1.678   0.174  10.079 -0.3491  0.5538 -0.4649
  622TMC3    C6 9214   1.569   0.093  10.062 -0.0924 -0.5287  0.5411
  622TMC3     C 9215   1.557   0.483   9.945 -0.7221  0.2296  0.1868
  622TMC3     O 9216   1.474   0.493   9.858  0.1076  0.0145 -0.3776
  622TMC3     H 9217   1.359   0.327   9.946  0.3491  2.2031  0.2350
  622TMC3    H1 9218   1.776   0.364  10.037 -0.9191  0.7516 -0.1421
  622TMC3    H2 9219   1.571   4.716  10.099  0.2061 -1.8961 -3.2235
  622TMC3    C7 9220   1.817   0.121  10.085  0.0244  0.2144  0.1959
  622TMC3    C8 9221   1.351   0.055   9.988 -0.0577  0.5192 -0.3376
  622TMC3    O1 9222   1.905   0.203  10.106  0.3643  0.4876 -0.4847
  622TMC3    O2 9223   1.366   4.663  10.036  0.0524 -0.0085  0.0339
  623MPD2     C 9224   0.080   1.416  16.154 -0.5063 -0.8875 -0.5221
  623MPD2    C1 9225   0.027   1.423  16.276 -1.2075  0.6907  0.1126
  623MPD2    C2 9226   0.082   1.345  16.375 -0.1558 -0.1462 -0.0853
  623MPD2    C3 9227   0.189   1.262  16.348 -0.2917 -0.1972 -0.6717
  623MPD2    C4 9228   0.247   1.263  16.224  0.4493  0.4102  0.4518
  623MPD2    C5 9229   0.186   1.330  16.124  0.5587  0.0252  0.0147
  623MPD2     H 9230   0.040   1.356  16.474 -0.9158 -3.1811 -0.0697
  623MPD2    H1 9231   0.325   1.194  16.194 -0.6309  0.4693 -2.5129
  623MPD2    H2 9232   0.038   1.483  16.080  1.0984  2.3783  1.5443
  623MPD2    H3 9233   0.222   1.332  16.022  0.4150  1.1236 -0.0195
  623MPD2     N 9234   0.235   1.178  16.456  0.6890 -0.2725  0.1396
  623MPD2    H5 9235   0.194   1.203  16.545 -1.4144  2.6011 -1.6398
  623MPD2    N1 9236   4.643   1.512  16.295  0.0710 -0.0588 -0.0961
  623MPD2    H7 9237   4.601   1.556  16.214 -1.9784  0.5199  1.2787
  624TMC3    C1 9238   0.550   1.192  16.737  0.7587  0.6434 -0.4755
  624TMC3    C2 9239   0.448   1.218  16.829 -0.0549  0.5174  0.1814
  624TMC3    C3 9240   0.323   1.167  16.801  0.7640  0.2605  0.5077
  624TMC3    C4 9241   0.528   1.129  16.619 -0.1492  0.7413  0.2932
  624TMC3    C5 9242   0.400   1.086  16.592  0.6640  0.3322 -0.3641
  624TMC3    C6 9243   0.302   1.093  16.692 -0.3319 -0.3826  0.5644
  624TMC3     C 9244   0.686   1.196  16.790 -0.1335 -0.1610 -0.2831
  624TMC3     O 9245   0.700   1.282  16.876  0.2810  0.4171 -0.3843
  624TMC3     H 9246   0.466   1.264  16.925  2.0117  2.6446 -1.2220
  624TMC3    H1 9247   0.604   1.129  16.542  0.4370 -2.1692  0.8488
  624TMC3    H2 9248   0.207   1.043  16.683 -0.9092  0.5262  1.5234
  624TMC3    C7 9249   0.355   1.115  16.457 -0.0580  0.3316 -0.8757
  624TMC3    C8 9250   0.218   1.259  16.808 -0.6404 -0.1754 -0.1298
  624TMC3    O1 9251   0.436   1.095  16.369 -0.1085  0.0839  0.3242
  624TMC3    O2 9252   0.134   1.240  16.723 -0.0913  0.3443 -0.5889
  625MPD2     C 9253   0.671   2.557   0.689 -0.4463 -0.2043 -0.1723
  625MPD2    C1 9254   0.674   2.681   0.629  0.0335  0.8443  0.3674
  625MPD2    C2 9255   0.797   2.739   0.599  0.8071  0.0235  0.2627
  625MPD2    C3 9256   0.907   2.677   0.638  0.3391  0.0012 -0.0862
  625MPD2    C4 9257   0.904   2.549   0.695  0.1439 -0.8312  0.5863
  625MPD2    C5 9258   0.783   2.494   0.715  0.3597  0.0234  0.0212
  625MPD2     H 9259   0.795   2.831   0.542  1.1024  0.5033  1.0297
  625MPD2    H1 9260   0.989   2.497   0.738 -0.4434 -1.1154  1.4058
  625MPD2    H2 9261   0.579   2.501   0.703 -0.3018 -0.6506 -0.9828
  625MPD2    H3 9262   0.770   2.394   0.755  0.2574  0.0500  0.0556
  625MPD2     N 9263   1.029   2.736   0.601 -0.6110  0.0215  0.1708
  625MPD2    H5 9264   1.015   2.823   0.549  1.6638 -0.2237 -0.8373
  625MPD2    N1 9265   0.557   2.752   0.601  0.0121  0.2163 -0.2973
  625MPD2    H7 9266   0.566   2.840   0.551 -0.8109  0.5864  0.1990
  626TMC3    C1 9267   0.337   2.808   0.593 -0.3849 -0.3562 -0.4920
  626TMC3    C2 9268   0.288   2.782   0.468  1.3943 -0.8421 -0.3959
  626TMC3    C3 9269   0.165   2.837   0.432  0.0973 -0.4210 -0.3215
  626TMC3    C4 9270   0.272   2.880   0.681  0.3625 -0.3013  0.2453
  626TMC3    C5 9271   0.160   2.948   0.642  0.0740  0.6077  0.7543
  626TMC3    C6 9272   0.107   2.935   0.512  0.1903 -0.6091  0.0943
  626TMC3     C 9273   0.434   2.715   0.648  0.4673  0.6554 -0.6263
  626TMC3     O 9274   0.404   2.638   0.735  0.4056  0.2061  0.3756
  626TMC3     H 9275   0.342   2.730   0.389  0.2163 -3.5725  0.6084
  626TMC3    H1 9276   0.322   2.889   0.777  0.2255  1.2101  0.1728
  626TMC3    H2 9277   0.034   3.006   0.477 -0.1571 -1.0999 -0.1771
  626TMC3    C7 9278   0.072   2.997   0.743  0.2606  0.0975 -0.5035
  626TMC3    C8 9279   0.140   2.853   0.289  0.0258 -0.2819  0.1564
  626TMC3    O1 9280   0.122   3.026   0.850 -0.2222 -0.0775 -0.0408
  626TMC3    O2 9281   0.235   2.848   0.209  0.2616  0.3730 -0.1599
  627MPD2     C 9282   4.118   2.531  13.850  0.1452 -0.1808  0.1305
  627MPD2    C1 9283   4.073   2.532  13.981  0.5199  0.6759  0.5723
  627MPD2    C2 9284   3.953   2.473  14.011  0.7809 -0.6008 -0.2478
  627MPD2    C3 9285   3.869   2.428  13.906  0.3140 -0.2400  0.6065
  627MPD2    C4 9286   3.908   2.439  13.775  0.4794 -0.0753 -0.7785
  627MPD2    C5 9287   4.030   2.489  13.755 -0.5987 -0.2455  0.0249
  627MPD2     H 9288   3.915   2.473  14.113  0.9099 -0.0585 -0.1986
  627MPD2    H1 9289   3.853   2.419  13.683  2.2841 -0.2069 -1.8382
  627MPD2    H2 9290   4.215   2.572  13.822 -1.1777  1.2305 -2.3488
  627MPD2    H3 9291   4.067   2.504  13.654 -0.4717  0.9744  0.2481
  627MPD2     N 9292   3.745   2.365  13.927  0.1153  0.2129 -0.2910
  627MPD2    H5 9293   3.676   2.347  13.855 -0.2677 -2.6275  0.7845
  627MPD2    N1 9294   4.140   2.587  14.094  0.0043  0.5695  0.1751
  627MPD2    H7 9295   4.099   2.567  14.185 -0.1105 -0.6706 -0.1596
  628TMC3    C1 9296   4.298   2.704  14.219  0.4670 -0.0326  0.8125
  628TMC3    C2 9297   4.426   2.673  14.262 -0.7769  0.1887  0.0994
  628TMC3    C3 9298   4.469   2.748  14.372 -0.6489 -0.4969  0.0407
  628TMC3    C4 9299   4.228   2.812  14.263  0.5886  0.2145  0.1989
  628TMC3    C5 9300   4.276   2.878  14.371  0.4720 -0.8108 -0.0515
  628TMC3    C6 9301   4.382   2.833  14.442 -0.7024  0.4115  1.4703
  628TMC3     C 9302   4.262   2.655  14.088  0.1226 -0.0467 -0.0432
  628TMC3     O 9303   4.352   2.638  14.004 -0.1931 -0.0479 -0.4020
  628TMC3     H 9304   4.498   2.621  14.199 -1.9316 -1.2250 -0.0565
  628TMC3    H1 9305   4.140   2.834  14.203 -0.6756 -1.5231  1.3914
  628TMC3    H2 9306   4.416   2.889  14.528  2.4811  3.4191 -1.7659
  628TMC3    C7 9307   4.195   2.972  14.439  0.1548  0.4031 -0.4103
  628TMC3    C8 9308   4.604   2.723  14.418 -0.4317 -0.4005  0.8040
  628TMC3    O1 9309   4.204   2.972  14.561 -0.0105 -0.1389  0.3800
  628TMC3    O2 9310   4.693   2.714  14.333 -0.1164 -0.3144  0.2314
  629MPD2     C 9311   2.171   2.134  16.236  0.7959 -0.1825 -0.4585
  629MPD2    C1 9312   2.194   1.998  16.275 -0.3954  0.0663  0.2866
  629MPD2    C2 9313   2.091   1.923  16.327  0.1235  0.1190 -0.1755
  629MPD2    C3 9314   1.962   1.974  16.336 -0.0015 -0.0963  0.5756
  629MPD2    C4 9315   1.937   2.103  16.294  0.1357 -0.4670 -0.4848
  629MPD2    C5 9316   2.044   2.178  16.244 -0.4090  0.0053  0.4806
  629MPD2     H 9317   2.104   1.823  16.366  0.1421  0.1239 -0.1693
  629MPD2    H1 9318   1.840   2.151  16.286 -0.4078 -1.7263 -1.4632
  629MPD2    H2 9319   2.240   2.204  16.192  0.6744 -0.0165 -0.3887
  629MPD2    H3 9320   2.025   2.283  16.224  0.0219  0.2352  1.2685
  629MPD2     N 9321   1.857   1.888  16.366 -0.4715 -0.9293  0.0532
  629MPD2    H5 9322   1.892   1.794  16.381 -0.9261 -1.2705 -0.9978
  629MPD2    N1 9323   2.320   1.946  16.255  0.3067 -0.1132  0.6307
  629MPD2    H7 9324   2.391   2.012  16.227  1.3436 -2.0690 -1.3507
  630TMC3    C1 9325   2.493   1.778  16.248  0.3937 -0.0077 -0.3237
  630TMC3    C2 9326   2.587   1.873  16.222 -0.1011 -0.5961  0.4152
  630TMC3    C3 9327   2.717   1.833  16.233 -0.1627 -0.3738 -0.0549
  630TMC3    C4 9328   2.527   1.654  16.300  0.3178  0.7125 -0.5846
  630TMC3    C5 9329   2.658   1.631  16.325 -0.2482  0.2381  0.3038
  630TMC3    C6 9330   2.758   1.710  16.272 -0.0403  0.2389 -0.6339
  630TMC3     C 9331   2.347   1.809  16.269  0.2800 -0.3296 -0.0946
  630TMC3     O 9332   2.271   1.713  16.276 -0.0224  0.0816  0.1936
  630TMC3     H 9333   2.565   1.966  16.170 -1.0085 -2.2171 -2.0862
  630TMC3    H1 9334   2.453   1.593  16.350  1.7350 -0.8581 -0.3841
  630TMC3    H2 9335   2.864   1.697  16.289 -0.1105  2.3200  1.4828
  630TMC3    C7 9336   2.700   1.551  16.442 -0.7967  1.0001  0.1016
  630TMC3    C8 9337   2.822   1.929  16.217  0.1635  0.4654 -0.1708
  630TMC3    O1 9338   2.816   1.564  16.483  0.1814  0.3181  0.1392
  630TMC3    O2 9339   2.818   2.029  16.283 -0.1452 -0.0369 -0.6627
  631MPD2     C 9340   0.330   1.327  15.708  0.3255  0.4702 -0.5992
  631MPD2    C1 9341   0.405   1.364  15.590  0.3416 -0.5244  0.5662
  631MPD2    C2 9342   0.535   1.316  15.590 -0.5211  0.1178 -0.7788
  631MPD2    C3 9343   0.591   1.234  15.679  0.3621 -0.3467 -0.2225
  631MPD2    C4 9344   0.523   1.203  15.792 -0.4538 -0.0113 -1.0694
  631MPD2    C5 9345   0.395   1.248  15.802  0.8799  0.5062  0.1830
  631MPD2     H 9346   0.594   1.334  15.501 -0.8353  0.2380 -0.9641
  631MPD2    H1 9347   0.555   1.138  15.872 -0.1025 -0.6824 -1.7519
  631MPD2    H2 9348   0.229   1.356  15.735  0.4704 -0.3098  0.7293
  631MPD2    H3 9349   0.352   1.209  15.894 -1.0312  2.5836  0.1602
  631MPD2     N 9350   0.720   1.184  15.650 -0.2367  0.1059  0.0669
  631MPD2    H5 9351   0.762   1.224  15.567 -0.4794 -1.6281 -0.8853
  631MPD2    N1 9352   0.342   1.446  15.486  0.0152 -0.2219  0.2706
  631MPD2    H7 9353   0.253   1.487  15.512 -0.6029 -1.1524 -0.3558
  632TMC3    C1 9354   0.328   1.590  15.307 -0.3917  0.7898 -0.0365
  632TMC3    C2 9355   0.298   1.700  15.378  0.3353  0.2464 -0.5292
  632TMC3    C3 9356   0.309   1.823  15.315  0.1682 -0.0084  0.3248
  632TMC3    C4 9357   0.366   1.599  15.176 -0.8690  0.0332 -0.2830
  632TMC3    C5 9358   0.381   1.729  15.118  0.0319  0.6646  0.4967
  632TMC3    C6 9359   0.338   1.841  15.185  0.0306  0.5790 -0.0124
  632TMC3     C 9360   0.397   1.475  15.363 -0.5844  0.1161  0.0322
  632TMC3     O 9361   0.509   1.452  15.320 -0.0930 -0.2156  0.0720
  632TMC3     H 9362   0.275   1.704  15.484 -1.9425 -0.3318 -0.9979
  632TMC3    H1 9363   0.411   1.513  15.128  1.2261  1.6567 -1.2054
  632TMC3    H2 9364   0.353   1.936  15.135 -2.3239  1.4175  0.8810
  632TMC3    C7 9365   0.427   1.746  14.981  0.4690  0.1974 -0.7553
  632TMC3    C8 9366   0.273   1.939  15.399 -0.1648  0.3538  0.8131
  632TMC3    O1 9367   0.354   1.804  14.904 -0.4562  0.4671 -0.1394
  632TMC3    O2 9368   0.223   1.908  15.505  0.1232 -0.5264 -0.5021
  633MPD2     C 9369   0.382   4.552  17.505  0.6458 -0.5430  0.7532
  633MPD2    C1 9370   0.373   4.477  17.390 -0.2623 -0.8033  0.3299
  633MPD2    C2 9371   0.355   4.343  17.407 -0.4784 -0.3360  0.3538
  633MPD2    C3 9372   0.348   4.277  17.532  0.3404 -0.2042 -0.1982
  633MPD2    C4 9373   0.378   4.350  17.641  0.4704 -0.7534 -0.4490
  633MPD2    C5 9374   0.385   4.487  17.628  0.0576  0.0681  0.5012
  633MPD2     H 9375   0.354   4.296  17.310  0.2789  0.3275  0.0149
  633MPD2    H1 9376   0.379   4.316   0.042 -1.4499  0.9851  0.1519
  633MPD2    H2 9377   0.407   4.657  17.510 -1.2739 -0.0395 -0.4759
  633MPD2    H3 9378   0.400   4.548   0.014 -0.8334 -1.5791  1.8027
  633MPD2     N 9379   0.325   4.137  17.543  0.0642  0.1061  0.8377
  633MPD2    H5 9380   0.329   4.094  17.635 -2.0864 -2.2740 -0.1839
  633MPD2    N1 9381   0.376   4.532  17.261 -0.0634  0.1041  0.0395
  633MPD2    H7 9382   0.378   4.476  17.177 -1.1674 -1.7226  1.2257
  634TMC3    C1 9383   0.433   4.703  17.099 -0.0789  0.1064  0.2963
  634TMC3    C2 9384   0.525   4.626  17.036  0.2718 -0.2602 -0.0983
  634TMC3    C3 9385   0.561   4.668  16.908  0.5506 -0.5227 -0.9699
  634TMC3    C4 9386   0.393   0.100  17.049  0.4672  0.2110  0.5274
  634TMC3    C5 9387   0.411   0.129  16.923 -0.4820  0.0266  0.0722
  634TMC3    C6 9388   0.492   0.046  16.847  0.3318  0.3840 -0.3847
  634TMC3     C 9389   0.376   4.665  17.234 -0.1970 -0.4302 -0.3416
  634TMC3     O 9390   0.350   0.039  17.303  0.0202  0.5163  0.0538
  634TMC3     H 9391   0.575   4.545  17.088  1.3027  0.4896  0.0742
  634TMC3    H1 9392   0.321   0.152  17.112  1.3542  1.4199  0.5444
  634TMC3    H2 9393   0.499   0.076  16.743  1.9706  1.5873  0.0713
  634TMC3    C7 9394   0.340   0.234  16.856  0.1483  0.0399  0.1073
  634TMC3    C8 9395   0.600   4.565  16.820  0.7991 -0.6354 -1.2186
  634TMC3    O1 9396   0.327   0.224  16.735  0.7666 -0.2619 -0.2186
  634TMC3    O2 9397   0.598   4.450  16.861 -0.0811 -0.4785 -0.2554
  635TMC3    C1 9398   0.881   0.201  17.464  0.1759  0.4609  0.1103
  635TMC3    C2 9399   0.984   0.231  17.376 -0.0332 -0.2015  0.4604
  635TMC3    C3 9400   1.035   0.125  17.301 -0.5685  0.6876  1.0654
  635TMC3    C4 9401   0.822   0.073  17.453  0.4829  0.2947  0.6365
  635TMC3    C5 9402   0.859   4.709  17.366 -0.4839 -0.0950 -0.0099
  635TMC3    C6 9403   0.970   0.007  17.291  0.1188 -0.9292  0.0724
  635TMC3     C 9404   0.812   0.309  17.523  0.0728  0.7274  0.3790
  635TMC3     O 9405   0.713   0.274  17.580 -0.1596  0.0748 -0.2776
  635TMC3     H 9406   1.031   0.328  17.363 -0.7218  0.2413  1.3319
  635TMC3    H1 9407   0.729   0.047  17.503  0.4566  0.1508  0.5104
  635TMC3    H2 9408   1.022   4.657  17.233  4.1874  0.9775  1.2614
  635TMC3    C7 9409   0.788   4.582  17.359 -0.5830 -0.6377 -0.1430
  635TMC3    C8 9410   1.155   0.146  17.226  0.1782 -0.1665  0.5283
  635TMC3    O1 9411   0.733   4.558  17.465  0.3979  0.0548 -0.1464
  635TMC3    O2 9412   1.165   0.073  17.123  0.0409  0.4718 -0.5619
  636MPD2     C 9413   1.797   4.585  15.843 -0.0070  0.4015 -0.1086
  636MPD2    C1 9414   1.868   4.646  15.946  0.2336  0.4787  0.6069
  636MPD2    C2 9415   1.944   4.565  16.033 -0.0766  0.6502  0.0591
  636MPD2    C3 9416   1.952   4.429  16.013  0.3218 -0.0344 -0.5043
  636MPD2    C4 9417   1.881   4.371  15.910  0.0504 -0.0802  0.4078
  636MPD2    C5 9418   1.812   4.449  15.820  0.1160  0.4954  0.7530
  636MPD2     H 9419   1.996   4.610  16.117  0.0253  2.1441 -0.7945
  636MPD2    H1 9420   1.892   4.268  15.879 -1.4314  0.2490 -1.2243
  636MPD2    H2 9421   1.740   4.641  15.770  0.9148  0.6690 -0.6273
  636MPD2    H3 9422   1.756   4.395  15.745 -0.1688  1.3151  0.3823
  636MPD2     N 9423   2.028   4.357  16.113 -0.1991  0.3176 -0.3626
  636MPD2    H5 9424   2.084   4.413  16.176 -1.2417  2.1181 -1.0185
  636MPD2    N1 9425   1.852   0.057  15.980  0.3047  0.2556  0.7735
  636MPD2    H7 9426   1.903   0.091  16.061 -1.2848  1.6849  1.1895
  637TMC3    C1 9427   2.069   4.181  16.260  0.1180 -0.1219 -0.5535
  637TMC3    C2 9428   2.073   4.281  16.354  0.4565  0.6478 -0.6779
  637TMC3    C3 9429   2.122   4.246  16.475 -0.1023  0.2676  0.1293
  637TMC3    C4 9430   2.133   4.062  16.274 -0.2769 -0.8349 -0.2011
  637TMC3    C5 9431   2.184   4.037  16.397 -0.0208 -0.1216 -0.7204
  637TMC3    C6 9432   2.171   4.119  16.504  0.5608  0.1157 -0.5346
  637TMC3     C 9433   2.023   4.219  16.126 -0.0881 -0.3145 -0.8949
  637TMC3     O 9434   1.986   4.131  16.052 -0.1383 -0.6226 -0.2181
  637TMC3     H 9435   2.016   4.372  16.339 -2.3304 -1.1749 -1.3184
  637TMC3    H1 9436   2.146   3.997  16.189 -0.2161 -2.2163  0.8642
  637TMC3    H2 9437   2.215   4.089  16.598 -1.0153 -1.4659 -0.2782
  637TMC3    C7 9438   2.272   3.920  16.407 -1.3576  0.1622 -0.3443
  637TMC3    C8 9439   2.167   4.350  16.559  0.1150 -0.0839  0.1547
  637TMC3    O1 9440   2.240   3.823  16.480 -0.3965  0.2876 -0.5584
  637TMC3    O2 9441   2.210   4.442  16.491  0.1993  0.2500 -0.0727
  638MPD2     C 9442   1.539   3.658  14.821 -0.7601 -0.0850 -0.6462
  638MPD2    C1 9443   1.474   3.555  14.756 -0.1941 -0.0276  0.6149
  638MPD2    C2 9444   1.439   3.443  14.822  0.4547  0.7807  0.0622
  638MPD2    C3 9445   1.483   3.425  14.950  0.6089  0.5767  0.0838
  638MPD2    C4 9446   1.555   3.529  15.014  0.1181  0.1855 -0.4639
  638MPD2    C5 9447   1.579   3.646  14.949 -0.2672  0.4977 -0.5719
  638MPD2     H 9448   1.376   3.373  14.767  1.5455 -0.8196  0.8382
  638MPD2    H1 9449   1.577   3.521  15.120  3.5160  0.5197 -1.1588
  638MPD2    H2 9450   1.562   3.750  14.769  0.4005 -0.1653 -0.2767
  638MPD2    H3 9451   1.613   3.739  14.993  0.9109 -0.1473 -0.1461
  638MPD2     N 9452   1.462   3.297  15.007  0.2249  0.6654 -0.1393
  638MPD2    H5 9453   1.403   3.227  14.962  0.4505  0.6503 -0.4138
  638MPD2    N1 9454   1.458   3.569  14.617  0.9167 -0.6740  0.0500
  638MPD2    H7 9455   1.516   3.640  14.573 -0.2646  0.0397 -0.3464
  639TMC3    C1 9456   1.503   3.107  15.149 -0.1243  0.2463  0.0161
  639TMC3    C2 9457   1.377   3.058  15.118  0.2986 -0.0742 -0.2038
  639TMC3    C3 9458   1.353   2.921  15.142 -1.1764  0.2350  0.3097
  639TMC3    C4 9459   1.601   3.033  15.210  0.1336  0.5059 -0.1908
  639TMC3    C5 9460   1.578   2.897  15.216 -0.3165  0.0925 -0.4443
  639TMC3    C6 9461   1.455   2.840  15.187 -0.1970  0.0520  0.1995
  639TMC3     C 9462   1.533   3.247  15.112 -0.1057  0.3366 -0.6682
  639TMC3     O 9463   1.626   3.301  15.172  0.3675 -0.2067 -0.0845
  639TMC3     H 9464   1.295   3.117  15.079  0.9534  1.3626  0.5504
  639TMC3    H1 9465   1.696   3.080  15.234  0.2179  0.4130 -0.3398
  639TMC3    H2 9466   1.442   2.735  15.209 -1.5166  0.1119 -0.2727
  639TMC3    C7 9467   1.673   2.812  15.280 -0.0712 -0.0066  0.0704
  639TMC3    C8 9468   1.250   2.863  15.060 -0.2774 -0.2448 -0.0652
  639TMC3    O1 9469   1.627   2.712  15.335 -0.3473  0.1603  0.0487
  639TMC3    O2 9470   1.187   2.928  14.976 -0.0786 -0.1237  0.1873
  640MPD2     C 9471   2.413   1.536   9.519  0.5971 -0.8210 -0.8849
  640MPD2    C1 9472   2.495   1.646   9.540  0.0497  0.4140 -0.1568
  640MPD2    C2 9473   2.452   1.745   9.620  0.8927  0.1217  0.2442
  640MPD2    C3 9474   2.322   1.757   9.665 -0.5948 -0.0585 -0.4511
  640MPD2    C4 9475   2.239   1.659   9.630  0.1620  0.0318  0.3271
  640MPD2    C5 9476   2.287   1.551   9.560 -0.5606 -0.3393  0.4462
  640MPD2     H 9477   2.528   1.818   9.646 -0.7865  2.6710 -1.9303
  640MPD2    H1 9478   2.133   1.672   9.649 -0.1839 -0.9932 -0.8983
  640MPD2    H2 9479   2.451   1.449   9.467  2.4702  0.6005 -1.9377
  640MPD2    H3 9480   2.216   1.470   9.542 -0.8685 -0.1569  0.8355
  640MPD2     N 9481   2.271   1.857   9.751  0.4279  0.3446  0.5116
  640MPD2    H5 9482   2.184   1.834   9.797 -0.0551 -0.3433 -0.7577
  640MPD2    N1 9483   2.623   1.641   9.488  0.9108  0.2333 -0.6897
  640MPD2    H7 9484   2.656   1.547   9.467  0.1648 -0.6040  1.9079
  641TMC3    C1 9485   2.852   1.696   9.479 -0.1573 -0.0610 -0.7891
  641TMC3    C2 9486   2.884   1.579   9.544 -0.2129  0.6634  0.2359
  641TMC3    C3 9487   3.016   1.559   9.552 -0.0272 -0.0267 -0.8335
  641TMC3    C4 9488   2.945   1.775   9.419 -0.5010  0.5831 -0.2646
  641TMC3    C5 9489   3.076   1.746   9.419 -0.3754  0.1209  0.4862
  641TMC3    C6 9490   3.112   1.637   9.492  0.3547  0.3951 -0.1146
  641TMC3     C 9491   2.717   1.747   9.483  0.1208 -0.3035 -0.4052
  641TMC3     O 9492   2.702   1.869   9.476 -0.5627 -0.0731 -0.1883
  641TMC3     H 9493   2.810   1.521   9.598 -2.8910  2.3522 -1.6042
  641TMC3    H1 9494   2.913   1.865   9.367 -1.4717 -0.2257 -1.0678
  641TMC3    H2 9495   3.209   1.594   9.473 -0.1736 -0.1447 -1.6155
  641TMC3    C7 9496   3.192   1.837   9.376 -0.3931 -0.3031  0.4598
  641TMC3    C8 9497   3.056   1.465   9.651 -0.1423 -0.1244  0.6854
  641TMC3    O1 9498   3.300   1.795   9.418 -0.2879 -0.1677 -0.4840
  641TMC3    O2 9499   2.978   1.376   9.684  0.4918  0.6103 -0.1375
  642TMC3    C1 9500   3.505   3.551  12.057 -0.2951 -0.8039 -0.2324
  642TMC3    C2 9501   3.607   3.590  12.146  0.3730  0.2992  0.1330
  642TMC3    C3 9502   3.646   3.509  12.244  0.1307 -0.2194 -0.6462
  642TMC3    C4 9503   3.436   3.436  12.083 -0.1473 -0.5311 -0.5404
  642TMC3    C5 9504   3.466   3.361  12.192  0.6876 -0.4197  0.7970
  642TMC3    C6 9505   3.575   3.390  12.265 -0.6609 -0.5287 -0.0643
  642TMC3     C 9506   3.441   3.658  11.980  0.6297 -0.0393  0.4157
  642TMC3     O 9507   3.517   3.727  11.908 -0.0158  0.0475 -0.0369
  642TMC3     H 9508   3.666   3.676  12.117  0.4278 -0.1939 -1.2230
  642TMC3    H1 9509   3.343   3.416  12.031 -1.1388  1.2481  0.5207
  642TMC3    H2 9510   3.606   3.312  12.334 -0.0620  0.0441  0.3114
  642TMC3    C7 9511   3.403   3.228  12.204 -0.0875  0.8248 -0.0020
  642TMC3    C8 9512   3.755   3.537  12.336  0.0365  0.1926 -0.3674
  642TMC3    O1 9513   3.364   3.188  12.095  0.3249 -0.0979 -0.3262
  642TMC3    O2 9514   3.794   3.445  12.411 -0.1540 -0.0264  0.2874
  643TMC3    C1 9515   1.833   3.048   0.353  0.6990  0.1199 -0.3236
  643TMC3    C2 9516   1.719   3.081   0.292  0.5919  0.5332  0.0183
  643TMC3    C3 9517   1.690   3.030   0.171 -0.0626 -0.1744  0.3594
  643TMC3    C4 9518   1.919   2.959   0.297  0.2552  0.1634 -0.4244
  643TMC3    C5 9519   1.894   2.919   0.167  0.3862 -0.1241  0.1580
  643TMC3    C6 9520   1.776   2.955   0.105  0.0066  0.5344 -0.1701
  643TMC3     C 9521   1.860   3.085   0.492 -0.0576  1.1315  0.8049
  643TMC3     O 9522   1.764   3.087   0.570  0.1257 -0.7393 -0.2698
  643TMC3     H 9523   1.650   3.155   0.332 -0.8351 -1.1194  0.5867
  643TMC3    H1 9524   2.007   2.920   0.345 -0.2126 -2.0068 -1.3238
  643TMC3    H2 9525   1.746   2.931   0.004  0.1452  0.5320 -0.2110
  643TMC3    C7 9526   1.996   2.888   0.072  0.0279 -0.0111 -0.0911
  643TMC3    C8 9527   1.615   3.121   0.087  0.3081  0.4798 -0.3144
  643TMC3    O1 9528   1.959   2.911  17.657 -0.0733  0.0034  0.4797
  643TMC3    O2 9529   1.564   3.067  17.695 -0.2678 -0.3325  0.2905
  644MPD2     C 9530   2.843   2.436   9.594 -0.1261  0.0835  0.0724
  644MPD2    C1 9531   2.893   2.308   9.569 -0.4122 -0.5093  0.8609
  644MPD2    C2 9532   2.802   2.211   9.526 -0.1068  0.1797  0.1989
  644MPD2    C3 9533   2.665   2.242   9.506  0.0594  0.0071  0.2626
  644MPD2    C4 9534   2.625   2.377   9.517  0.9881  0.0911 -0.5068
  644MPD2    C5 9535   2.715   2.468   9.559 -0.7051 -0.1149 -0.0909
  644MPD2     H 9536   2.841   2.111   9.507  0.3305  0.3177  0.3652
  644MPD2    H1 9537   2.524   2.412   9.496  1.3800  1.6002  0.1378
  644MPD2    H2 9538   2.906   2.512   9.638 -2.1811  1.8236 -0.0156
  644MPD2    H3 9539   2.685   2.571   9.572  0.5545 -0.0581  2.5063
  644MPD2     N 9540   2.579   2.134   9.483  0.0865  0.5605  0.4083
  644MPD2    H5 9541   2.621   2.044   9.461  0.9598  0.9384  0.5389
  644MPD2    N1 9542   3.029   2.283   9.593  0.3209  0.6128  0.1275
  644MPD2    H7 9543   3.084   2.367   9.614  0.0125  0.6658  0.7410
  645TMC3    C1 9544   2.361   2.032   9.446  0.1108  0.8665 -0.0216
  645TMC3    C2 9545   2.226   2.038   9.474 -1.0026  0.2071  0.0766
  645TMC3    C3 9546   2.144   1.952   9.413  0.2600 -0.3482 -0.5778
  645TMC3    C4 9547   2.412   1.936   9.363 -0.2140 -0.1268 -0.3427
  645TMC3    C5 9548   2.316   1.849   9.303  0.3269  0.4494 -1.3310
  645TMC3    C6 9549   2.183   1.860   9.325  0.0675  0.4559 -0.4563
  645TMC3     C 9550   2.440   2.144   9.494 -0.6961  0.3163  0.3397
  645TMC3     O 9551   2.370   2.238   9.530 -0.0272  0.3548 -0.1850
  645TMC3     H 9552   2.186   2.114   9.539 -0.4962  1.0639 -0.6168
  645TMC3    H1 9553   2.517   1.925   9.339  0.4559  2.1199  1.6083
  645TMC3    H2 9554   2.115   1.806   9.260  0.9682 -1.9348  0.6186
  645TMC3    C7 9555   2.359   1.724   9.242 -0.6015 -0.4315 -0.2159
  645TMC3    C8 9556   2.017   1.935   9.489  0.4106  0.4229 -0.4627
  645TMC3    O1 9557   2.283   1.628   9.247 -0.2896  0.6345 -0.3358
  645TMC3    O2 9558   1.997   2.022   9.575  0.1059  0.0026  0.1777
  646MPD2     C 9559   1.485   2.248  14.225 -0.2423  0.4598 -0.1942
  646MPD2    C1 9560   1.411   2.170  14.313 -0.8477  0.1224 -0.5298
  646MPD2    C2 9561   1.274   2.205  14.326 -0.3769 -0.5900 -0.3101
  646MPD2    C3 9562   1.218   2.310  14.252  0.6726 -0.8198 -0.5870
  646MPD2    C4 9563   1.299   2.382  14.167 -0.4952 -0.2500 -0.3997
  646MPD2    C5 9564   1.430   2.349  14.163  0.3145  0.5376  0.0225
  646MPD2     H 9565   1.209   2.141  14.385  0.1205 -0.8518 -0.0448
  646MPD2    H1 9566   1.278   2.481  14.129 -0.3109  0.1976  0.6564
  646MPD2    H2 9567   1.583   2.215  14.191 -0.4338  0.3520 -0.6497
  646MPD2    H3 9568   1.486   2.411  14.094 -0.4360  0.1469 -0.9364
  646MPD2     N 9569   1.083   2.333  14.282  0.0198  0.1865  0.5118
  646MPD2    H5 9570   1.025   2.274  14.342  0.6771  0.6798  1.6355
  646MPD2    N1 9571   1.478   2.072  14.386 -0.5062  0.0349 -0.3648
  646MPD2    H7 9572   1.577   2.054  14.371 -0.4189 -0.4757  0.8416
  647TMC3    C1 9573   1.524   1.912  14.548 -0.4614 -0.3336 -0.6178
  647TMC3    C2 9574   1.480   1.803  14.614  0.4030 -0.1211  0.4472
  647TMC3    C3 9575   1.576   1.736  14.680 -0.7732 -0.1289 -0.1941
  647TMC3    C4 9576   1.658   1.952  14.532  0.7941  0.0508  0.2936
  647TMC3    C5 9577   1.747   1.888  14.612  0.3746  0.2368 -1.3417
  647TMC3    C6 9578   1.703   1.788  14.688  0.5732 -0.7871  0.0612
  647TMC3     C 9579   1.428   1.993  14.484 -0.2659  0.4128 -0.1591
  647TMC3     O 9580   1.316   1.974  14.509 -0.1794 -0.2269  0.1107
  647TMC3     H 9581   1.376   1.773  14.616  0.4886 -0.4522 -0.3859
  647TMC3    H1 9582   1.686   2.054  14.509  1.0381  0.2639  1.5625
  647TMC3    H2 9583   1.782   1.734  14.738  2.2986  0.9699 -0.7707
  647TMC3    C7 9584   1.887   1.920  14.621  0.2813 -0.0886 -0.2814
  647TMC3    C8 9585   1.551   1.611  14.754 -0.2902  0.0120  0.7749
  647TMC3    O1 9586   1.942   1.901  14.726  0.8587 -0.5690 -0.4485
  647TMC3    O2 9587   1.662   1.557  14.784 -0.3063 -0.0583 -0.3440
  648TMC3    C1 9588   1.076   4.574  16.149  0.8293  0.4579 -0.0241
  648TMC3    C2 9589   1.107   4.452  16.091 -0.7201  0.1200  0.9564
  648TMC3    C3 9590   1.104   4.444  15.954  0.3094 -0.1794 -0.4395
  648TMC3    C4 9591   1.023   4.677  16.075 -0.4884  0.0663  0.0426
  648TMC3    C5 9592   1.016   4.662  15.942 -0.2553 -0.1125 -0.2421
  648TMC3    C6 9593   1.058   4.547  15.882 -0.6355  0.0785 -0.5262
  648TMC3     C 9594   1.076   4.590  16.293  0.6623  0.3965 -0.6001
  648TMC3     O 9595   1.070   4.704  16.337 -0.7821 -0.0422  0.2401
  648TMC3     H 9596   1.155   4.374  16.149  0.3455 -0.0843 -0.1923
  648TMC3    H1 9597   1.008   0.045  16.128  0.7564  0.9834 -1.1954
  648TMC3    H2 9598   1.037   4.532  15.777  1.8300 -1.0749 -0.8730
  648TMC3    C7 9599   0.923   0.018  15.867 -0.3366 -0.6316 -0.5514
  648TMC3    C8 9600   1.139   4.317  15.890 -0.6151 -0.5376 -0.3950
  648TMC3    O1 9601   0.927   0.011  15.744  0.4875  0.3060 -0.0765
  648TMC3    O2 9602   1.153   4.331  15.766 -0.5847  0.5817  0.7925
  649TMC3    C1 9603   3.801   0.776  12.390  0.1412 -1.2315 -0.2639
  649TMC3    C2 9604   3.915   0.803  12.315  1.1220 -0.2209  0.0863
  649TMC3    C3 9605   4.035   0.826  12.372  0.5865 -0.1046  0.1972
  649TMC3    C4 9606   3.820   0.745  12.522 -0.2107 -0.2349 -0.0987
  649TMC3    C5 9607   3.946   0.761  12.572 -0.9193 -0.1364  0.1108
  649TMC3    C6 9608   4.049   0.805  12.503 -0.4910 -0.4967 -0.0381
  649TMC3     C 9609   3.662   0.787  12.355  0.0881 -0.3033 -0.3850
  649TMC3     O 9610   3.585   0.787  12.450 -0.3139 -0.2981 -0.2831
  649TMC3     H 9611   3.913   0.770  12.211 -2.0750 -0.5317  0.2742
  649TMC3    H1 9612   3.748   0.718  12.599 -1.0537  0.8397 -0.5148
  649TMC3    H2 9613   4.151   0.800  12.540 -1.1583  0.3130  1.8933
  649TMC3    C7 9614   3.964   0.700  12.702 -0.0096 -0.7310 -0.5069
  649TMC3    C8 9615   4.144   0.883  12.296  0.1431  0.3689  0.2785
  649TMC3    O1 9616   4.051   0.752  12.773 -0.0696 -0.3371 -0.2825
  649TMC3    O2 9617   4.242   0.925  12.356 -0.1981  0.4572 -0.1519
  650TMC3    C1 9618   2.607   2.743  12.648 -0.5231 -0.6526  0.3632
  650TMC3    C2 9619   2.584   2.880  12.668 -0.6699 -0.3617  0.5918
  650TMC3    C3 9620   2.675   2.967  12.616 -0.4643 -0.7355 -0.2995
  650TMC3    C4 9621   2.699   2.705  12.554  0.1902 -0.3322  0.5427
  650TMC3    C5 9622   2.783   2.797  12.486  0.3607 -0.5647  0.5062
  650TMC3    C6 9623   2.780   2.927  12.530  0.0440  0.2017 -0.2772
  650TMC3     C 9624   2.533   2.648  12.742 -0.3679  0.2362 -0.2488
  650TMC3     O 9625   2.461   2.704  12.826  0.0765  0.3522 -0.4373
  650TMC3     H 9626   2.492   2.911  12.717 -2.1841 -1.5436 -1.4883
  650TMC3    H1 9627   2.710   2.598  12.540  1.6789 -0.1413  0.3062
  650TMC3    H2 9628   2.835   3.000  12.472  1.7125 -0.9802 -0.1715
  650TMC3    C7 9629   2.774   2.784  12.338 -0.5284 -0.4459 -0.3213
  650TMC3    C8 9630   2.643   3.107  12.604 -0.1787  0.1125  0.2235
  650TMC3    O1 9631   2.731   2.680  12.294  0.1201 -0.3379  0.3931
  650TMC3    O2 9632   2.707   3.180  12.531 -0.1389 -0.0627  0.2185
  651MPD2     C 9633   1.609   4.052  10.668 -1.2088 -0.0061  0.1065
  651MPD2    C1 9634   1.584   4.178  10.725 -0.2157  0.5893  0.7239
  651MPD2    C2 9635   1.669   4.281  10.686  0.2887  0.7761  0.0824
  651MPD2    C3 9636   1.780   4.266  10.604 -0.0285 -0.2948  0.2739
  651MPD2    C4 9637   1.812   4.137  10.570 -0.1351  0.2429  0.4960
  651MPD2    C5 9638   1.722   4.034  10.596 -0.2330  0.7948 -0.4677
  651MPD2     H 9639   1.642   4.383  10.709 -2.6847 -0.0301  0.1673
  651MPD2    H1 9640   1.899   4.114  10.510 -0.9661 -0.6039 -0.3824
  651MPD2    H2 9641   1.547   3.966  10.688  2.6624 -3.0440 -1.0590
  651MPD2    H3 9642   1.739   3.936  10.552 -1.4446  0.9068 -1.1615
  651MPD2     N 9643   1.850   4.381  10.569 -0.1275 -0.1130  0.0776
  651MPD2    H5 9644   1.816   4.473  10.597  0.7091 -0.0886  1.0065
  651MPD2    N1 9645   1.472   4.204  10.804  0.4732  0.9136  0.3029
  651MPD2    H7 9646   1.451   4.303  10.806  0.2289  0.8947 -1.2932
  652TMC3    C1 9647   2.139   4.683  10.394  0.4215  0.2234 -0.3234
  652TMC3    C2 9648   2.109   4.553  10.404 -0.1492  0.2906 -0.4304
  652TMC3    C3 9649   1.977   4.516  10.429 -0.4414  0.0606 -0.3937
  652TMC3    C4 9650   2.037   0.054  10.403 -0.3862  0.0806  0.2376
  652TMC3    C5 9651   1.909   0.010  10.405  0.4761  0.2731  0.6836
  652TMC3    C6 9652   1.872   4.607  10.423 -0.7044 -0.2629 -0.8314
  652TMC3     C 9653   2.274   4.725  10.400 -0.3069 -0.6876  0.3833
  652TMC3     O 9654   2.349   4.649  10.459  0.5323  0.1188 -0.0742
  652TMC3     H 9655   2.190   4.485  10.427 -1.6085 -1.6210 -0.9147
  652TMC3    H1 9656   2.056   0.158  10.379  0.9404 -0.1789  0.1761
  652TMC3    H2 9657   1.768   4.587  10.443 -0.1847 -0.2689  1.8501
  652TMC3    C7 9658   1.822   0.096  10.490  0.5994  0.7019 -0.3641
  652TMC3    C8 9659   1.957   4.387  10.486  0.3192 -0.3479  0.2315
  652TMC3    O1 9660   1.701   0.092  10.484  0.1071 -0.3269  0.0056
  652TMC3    O2 9661   2.034   4.300  10.449  0.0282  0.5682 -0.0192
  653MPD2     C 9662   0.080   4.589   0.141 -0.8545 -0.1537 -0.2134
  653MPD2    C1 9663   0.064   4.673   0.032  0.0854  0.8037 -0.2755
  653MPD2    C2 9664   0.011   4.619  17.615 -0.4887  0.4360  0.3489
  653MPD2    C3 9665   4.697   4.488  17.603 -0.5983 -0.2931 -0.4745
  653MPD2    C4 9666   4.715   4.406   0.008  0.1065  0.6085 -0.5844
  653MPD2    C5 9667   0.042   4.459   0.128  0.7807  0.1399  0.9940
  653MPD2     H 9668   4.710   4.689  17.537  1.0302  0.1586 -0.3952
  653MPD2    H1 9669   4.696   4.299   0.004 -1.8466  0.9416 -0.1011
  653MPD2    H2 9670   0.133   4.612   0.233 -1.1642  2.4546 -0.6901
  653MPD2    H3 9671   0.063   4.383   0.202 -0.1840  0.6363  1.7790
  653MPD2     N 9672   4.636   4.451  17.488  0.2460  0.0402  0.2244
  653MPD2    H5 9673   4.642   4.525  17.419 -2.2966 -0.7186 -0.8155
  653MPD2    N1 9674   0.095   0.079   0.038 -0.0129  0.6851 -0.1962
  653MPD2    H7 9675   0.066   0.134  17.660  1.2764  1.4347 -0.1352
  654TMC3    C1 9676   4.577   4.304  17.312  0.3693 -0.4915  0.0018
  654TMC3    C2 9677   4.496   4.394  17.251 -0.3306 -0.6690 -1.0990
  654TMC3    C3 9678   4.471   4.383  17.115  0.7025  0.5030  0.2242
  654TMC3    C4 9679   4.619   4.190  17.248  0.1620  0.1416  0.1379
  654TMC3    C5 9680   4.588   4.180  17.116  0.4429  0.8805 -0.3772
  654TMC3    C6 9681   4.516   4.276  17.047 -0.3453  0.3246 -0.1065
  654TMC3     C 9682   4.603   4.327  17.448 -0.4437 -0.0937 -0.5843
  654TMC3     O 9683   4.593   4.226  17.516 -0.0027  0.7282  0.3207
  654TMC3     H 9684   4.467   4.486  17.302  0.2121  1.4113 -4.5171
  654TMC3    H1 9685   4.666   4.112  17.308 -1.4446 -2.0765 -1.5116
  654TMC3    H2 9686   4.488   4.270  16.943  1.1521 -0.3891 -0.4612
  654TMC3    C7 9687   4.647   4.076  17.026  0.6564 -1.0151  0.1012
  654TMC3    C8 9688   4.427   4.494  17.039 -0.9220 -1.2960 -0.5172
  654TMC3    O1 9689   4.703   4.104  16.920  0.4481 -0.0724 -0.4634
  654TMC3    O2 9690   4.349   4.571  17.098 -0.1105 -0.1310  0.2624
  655MPD2     C 9691   1.435   4.691  15.983  0.0957 -0.3862 -0.1630
  655MPD2    C1 9692   1.383   0.036  15.878 -0.5070 -0.3131  0.7854
  655MPD2    C2 9693   1.378   4.704  15.752 -0.6592  0.0366  0.1197
  655MPD2    C3 9694   1.416   4.575  15.727  0.1466  0.6918  0.1843
  655MPD2    C4 9695   1.465   4.504  15.834  0.9214 -0.3310 -0.0577
  655MPD2    C5 9696   1.468   4.562  15.959 -0.4418 -0.0919 -0.1533
  655MPD2     H 9697   1.333   0.043  15.677  0.1318  0.1776 -0.2328
  655MPD2    H1 9698   1.499   4.404  15.811 -0.6914 -1.3149  1.8234
  655MPD2    H2 9699   1.433   0.000  16.086  0.0830  0.2945 -0.3890
  655MPD2    H3 9700   1.495   4.509  16.050  1.0102  1.4301  0.2901
  655MPD2     N 9701   1.414   4.508  15.606 -0.6427  0.2498 -0.2817
  655MPD2    H5 9702   1.444   4.411  15.606 -3.3643 -0.5687 -1.0777
  655MPD2    N1 9703   1.328   0.161  15.894 -0.0491  0.1389  0.2965
  655MPD2    H7 9704   1.294   0.197  15.806  0.6564 -1.1735 -0.5157
  656TMC3    C1 9705   1.204   0.327  16.014 -0.0113  0.5230 -0.3374
  656TMC3    C2 9706   1.133   0.346  16.126 -0.3614  0.3878  0.5530
  656TMC3    C3 9707   1.024   0.425  16.135  0.3672  0.4562 -0.2289
  656TMC3    C4 9708   1.154   0.385  15.895  0.7474 -0.2184  0.3832
  656TMC3    C5 9709   1.047   0.469  15.912  0.4195  0.6302  0.1640
  656TMC3    C6 9710   0.980   0.502  16.031 -0.3348  0.5860 -0.3289
  656TMC3     C 9711   1.315   0.234  16.013 -0.0983  0.1845  0.3515
  656TMC3     O 9712   1.362   0.201  16.120  0.3481  0.1113  0.1131
  656TMC3     H 9713   1.169   0.294  16.214 -1.7661 -1.6446 -0.0827
  656TMC3    H1 9714   1.200   0.372  15.798  1.4743 -1.8728  0.9646
  656TMC3    H2 9715   0.878   0.538  16.032 -0.9048 -1.0806  1.1538
  656TMC3    C7 9716   0.973   0.486  15.791  0.3746 -0.1833 -0.5211
  656TMC3    C8 9717   0.913   0.372  16.212 -0.1352 -0.7309 -0.0216
  656TMC3    O1 9718   0.992   0.407  15.697 -0.0513  0.0607  0.1370
  656TMC3    O2 9719   0.898   0.252  16.213  0.3120  0.3255 -0.7000
  657TMC3    C1 9720   0.321   3.090  15.338  0.4462 -0.2076  0.0561
  657TMC3    C2 9721   0.308   3.168  15.447 -0.4289  0.1736  0.4865
  657TMC3    C3 9722   0.198   3.242  15.458  0.1364 -0.6202  0.2586
  657TMC3    C4 9723   0.227   3.089  15.236 -0.1770 -0.2152  0.2552
  657TMC3    C5 9724   0.111   3.158  15.255 -0.5107  0.1172  0.1878
  657TMC3    C6 9725   0.097   3.232  15.367  0.2664  0.2594  0.2199
  657TMC3     C 9726   0.414   2.983  15.332  0.7896  0.8033 -0.1752
  657TMC3     O 9727   0.447   2.944  15.224  0.2079 -0.3754 -0.0707
  657TMC3     H 9728   0.386   3.174  15.522  0.6303  0.6311 -0.6504
  657TMC3    H1 9729   0.245   3.020  15.154  1.5859 -0.4557  0.8329
  657TMC3    H2 9730   4.724   3.276  15.378  0.0293 -0.0058 -0.9526
  657TMC3    C7 9731   0.001   3.136  15.160 -0.1673  0.1070 -0.6923
  657TMC3    C8 9732   0.184   3.334  15.567 -0.2197  0.5282  0.0434
  657TMC3    O1 9733   0.013   3.027  15.099 -0.3459 -0.1731 -0.1319
  657TMC3    O2 9734   0.069   3.365  15.594 -0.8638  0.1070  0.4222
  658MPD2     C 9735   1.638   4.686  14.873 -0.0548 -0.7742 -0.0115
  658MPD2    C1 9736   1.523   4.612  14.868  0.5814  0.3426  0.6310
  658MPD2    C2 9737   1.449   4.601  14.749 -0.1413 -0.2214  0.4845
  658MPD2    C3 9738   1.495   4.676  14.639 -0.3812  1.2002 -0.3759
  658MPD2    C4 9739   1.613   0.025  14.659  0.4108 -0.2026  0.4564
  658MPD2    C5 9740   1.677   0.035  14.773 -0.6545 -0.4655 -0.2654
  658MPD2     H 9741   1.355   4.548  14.749 -0.7989  0.9424 -0.5037
  658MPD2    H1 9742   1.668   0.063  14.574 -1.7564 -2.5833 -1.9800
  658MPD2    H2 9743   1.700   4.691  14.962 -3.0807  0.9826  1.9836
  658MPD2    H3 9744   1.767   0.095  14.786 -0.0877 -1.4308  0.2625
  658MPD2     N 9745   1.424   4.683  14.513 -0.1227  0.6156  1.2634
  658MPD2    H5 9746   1.342   4.625  14.518 -0.8751  1.6770  1.2509
  658MPD2    N1 9747   1.483   4.550  14.994  1.0018 -0.6205  0.3291
  658MPD2    H7 9748   1.541   4.579  15.072  2.8039  1.3595 -1.7416
  659TMC3    C1 9749   1.380   4.412  15.151 -0.9251  0.2489  0.3174
  659TMC3    C2 9750   1.391   4.503  15.248 -0.0993 -0.0064 -0.5291
  659TMC3    C3 9751   1.374   4.458  15.379  0.1917  0.4910 -0.0250
  659TMC3    C4 9752   1.369   4.274  15.171 -0.2329  0.2634 -0.2684
  659TMC3    C5 9753   1.367   4.238  15.303 -0.4137 -0.2914  0.1834
  659TMC3    C6 9754   1.365   4.330  15.409 -0.0696 -0.3040  0.0118
  659TMC3     C 9755   1.384   4.458  15.014  0.3791  0.2757  0.5260
  659TMC3     O 9756   1.319   4.396  14.928  0.5832  0.1499  0.4677
  659TMC3     H 9757   1.391   4.610  15.230 -1.6532  0.3535  1.6659
  659TMC3    H1 9758   1.354   4.202  15.091  2.2187 -1.6134  0.9782
  659TMC3    H2 9759   1.349   4.300  15.512 -1.9221 -2.2254 -0.8212
  659TMC3    C7 9760   1.319   4.105  15.330 -0.7274 -0.3590 -1.0044
  659TMC3    C8 9761   1.370   4.556  15.492 -0.4101  0.3967 -0.6628
  659TMC3    O1 9762   1.269   4.076  15.438 -0.1885  0.6817 -0.3127
  659TMC3    O2 9763   1.355   4.677  15.464  0.2945  0.9683 -0.2136
  660MPD2     C 9764   4.512   3.050  12.767  0.5134 -0.9619  0.6307
  660MPD2    C1 9765   4.411   3.083  12.683 -1.4704  0.1427 -0.0176
  660MPD2    C2 9766   4.293   3.018  12.697  0.1263  0.0164  0.0127
  660MPD2    C3 9767   4.271   2.915  12.783  0.1663 -0.1325 -0.0308
  660MPD2    C4 9768   4.372   2.872  12.864  0.2240  0.0090  0.0662
  660MPD2    C5 9769   4.495   2.945  12.857 -0.2565  0.0858  0.2593
  660MPD2     H 9770   4.209   3.033  12.629  1.6107 -0.2380 -1.9006
  660MPD2    H1 9771   4.363   2.793  12.937  1.6930 -0.7918 -0.6247
  660MPD2    H2 9772   4.610   3.095  12.751 -0.7237  1.1319 -1.0725
  660MPD2    H3 9773   4.576   2.920  12.925  0.0199 -1.2125 -0.5561
  660MPD2     N 9774   4.149   2.842  12.801 -0.4071 -0.2450 -0.6688
  660MPD2    H5 9775   4.152   2.770  12.873  1.5743 -1.5560 -2.0726
  660MPD2    N1 9776   4.434   3.179  12.582 -0.0024  0.0529 -0.4713
  660MPD2    H7 9777   4.527   3.217  12.569  0.0482  0.7602  1.9502
  661TMC3    C1 9778   4.400   3.320  12.398 -0.7167 -0.2371 -0.4454
  661TMC3    C2 9779   4.534   3.312  12.351  0.5061  0.2012 -0.4400
  661TMC3    C3 9780   4.569   3.404  12.258 -0.0008  0.0561  0.2527
  661TMC3    C4 9781   4.312   3.414  12.349  0.0514  0.2510 -0.2252
  661TMC3    C5 9782   4.358   3.505  12.256  0.4298  0.3356 -0.2840
  661TMC3    C6 9783   4.491   3.507  12.219  0.2867 -0.0384 -0.5489
  661TMC3     C 9784   4.347   3.230  12.496 -0.0614  0.7161 -0.6530
  661TMC3     O 9785   4.225   3.230  12.507  0.4822  0.4576  0.0376
  661TMC3     H 9786   4.599   3.239  12.398 -0.6016 -0.7455 -0.3595
  661TMC3    H1 9787   4.208   3.404  12.379 -0.1140 -0.4873 -1.0535
  661TMC3    H2 9788   4.528   3.578  12.147 -0.3413  1.2094  0.3656
  661TMC3    C7 9789   4.267   3.589  12.181 -0.2995 -0.3889  0.7250
  661TMC3    C8 9790   4.680   3.372  12.174 -0.9272  0.8388 -0.1198
  661TMC3    O1 9791   4.309   3.694  12.135  0.1475  0.1405  0.5386
  661TMC3    O2 9792   4.696   3.253  12.153  0.3772  0.5695  0.3643
  662MPD2     C 9793   4.332   3.288  16.959  0.2024  0.5194 -0.4474
  662MPD2    C1 9794   4.340   3.273  17.100  0.0539  0.5714  0.5225
  662MPD2    C2 9795   4.342   3.389  17.175 -0.2062 -0.1209 -1.0649
  662MPD2    C3 9796   4.338   3.520  17.124 -0.2134 -0.3320  0.9668
  662MPD2    C4 9797   4.332   3.528  16.986 -0.1387 -0.7488 -0.6937
  662MPD2    C5 9798   4.323   3.419  16.911 -0.0931  0.5700  0.6008
  662MPD2     H 9799   4.354   3.384  17.283 -1.2512  0.0004 -0.9428
  662MPD2    H1 9800   4.332   3.622  16.932 -0.8136 -0.9592 -1.0552
  662MPD2    H2 9801   4.322   3.206  16.888 -1.7582  0.8467 -0.5300
  662MPD2    H3 9802   4.324   3.430  16.803 -1.1096 -0.4263  0.4893
  662MPD2     N 9803   4.344   3.643  17.195 -0.3520  0.2036 -0.0948
  662MPD2    H5 9804   4.347   3.724  17.134  0.5223 -1.8588 -2.8256
  662MPD2    N1 9805   4.351   3.152  17.167 -0.0395  0.5379  0.7586
  662MPD2    H7 9806   4.347   3.152  17.268 -0.2169 -1.8583  0.7740
  663TMC3    C1 9807   4.324   2.932  17.208 -0.1604 -0.1140 -0.6789
  663TMC3    C2 9808   4.269   2.968  17.325 -0.0354  0.9343  0.1725
  663TMC3    C3 9809   4.198   2.872  17.389 -0.4353 -0.4364 -0.2289
  663TMC3    C4 9810   4.355   2.795  17.182  0.0976 -0.1393  0.1223
  663TMC3    C5 9811   4.294   2.705  17.260  0.1238 -0.1687  0.1198
  663TMC3    C6 9812   4.218   2.739  17.366 -0.5000 -0.4026 -0.6680
  663TMC3     C 9813   4.348   3.030  17.105  0.4454  0.0249 -0.5709
  663TMC3     O 9814   4.383   2.995  16.995  0.6171 -0.2351 -0.5717
  663TMC3     H 9815   4.216   3.063  17.330  0.3980  1.0419  2.3725
  663TMC3    H1 9816   4.417   2.764  17.099 -2.3576 -0.7864 -1.4897
  663TMC3    H2 9817   4.144   2.668  17.403  0.3286 -0.2978  1.1858
  663TMC3    C7 9818   4.302   2.570  17.209  0.3969 -0.9041 -0.0452
  663TMC3    C8 9819   4.057   2.897  17.364  0.5511 -0.2285 -0.3326
  663TMC3    O1 9820   4.347   2.555  17.089  1.1545 -0.0694  0.0947
  663TMC3    O2 9821   4.016   2.942  17.262 -0.0486 -0.5882 -0.0457
  664MPD2     C 9822   2.862   1.212  17.676  0.2004  0.3958 -0.4694
  664MPD2    C1 9823   2.857   1.351  17.659 -0.2199  0.0090  0.1763
  664MPD2    C2 9824   2.844   1.433   0.067  0.2083  0.5201  0.0208
  664MPD2    C3 9825   2.827   1.376   0.192  0.2842 -0.0907  0.4108
  664MPD2    C4 9826   2.827   1.243   0.204 -0.5165 -0.4610 -0.3706
  664MPD2    C5 9827   2.845   1.158   0.098  0.1885 -0.1723  0.5664
  664MPD2     H 9828   2.850   1.540   0.054  0.5969  0.2021 -2.4160
  664MPD2    H1 9829   2.806   1.200   0.302  3.1950 -0.4352  0.4375
  664MPD2    H2 9830   2.877   1.140  17.596 -0.9402 -0.5931  0.2157
  664MPD2    H3 9831   2.845   1.051   0.115 -2.4631 -0.1948  0.3702
  664MPD2     N 9832   2.804   1.463   0.299  0.2277  0.0040  0.3898
  664MPD2    H5 9833   2.798   1.561   0.274  0.1385 -0.7938 -2.7219
  664MPD2    N1 9834   2.881   1.418  17.540 -0.5800  0.0506 -0.3395
  664MPD2    H7 9835   2.884   1.520  17.536 -2.8861 -0.0119 -2.9268
  665TMC3    C1 9836   2.769   1.548   0.517  0.5191  0.0837 -0.1410
  665TMC3    C2 9837   2.813   1.552   0.640 -0.1644 -0.2186 -0.8178
  665TMC3    C3 9838   2.800   1.657   0.721  0.3033  0.0664 -0.3373
  665TMC3    C4 9839   2.700   1.653   0.471  0.1277  0.7302 -0.5486
  665TMC3    C5 9840   2.689   1.767   0.548 -0.2883 -0.5268 -0.3794
  665TMC3    C6 9841   2.744   1.769   0.674 -0.3228  0.7075 -0.2779
  665TMC3     C 9842   2.805   1.437   0.434  0.1877 -0.2925 -0.4460
  665TMC3     O 9843   2.849   1.339   0.491 -0.2269 -0.2668 -0.0463
  665TMC3     H 9844   2.862   1.468   0.688  0.2318  0.8986  0.7212
  665TMC3    H1 9845   2.647   1.650   0.376 -1.3126  1.3787  0.2416
  665TMC3    H2 9846   2.744   1.864   0.726  2.1578  1.4399 -1.6251
  665TMC3    C7 9847   2.611   1.878   0.491 -0.1133 -0.4203 -0.1005
  665TMC3    C8 9848   2.783   1.639   0.858  0.1075  0.5820 -0.2022
  665TMC3    O1 9849   2.565   1.860   0.378 -0.0579 -0.3914  0.0359
  665TMC3    O2 9850   2.884   1.647   0.936 -0.4222 -0.6509  0.0039
  666TMC3    C1 9851   1.992   1.189  10.052  0.4613  0.0428 -0.1527
  666TMC3    C2 9852   2.082   1.098  10.099 -0.2780 -0.4715 -0.0791
  666TMC3    C3 9853   2.208   1.136  10.133  0.3927 -0.0530 -0.2727
  666TMC3    C4 9854   2.012   1.323  10.068 -0.2506 -0.0379 -0.3406
  666TMC3    C5 9855   2.133   1.361  10.121 -0.3832 -0.2801  0.1310
  666TMC3    C6 9856   2.235   1.269  10.150 -0.5362  0.2852  0.0730
  666TMC3     C 9857   1.870   1.143   9.998 -0.0439 -0.4148  0.5839
  666TMC3     O 9858   1.791   1.222   9.949 -0.2973 -0.3858  0.2150
  666TMC3     H 9859   2.064   0.991  10.095 -3.2323  0.0638 -0.8423
  666TMC3    H1 9860   1.940   1.397  10.033 -0.1711 -0.3045 -1.0733
  666TMC3    H2 9861   2.331   1.295  10.192  1.1442 -2.6959 -1.9789
  666TMC3    C7 9862   2.169   1.505  10.124  0.4189 -0.1494 -0.0868
  666TMC3    C8 9863   2.290   1.038  10.204  0.3405 -0.1691  0.3471
  666TMC3    O1 9864   2.075   1.577  10.111  0.0557 -0.2441 -0.0663
  666TMC3    O2 9865   2.225   0.944  10.242 -0.2364  0.0003 -0.0318
  667MPD2     C 9866   2.849   1.547  14.556  0.1358  0.3995  0.2234
  667MPD2    C1 9867   2.804   1.445  14.638  0.1969 -0.5649  0.0358
  667MPD2    C2 9868   2.686   1.382  14.604  0.2645 -0.3709  0.5981
  667MPD2    C3 9869   2.643   1.401  14.470 -0.1474  0.5680  0.0573
  667MPD2    C4 9870   2.695   1.507  14.393 -0.1437  0.7479  0.5685
  667MPD2    C5 9871   2.794   1.583  14.437  0.1694  0.2981  0.2473
  667MPD2     H 9872   2.640   1.312  14.672  0.7641 -0.5816  0.7229
  667MPD2    H1 9873   2.660   1.523  14.291  0.5720 -2.7125 -0.2505
  667MPD2    H2 9874   2.933   1.610  14.584  0.1176 -0.9826  3.3236
  667MPD2    H3 9875   2.841   1.659  14.376  2.8863 -0.2469  1.6681
  667MPD2     N 9876   2.548   1.326  14.400  0.2040 -0.3036 -0.0277
  667MPD2    H5 9877   2.535   1.343  14.301  1.3879  0.9498  0.0242
  667MPD2    N1 9878   2.867   1.415  14.761 -0.1460  0.3932  0.5769
  667MPD2    H7 9879   2.804   1.366  14.823 -2.2557  1.8638 -0.3757
  668TMC3    C1 9880   3.033   1.467  14.928  0.6333  0.2848 -0.8843
  668TMC3    C2 9881   3.151   1.538  14.945  0.2966  0.0531  0.1050
  668TMC3    C3 9882   3.199   1.555  15.078  0.5230 -0.1534 -0.1983
  668TMC3    C4 9883   2.955   1.438  15.040  0.7610  0.0640  0.1697
  668TMC3    C5 9884   2.999   1.456  15.167 -0.1489  0.6667  0.7705
  668TMC3    C6 9885   3.120   1.514  15.186 -0.4569 -0.8965 -0.3469
  668TMC3     C 9886   2.997   1.452  14.789 -0.4042  0.0091  0.6257
  668TMC3     O 9887   3.076   1.489  14.706 -0.5715  0.0577 -0.7740
  668TMC3     H 9888   3.215   1.568  14.863 -1.3278  2.1872 -0.3984
  668TMC3    H1 9889   2.868   1.374  15.028  1.0461 -0.7384  2.2947
  668TMC3    H2 9890   3.163   1.522  15.285 -0.0613 -1.5981 -0.4593
  668TMC3    C7 9891   2.922   1.422  15.282 -0.0158  0.3697  0.2175
  668TMC3    C8 9892   3.336   1.594  15.110 -0.5765 -0.5800  0.9357
  668TMC3    O1 9893   2.983   1.413  15.392  0.1837 -0.5564 -0.3192
  668TMC3    O2 9894   3.378   1.568  15.224 -0.4164  0.2908  0.5688
  669TMC3    C1 9895   1.486   1.166  14.577  0.2630 -0.0824  0.4249
  669TMC3    C2 9896   1.355   1.210  14.571 -0.5189  0.0462  0.7952
  669TMC3    C3 9897   1.320   1.316  14.493 -0.0161  0.6652 -0.3163
  669TMC3    C4 9898   1.588   1.247  14.523 -0.1697  0.7079  0.7410
  669TMC3    C5 9899   1.548   1.360  14.455 -0.2478 -0.4099  0.1262
  669TMC3    C6 9900   1.416   1.392  14.430  0.1648 -1.2022  0.3699
  669TMC3     C 9901   1.511   1.035  14.634 -0.0889  0.3329 -0.2003
  669TMC3     O 9902   1.410   0.965  14.647 -0.0262 -0.0395  0.7355
  669TMC3     H 9903   1.279   1.147  14.616  1.7561 -1.2822  2.7838
  669TMC3    H1 9904   1.691   1.219  14.543  0.1387  1.4079  0.1445
  669TMC3    H2 9905   1.382   1.461  14.354  1.0295  0.0045  1.0697
  669TMC3    C7 9906   1.649   1.448  14.401  0.4801  0.2374  0.6177
  669TMC3    C8 9907   1.183   1.316  14.448 -0.9909 -0.1357 -0.0357
  669TMC3    O1 9908   1.615   1.539  14.322 -0.2040 -0.2246  0.4858
  669TMC3    O2 9909   1.151   1.351  14.336  0.1105  0.3819  0.5622
  670MPD2     C 9910   4.176   4.003  13.245  0.6791 -0.1823 -0.2498
  670MPD2    C1 9911   4.287   3.918  13.243  0.3481  0.1326 -0.2919
  670MPD2    C2 9912   4.279   3.819  13.340 -0.7444 -0.4358  0.0532
  670MPD2    C3 9913   4.167   3.796  13.423 -0.8252  0.4403  0.5809
  670MPD2    C4 9914   4.062   3.877  13.399 -0.5110 -0.4965 -0.2635
  670MPD2    C5 9915   4.068   3.981  13.316 -0.7929 -0.2613 -0.4062
  670MPD2     H 9916   4.367   3.762  13.367  1.2311  0.8911 -3.6034
  670MPD2    H1 9917   3.969   3.859  13.450  0.4546 -2.0999  0.9211
  670MPD2    H2 9918   4.175   4.085  13.174  2.0519 -0.4401 -0.5494
  670MPD2    H3 9919   3.983   4.045  13.293 -0.1391  0.7970  0.1225
  670MPD2     N 9920   4.179   3.692  13.515  0.1453  0.0593 -0.0223
  670MPD2    H5 9921   4.270   3.647  13.514  1.0214  1.8347 -0.3987
  670MPD2    N1 9922   4.401   3.942  13.169  0.1915  0.0819  0.0534
  670MPD2    H7 9923   4.481   3.882  13.188 -0.7871 -1.5201 -0.8586
  671TMC3    C1 9924   4.114   3.501  13.632  0.6744 -0.2085  0.3381
  671TMC3    C2 9925   4.192   3.512  13.743 -1.1036  0.1422  0.2704
  671TMC3    C3 9926   4.168   3.429  13.847  0.6640 -0.0194  0.1357
  671TMC3    C4 9927   4.012   3.412  13.633 -0.8627  0.2892  0.1802
  671TMC3    C5 9928   3.997   3.324  13.739  0.5745 -0.0397 -0.5695
  671TMC3    C6 9929   4.085   3.321  13.846 -0.5505  0.1387 -0.0181
  671TMC3     C 9930   4.077   3.630  13.579  0.1470 -0.3810  0.1542
  671TMC3     O 9931   3.959   3.639  13.557  0.1965 -0.2114 -0.0740
  671TMC3     H 9932   4.264   3.592  13.757  1.1989 -1.7031 -0.9006
  671TMC3    H1 9933   3.954   3.396  13.542  0.1653 -0.3115 -0.3756
  671TMC3    H2 9934   4.078   3.245  13.923  0.2228 -0.2752 -0.3577
  671TMC3    C7 9935   3.937   3.194  13.700 -0.3426 -0.4052 -0.2490
  671TMC3    C8 9936   4.293   3.395  13.903  0.2942  0.1575  0.2342
  671TMC3    O1 9937   3.958   3.167  13.585 -0.0045  0.0637 -0.2084
  671TMC3    O2 9938   4.374   3.355  13.821 -0.4015  0.8614 -1.2504
  672MPD2     C 9939   4.313   4.182   1.558  0.5145  1.0815  0.1044
  672MPD2    C1 9940   4.368   4.094   1.472 -0.2452 -0.1394  0.2623
  672MPD2    C2 9941   4.496   4.103   1.424 -0.2231 -0.2017 -0.3006
  672MPD2    C3 9942   4.559   4.224   1.442 -0.3111 -0.3172 -0.2392
  672MPD2    C4 9943   4.506   4.316   1.535  0.2738  0.9530  0.5437
  672MPD2    C5 9944   4.385   4.288   1.589  0.6657 -0.1905 -0.4464
  672MPD2     H 9945   4.534   4.020   1.365  0.5107 -0.1573  0.0978
  672MPD2    H1 9946   4.558   4.398   1.583 -0.1082  1.0296  0.8205
  672MPD2    H2 9947   4.217   4.167   1.606 -0.2343  0.4363 -1.5641
  672MPD2    H3 9948   4.349   4.356   1.665  2.2242 -0.6506  0.7026
  672MPD2     N 9949   4.672   4.273   1.371  0.3532  0.0390  0.2420
  672MPD2    H5 9950   4.709   4.364   1.393  0.2600  0.4961 -1.4447
  672MPD2    N1 9951   4.309   3.970   1.426  0.6406 -0.2094  0.2148
  672MPD2    H7 9952   4.373   3.912   1.372  1.0856  0.3586  0.1265
  673TMC3    C1 9953   4.163   3.865   1.299 -0.4429  0.1924  0.9471
  673TMC3    C2 9954   4.183   3.738   1.334 -0.4628  0.2651 -0.1953
  673TMC3    C3 9955   4.240   3.644   1.248 -0.3957  0.1910 -0.0037
  673TMC3    C4 9956   4.221   3.911   1.182  0.0687  0.3648 -0.1253
  673TMC3    C5 9957   4.299   3.819   1.110  1.8293 -0.6417 -0.0023
  673TMC3    C6 9958   4.308   3.685   1.138  0.1757 -0.1119 -0.3621
  673TMC3     C 9959   4.180   3.954   1.409 -0.4425  0.7971  0.4299
  673TMC3     O 9960   4.086   4.029   1.445  0.2856 -0.1876 -0.7445
  673TMC3     H 9961   4.149   3.711   1.434  0.1092 -3.0230 -0.8680
  673TMC3    H1 9962   4.224   4.017   1.160 -1.8841 -0.1910 -3.1494
  673TMC3    H2 9963   4.349   3.614   1.067  0.8563  0.3066 -0.3834
  673TMC3    C7 9964   4.398   3.875   1.021  0.1782 -0.2089  0.1380
  673TMC3    C8 9965   4.299   3.533   1.314  0.8747 -0.2566 -0.3313
  673TMC3    O1 9966   4.445   3.790   0.949  0.1066 -1.1728  0.2246
  673TMC3    O2 9967   4.223   3.468   1.394 -0.1620  0.3585 -0.3675
  674MPD2     C 9968   4.658   3.855  17.656  0.0000 -0.1784 -0.0494
  674MPD2    C1 9969   4.620   3.757   0.038  0.7254  0.1396  0.0362
  674MPD2    C2 9970   4.577   3.788   0.165 -0.3469  0.2811  0.4690
  674MPD2    C3 9971   4.589   3.918   0.207 -0.4641  0.4626  0.2698
  674MPD2    C4 9972   4.631   4.025   0.131 -0.3612  0.0114 -0.4317
  674MPD2    C5 9973   4.670   3.983   0.001  0.0099 -0.4120 -0.5086
  674MPD2     H 9974   4.547   3.706   0.229 -0.0023  0.9822  1.5290
  674MPD2    H1 9975   4.641   4.129   0.157  2.5058 -0.3450 -0.0709
  674MPD2    H2 9976   4.710   3.830  17.564  1.3946  1.3618  0.3228
  674MPD2    H3 9977   4.712   4.051  17.630 -0.0219 -1.6242 -1.6529
  674MPD2     N 9978   4.544   3.929   0.340  0.5000 -0.5133  0.3020
  674MPD2    H5 9979   4.504   3.843   0.375  0.4100  0.0373  1.5495
  674MPD2    N1 9980   4.632   3.619   0.002 -0.3574 -0.1130 -0.1826
  674MPD2    H7 9981   4.616   3.549   0.074 -1.8218  1.1686  0.7188
  675TMC3    C1 9982   4.652   3.419  17.606  0.1115 -0.3507 -0.4791
  675TMC3    C2 9983   4.543   3.356  17.551 -0.2700  0.2013 -0.8126
  675TMC3    C3 9984   4.477   3.258  17.619 -0.7937 -0.2674  0.3972
  675TMC3    C4 9985   4.705   3.374   0.016  0.0667 -0.1863 -0.5611
  675TMC3    C5 9986   4.643   3.275   0.087 -0.2978 -1.0831 -0.2288
  675TMC3    C6 9987   4.518   3.228   0.044  0.0175 -0.8001 -0.2411
  675TMC3     C 9988   4.663   3.565  17.587  0.0427 -0.3409 -0.2928
  675TMC3     O 9989   4.620   3.620  17.484  0.0879 -0.0182  0.0045
  675TMC3     H 9990   4.495   3.401  17.464  0.2928 -0.8766 -1.6732
  675TMC3    H1 9991   0.070   3.421   0.053  0.5401 -1.8035  0.3754
  675TMC3    H2 9992   4.469   3.148   0.099 -0.5500 -2.0646 -2.6206
  675TMC3    C7 9993   4.689   3.240   0.219 -0.2613 -1.1754 -0.3690
  675TMC3    C8 9994   4.337   3.223  17.584 -0.6622  0.0756 -0.2982
  675TMC3    O1 9995   4.613   3.189   0.302 -0.2812 -0.2975 -0.1669
  675TMC3    O2 9996   4.305   3.248  17.468 -0.0147 -0.1122 -0.5741
  676MPD2     C 9997   3.160   2.354  11.129 -0.9314  0.9350  0.7061
  676MPD2    C1 9998   3.026   2.359  11.172 -0.0119  0.8386  0.8059
  676MPD2    C2 9999   2.935   2.268  11.138 -0.5898  0.2031 -0.9769
  676MPD2    C310000   2.975   2.163  11.057 -0.2574 -0.4896  0.2248
  676MPD2    C410001   3.108   2.143  11.028 -0.1016  0.2849 -0.1289
  676MPD2    C510002   3.199   2.239  11.062 -0.4968 -0.3402 -0.5384
  676MPD2     H10003   2.837   2.273  11.184  1.0005 -0.4601  2.4999
  676MPD2    H110004   3.132   2.058  10.965 -0.2471  1.0642 -1.2251
  676MPD2    H210005   3.235   2.429  11.152 -0.4150 -0.0122  2.0972
  676MPD2    H310006   3.304   2.226  11.040 -0.0958  3.2665 -0.8389
  676MPD2     N10007   2.887   2.067  11.006 -0.4614 -0.3737 -0.1129
  676MPD2    H510008   2.924   1.993  10.947 -1.0923 -0.8426  0.0764
  676MPD2    N110009   2.980   2.466  11.246 -0.2277  0.6111 -0.3282
  676MPD2    H710010   2.885   2.463  11.282  0.0928 -0.8945  0.3614
  677TMC3    C110011   3.001   2.639  11.397 -0.6254 -0.5219  0.1382
  677TMC3    C210012   2.915   2.565  11.478  0.8561  0.6169 -0.1885
  677TMC3    C310013   2.875   2.624  11.602  0.3041 -0.1241 -0.0232
  677TMC3    C410014   3.047   2.768  11.424  0.1136 -0.3491 -0.6278
  677TMC3    C510015   3.001   2.820  11.549  0.2284 -0.0663 -0.0212
  677TMC3    C610016   2.908   2.755  11.632 -0.1557  0.8558  0.1355
  677TMC3     C10017   3.052   2.576  11.281 -0.3197  0.6479 -0.1062
  677TMC3     O10018   3.151   2.619  11.226 -0.1968 -0.2025 -0.7061
  677TMC3     H10019   2.915   2.457  11.470 -2.5694  0.6949 -1.0058
  677TMC3    H110020   3.122   2.813  11.360 -1.3508  1.4920 -1.0512
  677TMC3    H210021   2.867   2.800  11.721 -0.6236  1.3979 -0.3504
  677TMC3    C710022   3.081   2.918  11.615  0.0998 -0.3439  0.5462
  677TMC3    C810023   2.808   2.550  11.705  0.4222  0.3015  0.2947
  677TMC3    O110024   3.053   2.940  11.733 -0.3773 -0.2355  0.2510
  677TMC3    O210025   2.819   2.593  11.820  0.5290  0.1544 -0.0068
  678MPD2     C10026   3.488   2.870   1.749 -0.1804  0.1258  0.3444
  678MPD2    C110027   3.483   2.858   1.615  0.1581  0.1961  0.6405
  678MPD2    C210028   3.359   2.869   1.565 -0.0883 -0.0562  0.3103
  678MPD2    C310029   3.241   2.876   1.633 -1.0201  0.5417 -0.6405
  678MPD2    C410030   3.253   2.868   1.772 -0.1032  0.1292 -0.7283
  678MPD2    C510031   3.375   2.880   1.832  0.5414 -0.0748 -0.4949
  678MPD2     H10032   3.349   2.872   1.457 -0.7174  1.8806  0.4225
  678MPD2    H110033   3.161   2.873   1.829  0.9476  1.8820  0.8203
  678MPD2    H210034   3.584   2.885   1.798  0.2963  1.2814 -0.9424
  678MPD2    H310035   3.395   2.895   1.937 -0.8520 -1.5845  0.0100
  678MPD2     N10036   3.123   2.892   1.559 -0.0918 -0.1542  0.1876
  678MPD2    H510037   3.132   2.883   1.458  0.3367 -0.3631  0.2431
  678MPD2    N110038   3.593   2.843   1.527  0.3101  0.2159  0.4418
  678MPD2    H710039   3.566   2.851   1.429  0.4842 -0.1367  0.3664
  679TMC3    C110040   4.033   2.793   1.387 -0.2716  0.1168 -0.2591
  679TMC3    C210041   3.938   2.785   1.487 -0.3536 -0.0876 -0.0061
  679TMC3    C310042   3.825   2.860   1.470 -0.0026  0.0270  0.3417
  679TMC3    C410043   4.013   2.863   1.270  0.1833 -0.5997 -0.5328
  679TMC3    C510044   3.883   2.913   1.247 -0.2835 -0.1213 -0.2415
  679TMC3    C610045   3.793   2.918   1.348  0.4238 -0.0916  0.2203
  679TMC3     C10046   4.126   2.686   1.371 -0.1197  0.0924  0.0868
  679TMC3     O10047   4.227   2.707   1.299 -0.4872  0.2426 -0.1731
  679TMC3     H10048   3.956   2.725   1.576  0.1220 -0.8036 -0.5767
  679TMC3    H110049   4.084   2.850   1.189 -0.6089  0.8060 -1.4593
  679TMC3    H210050   3.701   2.972   1.329 -1.0694 -2.9106 -0.7468
  679TMC3    C710051   3.824   2.908   1.118  0.2595  0.2827  0.7059
  679TMC3    C810052   3.723   2.835   1.571 -0.2263 -0.2212  0.4868
  679TMC3    O110053   3.704   2.893   1.093  0.2489  0.0051 -0.0319
  679TMC3    O210054   3.763   2.789   1.674  0.6923  0.5072 -0.0328
  680MPD2     C10055   3.990   0.981  13.430 -0.1030 -0.0603  0.7580
  680MPD2    C110056   4.082   0.914  13.508 -1.0895  0.0487 -0.3471
  680MPD2    C210057   4.148   1.002  13.594 -0.5312  0.0608 -0.6573
  680MPD2    C310058   4.115   1.138  13.609  0.5488  0.2576 -0.6256
  680MPD2    C410059   4.008   1.191  13.541  0.0874 -0.4644  0.1979
  680MPD2    C510060   3.942   1.110  13.453 -0.0466  0.3998 -0.5465
  680MPD2     H10061   4.240   0.970  13.641 -1.0323 -1.6601 -0.8483
  680MPD2    H110062   3.968   1.289  13.567  4.3434  1.6746 -1.4162
  680MPD2    H210063   3.935   0.938  13.346 -1.5737  0.1295  1.6332
  680MPD2    H310064   3.866   1.152  13.388 -0.7960  0.9585  0.6905
  680MPD2     N10065   4.186   1.230  13.689 -0.0571  0.2165 -0.7148
  680MPD2    H510066   4.155   1.326  13.685  1.7515  0.8879  1.5822
  680MPD2    N110067   4.094   0.776  13.495 -0.2090  0.0685  0.1682
  680MPD2    H710068   4.029   0.732  13.430 -0.8806  2.5372 -0.8275
  681TMC3    C110069   4.111   0.563  13.532 -0.7528 -0.2987  0.0208
  681TMC3    C210070   4.062   0.490  13.635  0.0566  0.3436 -0.5477
  681TMC3    C310071   4.002   0.371  13.603  0.5124 -0.0914 -0.3960
  681TMC3    C410072   4.090   0.529  13.397 -0.4734 -0.2056  0.1634
  681TMC3    C510073   4.023   0.409  13.370 -0.3274 -0.5560 -0.1141
  681TMC3    C610074   3.978   0.331  13.473 -0.9826  0.1626 -0.2704
  681TMC3     C10075   4.171   0.685  13.561  0.3437  0.3188 -0.0405
  681TMC3     O10076   4.234   0.704  13.665 -0.8155  0.1069  0.2690
  681TMC3     H10077   4.091   0.528  13.732  0.1429 -4.7524  1.4614
  681TMC3    H110078   4.150   0.577  13.320  0.5105 -0.8304  0.5411
  681TMC3    H210079   3.931   0.236  13.452  0.6824 -0.9542  0.9974
  681TMC3    C710080   4.029   0.338  13.250 -0.5048 -0.6637 -0.0120
  681TMC3    C810081   3.918   0.311  13.715  0.5134  0.5193  0.1032
  681TMC3    O110082   4.013   0.216  13.259 -0.8358  0.1472  0.4158
  681TMC3    O210083   3.825   0.240  13.677  0.3246  0.0328 -0.1116
  682MPD2     C10084   2.234   2.714  10.782 -0.0446 -0.3206  0.6613
  682MPD2    C110085   2.179   2.598  10.825 -0.1354  0.0903  1.0143
  682MPD2    C210086   2.112   2.595  10.944  0.2746 -0.2928  0.1768
  682MPD2    C310087   2.084   2.707  11.010  0.4998 -0.4058  0.1315
  682MPD2    C410088   2.134   2.831  10.958  0.2905  0.3587  0.5501
  682MPD2    C510089   2.212   2.831  10.848  0.0002  0.0129 -0.3931
  682MPD2     H10090   2.066   2.506  10.984 -1.4120  0.2435 -0.5674
  682MPD2    H110091   2.112   2.928  11.001 -1.7656 -0.5042  1.4042
  682MPD2    H210092   2.281   2.721  10.685  2.8621  1.6791  2.2185
  682MPD2    H310093   2.241   2.927  10.806 -1.3096  1.0282  1.0047
  682MPD2     N10094   2.006   2.707  11.124  0.1400  0.4145  0.5230
  682MPD2    H510095   1.988   2.799  11.161  0.6503  1.6562 -2.3044
  682MPD2    N110096   2.183   2.476  10.753 -0.1530 -0.3565 -0.0921
  682MPD2    H710097   2.133   2.400  10.799  1.6337 -0.4613  1.6945
  683TMC3    C110098   1.854   2.778  11.502 -0.5975 -0.4099 -0.4591
  683TMC3    C210099   1.729   2.720  11.524 -0.4100  0.2451 -1.0814
  683TMC3    C310100   1.698   2.618  11.442  0.0576  0.7671 -0.0743
  683TMC3    C410101   1.925   2.738  11.387 -0.0399  0.1000  0.0545
  683TMC3    C510102   1.876   2.649  11.294  0.3118  0.2027  0.7274
  683TMC3    C610103   1.774   2.571  11.336  0.5420 -0.1315  0.1538
  683TMC3     C10104   1.902   2.872  11.601  0.3491 -0.5813 -0.2128
  683TMC3     O10105   1.838   2.875  11.706 -0.4661 -0.3217  0.0364
  683TMC3     H10106   1.672   2.753  11.610  1.4658 -0.9755  0.6530
  683TMC3    H110107   2.022   2.777  11.359  0.1702 -0.7123 -0.3535
  683TMC3    H210108   1.730   2.495  11.272  1.6162  1.1110 -2.0427
  683TMC3    C710109   1.953   2.600  11.188 -0.5332 -0.7230 -0.3529
  683TMC3    C810110   1.579   2.551  11.477 -0.0257  0.2735  0.1933
  683TMC3    O110111   1.942   2.486  11.154 -0.2604  0.1489 -0.1796
  683TMC3    O210112   1.502   2.619  11.536  0.4756  0.1833  0.2368
  684MPD2     C10113   3.977   1.893  16.698 -0.4920  0.0589  0.1734
  684MPD2    C110114   4.010   1.940  16.576 -0.3971 -0.0125  0.6212
  684MPD2    C210115   3.935   2.040  16.525  0.0888 -1.1798 -0.1593
  684MPD2    C310116   3.854   2.123  16.599  0.7804  0.3402  0.8465
  684MPD2    C410117   3.824   2.087  16.722  0.3660  0.3416 -0.2705
  684MPD2    C510118   3.884   1.968  16.765  0.1367 -0.8673  0.8210
  684MPD2     H10119   3.957   2.080  16.427 -0.4717 -2.2775 -0.7334
  684MPD2    H110120   3.760   2.149  16.783  0.7239  0.0539  0.3958
  684MPD2    H210121   4.015   1.802  16.743 -0.4077  0.3843  0.7541
  684MPD2    H310122   3.857   1.937  16.865 -0.5375  0.9410  1.1961
  684MPD2     N10123   3.797   2.246  16.558 -0.4011 -0.1722  0.9686
  684MPD2    H510124   3.749   2.301  16.628 -0.4507  0.0135  0.7866
  684MPD2    N110125   4.108   1.880  16.497 -0.5799 -0.4195 -0.4674
  684MPD2    H710126   4.105   1.902  16.398 -1.4451 -4.2512 -1.2959
  685TMC3    C110127   4.271   1.725  16.434  0.2414 -0.3482  0.7112
  685TMC3    C210128   4.212   1.702  16.309  0.0218 -0.0705 -0.2749
  685TMC3    C310129   4.266   1.608  16.226 -0.5058  1.0937 -0.0796
  685TMC3    C410130   4.389   1.660  16.472 -0.1934  0.3488 -0.2903
  685TMC3    C510131   4.445   1.580  16.382 -0.3688 -0.1809  0.2975
  685TMC3    C610132   4.389   1.547  16.257  0.1404  0.2202  0.4146
  685TMC3     C10133   4.197   1.793  16.541  0.0474  0.2712  0.1280
  685TMC3     O10134   4.233   1.770  16.657 -0.6659  0.1588  0.4747
  685TMC3     H10135   4.122   1.756  16.284  0.1874 -0.4746 -1.7602
  685TMC3    H110136   4.422   1.673  16.575 -1.2545 -0.6038  0.1711
  685TMC3    H210137   4.426   1.461  16.203  1.7263  0.6599  0.7977
  685TMC3    C710138   4.571   1.522  16.410 -0.6475 -0.8403 -0.7984
  685TMC3    C810139   4.222   1.590  16.092 -0.3570 -0.7307 -0.4547
  685TMC3    O110140   4.605   1.502  16.529 -0.1598  0.3251  0.0733
  685TMC3    O210141   4.310   1.547  16.017 -0.1474 -0.3395 -0.2015
  686MPD2     C10142   1.359   1.506  15.385  0.2142  0.1423 -0.3011
  686MPD2    C110143   1.252   1.465  15.456  0.0845  0.1524  0.0764
  686MPD2    C210144   1.192   1.345  15.425 -0.3137  0.3394  0.0361
  686MPD2    C310145   1.262   1.259  15.342  0.2965  0.7255 -0.9336
  686MPD2    C410146   1.371   1.301  15.272  0.0636  0.3987 -0.3327
  686MPD2    C510147   1.413   1.429  15.287  0.9070  0.8045 -0.3960
  686MPD2     H10148   1.108   1.301  15.477  1.4055 -1.8943  0.9059
  686MPD2    H110149   1.426   1.237  15.204  0.4396  0.6996 -0.3091
  686MPD2    H210150   1.401   1.605  15.397  3.1916 -1.0743 -0.6395
  686MPD2    H310151   1.502   1.469  15.239  0.3337  1.4310 -0.9371
  686MPD2     N10152   1.219   1.121  15.309 -0.0697  0.1398  0.4414
  686MPD2    H510153   1.261   1.089  15.222 -0.9750  1.1482 -0.3746
  686MPD2    N110154   1.209   1.557  15.556 -0.3366 -0.2884 -0.4237
  686MPD2    H710155   1.271   1.634  15.576  1.2995 -1.2195 -1.9252
  687TMC3    C110156   1.066   1.064  15.494  0.4898  0.1144  0.3526
  687TMC3    C210157   0.935   1.068  15.532  0.4466 -0.1241 -0.4200
  687TMC3    C310158   0.912   1.051  15.667 -0.4285 -0.1476 -0.2424
  687TMC3    C410159   1.173   1.056  15.579  0.1504 -0.3814  0.0962
  687TMC3    C510160   1.144   1.043  15.711 -0.0464  0.2255 -0.2881
  687TMC3    C610161   1.017   1.026  15.749  0.1139  0.0480 -0.6662
  687TMC3     C10162   1.101   1.066  15.350 -0.9185 -0.2248 -0.1574
  687TMC3     O10163   1.023   1.014  15.272 -0.1227  0.7654 -0.0061
  687TMC3     H10164   0.856   1.090  15.462  1.2672  0.1771 -1.2481
  687TMC3    H110165   1.272   1.037  15.539 -0.4587  1.2585 -2.2154
  687TMC3    H210166   1.000   1.001  15.853 -1.1437 -1.1582 -1.1649
  687TMC3    C710167   1.219   1.129  15.797 -0.4392  0.2806 -0.1736
  687TMC3    C810168   0.790   1.095  15.733  0.2365  0.1304  0.0743
  687TMC3    O110169   1.198   1.124  15.917  0.1824 -0.2964  0.0517
  687TMC3    O210170   0.772   1.074  15.851  0.2062 -0.5380  0.2442
  688MPD2     C10171   0.388   0.680  17.360 -0.0178 -0.2776 -0.0901
  688MPD2    C110172   0.405   0.547  17.394  0.4211  0.2532 -0.1076
  688MPD2    C210173   0.508   0.473  17.332 -0.2181  0.5107 -0.1499
  688MPD2    C310174   0.587   0.531  17.234 -0.5553  0.3735  0.1480
  688MPD2    C410175   0.570   0.662  17.201  0.6361 -0.5704  0.0050
  688MPD2    C510176   0.472   0.737  17.259  0.1601  0.2991  0.3143
  688MPD2     H10177   0.526   0.375  17.373  1.6184  1.0832  0.4177
  688MPD2    H110178   0.615   0.699  17.110  1.8974 -1.6187  0.1948
  688MPD2    H210179   0.322   0.746  17.416  1.5973  0.5247  0.8600
  688MPD2    H310180   0.470   0.840  17.227  1.6024 -1.0603 -4.3419
  688MPD2     N10181   0.676   0.456  17.157  0.5308  0.0695 -0.4794
  688MPD2    H510182   0.731   0.507  17.088 -1.8492  0.7413 -1.8507
  688MPD2    N110183   0.329   0.478  17.493 -0.8424 -0.0103  0.4237
  688MPD2    H710184   0.374   0.391  17.518  0.2573  0.2269 -0.7345
  689TMC3    C110185   0.172   0.466  17.677  0.0394 -0.2394 -0.4833
  689TMC3    C210186   0.119   0.553   0.068 -0.3852 -0.1726  0.6396
  689TMC3    C310187   0.070   0.501   0.183  0.3885  0.0878  0.5142
  689TMC3    C410188   0.190   0.331  17.690 -0.4339  0.4374 -0.5999
  689TMC3    C510189   0.149   0.288   0.112 -0.2100  0.0486 -0.2751
  689TMC3    C610190   0.084   0.364   0.202  0.1409  0.7533 -0.1164
  689TMC3     C10191   0.214   0.534  17.559 -0.1146 -0.1145  0.3349
  689TMC3     O10192   0.155   0.638  17.522  0.0933 -0.7397 -0.3317
  689TMC3     H10193   0.105   0.656   0.039 -0.3289 -0.4546 -0.4081
  689TMC3    H110194   0.235   0.275  17.609  0.3829  0.2087  0.0049
  689TMC3    H210195   0.045   0.331   0.298  0.9097 -2.4087 -0.8625
  689TMC3    C710196   0.148   0.147   0.145 -0.1389 -0.5198  0.0966
  689TMC3    C810197   0.031   0.577   0.304  0.2848  0.3155 -0.3234
  689TMC3    O110198   0.174   0.117   0.262 -0.7478 -0.8397 -0.1556
  689TMC3    O210199   4.710   0.519   0.399  0.2431  0.6453  0.4751
  690MPD2     C10200   2.736   2.027  15.736  0.5276  0.5550  0.1353
  690MPD2    C110201   2.648   2.077  15.644  0.5853  0.4922  0.0139
  690MPD2    C210202   2.697   2.167  15.547  0.7135  0.2789 -0.1245
  690MPD2    C310203   2.831   2.200  15.537  0.6821 -0.1331  0.5254
  690MPD2    C410204   2.919   2.142  15.627  0.1161  0.0710  0.5792
  690MPD2    C510205   2.870   2.064  15.729  0.0560  0.0591 -0.2239
  690MPD2     H10206   2.639   2.215  15.469 -0.6419 -2.0672 -0.5451
  690MPD2    H110207   3.026   2.157  15.620  0.4001 -1.9933  0.4457
  690MPD2    H210208   2.708   1.958  15.814  0.5604  0.1454 -0.2115
  690MPD2    H310209   2.951   2.020  15.786 -2.0503 -1.9907  1.1602
  690MPD2     N10210   2.866   2.281  15.423 -0.4591 -0.0923  0.1287
  690MPD2    H510211   2.787   2.324  15.376 -0.1253  1.8902  1.3748
  690MPD2    N110212   2.520   2.025  15.638  0.0013 -0.1876 -0.4325
  690MPD2    H710213   2.460   2.061  15.565 -0.2663 -0.1289 -0.1824
  691TMC3    C110214   2.325   1.911  15.690  0.0869 -0.4816 -0.0894
  691TMC3    C210215   2.233   1.919  15.793 -0.6256 -0.3463 -0.5900
  691TMC3    C310216   2.104   1.929  15.767 -0.1324 -0.4794 -0.3146
  691TMC3    C410217   2.286   1.923  15.560 -0.1594 -0.2889  0.5445
  691TMC3    C510218   2.155   1.935  15.540  0.2111  0.0083 -0.5946
  691TMC3    C610219   2.063   1.940  15.637  0.4507 -0.0353 -0.3480
  691TMC3     C10220   2.461   1.947  15.728 -0.2788 -0.3873 -0.3940
  691TMC3     O10221   2.498   1.922  15.845 -0.7846 -0.0879  0.2067
  691TMC3     H10222   2.264   1.897  15.894  0.2118 -0.9976 -0.9852
  691TMC3    H110223   2.350   1.932  15.473 -1.2833  0.3684 -0.2179
  691TMC3    H210224   1.960   1.949  15.605  0.5580  0.3153 -0.5825
  691TMC3    C710225   2.097   1.902  15.408 -0.4571  0.6703 -0.2133
  691TMC3    C810226   2.021   1.986  15.867  0.2550  0.2906  0.4522
  691TMC3    O110227   2.151   1.959  15.312  0.3790 -0.1741  0.6715
  691TMC3    O210228   2.038   1.936  15.980 -0.9689 -0.0835  0.6621
  692TMC3    C110229   3.946   3.409  15.650 -0.1004 -0.3313  0.2971
  692TMC3    C210230   4.069   3.453  15.616 -0.5672 -0.2988  0.0374
  692TMC3    C310231   4.186   3.395  15.667 -0.1719 -0.0770  0.8783
  692TMC3    C410232   3.932   3.292  15.726 -1.2431 -0.1089  0.3767
  692TMC3    C510233   4.041   3.233  15.775  0.1032  0.0479 -0.1547
  692TMC3    C610234   4.166   3.277  15.740  0.9044  1.0751  0.1406
  692TMC3     C10235   3.843   3.504  15.698  0.0208  0.1791 -0.5349
  692TMC3     O10236   3.726   3.469  15.707  0.3983 -0.1659 -0.1540
  692TMC3     H10237   4.086   3.555  15.584 -2.3573 -0.2070 -0.5981
  692TMC3    H110238   3.836   3.245  15.744 -1.5794  0.1907 -0.5914
  692TMC3    H210239   4.248   3.236  15.798  1.1807  0.7464 -0.4826
  692TMC3    C710240   4.035   3.104  15.850 -0.2979  0.7729 -0.4263
  692TMC3    C810241   4.251   3.497  15.736  0.0240  0.3550  0.4399
  692TMC3    O110242   4.073   3.094  15.970  0.0208  0.3009 -0.2860
  692TMC3    O210243   4.301   3.580  15.662  0.4289  0.2955 -0.4353
  693MPD2     C10244   3.840   1.299  10.257  0.1161 -0.0301  0.2496
  693MPD2    C110245   3.797   1.224  10.368 -0.9368 -0.3713  0.5087
  693MPD2    C210246   3.891   1.166  10.444 -0.2967  0.1977  0.0748
  693MPD2    C310247   4.023   1.181  10.421  0.3287  0.2374 -0.3966
  693MPD2    C410248   4.066   1.241  10.310  0.5533  0.5006  0.9886
  693MPD2    C510249   3.977   1.296  10.226 -0.9004  0.2702 -0.1581
  693MPD2     H10250   3.854   1.109  10.528  1.8165 -2.0127 -0.4954
  693MPD2    H110251   4.167   1.231  10.272 -0.1052  0.7172 -0.8204
  693MPD2    H210252   3.779   1.352  10.184  1.2901  2.4628  1.1008
  693MPD2    H310253   4.014   1.335  10.132 -1.3917  1.8169  0.2960
  693MPD2     N10254   4.123   1.105  10.492  0.3921  0.5547 -0.4309
  693MPD2    H510255   4.218   1.133  10.466  0.5123 -0.3874 -1.0104
  693MPD2    N110256   3.668   1.214  10.424 -1.0062  0.2588  0.5446
  693MPD2    H710257   3.660   1.159  10.509  1.6731 -0.1552  0.5141
  694TMC3    C110258   3.435   1.232  10.418 -1.0042 -0.1114 -0.3371
  694TMC3    C210259   3.327   1.191  10.342 -0.0357  0.0038  0.7443
  694TMC3    C310260   3.222   1.140  10.412 -0.8308 -0.5680  1.1074
  694TMC3    C410261   3.433   1.239  10.556 -0.2873 -0.1816  0.2800
  694TMC3    C510262   3.315   1.191  10.617  0.2818 -0.3900  0.1420
  694TMC3    C610263   3.216   1.126  10.553  0.6280  0.7874  0.3211
  694TMC3     C10264   3.561   1.247  10.349 -0.2385  0.1654 -0.1459
  694TMC3     O10265   3.567   1.260  10.227  0.1013  0.0846  0.0320
  694TMC3     H10266   3.334   1.194  10.234 -1.2423 -0.0981  0.6624
  694TMC3    H110267   3.515   1.276  10.617  0.5197  0.1954 -1.0210
  694TMC3    H210268   3.128   1.094  10.608  0.6122  1.0286  0.4383
  694TMC3    C710269   3.344   1.163  10.753 -0.3145 -0.0561  0.0084
  694TMC3    C810270   3.121   1.064  10.348 -0.6263 -0.6536  0.1248
  694TMC3    O110271   3.379   1.255  10.826 -0.1145  0.1996  0.2825
  694TMC3    O210272   3.048   1.002  10.418  0.7901 -0.6389  0.4351
  695MPD2     C10273   4.537   2.533  13.365  0.3287  0.5570 -0.4289
  695MPD2    C110274   4.479   2.609  13.462 -0.8977  0.0244  0.1252
  695MPD2    C210275   4.348   2.648  13.444  0.2249 -0.5818  0.1440
  695MPD2    C310276   4.285   2.631  13.318  0.0591 -0.4449 -0.6860
  695MPD2    C410277   4.347   2.558  13.217  0.3927  0.4307  1.1664
  695MPD2    C510278   4.476   2.510  13.244  0.1106 -0.0323  0.1399
  695MPD2     H10279   4.295   2.712  13.513 -0.9187 -1.9676  0.5518
  695MPD2    H110280   4.294   2.532  13.126  1.2490 -3.2172  1.7051
  695MPD2    H210281   4.637   2.491  13.375  0.1996  0.6880  1.4607
  695MPD2    H310282   4.521   2.437  13.178 -1.2884 -0.2398 -0.5911
  695MPD2     N10283   4.150   2.665  13.297  0.7463  0.6081 -0.0370
  695MPD2    H510284   4.097   2.694  13.378 -0.2948 -1.3049 -0.0336
  695MPD2    N110285   4.548   2.654  13.575  0.4366  0.1803 -0.0935
  695MPD2    H710286   4.491   2.711  13.636  0.2255  0.1396 -0.2524
  696TMC3    C110287   3.957   2.727  13.177  0.6420 -0.0376 -0.6370
  696TMC3    C210288   3.880   2.659  13.270  0.4338  0.2470 -0.3231
  696TMC3    C310289   3.756   2.707  13.298 -0.0105  0.5763  0.0081
  696TMC3    C410290   3.918   2.836  13.107 -0.3566 -0.2665  0.0601
  696TMC3    C510291   3.802   2.894  13.156 -0.1291  0.6351  0.3760
  696TMC3    C610292   3.720   2.832  13.245  0.0945 -0.0334 -0.5359
  696TMC3     C10293   4.099   2.699  13.174  0.3161  0.6180  0.2636
  696TMC3     O10294   4.162   2.718  13.069  0.1435  0.2711  0.0533
  696TMC3     H10295   3.921   2.568  13.313  0.9715  0.5245 -0.2501
  696TMC3    H110296   3.993   2.886  13.047  0.1511  1.1183  1.8352
  696TMC3    H210297   3.625   2.875  13.277 -2.3376 -2.5722 -4.3319
  696TMC3    C710298   3.790   3.042  13.129 -0.8533 -0.2728 -0.2144
  696TMC3    C810299   3.724   2.677  13.434 -0.4138  0.0409 -0.2764
  696TMC3    O110300   3.868   3.090  13.048  0.3550 -0.4147  0.2723
  696TMC3    O210301   3.769   2.575  13.485  0.5468  0.0062 -0.1577
  697MPD2     C10302   3.607   0.163  15.836  0.1975 -0.5839 -0.4369
  697MPD2    C110303   3.670   0.101  15.725 -0.1598  0.5853  0.4226
  697MPD2    C210304   3.745   0.180  15.634 -0.3137  0.7948  0.3061
  697MPD2    C310305   3.753   0.318  15.651  0.9320 -0.1554  0.0918
  697MPD2    C410306   3.682   0.384  15.750  0.3050  0.1271 -0.1375
  697MPD2    C510307   3.615   0.305  15.843  0.6811 -0.1059  0.6954
  697MPD2     H10308   3.793   0.135  15.548 -1.8991  0.3121 -0.3179
  697MPD2    H110309   3.679   0.491  15.768 -0.5388 -0.1014  1.1286
  697MPD2    H210310   3.547   0.109  15.909  0.1771 -0.0864 -0.0851
  697MPD2    H310311   3.558   0.350  15.924 -0.7081 -0.9446  0.1799
  697MPD2     N10312   3.826   0.383  15.546  0.3081  0.4287  0.4299
  697MPD2    H510313   3.894   0.330  15.493  0.0143 -0.0215  0.5000
  697MPD2    N110314   3.670   4.687  15.706  0.0877  0.5080 -0.1433
  697MPD2    H710315   3.726   4.658  15.626 -0.1777 -0.9880  0.1978
  698TMC3    C110316   3.938   0.534  15.426 -0.2140  0.9448 -0.1142
  698TMC3    C210317   4.042   0.625  15.431  0.6955 -0.0514  0.2946
  698TMC3    C310318   4.137   0.626  15.334 -0.2657  1.0069 -0.2364
  698TMC3    C410319   3.927   0.443  15.319 -0.2596  0.5231  0.1478
  698TMC3    C510320   4.024   0.452  15.224  0.2075  0.3111  0.5948
  698TMC3    C610321   4.128   0.541  15.221  0.1123  0.2940  0.0343
  698TMC3     C10322   3.841   0.519  15.533  0.0653 -0.1875 -0.4549
  698TMC3     O10323   3.817   0.609  15.610  0.0195  0.2260  0.1063
  698TMC3     H10324   4.059   0.676  15.525  0.2081  0.0444  0.3272
  698TMC3    H110325   3.834   0.389  15.305 -0.8615  1.7984 -0.8057
  698TMC3    H210326   4.187   0.572  15.136  0.9782 -0.7715  0.2538
  698TMC3    C710327   4.019   0.372  15.105  0.3752  0.4109  0.2181
  698TMC3    C810328   4.191   0.759  15.322 -0.4434 -0.3653 -0.5856
  698TMC3    O110329   3.909   0.331  15.068 -0.5171 -0.9467 -0.0044
  698TMC3    O210330   4.145   0.840  15.400  0.5124  0.2991  0.1583
  699TMC3    C110331   3.930   2.769  12.771 -0.3563 -0.7326 -1.0363
  699TMC3    C210332   3.975   2.639  12.794  0.5415  0.7133 -0.2966
  699TMC3    C310333   3.894   2.547  12.850 -0.2272 -0.3108 -0.0516
  699TMC3    C410334   3.809   2.815  12.817  0.5500  0.5810  1.3469
  699TMC3    C510335   3.738   2.716  12.876  0.3970  0.0179  0.0107
  699TMC3    C610336   3.773   2.586  12.900 -0.2281  0.0695 -0.1441
  699TMC3     C10337   4.026   2.876  12.753  0.3238 -0.5469  0.2179
  699TMC3     O10338   3.984   2.983  12.707  0.0180 -0.0783 -0.3911
  699TMC3     H10339   4.070   2.620  12.745  0.0197  1.7552 -1.7082
  699TMC3    H110340   3.780   2.919  12.808  0.3672  0.3064 -1.4959
  699TMC3    H210341   3.700   2.523  12.949 -1.1700  0.6770 -0.7591
  699TMC3    C710342   3.605   2.757  12.890 -0.2593  0.3170  0.6079
  699TMC3    C810343   3.973   2.441  12.910 -0.2205 -0.3594 -0.8476
  699TMC3    O110344   3.593   2.873  12.932 -0.1218 -0.6188 -0.4609
  699TMC3    O210345   4.093   2.452  12.891  0.0444 -0.7381  0.0638
  700TMC3    C110346   3.023   0.465  17.365  0.2792  0.1108 -1.1154
  700TMC3    C210347   3.089   0.340  17.335 -0.4817 -0.2551  0.5726
  700TMC3    C310348   3.224   0.330  17.373 -0.0782  0.1694 -0.0048
  700TMC3    C410349   3.076   0.547  17.456  0.4315  0.5823  0.2218
  700TMC3    C510350   3.207   0.532  17.495  0.0129  0.6687  0.3622
  700TMC3    C610351   3.286   0.426  17.452  0.5981 -0.0837 -1.2188
  700TMC3     C10352   2.959   0.531  17.259 -0.2489  0.1639 -0.7379
  700TMC3     O10353   2.883   0.466  17.187  0.1853  0.2338  0.2655
  700TMC3     H10354   3.044   0.287  17.251 -0.9467  0.0818  0.6107
  700TMC3    H110355   3.022   0.637  17.483 -0.4149  0.6275 -1.5930
  700TMC3    H210356   3.390   0.406  17.478  0.5205  0.7967 -0.1969
  700TMC3    C710357   3.266   0.649  17.560 -0.5475 -0.0531  0.2718
  700TMC3    C810358   3.302   0.255  17.280 -0.2447  0.0206  0.0893
  700TMC3    O110359   3.199   0.748  17.585 -0.5632  0.6349 -0.2593
  700TMC3    O210360   3.419   0.295  17.265 -0.2720  0.1519  0.2279
  701TMC3    C110361   2.954   4.114  15.433  0.7056 -0.6707  0.4919
  701TMC3    C210362   2.988   4.083  15.306  0.1289 -0.2325  0.0914
  701TMC3    C310363   3.112   4.134  15.264 -0.3379 -0.2388  0.4748
  701TMC3    C410364   3.034   4.188  15.523  0.4894  1.0593 -0.8568
  701TMC3    C510365   3.156   4.232  15.479  0.9668  0.0481  0.2820
  701TMC3    C610366   3.196   4.197  15.350 -0.4882 -0.9964  0.0059
  701TMC3     C10367   2.815   4.093  15.462  0.1439  0.7049  0.1450
  701TMC3     O10368   2.772   3.987  15.418 -0.2670 -0.5985  0.2722
  701TMC3     H10369   2.926   4.026  15.238 -1.2838 -0.7599  1.8241
  701TMC3    H110370   2.996   4.224  15.618 -1.0210  0.5302 -1.2686
  701TMC3    H210371   3.293   4.233  15.319 -0.2870 -1.9148 -0.4285
  701TMC3    C710372   3.230   4.331  15.549 -0.3448  0.1068  0.0868
  701TMC3    C810373   3.165   4.078  15.141 -0.5578  0.1734 -0.7810
  701TMC3    O110374   3.330   4.378  15.497 -0.3612 -0.2323  0.4412
  701TMC3    O210375   3.289   4.078  15.138 -0.2459  0.2869  0.0686
  702MPD2     C10376   2.888   1.787  10.359  0.0609  0.2961 -1.8648
  702MPD2    C110377   2.827   1.892  10.432 -0.9063 -0.2142 -0.4842
  702MPD2    C210378   2.805   2.016  10.372  0.7259  0.0500  0.1977
  702MPD2    C310379   2.830   2.023  10.232 -0.5523  0.1213 -0.4275
  702MPD2    C410380   2.875   1.913  10.158 -0.1833  0.3144  0.5665
  702MPD2    C510381   2.910   1.805  10.230  0.2256 -0.2829  0.0152
  702MPD2     H10382   2.755   2.097  10.423 -0.8009 -0.7405 -0.0419
  702MPD2    H110383   2.895   1.915  10.052  1.1745  0.3956  0.8215
  702MPD2    H210384   2.912   1.692  10.405  0.9763  1.3852 -0.0720
  702MPD2    H310385   2.952   1.723  10.174 -1.4413 -0.1147 -1.4785
  702MPD2     N10386   2.787   2.144  10.179  0.9583  0.1570 -0.0553
  702MPD2    H510387   2.763   2.209  10.253  0.4290  0.4899 -0.5168
  702MPD2    N110388   2.797   1.882  10.571  0.4906 -0.3078 -0.2556
  702MPD2    H710389   2.756   1.969  10.603  2.2838  0.5450 -0.2616
  703TMC3    C110390   2.705   2.310  10.039  0.3962  1.0351  0.4032
  703TMC3    C210391   2.666   2.361  10.162 -0.8288 -0.3115 -0.0123
  703TMC3    C310392   2.743   2.469  10.209 -0.0992 -0.2008  0.3267
  703TMC3    C410393   2.766   2.383   9.941 -0.8502  0.0255 -0.0355
  703TMC3    C510394   2.831   2.494   9.988 -0.1363 -0.4371  0.0495
  703TMC3    C610395   2.822   2.534  10.122 -0.2653  0.4255 -1.2136
  703TMC3     C10396   2.767   2.179  10.045  0.1023 -0.5421  0.7581
  703TMC3     O10397   2.812   2.127   9.943 -0.7717 -0.1022 -0.0298
  703TMC3     H10398   2.609   2.313  10.241  0.2410 -1.5082  0.0324
  703TMC3    H110399   2.771   2.348   9.839  3.0137  3.3325 -0.9776
  703TMC3    H210400   2.900   2.591  10.171 -1.5324  1.2791 -0.2033
  703TMC3    C710401   2.966   2.496   9.940 -0.3720 -0.0533 -0.0880
  703TMC3    C810402   2.791   2.430  10.340 -0.2435  0.0016  0.3265
  703TMC3    O110403   3.025   2.601   9.949 -0.8491  0.0882  0.2181
  703TMC3    O210404   2.873   2.339  10.348 -0.3947  0.4581  0.7090
  704TMC3    C110405   4.313   0.255  12.308 -0.1038  0.5931 -0.6575
  704TMC3    C210406   4.433   0.314  12.342 -0.1615 -0.4090 -0.3236
  704TMC3    C310407   4.448   0.342  12.473 -1.3345 -0.2681 -0.1520
  704TMC3    C410408   4.213   0.229  12.395 -0.1236  0.4022  0.5455
  704TMC3    C510409   4.242   0.237  12.530  0.0351 -0.7507 -0.1309
  704TMC3    C610410   4.355   0.304  12.572 -0.5950  0.6490 -0.2166
  704TMC3     C10411   4.325   0.173  12.196  0.3275  0.3631 -0.6064
  704TMC3     O10412   4.218   0.140  12.143  0.4601 -0.1737  0.5770
  704TMC3     H10413   4.511   0.345  12.274 -0.5379  0.0908 -0.5292
  704TMC3    H110414   4.126   0.171  12.368  2.1296 -2.3013 -0.8412
  704TMC3    H210415   4.370   0.318  12.679 -0.1068 -1.7571  0.0494
  704TMC3    C710416   4.218   0.111  12.599 -0.8258  0.1325 -0.1053
  704TMC3    C810417   4.569   0.415  12.514  0.0195  0.0438  0.2530
  704TMC3    O110418   4.125   0.037  12.562 -0.4083  0.0879  0.5067
  704TMC3    O210419   4.676   0.390  12.464  0.0906 -0.7528  0.0126
  705MPD2     C10420   4.241   2.919  16.563 -0.2458  0.2697 -0.5723
  705MPD2    C110421   4.158   3.000  16.481 -0.0850 -0.2833 -0.0128
  705MPD2    C210422   4.071   3.091  16.537  0.2148 -0.1086  0.6963
  705MPD2    C310423   4.060   3.095  16.674 -0.0547 -0.2965  0.2544
  705MPD2    C410424   4.124   3.008  16.754  0.0810  0.2351 -0.1553
  705MPD2    C510425   4.225   2.931  16.696 -0.0679  0.1408 -0.0863
  705MPD2     H10426   4.026   3.169  16.477  1.5483  0.6555  0.6830
  705MPD2    H110427   4.121   3.004  16.862  2.1904  0.3420 -0.0996
  705MPD2    H210428   4.314   2.852  16.519  0.3527  1.4017 -1.2998
  705MPD2    H310429   4.281   2.864  16.760  0.5770  1.7957  1.0764
  705MPD2     N10430   3.985   3.199  16.742 -0.0565 -0.1669  0.1750
  705MPD2    H510431   3.976   3.184  16.842 -0.2684  2.7639  0.6191
  705MPD2    N110432   4.177   3.003  16.339  0.2531  0.2470  0.1508
  705MPD2    H710433   4.131   3.076  16.286  1.4978  0.1072 -1.1120
  706TMC3    C110434   4.345   2.848  15.931 -0.2159  0.1796 -0.2423
  706TMC3    C210435   4.404   2.970  15.913 -0.6513 -0.0667  0.4007
  706TMC3    C310436   4.401   3.071  16.001 -0.3625 -0.4781  0.4540
  706TMC3    C410437   4.276   2.829  16.048 -0.4692  0.7530  0.0352
  706TMC3    C510438   4.274   2.935  16.134  1.0129  0.0880  0.0481
  706TMC3    C610439   4.328   3.057  16.119  0.4593  0.3477 -0.4140
  706TMC3     C10440   4.384   2.741  15.838 -0.1340  0.1805  0.0968
  706TMC3     O10441   4.475   2.762  15.760 -0.0060 -0.4185  0.6820
  706TMC3     H10442   4.452   2.983  15.817 -0.8353 -0.3551  0.2655
  706TMC3    H110443   4.237   2.731  16.075 -1.0637  1.0425  0.2279
  706TMC3    H210444   4.325   3.127  16.202 -0.9521 -1.5180  1.0800
  706TMC3    C710445   4.239   2.898  16.274 -0.7455  1.0187  0.2704
  706TMC3    C810446   4.465   3.193  15.973  0.5799 -0.0064  0.0405
  706TMC3    O110447   4.270   2.787  16.311  0.1401  0.0999 -0.5510
  706TMC3    O210448   4.552   3.189  15.882 -0.3957  0.5738  0.0363
  707TMC3    C110449   1.993   2.618   1.684 -0.5025  0.4851  0.7186
  707TMC3    C210450   2.116   2.633   1.743 -0.6674  0.0612  0.1902
  707TMC3    C310451   2.130   2.630   1.881 -0.2914  0.9628  0.4896
  707TMC3    C410452   1.884   2.608   1.762 -0.9446 -0.2364  0.4242
  707TMC3    C510453   1.908   2.605   1.899 -0.2407 -0.3195 -0.5227
  707TMC3    C610454   2.026   2.622   1.958 -0.4421  0.0267  0.6620
  707TMC3     C10455   2.005   2.567   1.554 -0.0424 -0.1268  0.8183
  707TMC3     O10456   2.117   2.518   1.530 -0.2092  0.0121  1.0369
  707TMC3     H10457   2.202   2.641   1.677  0.4269  0.6527  1.7000
  707TMC3    H110458   1.792   2.576   1.715 -1.7498  1.3725  0.8984
  707TMC3    H210459   2.040   2.618   2.066  0.3521  1.2189  0.6023
  707TMC3    C710460   1.789   2.583   1.977  0.5949  1.0908  0.6454
  707TMC3    C810461   2.264   2.609   1.936  0.1308  0.1985 -0.5808
  707TMC3    O110462   1.812   2.537   2.087  0.2926 -0.1095  0.4016
  707TMC3    O210463   2.280   2.657   2.048  0.6388  0.5901 -0.1404
  708MPD2     C10464   2.625   1.829  13.613  0.1468 -0.5104 -0.6642
  708MPD2    C110465   2.557   1.713  13.638  0.1603 -0.0395  0.6654
  708MPD2    C210466   2.623   1.599  13.672 -0.5582 -0.0454 -0.0046
  708MPD2    C310467   2.762   1.598  13.686 -0.1376 -0.2546 -0.6173
  708MPD2    C410468   2.826   1.721  13.664 -0.8461  0.1727  1.1907
  708MPD2    C510469   2.759   1.837  13.632  0.4611 -0.2196 -0.2851
  708MPD2     H10470   2.569   1.509  13.698  0.0556 -0.8163 -1.3830
  708MPD2    H110471   2.933   1.732  13.671 -0.8659  1.7271 -0.8483
  708MPD2    H210472   2.579   1.921  13.579 -1.8952 -3.0608 -4.7910
  708MPD2    H310473   2.815   1.925  13.603 -2.1653  0.2816 -3.9057
  708MPD2     N10474   2.838   1.491  13.728  0.1752 -0.1629  0.3615
  708MPD2    H510475   2.931   1.513  13.763 -0.1784  1.6248  0.1602
  708MPD2    N110476   2.414   1.705  13.632 -0.2866 -0.0475 -0.0347
  708MPD2    H710477   2.369   1.615  13.641  2.2785 -1.3521 -0.1894
  709TMC3    C110478   2.194   1.750  13.629  0.3313 -0.2050  0.2202
  709TMC3    C210479   2.126   1.708  13.519 -0.5779 -0.0003  0.1004
  709TMC3    C310480   2.052   1.594  13.532  0.2836 -0.1618 -1.1784
  709TMC3    C410481   2.188   1.687  13.751  0.2144  0.1614  0.0169
  709TMC3    C510482   2.122   1.569  13.753  0.1615 -0.1434 -0.5291
  709TMC3    C610483   2.054   1.519  13.641 -0.0213  0.8807 -0.0340
  709TMC3     C10484   2.326   1.807  13.613  0.1759 -0.5004 -0.1149
  709TMC3     O10485   2.340   1.926  13.613 -0.3631  0.0357  0.3755
  709TMC3     H10486   2.160   1.750  13.425  0.1606  1.4731  1.0269
  709TMC3    H110487   2.261   1.717  13.825 -0.8236  1.3411  0.5531
  709TMC3    H210488   1.991   1.431  13.642 -0.0789  0.9208 -0.4360
  709TMC3    C710489   2.192   1.478  13.838 -0.4227  0.0470  0.9239
  709TMC3    C810490   2.015   1.509  13.424  0.1819 -0.4531 -0.0120
  709TMC3    O110491   2.268   1.515  13.924  0.0935 -0.3386 -0.0122
  709TMC3    O210492   1.912   1.442  13.424 -0.6439 -0.0385 -0.1784
  710TMC3    C110493   3.404   2.976   0.413 -0.1742 -0.5497 -0.7273
  710TMC3    C210494   3.461   2.951   0.289  1.5176  0.0914  0.0006
  710TMC3    C310495   3.559   2.850   0.277  0.6405 -0.2430 -0.2979
  710TMC3    C410496   3.430   2.895   0.520  0.0709 -0.1704  0.3532
  710TMC3    C510497   3.529   2.795   0.506  0.1632  0.2605 -0.6125
  710TMC3    C610498   3.594   2.772   0.389  0.1288  0.0651  0.1955
  710TMC3     C10499   3.294   3.066   0.416  0.0745  0.4463 -0.5513
  710TMC3     O10500   3.219   3.073   0.321  0.6205 -1.0205 -0.1623
  710TMC3     H10501   3.447   3.021   0.208 -0.8082 -0.7057 -0.2718
  710TMC3    H110502   3.368   2.897   0.609 -0.4393  0.5750 -0.0260
  710TMC3    H210503   3.663   2.689   0.377 -0.4523 -0.7475  2.4457
  710TMC3    C710504   3.602   2.802   0.628 -0.0648  0.9150 -0.1878
  710TMC3    C810505   3.648   2.848   0.165  0.0872 -0.3599  0.0880
  710TMC3    O110506   3.548   2.788   0.740  0.3014  0.2761  0.2527
  710TMC3    O210507   3.759   2.807   0.195 -0.4238 -0.6716  0.1426
  711TMC3    C110508   3.446   3.634  14.928  0.5461 -0.4624  0.2577
  711TMC3    C210509   3.483   3.751  14.999 -0.1372 -0.0889  0.6655
  711TMC3    C310510   3.622   3.780  15.004 -0.0559  0.2763 -0.5664
  711TMC3    C410511   3.543   3.551  14.871 -0.0370 -0.7934 -0.1581
  711TMC3    C510512   3.673   3.583  14.870  0.2047 -0.5130 -0.5949
  711TMC3    C610513   3.714   3.699  14.930 -0.4741 -0.3105  0.6053
  711TMC3     C10514   3.311   3.613  14.882  0.6909 -0.0480  0.1418
  711TMC3     O10515   3.299   3.537  14.788  0.6774 -0.1586 -0.3307
  711TMC3     H10516   3.412   3.818  15.047  0.9138  0.2410  1.7671
  711TMC3    H110517   3.516   3.453  14.835 -1.3667 -0.3734 -0.2930
  711TMC3    H210518   3.818   3.720  14.950 -0.4878  1.3461 -0.9822
  711TMC3    C710519   3.767   3.470  14.883 -0.1667 -0.2252  0.1272
  711TMC3    C810520   3.659   3.839  15.132  1.0408 -0.2550 -0.0476
  711TMC3    O110521   3.868   3.493  14.942  0.0968 -0.4129 -0.0141
  711TMC3    O210522   3.570   3.868  15.208  0.3691  0.0569  0.2824
  712MPD2     C10523   4.387   0.389  13.111 -0.4552 -0.3861 -0.2251
  712MPD2    C110524   4.443   0.394  13.239 -0.1592 -0.3725  0.4398
  712MPD2    C210525   4.440   0.517  13.304  0.5838 -0.0444 -0.5196
  712MPD2    C310526   4.408   0.632  13.237  0.8702  0.0042 -0.4967
  712MPD2    C410527   4.365   0.628  13.103  0.3211  0.4718  0.6892
  712MPD2    C510528   4.356   0.507  13.042  0.9354  0.3259 -0.5708
  712MPD2     H10529   4.467   0.513  13.409  1.4376  0.3727 -0.7190
  712MPD2    H110530   4.357   0.713  13.036 -1.1101  0.1305  0.4176
  712MPD2    H210531   4.378   0.298  13.053  1.3504  0.0303 -1.1606
  712MPD2    H310532   4.322   0.502  12.938 -1.2058  1.3279  0.0765
  712MPD2     N10533   4.429   0.760  13.291  0.2497  0.0908 -0.6583
  712MPD2    H510534   4.405   0.837  13.229 -2.0011  0.3802  0.5779
  712MPD2    N110535   4.496   0.279  13.303 -0.3110 -0.3899  0.1218
  712MPD2    H710536   4.534   0.292  13.396  0.0879  0.6666 -0.1876
  713TMC3    C110537   4.502   0.930  13.429  0.4366 -0.9386  0.2063
  713TMC3    C210538   4.626   0.969  13.479 -0.1514 -0.6468 -0.6466
  713TMC3    C310539   4.659   1.101  13.463  0.6780 -0.0285 -0.0042
  713TMC3    C410540   4.413   1.014  13.361 -0.0951 -0.1855  0.5976
  713TMC3    C510541   4.467   1.144  13.340  0.1202  0.9013  0.3365
  713TMC3    C610542   4.583   1.189  13.393 -0.7174  0.1326  0.5203
  713TMC3     C10543   4.485   0.790  13.414 -0.5717  0.0655 -0.1786
  713TMC3     O10544   4.534   0.720  13.504 -0.1035 -0.1797 -0.6013
  713TMC3     H10545   4.701   0.892  13.495 -1.4428 -1.4947  1.3102
  713TMC3    H110546   4.318   0.977  13.323  0.2192  0.8608 -1.2372
  713TMC3    H210547   4.611   1.293  13.380 -1.4132  0.3279  0.5911
  713TMC3    C710548   4.364   1.240  13.354 -0.1156  0.5565 -0.0806
  713TMC3    C810549   0.068   1.128  13.457  0.0605  1.0628  0.1922
  713TMC3    O110550   4.393   1.340  13.420 -0.9044 -0.5082 -0.5570
  713TMC3    O210551   0.103   1.209  13.371 -0.0530 -0.7589 -0.4824
  714MPD2     C10552   2.137   4.170   1.618 -0.9192 -0.5261 -0.5453
  714MPD2    C110553   2.146   4.085   1.510  0.4228 -0.5459 -0.1991
  714MPD2    C210554   2.079   4.098   1.392 -0.5169  0.0456 -0.7300
  714MPD2    C310555   2.007   4.210   1.377 -0.3165  0.3288 -0.2171
  714MPD2    C410556   1.993   4.299   1.476  0.3151 -0.1824 -0.4138
  714MPD2    C510557   2.056   4.277   1.596 -0.4502 -0.2217 -0.1825
  714MPD2     H10558   2.089   4.034   1.305 -2.0970  0.3276 -1.1122
  714MPD2    H110559   1.931   4.388   1.467 -1.1107 -0.9654  1.6010
  714MPD2    H210560   2.194   4.158   1.709  0.1665  0.7787 -1.0445
  714MPD2    H310561   2.051   4.355   1.671 -1.1677 -2.2565  1.8885
  714MPD2     N10562   1.957   4.224   1.245  0.3687  0.2528  0.5844
  714MPD2    H510563   1.990   4.152   1.181  1.2446  0.6392  0.6030
  714MPD2    N110564   2.236   3.976   1.534  0.7502 -0.6541  0.3504
  714MPD2    H710565   2.281   3.985   1.625 -1.0718  0.7513  1.1171
  715TMC3    C110566   2.365   3.774   1.515  0.0425 -0.2418  0.0635
  715TMC3    C210567   2.406   3.679   1.423  0.0332 -0.0856  0.4254
  715TMC3    C310568   2.524   3.613   1.453  0.0803  1.1032  0.1406
  715TMC3    C410569   2.432   3.798   1.633  0.1997  0.5622  0.8674
  715TMC3    C510570   2.543   3.729   1.653  0.7992 -0.0597  0.0782
  715TMC3    C610571   2.594   3.635   1.569 -0.1493  0.6157  0.3130
  715TMC3     C10572   2.274   3.874   1.453  0.0455  0.0764  0.1700
  715TMC3     O10573   2.250   3.869   1.336 -0.0583 -0.0109 -0.1127
  715TMC3     H10574   2.374   3.677   1.320 -0.6839 -0.6757  0.6673
  715TMC3    H110575   2.397   3.877   1.699  0.4903  1.4473 -0.0428
  715TMC3    H210576   2.685   3.584   1.600 -1.0594 -0.3735  1.3732
  715TMC3    C710577   2.642   3.779   1.753  0.0749  0.2437  0.2810
  715TMC3    C810578   2.590   3.523   1.354 -0.0025  0.6371 -0.1474
  715TMC3    O110579   2.756   3.739   1.736 -0.3755  0.1873 -0.4297
  715TMC3    O210580   2.515   3.480   1.267 -0.6230  0.2094 -0.0262
  716MPD2     C10581   3.369   1.435   9.820  0.0650 -0.0839 -0.6976
  716MPD2    C110582   3.252   1.390   9.767  0.4197  0.5649  0.6989
  716MPD2    C210583   3.217   1.255   9.799  0.0042  0.5583 -0.5196
  716MPD2    C310584   3.298   1.170   9.874 -0.6799 -0.8207  0.4364
  716MPD2    C410585   3.417   1.222   9.911  0.4417  0.0107 -0.1079
  716MPD2    C510586   3.455   1.351   9.883  0.4138  0.4859 -0.1227
  716MPD2     H10587   3.124   1.211   9.766 -0.0470  0.1276  0.2087
  716MPD2    H110588   3.489   1.160   9.963 -0.3589  1.3608  2.5496
  716MPD2    H210589   3.399   1.534   9.790 -1.2786  0.0685 -1.5399
  716MPD2    H310590   3.556   1.378   9.910  0.5560  0.7574 -0.9344
  716MPD2     N10591   3.275   1.034   9.880 -0.2790 -0.5581 -0.3343
  716MPD2    H510592   3.197   0.995   9.828 -0.2554  0.5484 -1.2041
  716MPD2    N110593   3.181   1.481   9.697  0.1218  0.6018 -0.5222
  716MPD2    H710594   3.219   1.573   9.677  2.1176  0.3615  2.2365
  717TMC3    C110595   3.294   0.800   9.936  0.6199 -0.1694  0.9229
  717TMC3    C210596   3.163   0.783   9.896  0.3460 -0.2099 -0.1203
  717TMC3    C310597   3.112   0.660   9.905  0.0415 -0.8473  0.5270
  717TMC3    C410598   3.350   0.707  10.022 -0.0163 -0.0316 -0.1404
  717TMC3    C510599   3.292   0.582  10.039  0.2840  0.1885  0.5103
  717TMC3    C610600   3.172   0.555   9.977 -0.6483 -0.9155  0.1038
  717TMC3     C10601   3.349   0.938   9.954 -0.7235 -0.0395  0.2627
  717TMC3     O10602   3.429   0.957  10.044 -0.0939 -0.0996 -0.1528
  717TMC3     H10603   3.107   0.867   9.856  1.7337  1.1332  0.7115
  717TMC3    H110604   3.452   0.731  10.048  0.2396 -1.2108 -0.0516
  717TMC3    H210605   3.126   0.458   9.971 -3.2133  0.2381  1.2860
  717TMC3    C710606   3.370   0.490  10.122  0.1177  0.3304  0.0623
  717TMC3    C810607   3.004   0.627   9.814 -0.1889 -0.6570 -0.2759
  717TMC3    O110608   3.467   0.537  10.184  0.1289 -0.7905  0.2017
  717TMC3    O210609   2.949   0.730   9.767 -0.2172 -0.4625  0.3237
  718MPD2     C10610   2.155   0.866  12.629  0.1890 -0.3213 -0.9163
  718MPD2    C110611   2.131   0.773  12.527 -0.5586 -0.2698 -0.0236
  718MPD2    C210612   2.076   0.650  12.558 -0.1115 -0.2781  0.0865
  718MPD2    C310613   2.039   0.619  12.685 -0.6417  0.4318 -0.5847
  718MPD2    C410614   2.056   0.712  12.783  0.3031  0.8985  0.0765
  718MPD2    C510615   2.115   0.830  12.759  0.3351  0.8807  0.8788
  718MPD2     H10616   2.072   0.577  12.478 -0.7842  0.4460 -0.5424
  718MPD2    H110617   2.011   0.686  12.879 -1.4402 -0.9133 -1.2280
  718MPD2    H210618   2.197   0.965  12.614  0.0104  0.0051  0.7514
  718MPD2    H310619   2.115   0.904  12.838 -0.3522  1.8150  0.0127
  718MPD2     N10620   2.002   0.489  12.703  0.3013  0.1723  0.1994
  718MPD2    H510621   2.004   0.430  12.620 -2.1849 -0.2792  0.4414
  718MPD2    N110622   2.186   0.803  12.400  0.8290 -0.1445  0.0824
  718MPD2    H710623   2.243   0.887  12.397  0.4211  0.1980  2.5037
  719TMC3    C110624   2.243   0.770  12.174  0.1444  0.1703 -0.5608
  719TMC3    C210625   2.208   0.700  12.062  0.1522 -0.2455  0.2632
  719TMC3    C310626   2.304   0.642  11.983 -0.1989  0.1071 -0.0018
  719TMC3    C410627   2.373   0.766  12.206 -1.1605  0.9329 -0.4467
  719TMC3    C510628   2.472   0.697  12.138 -0.0137  0.6900 -0.0957
  719TMC3    C610629   2.436   0.648  12.012  0.1167 -0.1410  0.5934
  719TMC3     C10630   2.154   0.735  12.283 -0.6282 -0.6462  0.1234
  719TMC3     O10631   2.083   0.635  12.264  0.2144 -0.4831 -0.5203
  719TMC3     H10632   2.105   0.695  12.029  0.0092  0.4528  0.6064
  719TMC3    H110633   2.404   0.805  12.302 -1.8048  1.0302 -0.2796
  719TMC3    H210634   2.508   0.583  11.963  0.3845 -0.4241  1.3696
  719TMC3    C710635   2.609   0.743  12.136  0.8615  0.0110  0.6569
  719TMC3    C810636   2.268   0.499  11.975 -0.3197  0.4098  0.5266
  719TMC3    O110637   2.680   0.721  12.039 -0.0644  0.3313  0.5208
  719TMC3    O210638   2.304   0.436  11.878  0.5564  0.8014  0.0087
  720MPD2     C10639   4.715   2.207  13.699  0.7137 -0.0909 -0.3123
  720MPD2    C110640   0.118   2.199  13.655 -0.6156 -0.1278 -0.5388
  720MPD2    C210641   0.223   2.154  13.735 -0.4644  0.6837 -0.0514
  720MPD2    C310642   0.201   2.122  13.869 -0.4646 -0.0337 -0.4262
  720MPD2    C410643   0.076   2.143  13.918 -0.2069 -0.2214 -0.4379
  720MPD2    C510644   4.692   2.175  13.834 -0.4800 -0.5815  0.3926
  720MPD2     H10645   0.324   2.147  13.696 -0.7997  1.4282 -1.0751
  720MPD2    H110646   0.057   2.140  14.025  1.3813  1.2101 -0.1263
  720MPD2    H210647   4.636   2.238  13.632 -0.0482 -1.8404 -0.2126
  720MPD2    H310648   4.591   2.190  13.870 -0.4207  1.8430 -0.4071
  720MPD2     N10649   0.310   2.088  13.959 -0.4301 -0.0214 -0.0551
  720MPD2    H510650   0.403   2.088  13.918 -0.2486 -0.0942  0.3527
  720MPD2    N110651   0.163   2.236  13.531 -0.1547  0.4639  0.0939
  720MPD2    H710652   0.264   2.232  13.526 -0.2695  0.3456 -2.3584
  721TMC3    C110653   0.422   2.005  14.149 -0.8261 -0.4248 -0.0832
  721TMC3    C210654   0.416   1.924  14.255 -0.0449 -0.1203 -0.9007
  721TMC3    C310655   0.532   1.909  14.321  0.8102  0.6297  0.2326
  721TMC3    C410656   0.542   2.074  14.107  0.2352 -0.6493  0.0431
  721TMC3    C510657   0.653   2.052  14.176 -0.3288 -0.1719 -0.0106
  721TMC3    C610658   0.653   1.971  14.290 -0.1850 -0.0079 -1.1667
  721TMC3     C10659   0.297   2.027  14.084 -0.6328 -0.8132  0.0189
  721TMC3     O10660   0.192   1.998  14.134 -0.0546  0.0996  0.4669
  721TMC3     H10661   0.323   1.875  14.281 -0.0740 -0.1097 -0.9858
  721TMC3    H110662   0.555   2.142  14.024  1.2295  1.7601  2.1890
  721TMC3    H210663   0.741   1.955  14.350 -0.3330 -2.4585 -1.6065
  721TMC3    C710664   0.775   2.090  14.110  0.2876  1.1824  0.9356
  721TMC3    C810665   0.515   1.833  14.440  0.5918  0.1016 -0.1898
  721TMC3    O110666   0.775   2.177  14.027  0.3930 -0.8881  0.3247
  721TMC3    O210667   0.396   1.826  14.481  0.2795  0.2989  0.1900
  722MPD2     C10668   3.614   0.669  12.920  0.5922 -0.2315 -0.2708
  722MPD2    C110669   3.529   0.745  12.841 -0.0897  0.0384 -0.2080
  722MPD2    C210670   3.392   0.700  12.838 -0.0869 -0.7732 -0.8579
  722MPD2    C310671   3.349   0.598  12.919  0.2061 -0.6624 -0.1682
  722MPD2    C410672   3.436   0.513  12.977 -0.6271 -0.4595 -0.2929
  722MPD2    C510673   3.572   0.544  12.978 -1.0502 -0.2399  0.2185
  722MPD2     H10674   3.317   0.746  12.775  1.0574  2.2461 -0.0563
  722MPD2    H110675   3.409   0.422  13.029  1.6102 -1.5921 -1.1115
  722MPD2    H210676   3.713   0.701  12.948 -0.9670  1.2377  3.7132
  722MPD2    H310677   3.638   0.478  13.035 -0.9606 -2.4738 -2.4609
  722MPD2     N10678   3.211   0.583  12.923 -0.6404 -0.4594  0.5282
  722MPD2    H510679   3.162   0.634  12.850  0.8426  1.7225  1.0492
  722MPD2    N110680   3.549   0.869  12.783  0.4862  0.3805  0.2471
  722MPD2    H710681   3.474   0.907  12.727  0.2681  1.0183  0.9653
  723TMC3    C110682   2.991   0.508  12.955  0.2227 -0.2555 -0.0509
  723TMC3    C210683   2.924   0.400  12.919  0.1810  0.7049  0.0290
  723TMC3    C310684   2.794   0.415  12.881 -0.5844 -0.2545  0.1317
  723TMC3    C410685   2.937   0.628  12.986 -0.1025  0.1569 -0.2805
  723TMC3    C510686   2.802   0.638  12.963 -0.3733  0.0162  0.5014
  723TMC3    C610687   2.727   0.537  12.901 -0.2174  0.4326  0.5313
  723TMC3     C10688   3.131   0.488  12.989  0.1964  0.1272  0.4166
  723TMC3     O10689   3.164   0.385  13.057  0.5463  0.4550  0.4866
  723TMC3     H10690   2.977   0.310  12.889  2.7288  1.8877  0.9548
  723TMC3    H110691   2.998   0.704  13.032 -2.1938  0.5771  1.8233
  723TMC3    H210692   2.620   0.532  12.881  0.0947  2.0591 -1.5518
  723TMC3    C710693   2.731   0.751  13.018  0.2225  0.9539 -0.3835
  723TMC3    C810694   2.722   0.289  12.875 -0.7337 -0.2304 -0.0633
  723TMC3    O110695   2.791   0.822  13.099  0.0570  0.0294 -0.0999
  723TMC3    O210696   2.633   0.270  12.959 -0.3752  0.5090  0.0164
  724TMC3    C110697   3.719   3.132   9.982  0.4046 -0.4280 -0.0369
  724TMC3    C210698   3.786   3.161  10.097 -0.2764  0.0482 -0.1975
  724TMC3    C310699   3.920   3.169  10.097 -0.8593  0.5474  0.3191
  724TMC3    C410700   3.785   3.133   9.869 -0.1648  0.0276  0.1440
  724TMC3    C510701   3.915   3.169   9.872  0.1599  0.1887  0.0559
  724TMC3    C610702   3.987   3.181   9.982  0.0195 -0.1291  0.4013
  724TMC3     C10703   3.640   3.015   9.988 -0.2857  0.4010 -0.2378
  724TMC3     O10704   3.566   2.990   9.894 -0.1070  0.4247 -0.1759
  724TMC3     H10705   3.735   3.170  10.192 -1.0592 -0.0146 -0.6136
  724TMC3    H110706   3.736   3.093   9.780 -0.9870  0.6415  0.3239
  724TMC3    H210707   4.094   3.200   9.987 -0.2195  1.1476  0.6762
  724TMC3    C710708   3.971   3.243   9.760  0.3930 -0.5314  0.5405
  724TMC3    C810709   3.989   3.144  10.224 -0.6996  0.2209  0.2921
  724TMC3    O110710   4.093   3.259   9.761  0.3448  0.0482 -0.2587
  724TMC3    O210711   3.921   3.090  10.313  0.3130 -0.1089  0.4202
  725TMC3    C110712   0.911   2.659  12.919 -1.0857  0.3055  0.3291
  725TMC3    C210713   0.947   2.683  12.790 -0.2770 -0.1396 -0.8163
  725TMC3    C310714   1.012   2.583  12.725  0.1739  0.0909  0.5156
  725TMC3    C410715   0.908   2.532  12.978 -0.1867  0.0179 -0.2740
  725TMC3    C510716   0.961   2.430  12.902 -0.2631 -0.5132  0.2929
  725TMC3    C610717   1.011   2.456  12.775  0.0981  0.5417  1.3448
  725TMC3     C10718   0.911   2.776  13.004  0.0471  0.5094  0.1409
  725TMC3     O10719   0.922   2.883  12.948 -0.4196  0.2014  0.6426
  725TMC3     H10720   0.937   2.784  12.752 -1.0120  1.3897  3.5037
  725TMC3    H110721   0.850   2.509  13.067 -0.9701  0.9127 -0.5503
  725TMC3    H210722   1.067   2.372  12.734 -1.4491  1.1222 -1.9577
  725TMC3    C710723   1.037   2.342  12.991 -0.0757  0.3009  0.2715
  725TMC3    C810724   1.093   2.597  12.600 -0.1094  0.6190 -0.1140
  725TMC3    O110725   0.975   2.262  13.059  0.2947 -0.2063  0.6394
  725TMC3    O210726   1.136   2.500  12.542  0.1195  0.1110 -0.0284
  726MPD2     C10727   4.177   3.787   9.858 -0.3131  0.4793  0.1686
  726MPD2    C110728   4.080   3.883   9.879 -0.0403 -0.6563  0.2738
  726MPD2    C210729   3.955   3.846   9.914  0.1710  0.4037 -0.0806
  726MPD2    C310730   3.920   3.711   9.930 -0.3347 -0.0471 -0.0520
  726MPD2    C410731   4.020   3.617   9.916 -0.5071 -0.4442 -0.2365
  726MPD2    C510732   4.146   3.654   9.875 -0.2780  0.5766  0.2487
  726MPD2     H10733   3.883   3.927   9.919 -1.8936 -1.5091  0.9137
  726MPD2    H110734   4.002   3.514   9.947 -0.5945 -0.0153  1.1556
  726MPD2    H210735   4.273   3.808   9.810 -0.4964 -0.0236 -0.4241
  726MPD2    H310736   4.229   3.589   9.854 -0.7216  0.4406 -1.1174
  726MPD2     N10737   3.792   3.681   9.991 -0.3328 -0.0274  0.1034
  726MPD2    H510738   3.730   3.755  10.023  2.0046  2.0617 -0.1926
  726MPD2    N110739   4.100   4.022   9.857  0.4278 -0.0835 -0.1660
  726MPD2    H710740   4.025   4.089   9.859  0.0199 -0.4920 -1.5103
  727TMC3    C110741   4.209   4.203   9.753 -0.1415  0.2794 -0.5898
  727TMC3    C210742   4.238   4.313   9.827 -0.2720 -0.0229 -0.2336
  727TMC3    C310743   4.176   4.431   9.790 -0.3894 -0.0766  0.0752
  727TMC3    C410744   4.121   4.208   9.649  0.6721  0.1341  0.6192
  727TMC3    C510745   4.068   4.328   9.611  0.2167  0.4082 -0.3586
  727TMC3    C610746   4.088   4.442   9.688  0.0992  0.1108 -0.2506
  727TMC3     C10747   4.226   4.071   9.811 -0.2239 -0.1311  0.2367
  727TMC3     O10748   4.335   4.032   9.844 -0.3828  0.2259  0.4128
  727TMC3     H10749   4.310   4.304   9.907  1.4417  2.0524 -1.5459
  727TMC3    H110750   4.097   4.117   9.596  0.0667  0.5210  0.2232
  727TMC3    H210751   4.032   4.530   9.658 -1.4543 -1.3646 -1.6323
  727TMC3    C710752   3.950   4.321   9.528  0.0760  0.2063 -0.1274
  727TMC3    C810753   4.219   4.554   9.861  0.0721 -0.5182  0.0664
  727TMC3    O110754   3.841   4.365   9.571  0.6633 -0.3962 -0.3772
  727TMC3    O210755   4.294   4.551   9.956  0.3318 -0.1354  0.4275
  728TMC3    C110756   3.005   2.406  15.275  0.1879 -0.3861  0.3342
  728TMC3    C210757   3.137   2.399  15.232  0.7978  0.0506 -0.0020
  728TMC3    C310758   3.150   2.474  15.119 -0.1211  0.5130  0.6298
  728TMC3    C410759   2.899   2.459  15.208  0.6547  0.7662 -0.3350
  728TMC3    C510760   2.921   2.523  15.093  0.7017  0.2120 -0.9445
  728TMC3    C610761   3.048   2.532  15.050 -0.2098 -0.5097  0.0341
  728TMC3     C10762   2.992   2.311  15.388  0.8419 -0.3183  0.0257
  728TMC3     O10763   3.089   2.256  15.438  0.3094  0.2166 -0.1711
  728TMC3     H10764   3.226   2.362  15.282  0.1390  0.4536  1.4693
  728TMC3    H110765   2.798   2.449  15.246 -0.0514  0.7069 -2.2353
  728TMC3    H210766   3.070   2.575  14.953  0.3652  0.5500  0.6281
  728TMC3    C710767   2.796   2.543  15.018  0.0057 -0.5011 -0.2262
  728TMC3    C810768   3.289   2.523  15.093  0.3189  0.3389 -0.3288
  728TMC3    O110769   2.688   2.498  15.055  0.7812  0.6049 -0.5557
  728TMC3    O210770   3.389   2.463  15.123  0.6383  0.1786  0.4134
  729MPD2     C10771   0.470   3.474  16.870  0.3047 -0.6121  0.7662
  729MPD2    C110772   0.488   3.608  16.886  0.4094  0.0837 -0.8645
  729MPD2    C210773   0.421   3.675  16.990  0.1648  0.1688 -0.2493
  729MPD2    C310774   0.334   3.610  17.076  0.3737 -0.3569  0.1686
  729MPD2    C410775   0.307   3.475  17.047 -0.0920 -0.4031  0.0710
  729MPD2    C510776   0.375   3.409  16.942 -0.4811  0.2030  0.6998
  729MPD2     H10777   0.429   3.783  16.998 -3.1966  0.2091  2.2074
  729MPD2    H110778   0.241   3.411  17.105  0.2915  1.0715  2.1381
  729MPD2    H210779   0.513   3.422  16.785 -1.5777  3.0246 -2.4174
  729MPD2    H310780   0.346   3.306  16.926 -0.3004  0.1520  0.7084
  729MPD2     N10781   0.275   3.682  17.181 -0.5398 -0.3343 -0.0756
  729MPD2    H510782   0.296   3.782  17.180  3.1634 -1.1117  1.5332
  729MPD2    N110783   0.565   3.661  16.782 -0.0206  0.2583  0.0467
  729MPD2    H710784   0.611   3.593  16.723 -2.0246 -0.3441 -0.8331
  730TMC3    C110785   0.200   3.701  17.400 -0.1304 -0.2503  0.5339
  730TMC3    C210786   0.258   3.651  17.509 -0.0689 -0.1026 -0.5698
  730TMC3    C310787   0.338   3.735  17.590  0.1293 -1.0225  0.4194
  730TMC3    C410788   0.207   3.838  17.379 -0.2863  0.6882 -0.4659
  730TMC3    C510789   0.271   3.919  17.471 -0.6621 -0.3195 -0.1728
  730TMC3    C610790   0.342   3.871  17.579  0.0198 -0.2703 -0.0837
  730TMC3     C10791   0.206   3.619  17.283  0.2772 -0.3266 -0.4153
  730TMC3     O10792   0.170   3.503  17.291 -0.1202  0.5089  0.0521
  730TMC3     H10793   0.262   3.545  17.528 -0.5204  0.1924  1.1861
  730TMC3    H110794   0.161   3.879  17.290  1.0997 -0.4714 -1.7111
  730TMC3    H210795   0.400   3.930  17.648  1.1075 -0.1544 -1.0968
  730TMC3    C710796   0.268   4.061  17.440  0.6000 -0.4993  0.0120
  730TMC3    C810797   0.473   3.664  17.595  0.4127 -0.2688 -0.3813
  730TMC3    O110798   0.224   4.089  17.326  0.1639  0.5613  0.9889
  730TMC3    O210799   0.474   3.545  17.607  0.1627  0.1643  0.3636
  731MPD2     C10800   0.795   2.532  12.442  0.0484 -0.2524  0.9772
  731MPD2    C110801   0.806   2.405  12.394  0.0826  0.5449  0.1934
  731MPD2    C210802   0.782   2.296  12.476 -0.2117  0.3115 -0.2253
  731MPD2    C310803   0.726   2.314  12.598  0.0223 -0.5764  0.6222
  731MPD2    C410804   0.705   2.439  12.646  0.1393 -0.4936  0.1848
  731MPD2    C510805   0.736   2.551  12.564 -0.0622 -0.1395 -0.0640
  731MPD2     H10806   0.786   2.190  12.452  0.2976  0.0343  1.0732
  731MPD2    H110807   0.660   2.466  12.741  3.4874 -1.0338  1.9210
  731MPD2    H210808   0.816   2.618  12.381  0.6630 -0.0765  1.4314
  731MPD2    H310809   0.723   2.648  12.611  2.0156  1.2786 -2.4257
  731MPD2     N10810   0.707   2.203  12.682 -0.4555  0.1769  0.1824
  731MPD2    H510811   0.749   2.117  12.650  0.9709  1.5148 -1.5265
  731MPD2    N110812   0.863   2.394  12.264 -0.4276 -0.2257 -0.9147
  731MPD2    H710813   0.895   2.475  12.212  0.0234  0.8798  1.0953
  732TMC3    C110814   0.944   2.279  12.075 -0.4130 -0.1253 -0.8505
  732TMC3    C210815   0.925   2.166  11.990  0.9077  0.3773  0.2622
  732TMC3    C310816   1.028   2.115  11.923  0.0688 -0.9991 -0.4117
  732TMC3    C410817   1.071   2.334  12.077  0.2558  0.0548  0.6612
  732TMC3    C510818   1.169   2.281  11.989  0.7334 -0.2124 -0.1957
  732TMC3    C610819   1.150   2.170  11.910 -0.4044  1.2443 -0.2771
  732TMC3     C10820   0.869   2.273  12.202  0.7666 -0.1166  0.2100
  732TMC3     O10821   0.812   2.171  12.229  0.0920  0.4509  0.0690
  732TMC3     H10822   0.831   2.115  12.010  0.5452  0.0940 -2.1501
  732TMC3    H110823   1.089   2.421  12.140  0.8715 -1.1766  2.1948
  732TMC3    H210824   1.223   2.125  11.844  0.5276  1.9271  0.2869
  732TMC3    C710825   1.306   2.322  12.016 -0.5184 -0.0940  0.4146
  732TMC3    C810826   1.005   1.981  11.854  0.8980  0.2590 -0.6424
  732TMC3    O110827   1.320   2.368  12.127 -0.6267  0.2987  0.8644
  732TMC3    O210828   1.100   1.925  11.796  0.3614 -0.8429 -0.1623
  733TMC3    C110829   1.768   0.117  12.785  0.3375  0.5227  0.7432
  733TMC3    C210830   1.815   0.239  12.834  0.3200  0.1778 -0.4734
  733TMC3    C310831   1.932   0.287  12.782  0.0687 -0.0231  0.3699
  733TMC3    C410832   1.818   0.058  12.674  0.0181 -0.0572 -0.5949
  733TMC3    C510833   1.938   0.113  12.623 -0.1912  0.7552  0.4827
  733TMC3    C610834   1.994   0.230  12.674  0.1367  0.6504  0.4592
  733TMC3     C10835   1.628   0.094  12.812  0.2936 -0.3555 -0.6973
  733TMC3     O10836   1.561   0.082  12.712  0.5216 -0.1194 -0.7203
  733TMC3     H10837   1.769   0.292  12.916 -2.0883  1.5102 -2.6924
  733TMC3    H110838   1.774   4.694  12.630 -0.1290  1.0698 -2.7207
  733TMC3    H210839   2.098   0.253  12.658  0.0547  0.4022 -0.4050
  733TMC3    C710840   1.969   0.078  12.491  0.1075  0.2203  0.5683
  733TMC3    C810841   1.977   0.422  12.820 -0.3653  0.0448  0.0839
  733TMC3    O110842   1.923   4.700  12.440 -0.2757 -0.2191 -0.3221
  733TMC3    O210843   1.951   0.463  12.930  0.0837 -0.0433  0.4159
  734MPD2     C10844   3.686   2.771  12.418  0.1040  0.5047 -0.7376
  734MPD2    C110845   3.624   2.687  12.327 -0.0864  0.2904 -0.1102
  734MPD2    C210846   3.634   2.704  12.192  0.1700 -0.0315  0.2724
  734MPD2    C310847   3.716   2.799  12.142  0.3085  0.3233  0.5539
  734MPD2    C410848   3.755   2.896  12.226  0.7231 -0.5922  0.4146
  734MPD2    C510849   3.751   2.882  12.366  0.5020  0.0675 -0.3454
  734MPD2     H10850   3.604   2.632  12.116  0.4281  2.1340 -1.8523
  734MPD2    H110851   3.809   2.983  12.191 -0.0791  1.1375  3.4426
  734MPD2    H210852   3.688   2.754  12.525 -2.0860 -0.8729 -0.9140
  734MPD2    H310853   3.792   2.950  12.440 -1.5772  1.9638 -0.9388
  734MPD2     N10854   3.729   2.793  12.004  0.5725 -0.0256 -0.4976
  734MPD2    H510855   3.660   2.740  11.952  0.1270  0.4877 -0.4209
  734MPD2    N110856   3.543   2.587  12.379 -0.0956  0.0539  0.3073
  734MPD2    H710857   3.539   2.563  12.478  0.2308  3.0655  1.0414
  735TMC3    C110858   3.417   2.385  12.369 -0.0151  0.1971  0.3924
  735TMC3    C210859   3.314   2.327  12.302  0.0759 -0.3998 -0.0794
  735TMC3    C310860   3.306   2.192  12.290 -0.2307 -0.3652 -0.6386
  735TMC3    C410861   3.506   2.306  12.427  0.6765 -0.4884  0.8699
  735TMC3    C510862   3.502   2.172  12.417 -0.4869  0.4253  0.7486
  735TMC3    C610863   3.402   2.114  12.345  0.4897 -0.6557  0.1219
  735TMC3     C10864   3.466   2.503  12.300  0.3819 -0.0631  0.2012
  735TMC3     O10865   3.423   2.523  12.187  0.0313 -0.2126  0.4947
  735TMC3     H10866   3.238   2.390  12.258  1.1792  1.1027  0.1693
  735TMC3    H110867   3.604   2.349  12.448  1.4584 -2.7187  1.7639
  735TMC3    H210868   3.408   2.009  12.321 -0.8364 -0.5738 -0.6198
  735TMC3    C710869   3.632   2.118  12.378  0.7204 -0.4267  0.7150
  735TMC3    C810870   3.300   2.150  12.153 -0.0911 -0.3536  0.3504
  735TMC3    O110871   3.698   2.196  12.314  0.0988  0.6419 -0.2452
  735TMC3    O210872   3.254   2.041  12.128 -0.4123 -0.1677  0.2780
  736MPD2     C10873   3.780   1.805  12.469 -0.6173  0.1342  0.0572
  736MPD2    C110874   3.773   1.920  12.400 -0.1532  0.7071 -0.1906
  736MPD2    C210875   3.871   1.951  12.306  0.0316  0.7685 -0.4989
  736MPD2    C310876   3.971   1.862  12.280  0.2177  0.1356 -0.1788
  736MPD2    C410877   3.985   1.747  12.360  0.0326  0.1543 -0.4867
  736MPD2    C510878   3.889   1.722  12.453  0.4866 -0.1078 -0.0911
  736MPD2     H10879   3.856   2.047  12.257 -1.1895 -0.2261 -2.0868
  736MPD2    H110880   4.073   1.686  12.344 -1.0969 -0.8288 -2.9307
  736MPD2    H210881   3.699   1.781  12.537  0.5934 -0.1919  1.3740
  736MPD2    H310882   3.892   1.649  12.533  0.5636  0.8325  0.7701
  736MPD2     N10883   4.052   1.883  12.164  0.1185  0.4647 -0.4923
  736MPD2    H510884   4.102   1.802  12.131 -1.1566 -1.5298  2.4720
  736MPD2    N110885   3.665   1.991  12.428  0.0204  0.1032 -0.0222
  736MPD2    H710886   3.605   1.955  12.501  0.8302 -0.2433  0.4784
  737TMC3    C110887   4.139   2.004  11.972 -0.0010 -0.3783 -0.2232
  737TMC3    C210888   4.132   2.119  11.903  0.2666  0.7107  0.7134
  737TMC3    C310889   4.160   2.111  11.771  0.8813 -0.0814 -0.3224
  737TMC3    C410890   4.218   1.902  11.929  0.4781 -0.1609 -0.9903
  737TMC3    C510891   4.262   1.899  11.805  0.0165 -0.4754  0.2310
  737TMC3    C610892   4.223   2.002  11.713 -0.0687 -0.4449 -0.2817
  737TMC3     C10893   4.080   2.007  12.108 -0.4096 -0.2272 -0.5473
  737TMC3     O10894   4.064   2.119  12.157  0.2606  0.2390  0.3581
  737TMC3     H10895   4.069   2.205  11.925 -1.9727 -1.4070  2.6167
  737TMC3    H110896   4.231   1.823  12.002 -0.1855  1.9893  1.4705
  737TMC3    H210897   4.234   2.002  11.605  0.8679 -0.2455 -0.1852
  737TMC3    C710898   4.353   1.792  11.763 -0.4873 -0.7366 -0.8030
  737TMC3    C810899   4.150   2.240  11.700 -0.0653 -0.0464 -0.1010
  737TMC3    O110900   4.378   1.699  11.838 -0.1871  0.2128  0.2899
  737TMC3    O210901   4.172   2.340  11.767 -0.1824 -0.3578  0.3050
  738MPD2     C10902   4.288   1.026  15.238 -0.2722 -0.2002 -0.1513
  738MPD2    C110903   4.348   0.906  15.204  1.2145  1.0009 -0.6054
  738MPD2    C210904   4.458   0.905  15.125 -0.0599  0.4031  0.5102
  738MPD2    C310905   4.514   1.022  15.068  0.8113 -0.1810  0.1265
  738MPD2    C410906   4.458   1.142  15.104 -0.0939  0.5751 -0.1798
  738MPD2    C510907   4.346   1.144  15.184  0.5682  0.6672  0.5129
  738MPD2     H10908   4.510   0.812  15.103  2.2645  2.2918 -1.9306
  738MPD2    H110909   4.488   1.239  15.066  1.2361 -0.5769 -2.0781
  738MPD2    H210910   4.188   1.032  15.281 -0.9060 -0.6489 -1.5526
  738MPD2    H310911   4.305   1.240  15.211 -0.2745  0.8138 -1.3186
  738MPD2     N10912   4.619   1.029  14.976 -0.3307  0.2538  0.2065
  738MPD2    H510913   4.635   1.122  14.938 -2.1517  0.1673 -0.7356
  738MPD2    N110914   4.297   0.781  15.237  0.1899  1.0460  0.1946
  738MPD2    H710915   4.345   0.697  15.207  1.7008  1.3776  1.6707
  739TMC3    C110916   0.080   0.967  14.851  0.2539 -0.1984  0.0187
  739TMC3    C210917   0.040   1.042  14.744 -0.3940  0.4148 -0.5303
  739TMC3    C310918   0.129   1.064  14.643 -0.2413 -0.0676  0.0069
  739TMC3    C410919   0.212   0.921  14.853  0.1841 -0.0328 -0.5428
  739TMC3    C510920   0.303   0.959  14.760 -0.1749  0.1077 -0.0484
  739TMC3    C610921   0.260   1.032  14.651 -0.0868  0.2320  1.0171
  739TMC3     C10922   4.710   0.930  14.952 -1.1462  0.1297  0.4395
  739TMC3     O10923   4.709   0.810  14.983  0.0472  0.0505  0.3290
  739TMC3     H10924   4.664   1.077  14.728 -0.1090  1.0635 -0.9140
  739TMC3    H110925   0.239   0.877  14.949 -1.5924 -2.4243 -1.1409
  739TMC3    H210926   0.334   1.039  14.572 -0.2938 -2.4473  0.5789
  739TMC3    C710927   0.439   0.915  14.766 -0.0612 -0.6475  0.6859
  739TMC3    C810928   0.083   1.159  14.549 -0.2881 -0.1128  0.0570
  739TMC3    O110929   0.490   0.854  14.673  0.3844  0.2939  0.0407
  739TMC3    O210930   4.688   1.150  14.522  0.1733 -0.2036  0.0124
  740TMC3    C110931   0.158   2.441  14.119  0.0145  0.3239 -0.3732
  740TMC3    C210932   0.225   2.425  14.241 -0.1294 -0.7089  0.6080
  740TMC3    C310933   0.363   2.415  14.227 -0.3168  0.0705  0.2104
  740TMC3    C410934   0.228   2.453  14.000 -0.0736 -0.2305  0.3409
  740TMC3    C510935   0.365   2.465  13.997 -0.3305 -0.0401 -0.4975
  740TMC3    C610936   0.435   2.436  14.109  0.0359  0.3037  0.3100
  740TMC3     C10937   0.011   2.428  14.112 -0.5550  0.7095  0.9767
  740TMC3     O10938   4.695   2.440  13.999  0.1599 -0.3543 -0.0978
  740TMC3     H10939   0.175   2.401  14.334 -0.6693 -0.1379  0.4585
  740TMC3    H110940   0.173   2.482  13.911  0.3221 -1.0677 -0.1727
  740TMC3    H210941   0.544   2.430  14.104 -0.0772  0.5327 -2.2489
  740TMC3    C710942   0.438   2.417  13.880  0.6512  0.5756  0.0414
  740TMC3    C810943   0.444   2.377  14.340  0.3010 -0.3915 -0.1163
  740TMC3    O110944   0.513   2.320  13.887 -0.0272 -0.2729  0.1873
  740TMC3    O210945   0.563   2.386  14.322  0.8546  0.4092  0.0089
  741TMC3    C110946   4.524   1.564  14.508  0.1042 -0.4907 -0.3357
  741TMC3    C210947   4.398   1.565  14.558 -0.7416  0.0900  0.4921
  741TMC3    C310948   4.365   1.514  14.683 -0.0105 -0.5117  0.2552
  741TMC3    C410949   4.625   1.506  14.583  0.2060 -0.3290  0.1811
  741TMC3    C510950   4.591   1.459  14.703 -0.7061  0.4178 -0.3684
  741TMC3    C610951   4.462   1.459  14.762  0.2633 -0.3020 -0.3624
  741TMC3     C10952   4.553   1.648  14.389 -0.0473  0.0456  0.4650
  741TMC3     O10953   4.672   1.679  14.376 -0.4534 -0.2754 -0.3309
  741TMC3     H10954   4.315   1.608  14.502  1.8697  0.8181 -2.8635
  741TMC3    H110955   4.724   1.524  14.542  1.3910 -1.0433  2.7864
  741TMC3    H210956   4.439   1.400  14.850  2.2110 -1.3859 -0.5976
  741TMC3    C710957   4.687   1.383  14.780 -0.4595 -0.1848  1.5563
  741TMC3    C810958   4.238   1.436  14.672 -0.0125  0.0289  0.1472
  741TMC3    O110959   4.657   1.296  14.858  1.1330 -0.5666  0.1681
  741TMC3    O210960   4.221   1.391  14.561 -0.0310 -0.3077  0.6778
  742TMC3    C110961   4.283   4.223  15.423  0.0649  0.7048 -0.4013
  742TMC3    C210962   4.228   4.253  15.300 -0.5387 -0.3846  0.0583
  742TMC3    C310963   4.285   4.193  15.196  0.0006  0.1782  0.2120
  742TMC3    C410964   4.412   4.173  15.435  0.5511 -0.7164 -0.5413
  742TMC3    C510965   4.472   4.122  15.321 -0.5587  0.3040  0.1344
  742TMC3    C610966   4.410   4.123  15.201 -0.0428  0.0734 -0.3538
  742TMC3     C10967   4.205   4.276  15.537 -0.1839  0.5459 -0.0226
  742TMC3     O10968   4.143   4.382  15.519 -0.0190 -0.2998 -0.3907
  742TMC3     H10969   4.127   4.292  15.291 -0.1335  1.1535  2.2167
  742TMC3    H110970   4.448   4.171  15.537  0.8523 -1.3490 -0.6613
  742TMC3    H210971   4.464   4.091  15.112  3.0652  1.0820  1.1795
  742TMC3    C710972   4.605   4.062  15.339  0.0566 -0.1292  0.5663
  742TMC3    C810973   4.242   4.237  15.065  0.4251  0.2022 -0.0711
  742TMC3    O110974   4.640   3.986  15.249 -0.4932 -0.1147 -0.1052
  742TMC3    O210975   4.294   4.179  14.971 -0.4587 -0.6706 -0.0779
  743MPD2     C10976   3.356   2.400   1.699 -0.2213  0.1859  0.6446
  743MPD2    C110977   3.322   2.315   1.592 -0.2929  0.1424 -0.2378
  743MPD2    C210978   3.399   2.318   1.474 -0.4448  0.0503  0.3413
  743MPD2    C310979   3.502   2.412   1.462  0.4320 -0.0166 -0.1769
  743MPD2    C410980   3.533   2.498   1.566 -0.0426 -0.2480 -0.6997
  743MPD2    C510981   3.446   2.497   1.671 -0.7644  0.4442  0.1248
  743MPD2     H10982   3.362   2.265   1.387 -0.4960  1.0168 -0.2151
  743MPD2    H110983   3.622   2.561   1.566  0.8889 -1.5518  0.9043
  743MPD2    H210984   3.308   2.404   1.796 -2.6539 -1.1177 -0.5175
  743MPD2    H310985   3.469   2.561   1.756 -2.6648  1.2346  0.0604
  743MPD2     N10986   3.561   2.416   1.336 -0.3291 -0.2287 -0.1477
  743MPD2    H510987   3.522   2.368   1.256 -1.3829 -0.8300  0.7112
  743MPD2    N110988   3.209   2.231   1.605 -0.2167 -0.2639 -0.1091
  743MPD2    H710989   3.153   2.240   1.689  2.0467  3.5211  1.0169
  744TMC3    C110990   3.026   2.084   1.551  0.8386 -0.2532  0.0345
  744TMC3    C210991   2.936   2.177   1.593  0.1927 -0.6173  0.0275
  744TMC3    C310992   2.811   2.167   1.553  0.1668 -0.5845 -0.1808
  744TMC3    C410993   2.990   1.971   1.494 -0.0128 -0.7887 -0.6496
  744TMC3    C510994   2.854   1.962   1.466  0.2029  0.0814 -0.3622
  744TMC3    C610995   2.762   2.063   1.481 -0.2993 -0.2576  0.5482
  744TMC3     C10996   3.165   2.130   1.519 -0.3489  0.2259  0.7620
  744TMC3     O10997   3.214   2.078   1.424 -0.6685 -0.2240  0.0229
  744TMC3     H10998   2.970   2.274   1.626 -0.4060 -0.6789  0.8373
  744TMC3    H110999   3.066   1.897   1.472 -0.2899 -1.4910  0.7426
  744TMC3    H211000   2.659   2.062   1.446 -1.0677 -0.2537  2.8045
  744TMC3    C711001   2.827   1.863   1.362 -0.2625 -0.0834 -0.7767
  744TMC3    C811002   2.711   2.244   1.625  0.0033  0.6324  0.6112
  744TMC3    O111003   2.909   1.803   1.296  0.6290  0.1159  0.6339
  744TMC3    O211004   2.596   2.248   1.574 -0.2479  0.9402 -0.0582
  745TMC3    C111005   4.586   0.067  13.323 -0.1270  0.6422  0.2304
  745TMC3    C211006   4.540   0.059  13.445  0.1493 -1.0591  0.0312
  745TMC3    C311007   4.612   4.706  13.533  0.1164 -0.2288 -0.0185
  745TMC3    C411008   4.708   0.006  13.288  0.0585  0.4178 -0.1884
  745TMC3    C511009   0.061   4.670  13.384 -0.5240 -0.3242 -0.6535
  745TMC3    C611010   0.011   4.658  13.508  0.6613 -0.6154 -0.0205
  745TMC3     C11011   4.523   0.164  13.234 -0.2790 -0.0451  0.4342
  745TMC3     O11012   4.501   0.128  13.118  0.4080  0.3157  0.2777
  745TMC3     H11013   4.446   0.107  13.468  1.4227  1.4588 -0.0553
  745TMC3    H111014   0.002   4.722  13.182  1.5569 -1.9981  0.2874
  745TMC3    H211015   0.067   4.590  13.570 -1.9674 -3.1159 -0.3620
  745TMC3    C711016   0.194   4.610  13.354 -0.5031  0.3431  0.2246
  745TMC3    C811017   4.544   4.675  13.660 -0.3486 -0.2332  0.0527
  745TMC3    O111018   0.240   4.528  13.429  0.0168 -0.1760  0.4255
  745TMC3    O211019   4.424   4.697  13.677 -0.3104  0.1076 -0.3693
  746TMC3    C111020   2.685   1.973  10.933  0.2656  0.7048  0.3022
  746TMC3    C211021   2.762   1.941  10.827  0.5007  0.3207  0.2352
  746TMC3    C311022   2.753   1.810  10.786  0.2665  0.3613 -0.0030
  746TMC3    C411023   2.601   1.890  10.997 -0.1261 -1.2126  0.5167
  746TMC3    C511024   2.604   1.762  10.963 -0.0178 -0.4067  0.5637
  746TMC3    C611025   2.681   1.720  10.859 -0.0289 -0.5168 -0.5558
  746TMC3     C11026   2.750   2.063  11.026 -0.6375  0.5255  0.2842
  746TMC3     O11027   2.676   2.140  11.085 -0.5468 -0.4100 -0.8853
  746TMC3     H11028   2.828   2.013  10.781  2.4357 -1.2759  0.4906
  746TMC3    H111029   2.553   1.918  11.090  1.4368 -0.0427  0.9797
  746TMC3    H211030   2.684   1.618  10.822 -0.9294 -1.0846  0.9553
  746TMC3    C711031   2.514   1.666  11.030  0.3191 -0.5992  0.0595
  746TMC3    C811032   2.812   1.774  10.658 -0.1011 -0.3613 -0.5478
  746TMC3    O111033   2.406   1.707  11.059 -0.1300  0.6683 -0.3379
  746TMC3    O211034   2.831   1.658  10.628  0.2655  0.1149 -0.4144
  747TMC3    C111035   0.018   1.967  10.942 -0.5384 -0.0706 -0.8357
  747TMC3    C211036   4.722   1.882  11.041 -0.5880 -0.0461  0.0511
  747TMC3    C311037   0.102   1.816  11.099 -0.4498 -0.6995  0.5057
  747TMC3    C411038   0.142   1.975  10.885 -0.0538  0.5873 -0.0668
  747TMC3    C511039   0.247   1.906  10.943  0.1353  0.0011 -0.2179
  747TMC3    C611040   0.224   1.820  11.044 -0.0201  0.6758 -0.0574
  747TMC3     C11041   4.627   1.993  10.854 -0.0925  0.1102 -0.1044
  747TMC3     O11042   4.516   1.992  10.901 -0.3974 -0.3105  1.1047
  747TMC3     H11043   4.621   1.876  11.081 -1.3394  1.0393 -1.6447
  747TMC3    H111044   0.169   2.053  10.815  2.0595  1.5059  1.7383
  747TMC3    H211045   0.304   1.774  11.100 -0.9962 -0.0545  0.7261
  747TMC3    C711046   0.381   1.953  10.935  0.5419  0.2164 -0.1524
  747TMC3    C811047   0.075   1.726  11.209 -0.4027  0.4400 -0.1098
  747TMC3    O111048   0.447   1.940  11.035 -0.2686  0.4281  0.4309
  747TMC3    O211049   0.151   1.628  11.223 -0.0242  0.4086  0.3720
  748MPD2     C11050   0.680   2.914   0.888 -0.3074  0.4024  1.1051
  748MPD2    C111051   0.774   2.840   0.938 -0.1657  0.3166  0.9946
  748MPD2    C211052   0.909   2.881   0.929  0.4909  0.3064  0.0910
  748MPD2    C311053   0.940   2.992   0.859  0.0419  0.2116 -0.0909
  748MPD2    C411054   0.838   3.070   0.804 -0.2779  0.3776  0.1898
  748MPD2    C511055   0.707   3.028   0.821  0.0571  0.1562 -0.4626
  748MPD2     H11056   0.986   2.824   0.981  1.3347 -0.5863 -2.1153
  748MPD2    H111057   0.858   3.159   0.746 -0.4281 -0.2436 -0.8178
  748MPD2    H211058   0.576   2.884   0.900 -0.6439  0.4388 -1.5939
  748MPD2    H311059   0.629   3.080   0.766  0.4585 -0.8494 -1.9857
  748MPD2     N11060   1.077   3.019   0.859 -0.4159 -1.1775 -0.1759
  748MPD2    H511061   1.138   2.960   0.915  0.9289  0.2124 -0.1970
  748MPD2    N111062   0.740   2.724   1.009  0.9869 -0.2406 -0.1269
  748MPD2    H711063   0.641   2.700   1.010  0.8958  0.1121 -1.4721
  749TMC3    C111064   1.274   3.143   0.827  0.2702 -0.5085 -0.4050
  749TMC3    C211065   1.330   3.054   0.915 -0.9311  0.1014  0.5346
  749TMC3    C311066   1.467   3.052   0.915  0.4372  0.3241 -0.3511
  749TMC3    C411067   1.350   3.223   0.745 -0.2744 -0.2189  0.7563
  749TMC3    C511068   1.479   3.222   0.767 -0.3839 -0.1872  0.2511
  749TMC3    C611069   1.548   3.136   0.845  0.1803 -0.3656  0.1007
  749TMC3     C11070   1.135   3.120   0.790 -0.0386 -0.0617 -0.0169
  749TMC3     O11071   1.075   3.194   0.715 -0.0216  0.2496 -0.1432
  749TMC3     H11072   1.281   3.005   0.999  0.7573 -0.6696  1.0670
  749TMC3    H111073   1.296   3.292   0.681 -0.4613 -0.5846  0.5218
  749TMC3    H211074   1.655   3.145   0.854 -0.1545  2.9086  0.7968
  749TMC3    C711075   1.560   3.324   0.709  0.3286 -0.2279  0.2357
  749TMC3    C811076   1.519   2.977   1.024 -0.3467 -0.3171  0.3304
  749TMC3    O111077   1.663   3.359   0.767 -0.0343  0.3652 -0.0922
  749TMC3    O211078   1.457   2.974   1.133  0.2244  0.1504 -0.3235
  750MPD2     C11079   2.221   3.734  10.921 -0.8849  0.3598 -0.2406
  750MPD2    C111080   2.275   3.735  11.050  0.3296 -0.8206 -0.4971
  750MPD2    C211081   2.418   3.721  11.056 -0.1506 -0.7581  0.2761
  750MPD2    C311082   2.502   3.716  10.936  0.5844  1.1157 -0.1311
  750MPD2    C411083   2.439   3.716  10.811  0.0474  0.2431 -0.4025
  750MPD2    C511084   2.298   3.727  10.810  0.4759 -0.1965 -0.1284
  750MPD2     H11085   2.466   3.733  11.152 -0.9379  1.2698  0.4296
  750MPD2    H111086   2.478   3.730  10.711  2.1438 -1.9842  0.1169
  750MPD2    H211087   2.113   3.734  10.907 -0.6780 -0.0457 -1.8305
  750MPD2    H311088   2.255   3.745  10.712 -0.2432 -1.3397 -0.0308
  750MPD2     N11089   2.642   3.723  10.954 -0.1319 -0.2892 -0.1026
  750MPD2    H511090   2.668   3.737  11.051  0.4838  1.3771 -0.5111
  750MPD2    N111091   2.181   3.753  11.155 -0.4839 -0.8431 -0.0937
  750MPD2    H711092   2.082   3.765  11.135  0.0126 -0.9979 -2.6821
  751TMC3    C111093   2.870   3.743  10.908  0.3509 -0.4069 -0.0163
  751TMC3    C211094   2.865   3.801  11.031 -0.2390 -0.5209  0.1148
  751TMC3    C311095   2.920   3.738  11.135 -0.2177 -0.1130 -0.1489
  751TMC3    C411096   2.947   3.632  10.887  0.8122  0.2647 -0.0729
  751TMC3    C511097   3.001   3.563  10.994  0.1748  0.2478  0.5916
  751TMC3    C611098   2.985   3.622  11.120 -0.2964  0.0215 -0.9153
  751TMC3     C11099   2.736   3.724  10.854  0.0847 -0.4630  0.1109
  751TMC3     O11100   2.721   3.694  10.735  0.0014  0.2484 -0.2313
  751TMC3     H11101   2.818   3.896  11.053 -0.6586 -0.8210  0.5336
  751TMC3    H111102   2.941   3.585  10.789  0.2042  0.6038 -0.1991
  751TMC3    H211103   3.035   3.573  11.203 -0.0777  0.1346 -0.9802
  751TMC3    C711104   3.002   3.418  10.974  0.6126 -0.1256 -0.3547
  751TMC3    C811105   2.817   3.713  11.232  0.5964 -0.2131 -0.3727
  751TMC3    O111106   2.953   3.385  10.868  0.1478  0.2120 -0.0145
  751TMC3    O211107   2.738   3.804  11.255  0.5847  0.2860 -0.7348
  752TMC3    C111108   1.425   3.839  17.194 -0.1384  0.6981  0.1874
  752TMC3    C211109   1.344   3.782  17.286  0.4886 -0.0019  0.7212
  752TMC3    C311110   1.351   3.822  17.412 -0.2648 -0.4358 -0.3342
  752TMC3    C411111   1.522   3.926  17.235  0.3545 -0.3143  0.1013
  752TMC3    C511112   1.527   3.964  17.366  0.4078  0.1586  0.4181
  752TMC3    C611113   1.436   3.922  17.453 -0.1207  0.3652 -0.3311
  752TMC3     C11114   1.441   3.775  17.069  0.1971 -0.0805  0.0932
  752TMC3     O11115   1.557   3.759  17.030  0.3502 -0.7705  0.5185
  752TMC3     H11116   1.269   3.708  17.260 -0.5898  1.4819 -0.4596
  752TMC3    H111117   1.591   3.963  17.159  0.3397  2.1725  1.3110
  752TMC3    H211118   1.445   3.955  17.556 -2.8627 -0.2203  0.1033
  752TMC3    C711119   1.632   4.056  17.414 -0.4417 -0.0624 -0.9819
  752TMC3    C811120   1.228   3.800  17.486 -0.9086  0.9499 -0.2181
  752TMC3    O111121   1.653   4.060  17.535 -0.8794 -0.3578 -0.0146
  752TMC3    O211122   1.167   3.696  17.472 -0.2281  0.2901 -0.2652
  753TMC3    C111123   3.037   4.156  13.786 -0.3943  0.0971  0.1851
  753TMC3    C211124   3.151   4.182  13.849  0.0841  0.1847  0.4632
  753TMC3    C311125   3.265   4.116  13.813  0.0796  0.1212 -0.7072
  753TMC3    C411126   3.028   4.065  13.681  0.7314 -0.3904  0.3291
  753TMC3    C511127   3.139   3.993  13.651 -0.2505 -0.2975  0.0961
  753TMC3    C611128   3.254   4.019  13.717  0.5699  0.6672 -0.2120
  753TMC3     C11129   2.922   4.224  13.843 -0.0220  0.2066  0.1970
  753TMC3     O11130   2.937   4.320  13.916 -0.2716  0.2001  0.2587
  753TMC3     H11131   3.143   4.238  13.942  1.8931  0.3242  0.5218
  753TMC3    H111132   2.931   4.055  13.633  1.0582 -1.3064 -0.1494
  753TMC3    H211133   3.331   3.945  13.698  1.1473  0.4616  2.9478
  753TMC3    C711134   3.145   3.896  13.536  0.2295 -0.1939 -0.6247
  753TMC3    C811135   3.348   4.092  13.927 -0.4895  0.8539 -0.1629
  753TMC3    O111136   3.253   3.871  13.483  0.2640  0.1663 -0.8653
  753TMC3    O211137   3.385   3.974  13.933 -0.6748 -0.1342 -0.4148
  754MPD2     C11138   1.603   3.588  12.999  0.4434 -0.0973  0.0462
  754MPD2    C111139   1.546   3.462  13.009  0.0152 -0.0993 -0.3149
  754MPD2    C211140   1.410   3.461  13.045  0.3734  0.3925 -0.1817
  754MPD2    C311141   1.341   3.573  13.079 -0.6499  0.2145 -0.0097
  754MPD2    C411142   1.397   3.696  13.056  0.0309 -0.0816 -0.8811
  754MPD2    C511143   1.527   3.698  13.021 -0.6881 -0.0334  0.0295
  754MPD2     H11144   1.345   3.374  13.047  0.8395  0.0890  2.5590
  754MPD2    H111145   1.344   3.789  13.067  1.9768  0.5375  3.4714
  754MPD2    H211146   1.709   3.602  12.981  0.0204  2.4295 -0.5730
  754MPD2    H311147   1.578   3.794  13.027 -1.8710  0.6185 -0.3032
  754MPD2     N11148   1.193   3.556  13.110 -0.2297 -0.4045  0.5600
  754MPD2    H511149   1.162   3.461  13.125 -2.3328  0.5965  2.5978
  754MPD2    N111150   1.624   3.349  12.984 -0.5798  0.0573 -0.1707
  754MPD2    H711151   1.716   3.363  12.942  0.2602 -2.4646  0.7670
  755MPD2     C11152   1.038   3.666  14.019  0.0207  0.3306  0.1774
  755MPD2    C111153   0.978   3.763  13.947 -0.1343  0.1668 -0.4105
  755MPD2    C211154   0.930   3.733  13.823  0.0922  0.6956  0.2144
  755MPD2    C311155   0.942   3.606  13.764 -0.6174 -0.6562 -0.6010
  755MPD2    C411156   1.014   3.510  13.833  0.1455  0.8614  0.2347
  755MPD2    C511157   1.059   3.539  13.959  0.0763 -0.2759 -0.2390
  755MPD2     H11158   0.880   3.807  13.761 -0.9262  0.0600  0.2723
  755MPD2    H111159   1.032   3.410  13.796 -2.1345  1.2131 -1.8564
  755MPD2    H211160   1.062   3.673  14.125 -1.8179  1.9512  0.4919
  755MPD2    H311161   1.093   3.454  14.017 -2.1014 -0.2152  1.1294
  755MPD2     N11162   0.892   3.564  13.637 -0.1107 -0.1456 -0.2369
  755MPD2    H511163   0.912   3.466  13.617 -0.9224 -0.5310  0.8237
  755MPD2    N111164   0.953   3.891  13.997 -0.0013  0.0553  0.1553
  755MPD2    H711165   0.880   3.945  13.950 -0.3081 -0.0309  0.5378
  756MPD2     C11166   2.060   3.240   9.262  0.3515 -0.4276  0.3746
  756MPD2    C111167   2.041   3.361   9.325  0.4383 -0.1881 -0.0118
  756MPD2    C211168   1.925   3.433   9.295 -0.3060  0.7407  0.3784
  756MPD2    C311169   1.834   3.386   9.206 -0.2916 -0.2966  0.2697
  756MPD2    C411170   1.860   3.272   9.139 -0.0549  0.0095  0.0928
  756MPD2    C511171   1.966   3.194   9.171 -0.4155  1.2120 -0.5667
  756MPD2     H11172   1.900   3.520   9.354  2.0627  1.4326  0.3844
  756MPD2    H111173   1.800   3.240   9.055 -1.2118 -0.9777  1.2824
  756MPD2    H211174   2.144   3.173   9.278  1.6593  1.2494  0.4803
  756MPD2    H311175   1.989   3.106   9.112  0.5260  1.9081 -1.2603
  756MPD2     N11176   1.721   3.467   9.190 -0.0957  0.1808 -0.0951
  756MPD2    H511177   1.725   3.563   9.224  1.7771  0.2572 -0.5510
  756MPD2    N111178   2.122   3.411   9.425  0.4545 -0.3125  0.1590
  756MPD2    H711179   2.099   3.500   9.468 -1.4980 -1.8597  2.2777
  757MPD2     C11180   0.825   3.305   9.457 -0.5013 -0.2159  0.2729
  757MPD2    C111181   0.951   3.258   9.481 -0.1217  0.2263  0.8161
  757MPD2    C211182   1.056   3.330   9.431 -0.1016  0.1424 -0.1934
  757MPD2    C311183   1.046   3.435   9.350  0.1227  0.6160  0.9447
  757MPD2    C411184   0.924   3.486   9.335  0.1338 -0.0085 -0.5179
  757MPD2    C511185   0.815   3.412   9.376  0.4541  0.6785  0.0028
  757MPD2     H11186   1.158   3.298   9.452 -0.2443  0.2768  0.6812
  757MPD2    H111187   0.902   3.575   9.279 -0.8194  0.1250  0.0795
  757MPD2    H211188   0.741   3.246   9.491 -0.0592 -1.0185 -0.0434
  757MPD2    H311189   0.717   3.458   9.363  1.0146  1.2306 -2.3171
  757MPD2     N11190   1.160   3.490   9.291  0.2096 -0.4960  0.6733
  757MPD2    H511191   1.247   3.439   9.308  1.1434  0.9772  0.2833
  757MPD2    N111192   0.966   3.147   9.566 -0.5561 -0.1124 -0.0769
  757MPD2    H711193   0.878   3.108   9.599 -1.2804 -0.6694 -2.6896
  758MPD2     C11194   2.322   2.285  15.715  0.7516 -0.3461  0.5597
  758MPD2    C111195   2.361   2.301  15.845 -0.7015 -0.4008  0.4942
  758MPD2    C211196   2.281   2.358  15.937  0.1093  0.5420  0.4734
  758MPD2    C311197   2.169   2.426  15.896  0.2454 -0.1385  0.1386
  758MPD2    C411198   2.125   2.417  15.768 -0.0447 -0.5860  0.2365
  758MPD2    C511199   2.202   2.337  15.678  0.1313 -0.5670 -0.0579
  758MPD2     H11200   2.313   2.374  16.040 -1.8205  0.0327  1.1478
  758MPD2    H111201   2.052   2.482  15.720 -0.7250 -1.5465 -0.0156
  758MPD2    H211202   2.374   2.239  15.632 -0.2597 -0.0165 -0.2516
  758MPD2    H311203   2.170   2.339  15.574 -0.9947 -0.2723  0.2986
  758MPD2     N11204   2.100   2.525  15.980 -0.1299 -0.0051  0.2072
  758MPD2    H511205   2.015   2.559  15.937 -0.4352 -0.6191  0.3367
  758MPD2    N111206   2.498   2.262  15.866  0.2979  0.1503  0.0609
  758MPD2    H711207   2.546   2.234  15.781 -0.5238  0.8989 -0.6314
  759MPD2     C11208   1.267   0.446   8.863  0.2931  0.7282  0.2159
  759MPD2    C111209   1.197   0.496   8.965 -0.0340  0.1253  0.6498
  759MPD2    C211210   1.228   0.618   9.016  0.1153  0.7418 -0.0577
  759MPD2    C311211   1.327   0.699   8.966  0.2419 -0.3084  0.0256
  759MPD2    C411212   1.396   0.648   8.856  0.2826 -0.0821 -0.0437
  759MPD2    C511213   1.365   0.525   8.809  0.0741  0.1929  0.3906
  759MPD2     H11214   1.173   0.641   9.107  2.7639  0.3962  1.6210
  759MPD2    H111215   1.479   0.702   8.812 -1.6863  2.6159 -0.4507
  759MPD2    H211216   1.251   0.348   8.819 -1.8115  0.4175  1.6707
  759MPD2    H311217   1.426   0.484   8.729 -0.7479 -1.0444  0.4014
  759MPD2     N11218   1.360   0.818   9.031 -0.0779  0.4617  0.5797
  759MPD2    H511219   1.299   0.840   9.109 -0.2378 -0.2186  0.6429
  759MPD2    N111220   1.101   0.423   9.046  0.3124 -0.6343 -0.1652
  759MPD2    H711221   1.062   0.473   9.125  1.9074  1.3704 -0.6413
  760MPD2     C11222   0.803   3.634  11.848 -0.4471 -0.4354  0.3175
  760MPD2    C111223   0.933   3.631  11.800 -0.3700  0.5374 -0.6167
  760MPD2    C211224   1.037   3.599  11.893 -0.0370 -0.1883  0.2182
  760MPD2    C311225   1.002   3.561  12.025  0.5593 -0.0542  0.0355
  760MPD2    C411226   0.870   3.560  12.061 -0.0152  0.9197 -0.0077
  760MPD2    C511227   0.776   3.606  11.977 -0.1022 -0.1828 -0.4282
  760MPD2     H11228   1.143   3.603  11.870 -0.5358 -0.2996 -2.0561
  760MPD2    H111229   0.840   3.536  12.162  0.5276 -0.1262 -0.1019
  760MPD2    H211230   0.729   3.665  11.775  1.3775  1.0691 -0.8831
  760MPD2    H311231   0.674   3.588  12.009 -0.3198 -1.2320 -1.7445
  760MPD2     N11232   1.095   3.540  12.126  0.0150  0.0263  0.2970
  760MPD2    H511233   1.059   3.509  12.216  2.2937  2.1351  1.9378
  760MPD2    N111234   0.969   3.656  11.668 -0.0098 -0.3831 -0.3791
  760MPD2    H711235   1.059   3.620  11.639 -0.6406  0.0659 -2.8727
  761MPD2     C11236   2.427   3.406  11.371  0.5387  0.2093  0.1183
  761MPD2    C111237   2.502   3.342  11.273 -0.1585 -0.8635 -0.2165
  761MPD2    C211238   2.624   3.397  11.238  0.1635  0.1348 -0.0592
  761MPD2    C311239   2.666   3.517  11.288  1.1389 -1.1716 -0.8224
  761MPD2    C411240   2.591   3.582  11.382 -0.0092 -0.7105  0.6224
  761MPD2    C511241   2.472   3.520  11.426  0.5470  0.0361  0.0491
  761MPD2     H11242   2.683   3.352  11.159 -0.3439 -0.1305 -0.2860
  761MPD2    H111243   2.620   3.680  11.418 -0.1306 -0.5250  0.2205
  761MPD2    H211244   2.342   3.354  11.413 -0.5189  0.7373 -1.3436
  761MPD2    H311245   2.411   3.579  11.493 -1.7598 -1.6914 -0.5139
  761MPD2     N11246   2.788   3.576  11.234  0.4554  0.6812  0.6371
  761MPD2    H511247   2.853   3.522  11.176  0.9342  1.7801  0.1522
  761MPD2    N111248   2.473   3.210  11.224  0.0769 -0.3615  0.2681
  761MPD2    H711249   2.390   3.164  11.259  1.4818 -2.2438  1.1483
  762MPD2     C11250   2.735   2.417  10.850 -0.1857 -0.8691  0.3064
  762MPD2    C111251   2.659   2.522  10.810  0.0369 -0.1382 -0.7491
  762MPD2    C211252   2.653   2.542  10.668 -0.0924 -0.2215  0.0435
  762MPD2    C311253   2.717   2.458  10.575  0.0578  0.4645 -0.2590
  762MPD2    C411254   2.802   2.367  10.623 -0.1079  0.1599 -0.2218
  762MPD2    C511255   2.812   2.347  10.759 -0.0358  0.2308 -0.7952
  762MPD2     H11256   2.610   2.634  10.630 -1.4574 -0.6542  0.5151
  762MPD2    H111257   2.850   2.293  10.561  0.6544  1.0543 -0.6969
  762MPD2    H211258   2.749   2.390  10.954  0.0694  1.4640  0.8653
  762MPD2    H311259   2.874   2.264  10.792 -0.6317  1.0642  2.3987
  762MPD2     N11260   2.715   2.489  10.440 -0.0425 -0.1548 -0.5665
  762MPD2    H511261   2.651   2.561  10.408  1.0840  0.8997 -0.4666
  762MPD2    N111262   2.598   2.609  10.905 -0.2986 -0.0133  0.3488
  762MPD2    H711263   2.600   2.580  11.002 -1.7416 -2.2035 -0.2807
  763MPD2     C11264   3.323   3.014  16.033 -0.2353 -0.8231  0.3248
  763MPD2    C111265   3.419   3.075  15.960  0.0372 -1.0470  0.0769
  763MPD2    C211266   3.461   3.199  16.014  0.4414 -0.1888  0.3719
  763MPD2    C311267   3.405   3.256  16.127  0.1027 -0.2471  0.9088
  763MPD2    C411268   3.300   3.195  16.190  0.0009  0.1782 -0.1430
  763MPD2    C511269   3.255   3.069  16.139  0.2905  0.3523 -0.4394
  763MPD2     H11270   3.545   3.245  15.965  1.1136 -2.0463 -0.2357
  763MPD2    H111271   3.244   3.222  16.279  0.0243  0.6220 -0.2653
  763MPD2    H211272   3.278   2.922  15.996  2.5823 -2.1854  0.3047
  763MPD2    H311273   3.176   3.019  16.193  1.3895  0.2916  1.1154
  763MPD2     N11274   3.473   3.366  16.190 -1.0211 -0.4045  0.2897
  763MPD2    H511275   3.552   3.398  16.135  0.2113 -0.8567  1.8019
  763MPD2    N111276   3.490   3.015  15.852  0.8178 -0.3313  0.0556
  763MPD2    H711277   3.556   3.074  15.803 -0.4732  1.9134  1.0308
  764MPD2     C11278   2.305   0.155  17.032 -0.5133 -0.6327  0.1445
  764MPD2    C111279   2.182   0.105  17.005  0.0348 -0.4244 -0.3085
  764MPD2    C211280   2.093   0.108  17.107 -0.4862  0.3209  1.1013
  764MPD2    C311281   2.118   0.149  17.236  0.0060  0.2184 -0.4830
  764MPD2    C411282   2.244   0.199  17.259  0.0050  0.0514 -0.3144
  764MPD2    C511283   2.337   0.199  17.160  0.5439 -0.3279  0.2275
  764MPD2     H11284   1.989   0.096  17.080  0.6121 -1.2192 -2.4757
  764MPD2    H111285   2.270   0.224  17.361 -1.5493 -0.4562  0.2023
  764MPD2    H211286   2.374   0.178  16.951  0.5793  0.1711  1.2873
  764MPD2    H311287   2.439   0.225  17.187  1.0128 -1.1767 -0.7408
  764MPD2     N11288   2.014   0.143  17.329  0.0955  0.0797 -0.0559
  764MPD2    H511289   1.929   0.097  17.296 -0.5713  0.3119  1.3470
  764MPD2    N111290   2.133   0.059  16.880 -0.6330 -0.4364  0.2982
  764MPD2    H711291   2.036   0.029  16.875 -0.1528 -2.0765  0.5609
  765MPD2     C11292   1.580   2.196  15.989 -0.1386 -0.2652 -0.1025
  765MPD2    C111293   1.635   2.273  15.890  0.2885  0.1538 -0.1043
  765MPD2    C211294   1.762   2.242  15.847 -0.6019  0.0629 -0.2500
  765MPD2    C311295   1.829   2.127  15.889  0.0517  0.7739  0.2419
  765MPD2    C411296   1.760   2.045  15.977 -0.0706  0.3355  0.4266
  765MPD2    C511297   1.644   2.085  16.039  1.3231  0.7489  0.1755
  765MPD2     H11298   1.814   2.309  15.779 -1.5462  1.7831  0.7058
  765MPD2    H111299   1.797   1.949  16.011  1.9759  0.4628 -1.4001
  765MPD2    H211300   1.481   2.208  16.033 -0.3074  2.4329 -1.2411
  765MPD2    H311301   1.594   2.030  16.117 -2.9704 -0.2362 -3.2796
  765MPD2     N11302   1.943   2.086  15.819 -0.1758  0.1305  0.0470
  765MPD2    H511303   1.955   2.117  15.723  0.6323  0.5036  0.2725
  765MPD2    N111304   1.561   2.376  15.842 -0.0639 -0.0390  0.6172
  765MPD2    H711305   1.462   2.380  15.865 -0.7987 -0.7788 -2.3684
  766MPD2     C11306   1.359   2.164  15.295 -0.2536  0.4139  0.0750
  766MPD2    C111307   1.368   2.297  15.272  0.1987  0.5988  0.1799
  766MPD2    C211308   1.379   2.350  15.143 -1.1154 -0.2774  0.1732
  766MPD2    C311309   1.392   2.265  15.040 -0.5130 -0.6789  0.0087
  766MPD2    C411310   1.379   2.127  15.067  0.6302  0.9869  0.7515
  766MPD2    C511311   1.359   2.081  15.189 -0.3876  0.1401  0.9889
  766MPD2     H11312   1.382   2.456  15.120 -3.2421  0.0135  1.2199
  766MPD2    H111313   1.385   2.053  14.988  3.3547 -1.3873  3.1781
  766MPD2    H211314   1.348   2.126  15.395 -0.8739 -0.6820 -0.4072
  766MPD2    H311315   1.332   1.978  15.212  0.3293  0.2474  2.2736
  766MPD2     N11316   1.414   2.307  14.907  0.2631 -0.1941  0.0570
  766MPD2    H511317   1.403   2.405  14.884 -0.6114 -0.4990 -0.8411
  766MPD2    N111318   1.355   2.372  15.390  0.4822  0.0572 -0.5210
  766MPD2    H711319   1.370   2.319  15.475  0.3066  1.3198  0.2994
  767MPD2     C11320   1.117   2.525  15.089 -0.8073 -0.4970  0.1737
  767MPD2    C111321   1.142   2.642  15.021  0.4617  0.0676 -0.1344
  767MPD2    C211322   1.075   2.671  14.904 -0.0794  0.0256 -0.3607
  767MPD2    C311323   0.991   2.577  14.848 -0.3272 -0.1029 -0.0853
  767MPD2    C411324   0.982   2.453  14.917  0.0400  0.2507  0.3723
  767MPD2    C511325   1.035   2.431  15.041 -0.5328  0.4256 -0.1591
  767MPD2     H11326   1.096   2.758  14.843  0.0643 -3.0071 -4.6651
  767MPD2    H111327   0.911   2.377  14.885  0.8659  0.0573 -1.0238
  767MPD2    H211328   1.165   2.495  15.181 -2.6669 -1.1729  0.9232
  767MPD2    H311329   1.024   2.332  15.084 -1.6456  0.0454 -1.3100
  767MPD2     N11330   0.936   2.594  14.721 -0.3736 -0.3004  0.2758
  767MPD2    H511331   0.937   2.686  14.679  0.9024 -0.3329  0.2120
  767MPD2    N111332   1.224   2.732  15.089  0.3613 -0.1129 -0.7766
  767MPD2    H711333   1.277   2.691  15.165 -2.2423 -0.7402  0.6801
  768MPD2     C11334   2.345   1.397  10.453  0.0678 -0.2697 -0.0583
  768MPD2    C111335   2.341   1.301  10.551  0.1420  0.2850  0.3007
  768MPD2    C211336   2.456   1.270  10.624 -0.2260  0.7438  0.0977
  768MPD2    C311337   2.568   1.343  10.612  0.6248  0.2224 -0.7043
  768MPD2    C411338   2.575   1.439  10.513  0.2830  0.2826 -0.4298
  768MPD2    C511339   2.465   1.463  10.433  0.4236  0.0278 -0.2974
  768MPD2     H11340   2.462   1.195  10.702  1.2600 -0.2637 -0.9924
  768MPD2    H111341   2.669   1.492  10.505  1.2300 -1.4825 -1.2243
  768MPD2    H211342   2.256   1.423  10.397  0.2804 -0.3951 -0.4518
  768MPD2    H311343   2.461   1.538  10.355  0.8454 -0.8910 -1.2196
  768MPD2     N11344   2.684   1.328  10.690 -0.1312  0.5222 -0.5445
  768MPD2    H511345   2.762   1.393  10.684  1.8057 -2.0023 -2.4579
  768MPD2    N111346   2.229   1.231  10.585  0.2823  0.0315  0.3972
  768MPD2    H711347   2.238   1.175  10.669 -2.2290 -0.7485  0.1319
  769MPD2     C11348   3.065   3.854  14.699 -0.2066  0.7080  0.4069
  769MPD2    C111349   2.941   3.891  14.749 -0.1498 -0.0988 -0.6204
  769MPD2    C211350   2.947   3.964  14.869 -0.5202  0.3649  0.2072
  769MPD2    C311351   3.070   3.987  14.932  0.0020 -0.2238 -0.1954
  769MPD2    C411352   3.190   3.953  14.878 -0.3397 -0.3038  0.1028
  769MPD2    C511353   3.187   3.886  14.755  0.2963  0.4798  0.1637
  769MPD2     H11354   2.855   4.005  14.910  0.2872  1.8033  0.5733
  769MPD2    H111355   3.284   3.986  14.921 -1.1384  4.2900 -1.7405
  769MPD2    H211356   3.061   3.788  14.613 -0.7632 -1.2976  1.9635
  769MPD2    H311357   3.278   3.857  14.706 -0.5693 -0.5563 -0.8289
  769MPD2     N11358   3.067   4.063  15.050 -0.1880 -0.4725 -0.4376
  769MPD2    H511359   2.977   4.101  15.075  0.6377  2.1461 -1.4367
  769MPD2    N111360   2.820   3.844  14.696 -0.2855  0.0142  0.2908
  769MPD2    H711361   2.829   3.779  14.618 -1.2420  1.7774 -1.2808
  770MPD2     C11362   2.175   3.154  14.900 -0.4770  0.2472  0.0084
  770MPD2    C111363   2.312   3.156  14.888 -0.5678 -0.7805  0.0672
  770MPD2    C211364   2.375   3.277  14.862 -0.6387 -0.1502  0.3604
  770MPD2    C311365   2.301   3.396  14.879 -0.2311  0.6503 -0.4140
  770MPD2    C411366   2.167   3.391  14.899 -0.1870 -0.1459  0.3793
  770MPD2    C511367   2.109   3.271  14.913 -0.0343  0.5677 -0.4164
  770MPD2     H11368   2.481   3.285  14.842 -0.7269 -0.5171 -0.2554
  770MPD2    H111369   2.106   3.477  14.925 -1.2280 -0.6037 -0.5412
  770MPD2    H211370   2.118   3.065  14.920  0.1230  0.1559  1.3588
  770MPD2    H311371   2.007   3.268  14.949  0.9131  0.4908  2.3000
  770MPD2     N11372   2.359   3.521  14.844  0.2740 -0.7372  0.0043
  770MPD2    H511373   2.454   3.515  14.810 -0.0103  1.1969 -1.1593
  770MPD2    N111374   2.387   3.039  14.899 -0.0923  0.4064  0.5052
  770MPD2    H711375   2.335   2.953  14.889  0.4630  0.3108 -1.4523
  771MPD2     C11376   3.369   1.602  13.579 -0.2525  0.1123 -0.8321
  771MPD2    C111377   3.306   1.718  13.536 -0.4506 -0.4508  0.3066
  771MPD2    C211378   3.174   1.709  13.484  0.2011 -0.3657 -0.1627
  771MPD2    C311379   3.108   1.588  13.469  0.2384 -0.0407  0.6575
  771MPD2    C411380   3.176   1.476  13.505  0.5599  0.7909 -0.2527
  771MPD2    C511381   3.299   1.486  13.562  0.3326 -0.1669  0.1727
  771MPD2     H11382   3.121   1.800  13.459  1.8819  0.7698  0.4675
  771MPD2    H111383   3.125   1.380  13.498  2.6548 -0.3363  0.1091
  771MPD2    H211384   3.473   1.600  13.607 -1.0225  1.2927  2.1353
  771MPD2    H311385   3.342   1.391  13.593 -0.3323 -0.9262 -1.2477
  771MPD2     N11386   2.978   1.587  13.407 -0.0020  0.3622  0.5140
  771MPD2    H511387   2.952   1.677  13.367  1.5531  1.4626  1.9468
  771MPD2    N111388   3.367   1.847  13.558  0.0522 -0.1239  0.0507
  771MPD2    H711389   3.314   1.929  13.531  1.4302  0.6100 -0.4220
  772MPD2     C11390   3.232   2.427  13.279 -0.0098  0.1798  0.5295
  772MPD2    C111391   3.231   2.425  13.414  0.1789  0.0391  0.3422
  772MPD2    C211392   3.124   2.468  13.481  0.0828  0.0595 -0.2132
  772MPD2    C311393   3.016   2.526  13.412  0.5333 -0.6322  0.4433
  772MPD2    C411394   3.023   2.533  13.275  0.5179 -0.6982  0.3525
  772MPD2    C511395   3.135   2.487  13.208 -0.4799 -0.1248  0.3729
  772MPD2     H11396   3.135   2.459  13.588  1.4273 -3.6253 -0.6573
  772MPD2    H111397   2.952   2.598  13.225  1.4007  0.2639  0.3559
  772MPD2    H211398   3.315   2.392  13.220  2.5395 -0.0880  4.2547
  772MPD2    H311399   3.140   2.504  13.101 -3.2171  1.6154  0.5177
  772MPD2     N11400   2.902   2.585  13.472 -0.5140 -0.0695 -0.4306
  772MPD2    H511401   2.830   2.629  13.415  0.5002  0.5368 -1.2353
  772MPD2    N111402   3.331   2.361  13.493 -0.3235 -0.4333 -0.5866
  772MPD2    H711403   3.308   2.361  13.591 -1.2314  2.1178 -0.8043
  773MPD2     C11404   2.215   4.173   0.292  0.4243  0.1132 -0.0481
  773MPD2    C111405   2.214   4.046   0.252  0.2452 -0.0550 -0.0557
  773MPD2    C211406   2.265   3.945   0.335  0.3081  0.0489 -0.1342
  773MPD2    C311407   2.334   3.983   0.450 -0.7271 -0.3201  0.3594
  773MPD2    C411408   2.354   4.118   0.486  0.1000  0.5617 -0.9091
  773MPD2    C511409   2.281   4.208   0.414  0.2180  0.5146  0.1040
  773MPD2     H11410   2.252   3.841   0.307 -1.1906  0.8765 -2.4884
  773MPD2    H111411   2.407   4.156   0.572  0.7972 -2.1098 -0.1378
  773MPD2    H211412   2.166   4.257   0.243 -1.2038 -0.7970  0.0171
  773MPD2    H311413   2.271   4.310   0.449  1.7737 -0.2280  2.6881
  773MPD2     N11414   2.379   3.867   0.525 -0.3140  0.4283 -0.6047
  773MPD2    H511415   2.341   3.777   0.498 -1.7187  1.2533 -1.4120
  773MPD2    N111416   2.140   3.999   0.139 -0.1101 -0.2829 -0.6283
  773MPD2    H711417   2.137   3.898   0.129  2.1353 -0.4507  0.2554
  774MPD2     C11418   1.525   2.376  13.297 -0.2905 -0.7510  0.4290
  774MPD2    C111419   1.492   2.489  13.366 -0.3552 -0.1270  0.6676
  774MPD2    C211420   1.535   2.613  13.308 -0.2854 -0.0801  0.1412
  774MPD2    C311421   1.605   2.615  13.189 -0.6648 -0.5302 -0.7501
  774MPD2    C411422   1.619   2.498  13.115 -0.0612  0.2266 -0.0783
  774MPD2    C511423   1.578   2.380  13.172  0.2705  0.2803 -0.1764
  774MPD2     H11424   1.527   2.711  13.353 -0.0040 -0.2906  0.6587
  774MPD2    H111425   1.659   2.500  13.014 -0.1361  3.1596 -0.0396
  774MPD2    H211426   1.489   2.279  13.331 -1.3025 -0.2610  0.7459
  774MPD2    H311427   1.600   2.290  13.117 -0.3810  0.3750 -0.5932
  774MPD2     N11428   1.655   2.744  13.137 -0.4543  0.3781  0.1950
  774MPD2    H511429   1.616   2.826  13.184  0.7555  1.4202 -0.6071
  774MPD2    N111430   1.440   2.467  13.496  0.1526  0.1854  0.4706
  774MPD2    H711431   1.410   2.374  13.523  1.8152 -0.2435  0.8355
  775MPD2     C11432   3.138   3.764  15.694 -0.7843 -0.1350 -0.2976
  775MPD2    C111433   3.130   3.887  15.752 -1.2368 -0.5010 -0.4105
  775MPD2    C211434   3.232   3.974  15.738 -0.4528  0.1531  0.6399
  775MPD2    C311435   3.352   3.939  15.679  0.0505 -0.8759  0.2896
  775MPD2    C411436   3.362   3.809  15.617  0.2115 -0.1927 -0.8107
  775MPD2    C511437   3.254   3.729  15.623 -0.9707  0.5238 -0.2803
  775MPD2     H11438   3.219   4.074  15.779  1.6749 -0.3215  2.4662
  775MPD2    H111439   3.457   3.778  15.574  0.0516  1.2444 -2.1657
  775MPD2    H211440   3.065   3.685  15.704 -1.8833  0.8431 -0.6398
  775MPD2    H311441   3.250   3.634  15.571  0.0801  0.1840  0.2560
  775MPD2     N11442   3.456   4.033  15.662  0.3420  0.2239 -0.6611
  775MPD2    H511443   3.503   4.012  15.574 -0.8717 -1.7711 -0.8304
  775MPD2    N111444   3.016   3.928  15.823  0.2698  0.0337 -0.1663
  775MPD2    H711445   2.959   3.850  15.852 -0.2425 -0.2996 -2.0981
  776MPD2     C11446   2.411   4.277  11.675  0.0643 -0.2171 -0.1350
  776MPD2    C111447   2.338   4.283  11.563  0.1069  0.1987  1.1984
  776MPD2    C211448   2.358   4.378  11.461 -0.3865  0.0879  0.2452
  776MPD2    C311449   2.466   4.466  11.474 -0.2314 -0.2490  0.2583
  776MPD2    C411450   2.546   4.452  11.583 -0.0902 -0.9070  0.0402
  776MPD2    C511451   2.513   4.368  11.687 -0.1136  0.8526  0.4989
  776MPD2     H11452   2.315   4.364  11.362 -1.3666 -0.9604  0.8312
  776MPD2    H111453   2.641   4.503  11.591 -1.2388  1.4706 -1.5327
  776MPD2    H211454   2.387   4.207  11.754 -1.1705 -0.4547 -0.7256
  776MPD2    H311455   2.581   4.351  11.769  2.4961  0.1330 -1.8134
  776MPD2     N11456   2.507   4.552  11.367 -1.2193 -0.0865 -0.2107
  776MPD2    H511457   2.603   4.583  11.376 -1.8498  0.7818  3.5453
  776MPD2    N111458   2.250   4.172  11.560  0.1816 -0.2818  0.1299
  776MPD2    H711459   2.262   4.104  11.634  0.1231 -0.5792 -0.1373
  777MPD2     C11460   2.293   2.263   0.551 -0.5122 -0.4692  0.2351
  777MPD2    C111461   2.390   2.275   0.651  0.4392 -0.1667 -0.4775
  777MPD2    C211462   2.492   2.182   0.651 -0.0571  0.5598 -0.4049
  777MPD2    C311463   2.482   2.071   0.571 -0.2405  0.1408 -0.6814
  777MPD2    C411464   2.382   2.065   0.471  1.1809  0.0487  0.1388
  777MPD2    C511465   2.294   2.169   0.456  0.2880  0.5884 -0.1185
  777MPD2     H11466   2.568   2.181   0.729  1.5757  0.3162 -1.9782
  777MPD2    H111467   2.381   1.980   0.403  0.0100  0.2798 -0.1361
  777MPD2    H211468   2.206   2.328   0.553  0.1137  0.3789  0.0116
  777MPD2    H311469   2.209   2.159   0.389 -0.1535 -1.8714  0.7783
  777MPD2     N11470   2.585   1.972   0.586  0.7900  0.3114  0.8171
  777MPD2    H511471   2.619   1.971   0.681  2.2370  0.5983  0.3090
  777MPD2    N111472   2.372   2.377   0.743  0.7142  0.8152 -0.2367
  777MPD2    H711473   2.288   2.433   0.731  1.6377  2.0485 -0.8768
  778MPD2     C11474   3.592   1.728  15.125  0.0679  0.5652  0.0933
  778MPD2    C111475   3.523   1.733  15.013 -0.0622 -0.5075  0.8576
  778MPD2    C211476   3.571   1.786  14.895 -0.5100 -0.4205 -0.2594
  778MPD2    C311477   3.695   1.856  14.905  0.1890  0.0027  0.2478
  778MPD2    C411478   3.752   1.883  15.033  0.1604 -0.5431  0.6105
  778MPD2    C511479   3.696   1.815  15.144 -0.0792  0.3053  0.5609
  778MPD2     H11480   3.522   1.762  14.802 -0.8449  1.3543 -0.5465
  778MPD2    H111481   3.840   1.945  15.042 -0.3161  0.4035 -1.1292
  778MPD2    H211482   3.555   1.684  15.217  0.2444 -1.2525 -0.6909
  778MPD2    H311483   3.740   1.825  15.242 -0.0517  0.4406  0.5353
  778MPD2     N11484   3.737   1.909  14.779  0.1808  0.1895  0.3590
  778MPD2    H511485   3.690   1.876  14.695 -0.7455 -0.1875  1.0237
  778MPD2    N111486   3.398   1.666  15.007  0.1981  0.3083  0.0501
  778MPD2    H711487   3.341   1.671  14.923  1.4336 -1.0682 -0.8655
  779MPD2     C11488   3.312   0.431  14.639  0.4098  0.7290 -0.0487
  779MPD2    C111489   3.439   0.452  14.588  0.4664 -0.6827 -0.3108
  779MPD2    C211490   3.478   0.582  14.566  0.0287  0.7831 -0.1313
  779MPD2    C311491   3.397   0.691  14.600 -0.8020 -0.4951  0.1944
  779MPD2    C411492   3.277   0.659  14.654 -0.1046  0.1262  0.5779
  779MPD2    C511493   3.237   0.531  14.675 -0.1983 -0.1965  0.1977
  779MPD2     H11494   3.576   0.586  14.521  0.9092 -4.2804  1.3254
  779MPD2    H111495   3.217   0.733  14.705 -0.5989  1.0369 -1.3372
  779MPD2    H211496   3.268   0.333  14.655  1.1349  0.2335 -1.1262
  779MPD2    H311497   3.138   0.516  14.716  0.5214 -1.6170  1.4495
  779MPD2     N11498   3.438   0.828  14.576 -0.8009  0.1104 -0.2119
  779MPD2    H511499   3.532   0.839  14.540 -1.0130 -1.6716 -1.2533
  779MPD2    N111500   3.529   0.351  14.550 -0.3130 -0.2480 -0.4221
  779MPD2    H711501   3.615   0.383  14.507  0.1196  1.2860  1.5940
  780MPD2     C11502   3.602   0.470   1.539 -0.2458  0.4954 -0.5822
  780MPD2    C111503   3.494   0.501   1.454 -0.5676 -0.2246 -0.1825
  780MPD2    C211504   3.518   0.564   1.336 -0.1981  0.1619 -0.0604
  780MPD2    C311505   3.650   0.587   1.296  0.1870 -0.3310  0.2356
  780MPD2    C411506   3.755   0.550   1.378  0.8724 -0.6889 -0.6384
  780MPD2    C511507   3.729   0.499   1.495 -0.2410 -0.1039 -0.1854
  780MPD2     H11508   3.438   0.587   1.267 -0.1139  0.5721 -0.0201
  780MPD2    H111509   3.860   0.563   1.353  0.8238 -0.3517 -0.6649
  780MPD2    H211510   3.587   0.413   1.630 -1.5038 -0.4213 -1.3575
  780MPD2    H311511   3.814   0.490   1.561  0.3108  3.4078 -0.3813
  780MPD2     N11512   3.665   0.654   1.171 -0.3128 -0.4061  0.2816
  780MPD2    H511513   3.578   0.657   1.118 -0.1899 -3.3113 -0.0848
  780MPD2    N111514   3.357   0.477   1.502  0.5997 -0.8214 -0.2715
  780MPD2    H711515   3.341   0.404   1.570  2.5839 -0.4104  0.6556
  781MPD2     C11516   0.547   2.101  11.754  0.0120  0.5705  0.8138
  781MPD2    C111517   0.610   2.218  11.778  0.2079  0.0203 -0.5686
  781MPD2    C211518   0.696   2.273  11.688  0.7646  0.2237 -0.1575
  781MPD2    C311519   0.721   2.212  11.569 -0.1332 -0.0413  0.0669
  781MPD2    C411520   0.653   2.095  11.542 -0.5744 -0.2094 -0.2605
  781MPD2    C511521   0.566   2.037  11.632 -0.1140  0.1392 -0.0611
  781MPD2     H11522   0.750   2.362  11.719  1.6547  0.1078 -1.3389
  781MPD2    H111523   0.664   2.042  11.448 -1.9542  1.5244 -1.3952
  781MPD2    H211524   0.463   2.058  11.807  0.5409 -0.1757  1.0370
  781MPD2    H311525   0.503   1.951  11.610  0.5104 -0.4601  0.4782
  781MPD2     N11526   0.812   2.252  11.466 -0.2723  0.4900  0.7053
  781MPD2    H511527   0.797   2.226  11.369  0.3569 -0.9279  0.9927
  781MPD2    N111528   0.570   2.268  11.910 -0.6135 -0.2229 -0.7042
  781MPD2    H711529   0.504   2.206  11.957  1.0784 -1.6424 -0.1693
  782MPD2     C11530   3.070   2.875  10.201 -0.2188 -0.4790 -0.1053
  782MPD2    C111531   3.122   2.918  10.319  0.2217  0.1130 -0.1382
  782MPD2    C211532   3.206   3.025  10.322 -0.4635 -0.0768  0.5913
  782MPD2    C311533   3.244   3.089  10.204 -0.4328  0.4937  0.4000
  782MPD2    C411534   3.181   3.050  10.087  0.5294 -0.3360 -0.3729
  782MPD2    C511535   3.096   2.944  10.085  0.8466  0.6364  0.3396
  782MPD2     H11536   3.246   3.051  10.419  0.9457 -0.8106  0.2031
  782MPD2    H111537   3.202   3.083   9.986 -1.9186 -0.0885 -0.7974
  782MPD2    H211538   3.013   2.784  10.202 -0.0248 -0.6064 -0.4747
  782MPD2    H311539   3.054   2.913   9.990  1.8215  1.2984 -0.3113
  782MPD2     N11540   3.337   3.199  10.208  0.7023  0.0481  0.1024
  782MPD2    H511541   3.373   3.228  10.299 -0.1087 -0.1556  0.4841
  782MPD2    N111542   3.091   2.848  10.439  0.0325  0.3082 -0.6300
  782MPD2    H711543   3.145   2.861  10.524 -1.6773  0.8016  0.3755
  783MPD2     C11544   2.961   3.176  11.242  0.1220 -0.5813 -0.4818
  783MPD2    C111545   2.975   3.220  11.111 -0.5045  0.0158 -0.1110
  783MPD2    C211546   2.971   3.126  10.999  0.2899  0.1874  0.0371
  783MPD2    C311547   2.933   3.000  11.026  0.4956 -0.4042 -0.7530
  783MPD2    C411548   2.904   2.964  11.161 -0.3292  0.5515  0.1680
  783MPD2    C511549   2.920   3.052  11.264  0.3453  0.2205 -0.5942
  783MPD2     H11550   3.005   3.155  10.901  0.0083 -2.3976 -0.8302
  783MPD2    H111551   2.876   2.866  11.198 -0.8167  0.4664 -0.4316
  783MPD2    H211552   2.980   3.236  11.330 -1.3830 -0.9333  0.0740
  783MPD2    H311553   2.914   3.013  11.365 -2.0740  1.4245 -0.2746
  783MPD2     N11554   2.937   2.900  10.923  0.0015 -0.2261 -1.3794
  783MPD2    H511555   2.984   2.928  10.838 -0.7491 -1.4209 -2.1878
  783MPD2    N111556   3.016   3.351  11.090  0.9016  0.3819  0.8863
  783MPD2    H711557   3.034   3.406  11.173  1.7244  0.7480  0.4656
  784MPD2     C11558   4.668   3.175   1.336  0.0232  0.3440 -0.0332
  784MPD2    C111559   4.710   3.292   1.277  0.6064 -0.5159  0.2231
  784MPD2    C211560   4.634   3.411   1.269  0.1104  1.0150  0.6818
  784MPD2    C311561   4.507   3.396   1.302  0.6420 -0.7778  0.5306
  784MPD2    C411562   4.450   3.278   1.344 -0.4095  0.1625  0.0242
  784MPD2    C511563   4.535   3.173   1.374 -0.8295  0.4738  0.2078
  784MPD2     H11564   4.681   3.500   1.228  1.7623  0.1049  0.6237
  784MPD2    H111565   4.343   3.267   1.358 -0.0049 -0.1982  2.8793
  784MPD2    H211566   0.001   3.083   1.340 -2.7940 -1.3562  1.4283
  784MPD2    H311567   4.496   3.076   1.403 -2.3341  0.4494 -1.9073
  784MPD2     N11568   4.424   3.510   1.275 -0.0522  0.0032 -0.1984
  784MPD2    H511569   4.465   3.591   1.229 -0.0357  0.4260  0.5733
  784MPD2    N111570   0.114   3.309   1.213 -0.3506 -0.1609 -0.2317
  784MPD2    H711571   0.132   3.396   1.164  0.6771  0.0239  0.4582
  785MPD2     C11572   1.228   1.180  10.844 -0.5872  0.5483 -0.3819
  785MPD2    C111573   1.240   1.269  10.943  0.0349  0.0775 -0.4515
  785MPD2    C211574   1.132   1.282  11.030 -0.6469  0.1158  0.8971
  785MPD2    C311575   1.024   1.196  11.029 -0.7423 -0.1199  0.0385
  785MPD2    C411576   1.008   1.109  10.925 -0.1280 -0.8646  0.3296
  785MPD2    C511577   1.116   1.101  10.834  0.0352  0.0678 -0.0191
  785MPD2     H11578   1.140   1.355  11.109 -0.4330 -0.6589  1.5923
  785MPD2    H111579   0.930   1.034  10.920 -0.6129 -0.2841 -0.7459
  785MPD2    H211580   1.293   1.174  10.757 -0.0028 -2.6609  0.2838
  785MPD2    H311581   1.100   1.028  10.755 -0.4168  0.2222 -0.0732
  785MPD2     N11582   0.919   1.214  11.120 -0.1464 -0.7139  0.1284
  785MPD2    H511583   0.931   1.286  11.191  0.2337  0.5545 -1.2098
  785MPD2    N111584   1.345   1.361  10.957  0.4074 -0.1878 -0.4016
  785MPD2    H711585   1.338   1.430  11.031 -0.0351 -2.0265  1.2874
  786MPD2     C11586   3.988   4.515  14.715 -0.3695 -0.0529 -0.0158
  786MPD2    C111587   4.030   4.383  14.712  0.0016  0.6877  0.2915
  786MPD2    C211588   4.095   4.329  14.822 -0.8436 -0.7787  0.4546
  786MPD2    C311589   4.099   4.402  14.943 -0.1188 -0.5535  0.7539
  786MPD2    C411590   4.045   4.520  14.951 -0.1136 -0.2951 -0.0736
  786MPD2    C511591   3.986   4.584  14.844 -0.2844 -0.1877  0.4124
  786MPD2     H11592   4.156   4.240  14.813 -1.6336 -1.4173  1.4209
  786MPD2    H111593   4.049   4.570  15.046  0.9376 -1.2151  0.3593
  786MPD2    H211594   3.945   4.559  14.626 -0.2190 -0.0913 -0.1066
  786MPD2    H311595   3.936   4.679  14.860  1.4674  1.0160 -1.3173
  786MPD2     N11596   4.159   4.348  15.061  0.4523  0.6431  0.4857
  786MPD2    H511597   4.141   4.398  15.148  0.9043 -2.5482  2.4444
  786MPD2    N111598   4.020   4.296  14.599  0.1403 -0.2730 -0.2212
  786MPD2    H711599   4.086   4.219  14.609  0.5489  0.1265  0.1592
  787MPD2     C11600   4.050   3.645  14.649  0.8754 -0.3511 -1.2187
  787MPD2    C111601   4.090   3.703  14.533  1.2055 -0.4439 -0.5532
  787MPD2    C211602   4.206   3.664  14.471 -0.3101  0.5050 -0.1664
  787MPD2    C311603   4.283   3.568  14.528  0.5535 -0.2231  0.6957
  787MPD2    C411604   4.237   3.504  14.639 -0.0016 -0.2104 -0.3986
  787MPD2    C511605   4.122   3.545  14.696  0.1569  0.5472  0.1038
  787MPD2     H11606   4.241   3.717  14.384  1.7592  0.1158  0.4227
  787MPD2    H111607   4.281   3.408  14.666 -0.3564  0.8732  4.0155
  787MPD2    H211608   3.961   3.683  14.697  2.4308  1.5615  0.1342
  787MPD2    H311609   4.086   3.492  14.783  0.3442  1.5929  0.8118
  787MPD2     N11610   4.409   3.542  14.471 -0.5751  0.5872  0.5241
  787MPD2    H511611   4.434   3.588  14.384 -1.3287 -0.9305 -0.5022
  787MPD2    N111612   4.008   3.809  14.476 -0.5161  0.0242  0.0893
  787MPD2    H711613   3.936   3.855  14.531 -0.2963 -0.0672  0.4523
  788MPD2     C11614   1.201   3.269   0.239  0.0349  0.2523  0.2942
  788MPD2    C111615   1.255   3.157   0.177  0.2714  0.4623  0.3596
  788MPD2    C211616   1.238   3.145   0.037 -0.5214  0.4786 -0.4247
  788MPD2    C311617   1.177   3.239  17.664  0.0929  0.0846 -0.5760
  788MPD2    C411618   1.120   3.345   0.032 -0.1622 -0.4342  0.4068
  788MPD2    C511619   1.125   3.362   0.168  0.1326  0.2758  0.0500
  788MPD2     H11620   1.283   3.060  17.688 -1.7380 -1.4262  1.7078
  788MPD2    H111621   1.069   3.423  17.679  0.5087  0.0900  0.5234
  788MPD2    H211622   1.200   3.273   0.347  0.5180  1.3458  0.2641
  788MPD2    H311623   1.085   3.454   0.208 -0.1740  0.4320 -0.6210
  788MPD2     N11624   1.156   3.236  17.524  0.5352  0.4686  0.1998
  788MPD2    H511625   1.101   3.306  17.476 -0.6332 -0.4627  0.1652
  788MPD2    N111626   1.319   3.057   0.255  0.0425 -0.0716  0.6376
  788MPD2    H711627   1.316   2.967   0.207  0.8779 -0.1192  0.6660
  789MPD2     C11628   1.587   2.553  16.187 -0.5196 -0.2832 -0.2643
  789MPD2    C111629   1.552   2.508  16.312 -0.0567 -0.3933  0.4002
  789MPD2    C211630   1.424   2.529  16.357  0.6278  0.0779  0.2027
  789MPD2    C311631   1.332   2.599  16.278  0.3875 -0.4482 -0.1263
  789MPD2    C411632   1.368   2.663  16.158  0.5108 -0.8131  0.3408
  789MPD2    C511633   1.497   2.632  16.117 -0.3114 -0.3160 -0.5779
  789MPD2     H11634   1.388   2.481  16.447  1.8598 -0.5385  0.3655
  789MPD2    H111635   1.306   2.721  16.091  0.6539  0.6553  1.4761
  789MPD2    H211636   1.687   2.541  16.148 -1.3728 -1.9978 -1.9636
  789MPD2    H311637   1.534   2.674  16.024  2.2132 -0.2333  0.4704
  789MPD2     N11638   1.192   2.627  16.314 -0.2696 -0.1454  0.0200
  789MPD2    H511639   1.138   2.695  16.260  1.5367 -0.5404 -2.2578
  789MPD2    N111640   1.634   2.432  16.392  0.7749 -0.4456  0.6334
  789MPD2    H711641   1.590   2.373  16.462  2.0032  0.1913  1.9500
  790MPD2     C11642   2.088   3.589  13.680  0.7859  0.1578 -0.2528
  790MPD2    C111643   2.135   3.719  13.682 -0.4446  0.2038  0.4625
  790MPD2    C211644   2.184   3.771  13.560 -0.0944  0.4363 -0.5131
  790MPD2    C311645   2.197   3.691  13.448 -0.2885 -0.7448  0.4667
  790MPD2    C411646   2.149   3.563  13.455  0.3071  1.1690  0.3094
  790MPD2    C511647   2.084   3.513  13.562  0.3154  0.2953 -0.2481
  790MPD2     H11648   2.217   3.874  13.560  1.5685 -0.1034 -0.1348
  790MPD2    H111649   2.143   3.506  13.363  0.4159  1.7461 -0.0596
  790MPD2    H211650   2.058   3.534  13.768  0.1347  3.3711  1.5317
  790MPD2    H311651   2.046   3.412  13.546 -0.2612  0.6105 -0.8416
  790MPD2     N11652   2.265   3.740  13.340  0.3195  0.2505 -0.6238
  790MPD2    H511653   2.258   3.841  13.328  2.2337  0.2166 -2.0287
  790MPD2    N111654   2.155   3.795  13.803 -0.4325 -0.5276 -0.5908
  790MPD2    H711655   2.106   3.765  13.887 -0.4116  2.3844  0.4954
  791MPD2     C11656   2.027   4.006  12.575 -0.0850 -0.0962  0.6713
  791MPD2    C111657   2.031   4.015  12.709  0.0270  0.2014 -0.7691
  791MPD2    C211658   1.907   4.038  12.772 -0.1618  0.1091 -0.2133
  791MPD2    C311659   1.796   4.052  12.697 -0.5124 -0.2362  0.5814
  791MPD2    C411660   1.796   4.048  12.561  0.4884  0.0360 -0.5564
  791MPD2    C511661   1.912   4.020  12.502  0.1656 -0.9241 -0.1493
  791MPD2     H11662   1.902   4.022  12.879 -0.4373  2.0763  0.0651
  791MPD2    H111663   1.707   4.044  12.500  0.7485 -0.9453 -0.8677
  791MPD2    H211664   2.118   3.978  12.523 -2.4839 -1.2583 -2.8866
  791MPD2    H311665   1.904   3.998  12.396 -0.1046 -0.8991 -0.1351
  791MPD2     N11666   1.678   4.062  12.766 -0.7232 -0.0628  0.3484
  791MPD2    H511667   1.694   4.052  12.866 -3.1639 -1.3590  0.5998
  791MPD2    N111668   2.146   3.972  12.778 -0.2205  0.2264  0.0630
  791MPD2    H711669   2.228   3.947  12.724 -0.8083 -2.1215  0.2701
  792MPD2     C11670   3.334   4.468  10.764  0.7559  0.2232  0.5486
  792MPD2    C111671   3.212   4.515  10.719  0.4419 -0.0420 -0.1203
  792MPD2    C211672   3.131   4.438  10.639 -0.6930 -0.0915  0.0158
  792MPD2    C311673   3.168   4.304  10.603 -0.4121  0.5369  0.0617
  792MPD2    C411674   3.295   4.264  10.645 -0.3357  0.5641  0.5086
  792MPD2    C511675   3.372   4.348  10.721 -0.3699 -0.6438  0.0010
  792MPD2     H11676   3.038   4.482  10.604 -1.2591 -0.7094  0.7335
  792MPD2    H111677   3.329   4.163  10.628 -2.5046 -0.2998  1.3034
  792MPD2    H211678   3.389   4.529  10.835  2.0811  2.0923 -2.0587
  792MPD2    H311679   3.465   4.304  10.754 -0.7588 -1.2987  0.2259
  792MPD2     N11680   3.081   4.221  10.524 -0.2706 -0.4085  0.3310
  792MPD2    H511681   3.115   4.127  10.504 -0.1148  0.0338 -1.4449
  792MPD2    N111682   3.174   4.641  10.762  0.0893 -0.0545 -0.2212
  792MPD2    H711683   3.233   4.708  10.811  1.2402 -1.7106  0.6314
  793MPD2     C11684   2.190   3.909   9.967  0.6987 -0.2474  0.4281
  793MPD2    C111685   2.261   3.807  10.019  0.5444  0.3282  0.1332
  793MPD2    C211686   2.355   3.831  10.121 -0.4817 -0.2798 -0.2598
  793MPD2    C311687   2.390   3.956  10.157 -0.7968  0.2983 -0.6273
  793MPD2    C411688   2.327   4.061  10.094 -0.4298 -0.3707  0.0770
  793MPD2    C511689   2.222   4.030  10.013  0.8100 -0.0751  0.1095
  793MPD2     H11690   2.415   3.749  10.159 -0.7051  0.2259  1.1780
  793MPD2    H111691   2.336   4.166  10.120 -1.6964 -0.0661 -0.6928
  793MPD2    H211692   2.121   3.894   9.885  1.7054 -2.6444  0.0281
  793MPD2    H311693   2.161   4.114   9.982 -1.8269 -1.4319  1.6252
  793MPD2     N11694   2.493   3.959  10.250 -0.2137 -0.0905 -0.0824
  793MPD2    H511695   2.515   3.872  10.297  0.2547 -1.0017 -1.9942
  793MPD2    N111696   2.259   3.675   9.970 -0.0674  0.2364 -0.2603
  793MPD2    H711697   2.328   3.607  10.001  0.2039  0.5862 -0.0870
  794MPD2     C11698   2.244   4.017  17.013  0.6997  0.2148  0.0211
  794MPD2    C111699   2.150   3.920  17.043  0.0613  0.0128  0.2493
  794MPD2    C211700   2.112   3.828  16.951  0.4650  0.1049 -0.3365
  794MPD2    C311701   2.172   3.830  16.830  0.5903 -0.9444 -0.7838
  794MPD2    C411702   2.268   3.916  16.797 -0.5596 -0.0370 -0.5811
  794MPD2    C511703   2.294   4.023  16.882  1.0154 -0.1244 -0.3256
  794MPD2     H11704   2.023   3.767  16.965  1.9710 -1.6926  1.3480
  794MPD2    H111705   2.319   3.912  16.701 -0.4407 -1.6311 -0.4571
  794MPD2    H211706   2.271   4.097  17.081 -0.1884  1.7036 -1.4024
  794MPD2    H311707   2.367   4.102  16.870 -1.0417  2.0855  1.4757
  794MPD2     N11708   2.125   3.749  16.720 -0.1481  0.3339  0.4377
  794MPD2    H511709   2.181   3.772  16.639 -1.2815  2.2310  0.2127
  794MPD2    N111710   2.088   3.916  17.169  0.2326 -0.2863  0.8622
  794MPD2    H711711   2.022   3.840  17.185  0.2644 -0.2361  1.2463
  795MPD2     C11712   3.899   1.430  13.217  0.2946 -0.3310  0.7262
  795MPD2    C111713   3.918   1.313  13.148  0.3985  0.2894  0.1914
  795MPD2    C211714   4.036   1.244  13.167 -0.8678 -0.7158 -0.0423
  795MPD2    C311715   4.141   1.288  13.254 -1.3077 -0.2651 -0.5495
  795MPD2    C411716   4.125   1.411  13.307 -0.0579 -0.1881 -0.5638
  795MPD2    C511717   3.997   1.464  13.301  0.0451 -0.3027  0.1839
  795MPD2     H11718   4.040   1.145  13.123  2.1592 -1.8403  2.7638
  795MPD2    H111719   4.197   1.453  13.376 -1.3234  1.0272  0.0368
  795MPD2    H211720   3.806   1.486  13.218 -0.1354 -1.0505  0.6947
  795MPD2    H311721   3.973   1.557  13.352 -0.2792 -0.4914  0.3741
  795MPD2     N11722   4.255   1.211  13.277  0.9197  0.1099 -0.2027
  795MPD2    H511723   4.248   1.120  13.232 -0.9339  1.3909 -2.4587
  795MPD2    N111724   3.826   1.262  13.060  0.4718  0.0819  0.1775
  795MPD2    H711725   3.853   1.182  13.004 -0.9738 -1.1617  1.2708
  796MPD2     C11726   3.889   2.610  15.850 -0.1359  0.3123  0.2432
  796MPD2    C111727   3.908   2.697  15.955 -0.1976  0.5695  0.4300
  796MPD2    C211728   3.933   2.832  15.928 -0.1714  0.2319  0.2713
  796MPD2    C311729   3.940   2.874  15.802 -0.0503 -0.0042 -0.0011
  796MPD2    C411730   3.909   2.790  15.701 -0.0942 -0.7228 -0.5262
  796MPD2    C511731   3.886   2.658  15.726  0.2077 -0.4709  0.0749
  796MPD2     H11732   3.965   2.897  16.009 -0.0725  0.4730  0.0367
  796MPD2    H111733   3.921   2.818  15.597 -0.9354  1.3049 -0.0702
  796MPD2    H211734   3.892   2.502  15.859 -1.6328  0.2054 -0.5584
  796MPD2    H311735   3.878   2.588  15.644 -0.8482  2.1155 -2.0213
  796MPD2     N11736   3.988   3.002  15.764 -0.4681  0.1217  0.6282
  796MPD2    H511737   3.963   3.030  15.669 -0.5973  1.3011  1.0134
  796MPD2    N111738   3.917   2.641  16.085  0.4612 -0.1335 -0.2973
  796MPD2    H711739   3.913   2.539  16.083 -1.8742 -0.0276 -0.3240
  797MPD2     C11740   4.698   1.755  17.343 -0.0396  0.3375 -0.0914
  797MPD2    C111741   0.029   1.855  17.413  1.1177  0.4085 -0.4202
  797MPD2    C211742   0.004   1.986  17.386  0.2612  0.1275 -0.5147
  797MPD2    C311743   4.636   2.024  17.295 -0.1600 -0.1094 -0.3887
  797MPD2    C411744   4.577   1.923  17.222 -0.5971 -0.0340 -0.3173
  797MPD2    C511745   4.604   1.791  17.248  0.3869  0.1697  0.4009
  797MPD2     H11746   0.056   2.054  17.451 -0.4276 -0.6196  0.8274
  797MPD2    H111747   4.497   1.944  17.152 -0.3756  0.5270 -0.4065
  797MPD2    H211748   0.002   1.654  17.367 -0.0113  0.0529 -1.3323
  797MPD2    H311749   4.548   1.719  17.190  3.4538 -0.2061 -2.1208
  797MPD2     N11750   4.590   2.154  17.263 -0.1344 -0.0465  0.6116
  797MPD2    H511751   4.531   2.159  17.181  0.8532 -0.3144 -0.1131
  797MPD2    N111752   0.120   1.838  17.517 -0.2896  0.3493 -0.6445
  797MPD2    H711753   0.159   1.918  17.565  2.5306 -0.6206 -1.3330
  798MPD2     C11754   0.428   2.461  17.463 -0.7772 -0.2830  0.3731
  798MPD2    C111755   0.299   2.411  17.487 -0.4988  0.1325 -0.2188
  798MPD2    C211756   0.282   2.298  17.566  0.0903  0.6703 -0.4436
  798MPD2    C311757   0.384   2.232  17.617  0.3055 -0.2060 -0.1040
  798MPD2    C411758   0.511   2.288  17.598  0.5124  0.8088  0.7720
  798MPD2    C511759   0.531   2.404  17.530  0.1398  0.4451 -0.3070
  798MPD2     H11760   0.185   2.249  17.567  0.1359  0.6304  1.2339
  798MPD2    H111761   0.595   2.246  17.651  2.2549  1.8193 -1.2275
  798MPD2    H211762   0.449   2.543  17.395 -0.9602  0.8901  1.7245
  798MPD2    H311763   0.628   2.452  17.524  0.0948  0.4012 -1.3040
  798MPD2     N11764   0.370   2.108  17.678  0.7060 -0.0179  0.0129
  798MPD2    H511765   0.273   2.086  17.697  0.4806  1.9041  1.1322
  798MPD2    N111766   0.179   2.465  17.444 -0.3256 -0.7456 -0.1590
  798MPD2    H711767   0.093   2.413  17.461 -2.4415  2.3820 -1.3033
  799MPD2     C11768   4.034   3.204  14.515 -0.8251  0.1909 -0.0452
  799MPD2    C111769   4.034   3.154  14.388  0.2655 -0.8012  0.2500
  799MPD2    C211770   3.959   3.218  14.288  0.1482 -0.3686 -0.1647
  799MPD2    C311771   3.900   3.342  14.302 -0.0168  0.1803  0.0189
  799MPD2    C411772   3.905   3.397  14.428  0.1391 -0.2452  0.6230
  799MPD2    C511773   3.965   3.324  14.530  0.5319  0.9174  0.0715
  799MPD2     H11774   3.975   3.177  14.188 -2.9095 -0.0744 -0.7614
  799MPD2    H111775   3.855   3.485  14.465  1.0783  0.5752 -0.0676
  799MPD2    H211776   4.087   3.162  14.599  2.0311  0.0633 -1.9023
  799MPD2    H311777   3.962   3.365  14.630  0.8427  0.1619  0.3915
  799MPD2     N11778   3.848   3.418  14.196 -0.2865 -0.0448  0.8205
  799MPD2    H511779   3.833   3.515  14.221 -0.4741 -0.1385  1.0711
  799MPD2    N111780   4.116   3.041  14.350  0.1905  0.0366 -0.3660
  799MPD2    H711781   4.127   3.021  14.251 -0.5708  1.3592 -0.7133
  800MPD2     C11782   4.533   4.556  14.143  0.2923  0.0692  0.8834
  800MPD2    C111783   4.660   4.599  14.118  0.6611 -0.0103  0.2557
  800MPD2    C211784   4.700   4.632  13.991 -0.0413 -0.6567  0.9554
  800MPD2    C311785   4.603   4.619  13.891 -0.0760 -0.1717 -0.2474
  800MPD2    C411786   4.478   4.570  13.923  0.1178 -1.1058 -0.3769
  800MPD2    C511787   4.440   4.543  14.050  0.1263  0.6805  0.1569
  800MPD2     H11788   0.072   4.677  13.977  0.3086 -1.9514 -0.6919
  800MPD2    H111789   4.410   4.552  13.841  0.2523 -0.9440 -0.5237
  800MPD2    H211790   4.512   4.518  14.242 -0.3308 -2.1612 -0.0845
  800MPD2    H311791   4.347   4.495  14.077  1.5522 -0.2121  3.4823
  800MPD2     N11792   4.635   4.655  13.756 -0.0660 -0.1791  0.3143
  800MPD2    H511793   0.004   4.681  13.731 -0.8760  0.6910 -1.8101
  800MPD2    N111794   0.022   4.608  14.228  0.6012 -0.2483 -0.3115
  800MPD2    H711795   4.708   4.580  14.318  0.8806  1.1056  0.2329
  801MPD2     C11796   0.104   0.365  14.764  0.0407  0.0192 -0.0499
  801MPD2    C111797   0.036   0.304  14.664  0.1049 -0.7500 -0.3170
  801MPD2    C211798   4.634   0.351  14.625  0.1177  0.0909  0.1388
  801MPD2    C311799   4.584   0.466  14.683  0.4962 -0.2917 -0.9359
  801MPD2    C411800   4.658   0.526  14.778 -0.0114  0.4642 -0.0628
  801MPD2    C511801   0.043   0.475  14.819 -0.2729  0.2672 -0.3078
  801MPD2     H11802   4.575   0.275  14.575  0.6707  0.9131 -1.7443
  801MPD2    H111803   4.624   0.614  14.832  0.5868  0.2860  0.5947
  801MPD2    H211804   0.200   0.329  14.800  0.4522 -1.3800 -2.5333
  801MPD2    H311805   0.097   0.512  14.905 -0.2702 -3.2647  1.2360
  801MPD2     N11806   4.459   0.517  14.648 -0.5316  0.0062 -0.2821
  801MPD2    H511807   4.428   0.605  14.687  1.1475  0.3527  0.2780
  801MPD2    N111808   0.069   0.181  14.603  0.1387  0.4357 -0.3162
  801MPD2    H711809   0.039   0.174  14.506  1.2911 -2.3394 -0.4492
  802MPD2     C11810   3.523   1.049  17.402  0.3974  0.0581  0.0654
  802MPD2    C111811   3.628   1.093  17.481  0.2605 -0.5034  0.0020
  802MPD2    C211812   3.737   1.004  17.485 -0.2601 -0.4220 -0.3925
  802MPD2    C311813   3.735   0.880  17.435  0.4744 -0.0681 -0.0798
  802MPD2    C411814   3.619   0.833  17.373 -0.4810  1.0490  0.4239
  802MPD2    C511815   3.520   0.919  17.361  0.4401  0.3255 -0.3984
  802MPD2     H11816   3.830   1.029  17.536  0.2502  1.4004 -2.2095
  802MPD2    H111817   3.605   0.731  17.339  2.5534  0.8944 -0.4224
  802MPD2    H211818   3.431   1.107  17.397 -0.4437 -1.2866 -0.1275
  802MPD2    H311819   3.433   0.884  17.305 -0.0383  1.0810 -0.1199
  802MPD2     N11820   3.843   0.794  17.461  0.0917  0.3126 -0.6674
  802MPD2    H511821   3.919   0.834  17.515 -0.3525  0.0764  0.1497
  802MPD2    N111822   3.632   1.217  17.546 -0.0913 -0.1156 -0.0655
  802MPD2    H711823   3.721   1.247  17.587 -0.6454 -2.7348  3.0738
  803MPD2     C11824   0.834   0.243  12.484  0.3275 -0.1221 -0.2655
  803MPD2    C111825   0.713   0.281  12.548 -0.0572 -0.0212 -0.6549
  803MPD2    C211826   0.630   0.181  12.599  0.1272  0.5445  0.8200
  803MPD2    C311827   0.661   0.047  12.586 -0.1696  0.0419 -0.2623
  803MPD2    C411828   0.772   0.015  12.515 -0.1954 -0.1233  0.1489
  803MPD2    C511829   0.861   0.108  12.468 -0.4383  0.4182 -0.4423
  803MPD2     H11830   0.540   0.208  12.654 -0.5722 -0.8242  0.3403
  803MPD2    H111831   0.788   4.637  12.486  3.8357 -0.1619  2.5804
  803MPD2    H211832   0.890   0.318  12.429 -0.9022  1.6527  0.9220
  803MPD2    H311833   0.933   0.077  12.393 -0.3193  0.6324 -0.4177
  803MPD2     N11834   0.586   4.667  12.647 -0.4276 -0.0689  0.8202
  803MPD2    H511835   0.635   4.582  12.674  0.4632  0.0121 -0.5112
  803MPD2    N111836   0.670   0.412  12.553 -0.0505  0.7734  0.1204
  803MPD2    H711837   0.576   0.429  12.588  0.1632  1.3491  0.4150
  804MPD2     C11838   4.724   0.784  17.047  0.0724 -0.4481  0.1336
  804MPD2    C111839   0.024   0.764  17.180 -0.8694 -0.4513  0.5439
  804MPD2    C211840   0.100   0.852  17.250 -0.1209  0.2739 -0.2704
  804MPD2    C311841   0.154   0.962  17.199 -0.1052  0.2416  0.5493
  804MPD2    C411842   0.116   0.992  17.073 -0.2294 -0.7766 -0.2978
  804MPD2    C511843   0.041   0.902  16.998 -0.1574  0.6615 -0.7227
  804MPD2     H11844   0.126   0.818  17.350 -0.3546  0.5595 -0.1171
  804MPD2    H111845   0.156   1.078  17.020  2.1826 -0.9990  1.1638
  804MPD2    H211846   4.661   0.720  16.987 -0.7919  0.0935  0.4609
  804MPD2    H311847   0.003   0.928  16.900  0.6363 -1.7102 -1.6782
  804MPD2     N11848   0.235   1.052  17.271  0.1297  0.2670  0.2488
  804MPD2    H511849   0.250   1.035  17.370  0.6062  0.8015  0.2697
  804MPD2    N111850   0.001   0.639  17.250  0.3257 -0.2876 -0.0381
  804MPD2    H711851   0.028   0.645  17.347  1.1833  3.0922 -0.4811
  805MPD2     C11852   3.797   3.918  15.388 -0.3783  0.2306  0.2467
  805MPD2    C111853   3.863   3.868  15.279  0.7427 -0.0134 -0.2389
  805MPD2    C211854   3.999   3.838  15.282  0.1066  0.0822 -0.1246
  805MPD2    C311855   4.071   3.876  15.395  0.7510 -0.0630  0.6486
  805MPD2    C411856   4.004   3.937  15.502 -0.3452 -0.9335 -0.1522
  805MPD2    C511857   3.869   3.959  15.494 -0.3975  0.8246 -0.0458
  805MPD2     H11858   4.046   3.791  15.196 -0.8580 -0.2641 -0.4630
  805MPD2    H111859   4.050   3.972  15.594 -1.9037  1.5425 -0.3136
  805MPD2    H211860   3.691   3.941  15.387 -0.2284  0.9193  0.5590
  805MPD2    H311861   3.815   3.996  15.580 -0.1888  0.1911  0.3532
  805MPD2     N11862   4.214   3.848  15.402  0.0102 -0.3616  0.1222
  805MPD2    H511863   4.264   3.803  15.326 -1.7094 -2.1898  0.0721
  805MPD2    N111864   3.792   3.832  15.161  0.1751  0.7144  0.6188
  805MPD2    H711865   3.851   3.803  15.083  0.4904  3.2735 -0.1032
  806MPD2     C11866   3.850   3.189   0.024 -0.1292  0.0947 -0.0216
  806MPD2    C111867   3.924   3.140   0.126 -0.4373  0.4222 -0.7852
  806MPD2    C211868   4.061   3.133   0.105 -0.1887  0.2356  0.2440
  806MPD2    C311869   4.117   3.172  17.687  0.4845 -0.2687 -0.1139
  806MPD2    C411870   4.040   3.217  17.586  0.4079 -0.3198  0.7599
  806MPD2    C511871   3.902   3.214  17.604 -0.0844  0.2081 -0.2469
  806MPD2     H11872   4.130   3.091   0.177  2.4791  3.1983 -0.5639
  806MPD2    H111873   4.079   3.238  17.486 -1.8931 -2.2410 -0.5287
  806MPD2    H211874   3.743   3.203   0.042 -0.2616 -2.2666  1.1372
  806MPD2    H311875   3.855   3.253  17.514 -2.6464  0.4632  1.2185
  806MPD2     N11876   4.259   3.184  17.686 -0.1026  0.6517 -0.2569
  806MPD2    H511877   4.306   3.156   0.069 -0.2010 -1.7926 -0.9903
  806MPD2    N111878   3.862   3.117   0.247 -0.0880  0.5644 -0.1919
  806MPD2    H711879   3.772   3.163   0.256 -0.8030 -0.7307 -0.7927
  807MPD2     C11880   3.409   3.144   0.918  0.4119 -0.1141 -0.3736
  807MPD2    C111881   3.535   3.187   0.952  0.0972 -0.2725  0.0633
  807MPD2    C211882   3.573   3.206   1.085  0.0109 -0.5289  0.4036
  807MPD2    C311883   3.479   3.197   1.185  0.3480 -0.7109 -0.0473
  807MPD2    C411884   3.357   3.160   1.147 -0.0274 -0.8152  0.0246
  807MPD2    C511885   3.319   3.132   1.019 -0.5861 -1.1127  0.4735
  807MPD2     H11886   3.677   3.222   1.108 -0.3477  0.5106  1.3306
  807MPD2    H111887   3.279   3.152   1.221  0.8215 -1.2053  0.8741
  807MPD2    H211888   3.373   3.112   0.821 -0.9503 -1.8823  0.7151
  807MPD2    H311889   3.218   3.101   0.999 -1.7068  2.4403  0.5907
  807MPD2     N11890   3.519   3.208   1.325 -0.0365 -0.2497 -0.1894
  807MPD2    H511891   3.617   3.233   1.337  0.2655  0.1661 -3.2819
  807MPD2    N111892   3.647   3.193   0.862  0.0922 -0.1737 -0.4619
  807MPD2    H711893   3.737   3.220   0.900 -0.5694 -0.4630  1.3461
  808MPD2     C11894   0.233   4.040  10.081 -1.0066 -0.4908 -0.0088
  808MPD2    C111895   0.298   3.923  10.090 -0.1671  0.5644  0.1079
  808MPD2    C211896   0.421   3.911  10.025  0.3710 -0.6799 -0.0128
  808MPD2    C311897   0.464   4.002   9.935  0.1890 -0.2489 -0.0373
  808MPD2    C411898   0.390   4.114   9.922  0.1390  0.8144 -0.0823
  808MPD2    C511899   0.276   4.133   9.995 -0.2150  0.6774 -0.0717
  808MPD2     H11900   0.486   3.825  10.032 -1.4994 -2.1708 -1.0742
  808MPD2    H111901   0.429   4.198   9.865 -1.5149  1.1617 -0.6932
  808MPD2    H211902   0.142   4.066  10.133 -1.4663 -0.6020 -0.7711
  808MPD2    H311903   0.213   4.221   9.993  2.2104  2.3586 -0.9281
  808MPD2     N11904   0.595   3.989   9.872 -0.0380 -0.6910  0.3790
  808MPD2    H511905   0.628   4.061   9.809 -2.2477  0.4963  0.5786
  808MPD2    N111906   0.255   3.816  10.169  0.0599 -0.8545  0.1861
  808MPD2    H711907   0.316   3.736  10.182 -0.3807 -1.0307  1.2020
  809MPD2     C11908   1.475   3.612  10.155  0.3423 -0.1401  0.3462
  809MPD2    C111909   1.508   3.733  10.106  0.6761  0.1166 -0.0673
  809MPD2    C211910   1.399   3.811  10.057  0.3702  0.1099  0.0289
  809MPD2    C311911   1.276   3.760  10.028  0.4899  0.1894  0.2358
  809MPD2    C411912   1.249   3.631  10.075 -0.3894  0.4184  0.6667
  809MPD2    C511913   1.351   3.564  10.142  0.7413  0.1226  0.3797
  809MPD2     H11914   1.413   3.915  10.029 -0.1756 -0.5451 -2.7191
  809MPD2    H111915   1.150   3.590  10.057 -0.4170  1.1906 -0.9065
  809MPD2    H211916   1.549   3.550  10.203  0.1683 -0.2403  0.4839
  809MPD2    H311917   1.340   3.468  10.191 -1.6221 -0.2686 -0.9169
  809MPD2     N11918   1.174   3.830   9.955 -0.0770  0.2671 -0.2269
  809MPD2    H511919   1.088   3.778   9.940 -2.1637  3.3784  1.0365
  809MPD2    N111920   1.627   3.798  10.122  0.5936  0.7731  0.2269
  809MPD2    H711921   1.632   3.895  10.094 -2.2666  0.8515  0.0213
  810MPD2     C11922   4.583   4.364  10.885 -0.4579  0.3276 -0.1023
  810MPD2    C111923   4.543   4.363  10.757  0.5747  0.2396 -0.0506
  810MPD2    C211924   4.502   4.479  10.704 -0.6414  0.3865  0.6980
  810MPD2    C311925   4.505   4.602  10.770  0.7429  0.1922 -0.0082
  810MPD2    C411926   4.559   4.602  10.896 -0.4973 -0.4978  0.5302
  810MPD2    C511927   4.596   4.484  10.957 -0.2547 -0.3197  0.1699
  810MPD2     H11928   4.465   4.480  10.603  2.1303  2.6122 -0.3059
  810MPD2    H111929   4.581   4.693  10.952 -3.5779  0.8463 -0.4222
  810MPD2    H211930   4.627   4.279  10.935 -0.6896  0.1704 -0.1642
  810MPD2    H311931   4.639   4.478  11.056 -1.6710 -3.2016  0.6005
  810MPD2     N11932   4.466   4.725  10.717 -0.3027  0.4526 -0.2338
  810MPD2    H511933   4.497   0.076  10.776 -2.4897 -0.5401  2.1981
  810MPD2    N111934   4.531   4.248  10.682  0.9739  0.6019  0.4066
  810MPD2    H711935   4.526   4.248  10.581 -0.9345  1.9822  0.4984
  811MPD2     C11936   4.654   4.088   9.911  0.5356  0.4901  0.0745
  811MPD2    C111937   4.620   4.159  10.029 -0.4906 -0.4436 -0.3212
  811MPD2    C211938   4.594   4.297  10.015  0.3696 -0.0704 -0.0100
  811MPD2    C311939   4.606   4.363   9.894  0.3231  0.1985  0.2756
  811MPD2    C411940   4.660   4.290   9.789  0.1911  0.1586  0.8151
  811MPD2    C511941   4.672   4.155   9.793 -0.1381  0.4823  0.8050
  811MPD2     H11942   4.565   4.352  10.103 -0.4954  1.0370 -0.9798
  811MPD2    H111943   4.672   4.328   9.688 -1.8422  1.5071  1.0793
  811MPD2    H211944   4.662   3.980   9.906 -2.8358  0.2696 -0.6434
  811MPD2    H311945   4.694   4.093   9.707  2.7894  2.2729  0.2776
  811MPD2     N11946   4.570   4.504   9.887  0.0055 -0.3535 -0.0075
  811MPD2    H511947   4.503   4.529   9.959  2.0332  0.4385  1.6059
  811MPD2    N111948   4.604   4.087  10.149  0.2193 -0.1743  0.0156
  811MPD2    H711949   4.634   3.990  10.146  1.2301  0.1593 -0.9153
  812MPD2     C11950   3.551   4.114  11.952 -0.2419  0.0811  0.0226
  812MPD2    C111951   3.421   4.154  11.988 -0.4654  0.1249 -0.0205
  812MPD2    C211952   3.365   4.091  12.096 -0.1426  0.1536  0.1720
  812MPD2    C311953   3.426   3.981  12.152 -0.0466 -0.1386  0.5565
  812MPD2    C411954   3.555   3.955  12.103  0.3795 -0.8683 -0.1726
  812MPD2    C511955   3.630   4.021  12.013 -0.1305  0.4060  0.1056
  812MPD2     H11956   3.276   4.131  12.142  0.2642 -0.9495  1.9071
  812MPD2    H111957   3.614   3.872  12.141  1.0392  0.5680  1.9533
  812MPD2    H211958   3.604   4.159  11.869  0.5830  0.0705  0.5466
  812MPD2    H311959   3.723   3.983  11.975  0.6157  2.3607 -0.0325
  812MPD2     N11960   3.363   3.901  12.252 -0.1207  0.2721 -0.1202
  812MPD2    H511961   3.265   3.917  12.270 -0.1868 -0.5893  0.2906
  812MPD2    N111962   3.358   4.270  11.935 -0.0708  0.5075 -0.3815
  812MPD2    H711963   3.413   4.326  11.871  1.8974 -0.4152  0.4859
  813MPD2     C11964   2.233   1.312  12.460  0.8719 -0.1878  0.8128
  813MPD2    C111965   2.243   1.434  12.523  0.1162  0.6362 -0.0661
  813MPD2    C211966   2.133   1.484  12.597  0.5080 -0.0117  0.0199
  813MPD2    C311967   2.020   1.404  12.616  0.2898  0.5135 -0.0048
  813MPD2    C411968   2.013   1.286  12.555 -0.6385  0.6770  0.0526
  813MPD2    C511969   2.109   1.239  12.468 -0.1239 -0.1504  0.5023
  813MPD2     H11970   2.143   1.581  12.645  0.6318  0.3324 -0.7033
  813MPD2    H111971   1.934   1.213  12.574  1.2940 -1.2724  0.5628
  813MPD2    H211972   2.313   1.290  12.391  0.5074  0.1518  0.2834
  813MPD2    H311973   2.089   1.152  12.408 -0.8206  0.6912 -0.4724
  813MPD2     N11974   1.920   1.454  12.711 -0.3382  0.6545 -0.1123
  813MPD2    H511975   1.948   1.535  12.765 -0.8599  1.1887 -0.6426
  813MPD2    N111976   2.366   1.493  12.527  0.3196 -0.4360  0.2090
  813MPD2    H711977   2.445   1.435  12.501  2.1770  0.7337  3.3379
  814MPD2     C11978   3.238   2.814  12.445  0.1470 -0.2717 -0.2607
  814MPD2    C111979   3.226   2.852  12.314 -0.3328 -1.0263  0.0660
  814MPD2    C211980   3.286   2.971  12.275  0.0227  1.4544  0.5588
  814MPD2    C311981   3.342   3.058  12.365  0.3402  0.3642 -0.0805
  814MPD2    C411982   3.350   3.022  12.495 -0.5755 -0.2622  0.7097
  814MPD2    C511983   3.301   2.898  12.534 -0.5426  0.4256 -0.4371
  814MPD2     H11984   3.290   2.982  12.168  1.0883  1.5133  0.6066
  814MPD2    H111985   3.409   3.074  12.570  3.1064 -0.4348 -2.0961
  814MPD2    H211986   3.214   2.717  12.487 -1.3119 -0.0767 -0.6640
  814MPD2    H311987   3.317   2.871  12.637 -0.3753 -0.6564 -0.7456
  814MPD2     N11988   3.409   3.173  12.328  0.0643 -0.2720 -0.6669
  814MPD2    H511989   3.438   3.232  12.405  1.2109 -1.9512  0.1827
  814MPD2    N111990   3.168   2.763  12.215 -0.4050 -0.3828 -0.2389
  814MPD2    H711991   3.160   2.794  12.119  0.0147  0.5411  0.0269
  815MPD2     C11992   3.847   1.386  11.409 -0.2875 -0.2722 -0.1243
  815MPD2    C111993   3.774   1.289  11.341  0.2179  0.0913  0.1500
  815MPD2    C211994   3.673   1.215  11.414  0.4030  0.5242  0.1925
  815MPD2    C311995   3.667   1.233  11.554  0.2464 -0.8526  0.1444
  815MPD2    C411996   3.743   1.332  11.614  0.0015 -0.0365 -0.0612
  815MPD2    C511997   3.829   1.404  11.537 -0.5562 -0.2051 -0.6125
  815MPD2     H11998   3.611   1.136  11.374  0.5031  1.3016 -1.4977
  815MPD2    H111999   3.740   1.365  11.718 -0.8115 -0.8406  0.1762
  815MPD2    H212000   3.912   1.453  11.354  0.3211 -0.3962  0.4359
  815MPD2    H312001   3.872   1.490  11.586  0.8318 -0.8718 -0.6636
  815MPD2     N12002   3.573   1.152  11.626 -0.4391 -0.1281 -0.5946
  815MPD2    H512003   3.523   1.083  11.569 -0.8772  0.1942 -0.6010
  815MPD2    N112004   3.812   1.256  11.208  0.0502 -0.2619  0.3787
  815MPD2    H712005   3.877   1.319  11.162  1.7650 -2.1752  0.1545
  816MPD2     C12006   3.269   4.648  17.149  0.5685  0.2287  0.5011
  816MPD2    C112007   3.316   0.050  17.150 -0.1412  0.0779  0.0194
  816MPD2    C212008   3.419   0.090  17.068 -0.1119  0.7326 -0.0625
  816MPD2    C312009   3.469   4.719  16.978 -0.2394  0.1595  0.0560
  816MPD2    C412010   3.421   4.591  16.978  0.4222  0.5597  0.4870
  816MPD2    C512011   3.329   4.558  17.070  0.5913  0.4980  0.2144
  816MPD2     H12012   3.441   0.194  17.050  0.2166  0.6989  0.1475
  816MPD2    H112013   3.465   4.517  16.913 -1.6785 -1.7105  1.6569
  816MPD2    H212014   3.196   4.611  17.220  0.7550  0.5105  0.8382
  816MPD2    H312015   3.300   4.454  17.079 -0.9771  0.7829 -1.4393
  816MPD2     N12016   3.568   0.038  16.886  0.5777  0.1808  0.1280
  816MPD2    H512017   3.578   0.138  16.870 -4.2215  0.7439  0.6618
  816MPD2    N112018   3.242   0.137  17.234 -0.2209 -0.0974 -0.1339
  816MPD2    H712019   3.150   0.112  17.270  0.4130 -0.1705  1.4589
  817MPD2     C12020   3.736   1.539   9.649  0.1084  0.4442  0.0072
  817MPD2    C112021   3.626   1.533   9.570  0.1418  0.0662 -0.2842
  817MPD2    C212022   3.563   1.659   9.543  0.1078 -0.2887 -0.0176
  817MPD2    C312023   3.607   1.774   9.597  0.2120 -0.0760 -0.3049
  817MPD2    C412024   3.725   1.774   9.668  0.3292 -0.0039  0.8183
  817MPD2    C512025   3.785   1.655   9.693 -0.3007 -0.3775  0.3429
  817MPD2     H12026   3.469   1.666   9.490 -0.2993 -2.7703  0.3801
  817MPD2    H112027   3.777   1.861   9.706  1.3920 -0.3689  0.2101
  817MPD2    H212028   3.800   1.452   9.660  0.9340  0.7609 -2.1876
  817MPD2    H312029   3.873   1.652   9.756  0.1101 -1.6539 -0.3049
  817MPD2     N12030   3.527   1.880   9.562  0.4643  0.1931 -0.4181
  817MPD2    H512031   3.439   1.863   9.513  0.1061 -2.4004  1.1265
  817MPD2    N112032   3.572   1.410   9.538 -0.4989  0.2295  0.3318
  817MPD2    H712033   3.482   1.414   9.491 -0.2330 -2.0740 -0.3685
  818MPD2     C12034   2.497   1.887  10.184 -0.4588  0.7358  0.1162
  818MPD2    C112035   2.368   1.871  10.214 -0.0297  0.6327 -0.2744
  818MPD2    C212036   2.297   1.763  10.182 -0.8364 -0.0855  0.1509
  818MPD2    C312037   2.361   1.653  10.120 -0.0005 -0.1243  0.7198
  818MPD2    C412038   2.499   1.656  10.098 -0.3176  0.8625  0.2253
  818MPD2    C512039   2.554   1.775  10.125 -0.1410  0.3278  1.3422
  818MPD2     H12040   2.197   1.758  10.224 -0.6142  1.3068  0.8503
  818MPD2    H112041   2.556   1.574  10.056  0.5214  1.3699  0.3794
  818MPD2    H212042   2.549   1.978  10.210 -0.0708  0.2614  0.9825
  818MPD2    H312043   2.657   1.782  10.090  0.8344  0.5534  4.2121
  818MPD2     N12044   2.300   1.528  10.107 -0.4759  0.7571  0.6527
  818MPD2    H512045   2.364   1.453  10.082  0.0315  0.8791  1.6185
  818MPD2    N112046   2.303   1.969  10.292 -0.5831  0.4883 -0.0388
  818MPD2    H712047   2.205   1.950  10.312 -0.8661  3.7403  1.5773
  819MPD2     C12048   0.014   2.823  15.525  0.4634  0.2850 -0.1053
  819MPD2    C112049   4.664   2.934  15.549  0.4284 -0.5506  0.0458
  819MPD2    C212050   4.692   3.029  15.648  0.1682 -0.3055  0.5107
  819MPD2    C312051   0.084   3.017  15.717  0.0865 -0.5053 -1.1714
  819MPD2    C412052   0.168   2.911  15.692  0.7835 -0.0135  0.5102
  819MPD2    C512053   0.126   2.816  15.605  0.2080  0.0091  0.3465
  819MPD2     H12054   4.625   3.114  15.653 -0.8361 -0.8570 -3.3651
  819MPD2    H112055   0.253   2.891  15.757  0.3653  1.9643  1.6725
  819MPD2    H212056   4.710   2.751  15.450  0.4947  2.0557 -1.8365
  819MPD2    H312057   0.194   2.734  15.585 -0.5646 -0.6630  0.4864
  819MPD2     N12058   0.102   3.109  15.813 -0.1912  0.3425  0.3782
  819MPD2    H512059   0.019   3.166  15.828  0.8654  2.2637 -0.9372
  819MPD2    N112060   4.544   2.942  15.471  0.8124 -0.0175  0.7491
  819MPD2    H712061   4.522   2.860  15.416 -0.2356 -0.5686  2.0002
  820MPD2     C12062   3.771   3.135  14.738  0.0700 -0.9892  0.4386
  820MPD2    C112063   3.794   3.234  14.832 -0.2683  0.8376 -0.0767
  820MPD2    C212064   3.874   3.207  14.943 -0.0573 -0.0104  0.9259
  820MPD2    C312065   3.937   3.084  14.965 -0.1868 -0.5894  0.0563
  820MPD2    C412066   3.904   2.985  14.877 -0.1565 -0.1480  0.4905
  820MPD2    C512067   3.838   3.014  14.758  0.5132  0.1779 -0.1784
  820MPD2     H12068   3.888   3.275  15.026  0.5517  0.1236  0.7202
  820MPD2    H112069   3.945   2.886  14.892 -0.0516 -0.4668 -1.8880
  820MPD2    H212070   3.718   3.152  14.645 -0.5383  2.9023  1.4909
  820MPD2    H312071   3.816   2.941  14.681  2.5134  0.4715 -1.0300
  820MPD2     N12072   4.022   3.047  15.073 -0.3336  0.5740 -0.3519
  820MPD2    H512073   4.053   2.951  15.077  0.2441  0.7980  0.5309
  820MPD2    N112074   3.731   3.356  14.810  0.0126 -0.0712  0.0920
  820MPD2    H712075   3.663   3.364  14.735  0.2861 -0.2989 -0.1731
  821MPD2     C12076   0.401   4.460  13.202  0.2209 -0.2149 -0.6101
  821MPD2    C112077   0.362   4.592  13.177 -0.4096 -0.5872  0.3022
  821MPD2    C212078   0.444   4.673  13.104 -0.7401 -0.0429 -0.0580
  821MPD2    C312079   0.565   4.631  13.057  0.0569 -0.1423 -0.4072
  821MPD2    C412080   0.609   4.500  13.094 -0.1975 -1.0965 -0.4213
  821MPD2    C512081   0.526   4.418  13.165 -0.3437  0.5164 -0.2853
  821MPD2     H12082   0.415   0.051  13.090  1.9730  0.7902  0.4071
  821MPD2    H112083   0.708   4.464  13.071  0.8267  1.4558  0.0139
  821MPD2    H212084   0.337   4.397  13.262 -0.8738  1.1380 -0.3596
  821MPD2    H312085   0.559   4.326  13.213 -0.0679  0.3739 -0.7467
  821MPD2     N12086   0.654   4.715  12.991  0.3670  0.2003  0.1447
  821MPD2    H512087   0.748   4.680  12.975  0.2155  0.3297 -1.0308
  821MPD2    N112088   0.251   4.653  13.229 -0.0752 -0.4010 -0.7256
  821MPD2    H712089   0.222   0.021  13.202  2.5749  0.9289  1.0520
  822MPD2     C12090   0.748   0.216  15.758  0.2380  0.5546 -0.4743
  822MPD2    C112091   0.760   0.201  15.897 -0.2846 -0.8642 -0.7586
  822MPD2    C212092   0.686   0.267  15.987 -0.0554  0.5226  0.3157
  822MPD2    C312093   0.614   0.381  15.954  0.5966  0.0702 -0.6422
  822MPD2    C412094   0.610   0.414  15.822 -0.3584 -0.8063  0.3840
  822MPD2    C512095   0.663   0.321  15.726  0.2082 -0.3067 -0.5563
  822MPD2     H12096   0.682   0.234  16.091  1.3011  0.0189  0.2059
  822MPD2    H112097   0.584   0.511  15.782 -1.5202 -1.3175 -0.0967
  822MPD2    H212098   0.796   0.169  15.674  0.1557 -1.0841  0.4008
  822MPD2    H312099   0.653   0.349  15.622 -0.9772  0.3666 -0.2518
  822MPD2     N12100   0.578   0.474  16.057  0.4579  0.3366 -0.3054
  822MPD2    H512101   0.576   0.431  16.149  0.5822 -0.8201 -0.8409
  822MPD2    N112102   0.856   0.110  15.947 -0.6523 -0.5803 -0.2565
  822MPD2    H712103   0.858   0.105  16.048  0.7270  0.7956 -0.2164
  823MPD2     C12104   0.323   0.740  16.825  0.1680 -0.3645 -0.0297
  823MPD2    C112105   0.307   0.645  16.727 -0.2726 -1.4938  0.3621
  823MPD2    C212106   0.278   0.514  16.761 -0.3663  0.6575  0.5927
  823MPD2    C312107   0.294   0.475  16.896 -0.0422  0.2302  0.6953
  823MPD2    C412108   0.308   0.568  16.998 -0.1377 -0.0202  0.2286
  823MPD2    C512109   0.319   0.703  16.956  0.3218  0.9806  0.2609
  823MPD2     H12110   0.261   0.440  16.683  0.6212  0.4187  0.6109
  823MPD2    H112111   0.306   0.537  17.102 -1.2148 -2.3621 -0.5035
  823MPD2    H212112   0.349   0.844  16.807  2.3251 -0.8119  0.4574
  823MPD2    H312113   0.338   0.783  17.027  0.0517 -0.2736  1.7422
  823MPD2     N12114   0.318   0.344  16.938 -0.5631 -0.0924  0.0442
  823MPD2    H512115   0.357   0.336  17.032  0.7787  0.6797 -0.4410
  823MPD2    N112116   0.359   0.681  16.599  0.2402 -0.3992  0.2581
  823MPD2    H712117   0.403   0.772  16.608 -0.5827  0.4005 -3.4362
  824MPD2     C12118   1.093   3.982  16.019 -0.5603 -0.3322 -0.3125
  824MPD2    C112119   1.131   4.076  15.923  0.0169 -0.3643  0.1071
  824MPD2    C212120   1.192   4.039  15.805  0.4494 -0.2169 -0.4891
  824MPD2    C312121   1.189   3.907  15.767  0.0441 -0.9043  0.0783
  824MPD2    C412122   1.124   3.817  15.848 -0.1630  0.1323 -0.1533
  824MPD2    C512123   1.087   3.853  15.975  0.5501  0.1531  0.1828
  824MPD2     H12124   1.226   4.111  15.731  0.1642 -2.1116 -2.4549
  824MPD2    H112125   1.111   3.713  15.819  0.5646 -0.4002  1.4538
  824MPD2    H212126   1.063   4.004  16.121 -0.5731 -3.1183  0.2781
  824MPD2    H312127   1.038   3.778  16.037 -0.6911 -0.1221 -1.1192
  824MPD2     N12128   1.262   3.869  15.652 -0.3946 -0.4222 -0.5237
  824MPD2    H512129   1.298   3.947  15.599 -1.5641 -0.1680 -0.9440
  824MPD2    N112130   1.119   4.207  15.962  0.2632 -0.7918 -0.3431
  824MPD2    H712131   1.071   4.219  16.051  1.0842  3.6068 -0.4869
  825MPD2     C12132   2.059   3.937  15.387  0.4250 -0.0638 -1.0023
  825MPD2    C112133   1.937   3.997  15.417 -0.0442  0.4370 -0.0834
  825MPD2    C212134   1.932   4.127  15.471  0.2588  0.2723 -0.0560
  825MPD2    C312135   2.044   4.206  15.478 -0.3392 -0.1959 -0.4017
  825MPD2    C412136   2.164   4.147  15.433  0.2048 -0.2738 -0.3312
  825MPD2    C512137   2.175   4.014  15.405 -0.4630  0.6211  0.2608
  825MPD2     H12138   1.844   4.175  15.512 -0.4457 -2.3758  1.5158
  825MPD2    H112139   2.255   4.207  15.430 -1.9096  2.9696  0.4016
  825MPD2    H212140   2.066   3.831  15.362  0.7977  0.0647 -1.4398
  825MPD2    H312141   2.276   3.980  15.390 -0.5258 -0.1724  1.7340
  825MPD2     N12142   2.041   4.344  15.500 -0.1006  0.1844 -0.4255
  825MPD2    H512143   2.127   4.395  15.483 -0.1093  0.9314  1.7328
  825MPD2    N112144   1.824   3.914  15.412 -0.1370 -0.4645 -0.2520
  825MPD2    H712145   1.849   3.816  15.401 -0.5291 -0.8053  1.8268
  826MPD2     C12146   1.425   4.013  13.837  0.0974 -0.2298 -0.2565
  826MPD2    C112147   1.425   4.000  13.698  0.4541  1.0576 -0.1062
  826MPD2    C212148   1.304   4.024  13.638  0.1618  0.9349 -0.1820
  826MPD2    C312149   1.192   4.069  13.706  0.0074  0.0101  0.1508
  826MPD2    C412150   1.200   4.087  13.846 -0.1004 -0.9302  0.2554
  826MPD2    C512151   1.311   4.042  13.906  0.0721 -0.7490 -0.0930
  826MPD2     H12152   1.300   4.015  13.530  2.1721 -2.0626 -0.0133
  826MPD2    H112153   1.108   4.110  13.899  1.2818  0.4644  2.0640
  826MPD2    H212154   1.516   3.995  13.894 -0.3144 -2.9852 -0.4785
  826MPD2    H312155   1.307   4.047  14.014  0.0170  4.0968 -0.2923
  826MPD2     N12156   1.065   4.084  13.634 -0.2401 -0.3339 -0.5773
  826MPD2    H512157   0.989   4.116  13.693  1.5376  2.4844  0.1547
  826MPD2    N112158   1.541   3.963  13.625 -0.0674  0.0079 -0.3558
  826MPD2    H712159   1.631   3.977  13.670  1.3159 -0.9206 -2.8289
  827MPD2     C12160   1.989   0.471   9.884  0.6017 -0.4577 -0.0074
  827MPD2    C112161   2.116   0.434   9.920  1.2212  0.3942 -1.1160
  827MPD2    C212162   2.163   0.313   9.879  0.2782 -0.3002  1.0683
  827MPD2    C312163   2.083   0.229   9.803 -0.9499 -0.3362 -0.3680
  827MPD2    C412164   1.955   0.274   9.762 -0.3164 -0.1259  0.1135
  827MPD2    C512165   1.913   0.395   9.798 -0.7340  1.1300  0.4328
  827MPD2     H12166   2.268   0.287   9.893  0.7167  0.7970 -0.2031
  827MPD2    H112167   1.889   0.212   9.703 -0.4891 -0.8228  1.0197
  827MPD2    H212168   1.942   0.565   9.907  1.0963 -0.2213  0.0403
  827MPD2    H312169   1.814   0.432   9.776 -0.2973  0.0517 -3.3885
  827MPD2     N12170   2.132   0.099   9.776  0.1165 -0.2849  0.2086
  827MPD2    H512171   2.228   0.080   9.804 -0.5393 -0.8033  2.0980
  827MPD2    N112172   2.189   0.523  10.005 -0.0345 -0.7103  0.1232
  827MPD2    H712173   2.138   0.600  10.047 -1.2097 -0.0884 -2.3874
  828MPD2     C12174   0.074   0.884  12.415 -0.3538  0.7112 -0.6221
  828MPD2    C112175   0.108   0.777  12.338  0.5694 -0.4522 -0.0387
  828MPD2    C212176   0.234   0.753  12.317  0.6944 -0.9820  0.0217
  828MPD2    C312177   0.325   0.849  12.348 -0.5391  0.2501  0.2090
  828MPD2    C412178   0.287   0.956  12.418  0.3220  0.2116  0.0860
  828MPD2    C512179   0.164   0.971  12.469  0.1542  0.0780 -0.2217
  828MPD2     H12180   0.249   0.661  12.262 -0.7277 -0.9170 -0.4673
  828MPD2    H112181   0.358   1.034  12.443 -1.3852  1.0984  2.1226
  828MPD2    H212182   4.697   0.909  12.441 -0.8146 -0.7699 -1.0572
  828MPD2    H312183   0.129   1.051  12.534 -0.4515  0.1403 -0.6208
  828MPD2     N12184   0.458   0.840  12.303 -0.0923 -0.1645  0.2035
  828MPD2    H512185   0.527   0.912  12.326  0.3450  0.2540 -2.4478
  828MPD2    N112186   0.011   0.696  12.275 -0.1754 -0.2752 -0.2684
  828MPD2    H712187   0.048   0.617  12.222  1.2096 -1.3775  2.3165
  829MPD2     C12188   0.270   0.143  11.728 -0.4687 -0.2600  0.4235
  829MPD2    C112189   0.141   0.138  11.691 -0.5127 -0.2008 -0.3053
  829MPD2    C212190   0.043   0.200  11.768 -0.3604  0.4926  0.3227
  829MPD2    C312191   0.082   0.275  11.876  0.8051  0.9751 -0.2798
  829MPD2    C412192   0.219   0.291  11.905 -0.2793 -0.3618  0.1250
  829MPD2    C512193   0.309   0.228  11.827  0.1397 -0.1367  0.5351
  829MPD2     H12194   4.667   0.203  11.729  0.3378 -1.0880 -1.6209
  829MPD2    H112195   0.254   0.340  11.996  1.6627 -3.1025  0.8718
  829MPD2    H212196   0.346   0.073  11.692 -1.0494 -1.8450  2.2462
  829MPD2    H312197   0.417   0.226  11.840  0.0739 -2.4454  0.6606
  829MPD2     N12198   4.713   0.346  11.952 -0.3946  0.5675 -0.1982
  829MPD2    H512199   0.027   0.382  12.038 -0.9584  2.2157 -0.6318
  829MPD2    N112200   0.116   0.069  11.565  0.3212  0.1472 -0.3609
  829MPD2    H712201   0.187   0.028  11.505 -0.2754 -1.4155 -0.0164
  830MPD2     C12202   4.586   2.982  16.318  0.0750  0.0082 -0.2410
  830MPD2    C112203   4.696   3.062  16.307 -0.0910  0.7674  0.0871
  830MPD2    C212204   0.093   3.016  16.281  0.2762 -0.1130  0.2200
  830MPD2    C312205   0.113   2.881  16.252  0.0375  1.3443  0.2187
  830MPD2    C412206   4.723   2.801  16.255 -0.3192  0.3558 -0.7510
  830MPD2    C512207   4.608   2.846  16.305  0.2192  0.4804  0.0215
  830MPD2     H12208   0.181   3.079  16.290  0.1245  0.0416  0.5794
  830MPD2    H112209   4.725   2.698  16.220  3.3847  0.9484 -2.2983
  830MPD2    H212210   4.491   3.021  16.352 -0.7587 -0.5198 -1.9675
  830MPD2    H312211   4.525   2.777  16.312 -0.0163  0.7906  0.2403
  830MPD2     N12212   0.235   2.822  16.200  0.1532  0.0979 -0.0621
  830MPD2    H512213   0.230   2.725  16.172  3.1482  0.1500 -0.7788
  830MPD2    N112214   4.676   3.201  16.316  0.1992  0.4711 -0.6226
  830MPD2    H712215   4.599   3.228  16.377 -1.1011 -0.6357 -1.7777
  831MPD2     C12216   0.740   0.527  16.508  0.9041  0.3945  0.1032
  831MPD2    C112217   0.755   0.449  16.397 -0.8934 -1.0040  0.5997
  831MPD2    C212218   0.667   0.345  16.383  0.0122 -0.7922  0.2406
  831MPD2    C312219   0.568   0.328  16.479 -0.1228 -0.5160  0.0133
  831MPD2    C412220   0.567   0.400  16.594 -0.3220  0.5221 -0.6418
  831MPD2    C512221   0.657   0.499  16.606 -0.9033 -1.1944 -0.2087
  831MPD2     H12222   0.676   0.278  16.298 -1.0398 -0.1493 -0.3893
  831MPD2    H112223   0.496   0.384  16.675  0.2801  2.2024  0.2208
  831MPD2    H212224   0.803   0.611  16.536 -0.6526  1.3989  0.6084
  831MPD2    H312225   0.650   0.563  16.693  1.5698  1.9857 -2.3667
  831MPD2     N12226   0.465   0.230  16.467 -0.1515 -0.4897  0.0671
  831MPD2    H512227   0.406   0.212  16.548  1.3347  0.3580  1.3237
  831MPD2    N112228   0.857   0.470  16.297 -0.1117 -0.0383  0.3658
  831MPD2    H712229   0.910   0.557  16.300  2.7108 -1.7483  0.3982
  832MPD2     C12230   3.985   1.301  17.367 -0.5907 -0.3674 -0.6539
  832MPD2    C112231   3.902   1.406  17.389  0.0987 -0.5241  0.3496
  832MPD2    C212232   3.779   1.412  17.325 -0.3284 -0.0552 -0.4320
  832MPD2    C312233   3.740   1.315  17.232  0.0714 -0.2380  0.2131
  832MPD2    C412234   3.827   1.207  17.213 -0.3097 -0.0801  0.1435
  832MPD2    C512235   3.945   1.206  17.281 -0.0777  0.8507  0.7197
  832MPD2     H12236   3.706   1.488  17.352 -1.5975 -0.6369 -2.2347
  832MPD2    H112237   3.801   1.117  17.158 -0.0328  0.2209 -0.4770
  832MPD2    H212238   4.083   1.291  17.413 -1.4184  2.6620  1.7358
  832MPD2    H312239   3.995   1.110  17.288 -0.4395  0.4317 -2.5862
  832MPD2     N12240   3.608   1.311  17.171 -0.1732 -0.4345 -0.5870
  832MPD2    H512241   3.574   1.226  17.127  2.6723 -2.0565  0.4158
  832MPD2    N112242   3.948   1.515  17.474 -0.4201 -1.1277 -0.2521
  832MPD2    H712243   4.037   1.510  17.523  0.3941 -1.8374 -1.8180
  833MPD2     C12244   1.452   3.150  12.689 -0.4626  0.4474 -1.0520
  833MPD2    C112245   1.503   3.279  12.669  0.1976 -0.5281  0.6517
  833MPD2    C212246   1.619   3.285  12.594  0.4524 -0.2817  0.3943
  833MPD2    C312247   1.688   3.168  12.560  0.9274 -0.5641 -0.1923
  833MPD2    C412248   1.636   3.043  12.591  0.1671 -0.0303 -0.0736
  833MPD2    C512249   1.521   3.034  12.656  0.2340  0.2539  0.6113
  833MPD2     H12250   1.666   3.380  12.571 -0.2194 -0.7773 -2.9834
  833MPD2    H112251   1.685   2.953  12.557 -1.0931 -1.6343  2.3816
  833MPD2    H212252   1.357   3.146  12.741 -1.0331  0.9667 -2.0649
  833MPD2    H312253   1.473   2.940  12.679 -0.2771  0.3253 -0.1938
  833MPD2     N12254   1.814   3.186  12.501  0.7760 -0.1601 -0.3165
  833MPD2    H512255   1.849   3.281  12.500  0.1471  0.0891  0.9629
  833MPD2    N112256   1.417   3.395  12.702  0.8460 -0.5660  0.2801
  833MPD2    H712257   1.322   3.373  12.728  0.8016 -1.0984 -0.3179
  834MPD2     C12258   2.223   3.056  11.599 -0.3075  0.4726 -0.1157
  834MPD2    C112259   2.103   3.012  11.652 -0.2771  0.7199 -0.2031
  834MPD2    C212260   2.063   3.044  11.780 -0.7791  0.4467  0.2567
  834MPD2    C312261   2.144   3.126  11.858 -0.7436  0.0353 -0.4201
  834MPD2    C412262   2.262   3.164  11.803  0.1123  0.3630 -0.4018
  834MPD2    C512263   2.297   3.144  11.673 -0.0082  0.5408  0.0504
  834MPD2     H12264   1.977   2.992  11.822 -0.9114 -0.3318 -0.9997
  834MPD2    H112265   2.335   3.211  11.868  1.0318 -1.3968 -0.1810
  834MPD2    H212266   2.249   3.023  11.499  1.1090 -0.6656  0.6184
  834MPD2    H312267   2.393   3.178  11.637 -0.4232  1.4918 -0.1479
  834MPD2     N12268   2.107   3.157  11.989 -0.5680  0.3863  0.0579
  834MPD2    H512269   2.027   3.114  12.034  0.6583 -1.8908  0.0205
  834MPD2    N112270   2.021   2.928  11.571 -0.1019  0.1340 -0.2703
  834MPD2    H712271   2.050   2.918  11.474  1.1235  1.1691 -0.0100
  835MPD2     C12272   0.861   0.893  11.325 -0.3489  0.3773 -0.5203
  835MPD2    C112273   0.985   0.861  11.273  0.5682 -0.5062 -0.0231
  835MPD2    C212274   1.097   0.901  11.345  0.3578 -0.0280  0.5908
  835MPD2    C312275   1.089   0.959  11.471  0.2244 -0.6103 -0.0177
  835MPD2    C412276   0.958   0.981  11.522 -0.3234  0.4200 -0.1922
  835MPD2    C512277   0.847   0.958  11.445  0.3199  0.2148  0.4548
  835MPD2     H12278   1.198   0.876  11.316  0.2102  2.3511 -1.9533
  835MPD2    H112279   0.948   1.020  11.623 -1.3802 -0.0807 -0.1077
  835MPD2    H212280   0.771   0.875  11.269  0.3951 -0.3362 -1.4868
  835MPD2    H312281   0.749   0.965  11.490  0.6388  0.1939  1.1399
  835MPD2     N12282   1.195   0.994  11.560  0.0970 -0.6199  0.4740
  835MPD2    H512283   1.170   1.008  11.657 -1.1785  1.1539 -0.1074
  835MPD2    N112284   1.000   0.789  11.154 -0.0481 -0.0928 -0.4577
  835MPD2    H712285   1.095   0.770  11.123 -0.3318 -0.8621 -0.8644
  836MPD2     C12286   1.126   1.453  11.962  0.3986  0.0002 -0.1879
  836MPD2    C112287   1.197   1.354  12.024  0.1228 -0.4938  0.4035
  836MPD2    C212288   1.186   1.343  12.160  0.2010 -0.5730 -0.3145
  836MPD2    C312289   1.112   1.438  12.238  0.8470 -0.3398  0.1508
  836MPD2    C412290   1.052   1.544  12.179  0.0702  0.9037  0.0311
  836MPD2    C512291   1.062   1.550  12.043 -0.4800 -0.1966  0.8187
  836MPD2     H12292   1.249   1.270  12.210  1.9449  0.7076 -0.6271
  836MPD2    H112293   0.983   1.611  12.229  0.2076  1.1293 -0.0798
  836MPD2    H212294   1.127   1.455  11.854  1.7571 -1.1096 -0.2027
  836MPD2    H312295   0.996   1.626  12.002 -1.6337 -1.9697 -0.5665
  836MPD2     N12296   1.086   1.418  12.378  0.2224 -0.3173 -0.0622
  836MPD2    H512297   1.037   1.495  12.423 -2.4569 -2.9099  1.3701
  836MPD2    N112298   1.267   1.268  11.938 -0.7029  0.4725  0.1782
  836MPD2    H712299   1.255   1.287  11.839  1.3765 -2.4406 -0.6261
  837MPD2     C12300   4.476   0.522  10.231 -0.5419  0.3782  0.1959
  837MPD2    C112301   4.486   0.526  10.092  0.5736 -0.3693  1.1420
  837MPD2    C212302   4.465   0.645  10.022 -0.0575  0.4309  0.1362
  837MPD2    C312303   4.410   0.748  10.094 -0.0176 -0.7433  0.1280
  837MPD2    C412304   4.393   0.739  10.236  0.1539  0.6318  0.2538
  837MPD2    C512305   4.424   0.629  10.299 -0.5361  0.5049 -0.8425
  837MPD2     H12306   4.466   0.651   9.914  0.1706  0.7119  0.1550
  837MPD2    H112307   4.338   0.818  10.286 -0.2161 -0.6849  1.9335
  837MPD2    H212308   4.501   0.432  10.286 -0.8424  1.2644  1.7812
  837MPD2    H312309   4.400   0.623  10.404  0.9923 -1.3235 -0.6016
  837MPD2     N12310   4.360   0.855  10.023 -0.1247  0.0660  0.3103
  837MPD2    H512311   4.389   0.845   9.926  0.0323 -2.1739  0.5978
  837MPD2    N112312   4.519   0.415  10.014 -0.5305 -0.9036  0.3047
  837MPD2    H712313   4.521   0.437   9.914  0.9303  0.3743  0.6199
  838MPD2     C12314   2.965   3.993  11.475  0.1905 -0.0366  0.2076
  838MPD2    C112315   2.995   3.862  11.490 -0.8549 -0.0964  0.3995
  838MPD2    C212316   2.911   3.780  11.560  0.6752  0.0113  0.3023
  838MPD2    C312317   2.804   3.827  11.632 -0.1583 -0.3746  0.1562
  838MPD2    C412318   2.759   3.951  11.600  0.1606 -0.1245 -0.2872
  838MPD2    C512319   2.840   4.033  11.529 -0.5426 -0.5581  0.2777
  838MPD2     H12320   2.928   3.673  11.571  1.6741  0.2172  0.7171
  838MPD2    H112321   2.665   3.983  11.644  1.1827 -0.5386  2.2002
  838MPD2    H212322   3.012   4.063  11.407  1.0433 -0.5293  0.2904
  838MPD2    H312323   2.817   4.135  11.501  0.1939 -0.5434 -0.2941
  838MPD2     N12324   2.724   3.738  11.708 -0.3412 -0.6730  0.8516
  838MPD2    H512325   2.755   3.641  11.715  0.5766 -0.3462  1.4282
  838MPD2    N112326   3.104   3.805  11.418 -0.6247  0.8774 -0.1851
  838MPD2    H712327   3.114   3.706  11.438  1.1112  1.2263  0.5959
  839MPD2     C12328   3.267   3.133  11.705 -0.2753 -0.3079  0.0281
  839MPD2    C112329   3.231   3.119  11.579  0.1662 -0.3600  0.6257
  839MPD2    C212330   3.281   3.211  11.486  0.5677  0.0387  0.4574
  839MPD2    C312331   3.356   3.323  11.530  0.2400  0.4190 -0.5501
  839MPD2    C412332   3.368   3.342  11.669 -0.2920 -0.0380 -0.5546
  839MPD2    C512333   3.341   3.235  11.752 -0.4768  0.1557  0.3397
  839MPD2     H12334   3.264   3.187  11.382 -1.6750  4.5043 -0.2093
  839MPD2    H112335   3.419   3.430  11.705 -0.0535  0.3495 -1.8408
  839MPD2    H212336   3.253   3.050  11.773  0.3817  0.5976  1.2781
  839MPD2    H312337   3.359   3.247  11.859  0.8913 -1.5609  0.3047
  839MPD2     N12338   3.414   3.420  11.442  0.1508  0.4541  0.2623
  839MPD2    H512339   3.450   3.506  11.483 -3.6487  1.0376  2.5009
  839MPD2    N112340   3.157   3.006  11.532  0.1646 -0.4349  0.0358
  839MPD2    H712341   3.165   2.994  11.431  2.7941 -1.2987  0.3357
  840MPD2     C12342   2.794   0.978   9.956  0.0387  0.8781  0.4622
  840MPD2    C112343   2.817   0.905  10.071 -0.5700  0.3779  1.1075
  840MPD2    C212344   2.912   0.947  10.165 -0.1140 -0.6706 -0.1948
  840MPD2    C312345   2.991   1.060  10.133  0.3613 -0.3491 -0.1010
  840MPD2    C412346   2.975   1.121  10.010  0.2358 -0.2314  0.5215
  840MPD2    C512347   2.870   1.088   9.928  0.0311 -0.0682 -0.8709
  840MPD2     H12348   2.918   0.893  10.259  0.5781 -1.4130 -0.6682
  840MPD2    H112349   3.035   1.207   9.984 -0.6195  1.1553  3.1382
  840MPD2    H212350   2.711   0.942   9.896 -1.0765  2.5007  1.0489
  840MPD2    H312351   2.849   1.141   9.836  0.7056  2.3168  0.3529
  840MPD2     N12352   3.100   1.110  10.219 -0.0919  1.1517  0.9315
  840MPD2    H512353   3.168   1.178  10.185 -0.1109  0.9796  0.5450
  840MPD2    N112354   2.722   0.794  10.093  0.5161 -0.1725  0.1843
  840MPD2    H712355   2.662   0.759  10.020  1.2930  1.5857 -1.3003
  841MPD2     C12356   1.927   0.455  14.562  0.1286  0.0477  0.0997
  841MPD2    C112357   1.966   0.444  14.434 -0.0949  0.0547  0.1747
  841MPD2    C212358   2.024   0.556  14.369  0.1429 -0.8538  0.0642
  841MPD2    C312359   2.045   0.678  14.438 -0.5426 -0.7893 -0.8247
  841MPD2    C412360   2.003   0.681  14.568  0.2036  0.3484  0.1702
  841MPD2    C512361   1.944   0.571  14.629  0.4276  0.0476  0.1713
  841MPD2     H12362   2.061   0.551  14.268 -0.8782  0.2523 -0.3717
  841MPD2    H112363   2.005   0.769  14.631  2.3909  1.1515 -1.0200
  841MPD2    H212364   1.887   0.374  14.622  0.1551  0.2682  0.4140
  841MPD2    H312365   1.918   0.574  14.734  1.0935  1.2786  0.2938
  841MPD2     N12366   2.100   0.793  14.365  0.5966 -0.6119 -0.7396
  841MPD2    H512367   2.120   0.775  14.267 -0.3730  1.8071 -1.3745
  841MPD2    N112368   1.954   0.322  14.356 -0.2005  0.6948  0.3839
  841MPD2    H712369   1.991   0.333  14.262  1.2237  1.8510  1.0686
  842MPD2     C12370   2.527   1.283  16.616  0.7007  0.4056  0.0510
  842MPD2    C112371   2.616   1.387  16.602 -0.0525  0.4280 -0.0638
  842MPD2    C212372   2.698   1.421  16.708 -0.1994  0.0020 -0.9182
  842MPD2    C312373   2.690   1.345  16.826  0.4766  0.3150 -0.0664
  842MPD2    C412374   2.600   1.244  16.833  0.0152  0.2461 -0.2343
  842MPD2    C512375   2.532   1.202  16.726 -0.0511  0.3281  0.2343
  842MPD2     H12376   2.755   1.513  16.697 -0.0007 -0.3801 -3.0594
  842MPD2    H112377   2.586   1.171  16.913  0.1376  1.2850  0.7309
  842MPD2    H212378   2.460   1.242  16.541 -0.2991  0.5611  0.8614
  842MPD2    H312379   2.470   1.113  16.723  0.2983  0.1187 -0.5516
  842MPD2     N12380   2.771   1.362  16.936 -0.3641  0.3688  0.1223
  842MPD2    H512381   2.735   1.318  17.021  1.4328 -0.3317  0.5326
  842MPD2    N112382   2.610   1.464  16.487  0.2109  0.0914 -0.5091
  842MPD2    H712383   2.538   1.434  16.421  0.5737  0.8797 -1.2645
  843MPD2     C12384   4.486   2.317   0.003 -0.4364  0.2169  0.1684
  843MPD2    C112385   4.604   2.257   0.035 -0.7908 -0.0594  1.0424
  843MPD2    C212386   4.723   2.332   0.054  0.1171  0.4954 -0.1519
  843MPD2    C312387   4.714   2.473   0.036  0.1386  0.5375  0.7909
  843MPD2    C412388   4.595   2.528  17.695  0.3107 -0.0116 -0.2470
  843MPD2    C512389   4.485   2.449  17.674  0.8191  0.9561 -0.1984
  843MPD2     H12390   0.087   2.288   0.097  0.4106  1.2124 -0.0258
  843MPD2    H112391   4.585   2.635  17.676  0.4206 -0.2522 -1.6427
  843MPD2    H212392   4.395   2.258   0.001  0.0461 -0.5666  1.3559
  843MPD2    H312393   4.395   2.486  17.628  0.1636 -0.9590 -0.4471
  843MPD2     N12394   0.093   2.557   0.064 -0.2801  0.2227 -0.8448
  843MPD2    H512395   0.087   2.641   0.007  1.7044  1.0889  0.2532
  843MPD2    N112396   4.597   2.118   0.051 -0.0563 -0.3293  0.2413
  843MPD2    H712397   4.509   2.070   0.066 -0.5241  0.6705  0.6969
  844MPD2     C12398   3.461   1.288  16.303 -0.2453 -0.1592  0.2977
  844MPD2    C112399   3.562   1.197  16.329 -0.0469 -0.0024 -0.1611
  844MPD2    C212400   3.630   1.218  16.443 -0.1370 -0.5022 -0.0479
  844MPD2    C312401   3.610   1.325  16.528 -0.7191 -0.2477  0.7420
  844MPD2    C412402   3.512   1.412  16.495 -0.0485 -0.1845 -0.6794
  844MPD2    C512403   3.443   1.400  16.377  0.6530  0.7023  0.2200
  844MPD2     H12404   3.694   1.133  16.466  0.4637  0.1141  0.5537
  844MPD2    H112405   3.492   1.500  16.555  1.4429  2.2498 -3.7957
  844MPD2    H212406   3.400   1.285  16.213  0.3005 -1.8510 -0.0289
  844MPD2    H312407   3.368   1.472  16.348 -0.6070 -1.0786 -0.9545
  844MPD2     N12408   3.707   1.343  16.635  0.6440 -0.3812  0.3219
  844MPD2    H512409   3.788   1.282  16.627  1.5754  1.1101 -1.6110
  844MPD2    N112410   3.577   1.071  16.251 -0.0280  0.5778 -0.3172
  844MPD2    H712411   3.628   0.992  16.289 -1.4693  0.4042  1.2493
  845MPD2     C12412   3.778   2.122  17.245 -0.6851  0.2847 -0.4272
  845MPD2    C112413   3.674   2.032  17.261 -0.1668  0.6127 -0.1612
  845MPD2    C212414   3.691   1.901  17.226  0.7510 -0.3101  0.2295
  845MPD2    C312415   3.815   1.857  17.171  0.1314  0.1832  0.9271
  845MPD2    C412416   3.924   1.939  17.172 -0.6757  0.0511 -0.2039
  845MPD2    C512417   3.909   2.075  17.214  0.5335  0.7931  0.4767
  845MPD2     H12418   3.619   1.821  17.241 -1.4065  1.5513 -0.2016
  845MPD2    H112419   4.025   1.913  17.140 -1.6893 -2.5331 -1.3558
  845MPD2    H212420   3.775   2.228  17.265  2.1974 -0.2052  2.5583
  845MPD2    H312421   3.991   2.145  17.205  2.7480 -1.6565  1.5842
  845MPD2     N12422   3.820   1.724  17.120  0.1207  0.3617 -0.3239
  845MPD2    H512423   3.732   1.675  17.111 -0.5480  1.3740  0.7399
  845MPD2    N112424   3.556   2.079  17.320  0.1653  0.3621 -0.2707
  845MPD2    H712425   3.566   2.177  17.342 -1.5417  0.4488  0.1081
  846MPD2     C12426   0.543   2.461  13.375  1.0170  0.3372  0.5783
  846MPD2    C112427   0.504   2.585  13.427 -0.0815 -0.0655 -0.0771
  846MPD2    C212428   0.469   2.594  13.561 -0.7476  0.7340 -0.2598
  846MPD2    C312429   0.465   2.486  13.647  0.4233 -0.6865 -0.3306
  846MPD2    C412430   0.498   2.360  13.596  0.2055  0.2271  0.3258
  846MPD2    C512431   0.541   2.352  13.459  0.4728 -0.9857 -0.0440
  846MPD2     H12432   0.454   2.696  13.597 -2.9103  0.1843  0.4345
  846MPD2    H112433   0.512   2.267  13.650  1.8114  0.3547  0.1120
  846MPD2    H212434   0.579   2.448  13.274 -0.8354  0.4916 -0.0823
  846MPD2    H312435   0.584   2.259  13.423  0.2750 -0.4060 -1.7911
  846MPD2     N12436   0.426   2.509  13.780 -0.4925 -0.1253  0.4829
  846MPD2    H512437   0.388   2.600  13.804 -0.8480 -0.1209 -0.0894
  846MPD2    N112438   0.515   2.706  13.359 -0.3944  0.1302 -0.3393
  846MPD2    H712439   0.487   2.789  13.410 -1.1371 -1.6423  2.1623
  847MPD2     C12440   0.551   2.492  14.906  0.1665  0.2558  0.2970
  847MPD2    C112441   0.642   2.538  15.001 -0.0063  0.0173  0.1129
  847MPD2    C212442   0.698   2.441  15.083  0.4148  0.2313 -0.2306
  847MPD2    C312443   0.649   2.312  15.088  0.1486  0.4567  0.0269
  847MPD2    C412444   0.555   2.265  14.997 -0.4654  0.9530  0.3913
  847MPD2    C512445   0.519   2.354  14.901 -0.6940 -0.1643 -0.3704
  847MPD2     H12446   0.774   2.472  15.155 -1.8968  1.5547  1.6457
  847MPD2    H112447   0.520   2.162  14.994  3.2954 -0.3228 -0.0036
  847MPD2    H212448   0.501   2.562  14.840 -1.1755 -1.1838 -0.2354
  847MPD2    H312449   0.459   2.313  14.821  0.8601  1.9708 -2.6057
  847MPD2     N12450   0.700   2.240  15.197 -0.2001  0.0860  0.7003
  847MPD2    H512451   0.764   2.291  15.258  2.2520 -2.2177  0.0180
  847MPD2    N112452   0.682   2.671  15.012 -0.8071  0.0758  0.1057
  847MPD2    H712453   0.752   2.705  15.077  0.5529 -2.6765  0.0780
  848MPD2     C12454   3.168   1.584  16.510 -0.0356 -0.0347 -0.0085
  848MPD2    C112455   3.260   1.634  16.607 -0.5890  0.7235  0.6136
  848MPD2    C212456   3.325   1.758  16.592  0.3011 -0.3047  0.3331
  848MPD2    C312457   3.305   1.837  16.480  0.6811  0.6506 -0.1553
  848MPD2    C412458   3.220   1.787  16.382  0.8861  0.3277  0.4315
  848MPD2    C512459   3.150   1.666  16.402 -0.8010 -0.0075 -0.6828
  848MPD2     H12460   3.398   1.783  16.668 -1.5034  1.8610  1.3700
  848MPD2    H112461   3.205   1.843  16.291 -0.4372 -1.3933 -0.4154
  848MPD2    H212462   3.098   1.501  16.518 -0.1660  0.1228  0.4842
  848MPD2    H312463   3.090   1.633  16.317 -0.2394 -1.8848 -0.3586
  848MPD2     N12464   3.381   1.958  16.453  0.9410  0.0947 -0.3286
  848MPD2    H512465   3.364   2.007  16.366 -1.3898  0.1299  0.1409
  848MPD2    N112466   3.284   1.568  16.728  0.5218 -0.0813 -0.0280
  848MPD2    H712467   3.351   1.617  16.786  0.8739 -0.6888  0.0808
  849MPD2     C12468   2.167   1.112  13.847 -0.1965  0.1437  0.1545
  849MPD2    C112469   2.229   1.233  13.863  0.3719 -0.0840  0.4060
  849MPD2    C212470   2.358   1.239  13.915 -0.2141 -0.4655 -0.6072
  849MPD2    C312471   2.432   1.124  13.934 -1.0766  0.6325 -0.2801
  849MPD2    C412472   2.371   1.003  13.897 -0.0461 -0.4055 -0.0241
  849MPD2    C512473   2.233   0.994  13.878  0.9894 -0.5939  0.7072
  849MPD2     H12474   2.419   1.328  13.926  1.5739 -1.8667  0.7442
  849MPD2    H112475   2.432   0.914  13.910 -1.0069 -0.8033  1.6979
  849MPD2    H212476   2.063   1.114  13.818  0.2036 -1.2612 -1.3553
  849MPD2    H312477   2.176   0.902  13.883  0.5424 -0.3661 -0.2018
  849MPD2     N12478   2.569   1.115  13.976  0.2772 -0.2542 -0.5750
  849MPD2    H512479   2.615   1.027  13.956  1.4786 -0.0988  1.5006
  849MPD2    N112480   2.152   1.346  13.828 -0.2098 -0.1262  0.3546
  849MPD2    H712481   2.069   1.331  13.771  0.3603  0.9351 -0.7560
  850MPD2     C12482   1.156   3.677  15.100 -0.4577 -0.3346 -0.1207
  850MPD2    C112483   1.110   3.741  15.215 -0.1606  0.1446 -0.2273
  850MPD2    C212484   1.185   3.842  15.259 -0.0560 -0.1044  0.2242
  850MPD2    C312485   1.297   3.896  15.196 -0.8592 -0.1584 -0.5681
  850MPD2    C412486   1.339   3.822  15.092  0.0905 -0.0908 -0.1226
  850MPD2    C512487   1.272   3.718  15.041 -0.2643  0.9617 -0.1621
  850MPD2     H12488   1.149   3.882  15.352  0.6093  1.1856 -0.0781
  850MPD2    H112489   1.417   3.867  15.032  0.3849 -0.6756 -0.1791
  850MPD2    H212490   1.096   3.598  15.055 -1.5908  1.8885 -2.5166
  850MPD2    H312491   1.299   3.659  14.954  1.3555 -0.3790  1.2421
  850MPD2     N12492   1.355   4.020  15.227 -0.0703  0.5698  0.3699
  850MPD2    H512493   1.430   4.054  15.168  1.4811  1.7714  3.0264
  850MPD2    N112494   0.978   3.715  15.259 -0.3668 -0.4650 -0.5182
  850MPD2    H712495   0.933   3.636  15.214  0.9411 -1.6342  0.2321
  851MPD2     C12496   0.951   3.280  15.620 -0.5648 -0.2682 -0.2496
  851MPD2    C112497   0.815   3.293  15.611 -0.5881  0.0138  0.5744
  851MPD2    C212498   0.734   3.213  15.684 -0.4140  0.0886 -0.2076
  851MPD2    C312499   0.795   3.114  15.766 -0.2156  0.4060 -0.0602
  851MPD2    C412500   0.934   3.106  15.772  0.2930 -0.2102  0.0274
  851MPD2    C512501   1.014   3.185  15.699 -0.1519 -0.2769  0.3744
  851MPD2     H12502   0.627   3.229  15.688 -0.2703 -0.1953  3.8491
  851MPD2    H112503   0.980   3.039  15.844  2.4085 -1.4727 -2.5181
  851MPD2    H212504   1.023   3.346  15.574 -3.5400  1.9175 -1.8007
  851MPD2    H312505   1.119   3.162  15.709  0.6118  2.8955 -0.3725
  851MPD2     N12506   0.710   3.036  15.854  0.5445  0.4076 -0.1360
  851MPD2    H512507   0.611   3.059  15.846  0.5254 -0.2980 -1.8988
  851MPD2    N112508   0.772   3.399  15.524  0.0037 -0.3185  0.5286
  851MPD2    H712509   0.852   3.456  15.500 -0.2203 -0.4719 -0.5963
  852MPD2     C12510   0.296   1.542  10.906  0.4246 -0.2147 -0.4244
  852MPD2    C112511   0.427   1.574  10.926 -0.0941 -0.0726  0.2775
  852MPD2    C212512   0.494   1.657  10.836 -0.3607  0.0902 -0.1144
  852MPD2    C312513   0.437   1.701  10.720 -0.0486 -0.2549 -0.7900
  852MPD2    C412514   0.306   1.656  10.698  0.0794  0.6847  0.7328
  852MPD2    C512515   0.236   1.580  10.786  0.3732  0.9338 -0.1113
  852MPD2     H12516   0.595   1.687  10.861  0.8472 -0.3591 -4.5809
  852MPD2    H112517   0.245   1.687  10.614 -0.0950 -0.9385  0.2715
  852MPD2    H212518   0.235   1.493  10.981 -0.8076  1.2575 -0.4647
  852MPD2    H312519   0.129   1.568  10.782  0.3023  0.5538  3.4294
  852MPD2     N12520   0.522   1.777  10.628 -0.3784  0.3191  0.0455
  852MPD2    H512521   0.615   1.809  10.652 -0.2770  0.2697 -0.2770
  852MPD2    N112522   0.490   1.528  11.037  0.1346 -0.1403  0.2332
  852MPD2    H712523   0.585   1.562  11.044 -0.2301  0.3726  2.6405
  853MPD2     C12524   2.697   1.954  12.316 -0.2882  0.4630  0.0448
  853MPD2    C112525   2.581   2.019  12.271 -0.7885  0.3885 -0.3948
  853MPD2    C212526   2.538   1.980  12.151  0.0455 -0.5539 -0.0941
  853MPD2    C312527   2.600   1.881  12.073  0.4617  0.0677 -0.2485
  853MPD2    C412528   2.723   1.839  12.119  0.2574  0.5663  0.0952
  853MPD2    C512529   2.764   1.861  12.248 -0.7878 -0.1134 -0.0834
  853MPD2     H12530   2.455   2.031  12.103 -0.2335 -1.8706 -0.9955
  853MPD2    H112531   2.790   1.785  12.052  0.5583 -0.3498  1.1493
  853MPD2    H212532   2.741   1.990  12.408  2.7494 -0.7219 -0.9304
  853MPD2    H312533   2.861   1.833  12.287 -1.5956  0.6025  2.4408
  853MPD2     N12534   2.563   1.835  11.941  0.2118  0.4252  0.0325
  853MPD2    H512535   2.631   1.772  11.900 -1.3893 -1.1075 -0.2660
  853MPD2    N112536   2.512   2.097  12.363  0.2329 -0.2197 -0.8991
  853MPD2    H712537   2.546   2.090  12.459 -1.3014 -1.2557 -0.4258
  854MPD2     C12538   3.859   2.152  12.724 -0.2869  0.1650 -1.1872
  854MPD2    C112539   3.966   2.139  12.637  0.1365  0.4027  0.3017
  854MPD2    C212540   4.041   2.021  12.644  0.1181 -0.0420  0.3932
  854MPD2    C312541   4.035   1.934  12.754 -0.3980  0.4825  0.5336
  854MPD2    C412542   3.943   1.968  12.854  0.1244  0.1034 -0.5003
  854MPD2    C512543   3.848   2.060  12.823  0.0534 -0.0909 -0.3072
  854MPD2     H12544   4.110   2.016  12.561  0.3631 -2.8084  0.7864
  854MPD2    H112545   3.937   1.901  12.939 -0.3176  1.4842  0.5544
  854MPD2    H212546   3.791   2.236  12.715  0.0202  0.7387  1.9638
  854MPD2    H312547   3.781   2.092  12.901  0.2234 -1.0062  0.2157
  854MPD2     N12548   4.108   1.811  12.769  0.1082 -0.0723  0.0694
  854MPD2    H512549   4.081   1.749  12.845  0.0739  0.6301  0.6270
  854MPD2    N112550   3.982   2.232  12.531 -0.0530  0.6659  0.4887
  854MPD2    H712551   4.051   2.207  12.461 -0.6601 -0.3852  0.2665
  855MPD2     C12552   4.619   1.798  13.451 -0.0015 -0.7657 -0.7363
  855MPD2    C112553   4.555   1.681  13.437 -0.1412 -0.3054 -0.8130
  855MPD2    C212554   4.523   1.635  13.307 -0.9896  0.0006 -0.7542
  855MPD2    C312555   4.548   1.720  13.197  0.8777  0.2752 -0.3648
  855MPD2    C412556   4.614   1.834  13.217  0.1788  0.4756  0.3899
  855MPD2    C512557   4.653   1.868  13.342  0.2163  0.6285  0.3409
  855MPD2     H12558   4.480   1.536  13.297 -1.2242  0.0672 -0.4310
  855MPD2    H112559   4.634   1.903  13.136 -2.1565  0.3099 -0.3164
  855MPD2    H212560   4.639   1.840  13.549  0.5482 -0.0722 -1.1487
  855MPD2    H312561   4.694   1.968  13.356 -0.7371  1.0932 -0.2748
  855MPD2     N12562   4.516   1.690  13.069  0.5650 -0.1049 -0.2307
  855MPD2    H512563   4.517   1.767  13.003 -0.6749 -1.3240 -1.6426
  855MPD2    N112564   4.504   1.603  13.547 -0.0093 -0.3486  0.2372
  855MPD2    H712565   4.449   1.522  13.519 -0.8470 -0.1142  1.2159
  856MPD2     C12566   0.962   2.793  13.834  0.3289  0.1079  0.6947
  856MPD2    C112567   1.039   2.895  13.870 -0.0233  0.3982 -0.8739
  856MPD2    C212568   0.976   3.015  13.901 -0.2363 -0.5087 -0.2744
  856MPD2    C312569   0.838   3.028  13.902  0.5005  0.5612 -0.0552
  856MPD2    C412570   0.762   2.924  13.860 -1.1360  0.4419 -0.6240
  856MPD2    C512571   0.826   2.807  13.828  0.1365 -0.0652  0.4796
  856MPD2     H12572   1.042   3.095  13.934 -0.2179 -1.1495  1.2424
  856MPD2    H112573   0.656   2.939  13.845 -1.4269 -1.2926 -0.2613
  856MPD2    H212574   0.997   2.697  13.798 -1.4517 -0.5422  0.6777
  856MPD2    H312575   0.767   2.727  13.785  0.4658 -1.3770  2.4408
  856MPD2     N12576   0.771   3.152  13.927  0.2674  0.1299 -0.0667
  856MPD2    H512577   0.673   3.158  13.899 -0.0659  2.2659  1.5305
  856MPD2    N112578   1.181   2.896  13.869  0.5757  0.0091 -0.4722
  856MPD2    H712579   1.225   2.987  13.880  1.2919 -0.5252  1.0900
  857MPD2     C12580   2.687   4.525  12.703  0.2249 -0.0549 -0.8856
  857MPD2    C112581   2.785   4.591  12.628  0.2069  0.6547 -0.1043
  857MPD2    C212582   2.807   0.001  12.648  0.0000  0.0982 -0.3419
  857MPD2    C312583   2.736   0.070  12.742  0.0267  0.5570  0.4758
  857MPD2    C412584   2.629   0.013  12.810 -1.0180 -0.8827 -0.9673
  857MPD2    C512585   2.615   4.600  12.795 -0.1808 -0.3121  0.6830
  857MPD2     H12586   2.887   0.051  12.595  0.5631  1.4521  1.7955
  857MPD2    H112587   2.571   0.066  12.884  1.0674 -0.4142  0.3415
  857MPD2    H212588   2.656   4.422  12.695  0.1029 -0.3402  3.2408
  857MPD2    H312589   2.536   4.548  12.847 -1.4604  1.4005  0.4322
  857MPD2     N12590   2.771   0.203  12.773 -0.1011 -0.6596 -0.4543
  857MPD2    H512591   2.857   0.235  12.729  1.1953 -2.0364  1.0862
  857MPD2    N112592   2.851   4.512  12.541 -0.3365 -0.0574 -0.2348
  857MPD2    H712593   2.832   4.412  12.543  1.9558 -0.5002 -1.0825
  858MPD2     C12594   3.519   4.141  16.530  0.3063  0.3674  0.1783
  858MPD2    C112595   3.629   4.063  16.558 -0.9312  0.1646 -0.0149
  858MPD2    C212596   3.727   4.110  16.647  0.1536  0.2923 -0.3802
  858MPD2    C312597   3.709   4.225  16.717  0.6734  0.3001  0.4216
  858MPD2    C412598   3.599   4.302  16.688  0.8512  0.8686  0.3617
  858MPD2    C512599   3.506   4.257  16.594 -0.2446 -0.0670  0.4949
  858MPD2     H12600   3.814   4.049  16.670  0.7642  0.9106 -1.0438
  858MPD2    H112601   3.585   4.394  16.743  3.2836  0.6878  1.2609
  858MPD2    H212602   3.454   4.120  16.446  0.5993  0.0453  0.0316
  858MPD2    H312603   3.414   4.313  16.577 -1.3291 -1.5074  1.6141
  858MPD2     N12604   3.804   4.285  16.804 -0.6840 -0.2067 -0.3881
  858MPD2    H512605   3.793   4.382  16.832  2.7826  0.6982 -2.1806
  858MPD2    N112606   3.653   3.943  16.494 -0.3843  0.2323 -0.2146
  858MPD2    H712607   3.737   3.893  16.520  0.7079  0.8814 -2.5882
  859MPD2     C12608   2.231   1.450  15.045 -0.4422  0.1553 -0.3938
  859MPD2    C112609   2.358   1.428  15.002  0.4290 -0.2604 -0.1120
  859MPD2    C212610   2.408   1.299  15.004 -0.1977 -0.2238  0.6696
  859MPD2    C312611   2.332   1.192  15.048 -0.0423 -0.4799 -0.8617
  859MPD2    C412612   2.202   1.214  15.092 -0.4451 -0.4861  1.1804
  859MPD2    C512613   2.150   1.342  15.079  0.2408 -0.2484  0.0401
  859MPD2     H12614   2.505   1.280  14.961  0.7211  1.0637  2.1766
  859MPD2    H112615   2.138   1.133  15.126 -2.0679  0.0254 -0.6584
  859MPD2    H212616   2.197   1.553  15.045  2.4050  1.0978  1.1588
  859MPD2    H312617   2.049   1.367  15.109  0.1185 -0.5510 -0.1172
  859MPD2     N12618   2.369   1.053  15.063 -0.1804 -0.1755 -0.2853
  859MPD2    H512619   2.305   0.991  15.111 -1.3257  2.1884  1.2578
  859MPD2    N112620   2.437   1.532  14.954 -0.2664  0.9895  0.6179
  859MPD2    H712621   2.389   1.617  14.927  1.0095  2.0110  1.5264
  860MPD2     C12622   0.914   1.713  11.755 -0.3849  0.1105 -0.5611
  860MPD2    C112623   0.835   1.810  11.812  0.4127  0.0194 -0.2342
  860MPD2    C212624   0.696   1.777  11.817 -0.5713  0.2797  0.6745
  860MPD2    C312625   0.636   1.663  11.778 -0.7727 -0.3752 -0.0714
  860MPD2    C412626   0.718   1.571  11.717 -0.0667  0.0211 -0.5254
  860MPD2    C512627   0.856   1.594  11.706  0.5273  0.5709  0.4914
  860MPD2     H12628   0.625   1.853  11.849 -0.1302  0.9719  0.0156
  860MPD2    H112629   0.681   1.485  11.663 -0.2190  0.9878 -1.9590
  860MPD2    H212630   1.022   1.723  11.762 -0.3412 -0.7335  0.0391
  860MPD2    H312631   0.913   1.518  11.652  0.7645 -1.0696  3.0561
  860MPD2     N12632   0.493   1.650  11.788 -0.1336 -0.1455  0.4913
  860MPD2    H512633   0.444   1.725  11.835 -0.0037  0.7030 -0.7394
  860MPD2    N112634   0.878   1.932  11.861  0.4057 -0.5135 -0.9504
  860MPD2    H712635   0.819   1.990  11.921  1.4564 -0.9543  0.5015
  861MPD2     C12636   3.834   4.534  10.793  0.4967  0.0593 -0.2119
  861MPD2    C112637   3.733   4.616  10.853 -0.3725  0.0631 -0.5924
  861MPD2    C212638   3.628   4.655  10.783 -1.1075  0.2709 -0.6374
  861MPD2    C312639   3.615   4.617  10.647  0.5497  0.5967  0.3761
  861MPD2    C412640   3.707   4.529  10.585  0.5505  0.5191 -0.3540
  861MPD2    C512641   3.806   4.486  10.667  0.2930  0.1197  0.0473
  861MPD2     H12642   3.550   4.715  10.831 -1.4892 -1.4054  0.8069
  861MPD2    H112643   3.683   4.482  10.490  0.2679  1.5379 -0.7792
  861MPD2    H212644   3.918   4.495  10.848  1.1807  1.0090 -0.5783
  861MPD2    H312645   3.874   4.412  10.627  3.0974  2.2968  0.7865
  861MPD2     N12646   3.511   4.661  10.560 -0.5187 -0.8701  0.3901
  861MPD2    H512647   3.520   4.633  10.463 -2.8907  0.0422 -0.0886
  861MPD2    N112648   3.733   4.650  10.992 -0.4783  0.0509 -0.5869
  861MPD2    H712649   3.647   4.695  11.023  0.3601 -0.1728  2.1002
  862MPD2     C12650   2.883   4.523  10.194  0.4319 -0.3151 -0.1945
  862MPD2    C112651   3.021   4.524  10.186  1.0416 -0.0350  0.5867
  862MPD2    C212652   3.087   4.405  10.145 -0.0032  0.2784 -0.0368
  862MPD2    C312653   3.011   4.302  10.088 -0.7328  0.0661 -0.1076
  862MPD2    C412654   2.875   4.311  10.082 -0.3580 -0.1459  0.1062
  862MPD2    C512655   2.816   4.418  10.146  0.2895 -0.5718  0.3961
  862MPD2     H12656   3.193   4.390  10.166 -0.6198  0.1209  2.9055
  862MPD2    H112657   2.809   4.238  10.036  1.1219 -0.1809 -1.9575
  862MPD2    H212658   2.822   4.608  10.224  0.0515 -0.2467 -1.1508
  862MPD2    H312659   2.709   4.433  10.159  0.4881  0.2499  1.0849
  862MPD2     N12660   3.069   4.189  10.021  0.3627 -0.1682  0.1587
  862MPD2    H512661   3.001   4.122   9.986  0.4551 -0.1149 -0.1188
  862MPD2    N112662   3.099   4.626  10.250 -0.2967 -0.0743  0.8927
  862MPD2    H712663   3.199   4.615  10.245 -0.3102 -0.0917  0.6349
  863MPD2     C12664   2.004   3.224  16.588  1.1166 -0.8110  0.4898
  863MPD2    C112665   2.071   3.107  16.586  0.9584 -0.8283 -0.0149
  863MPD2    C212666   2.150   3.075  16.693  0.3776 -0.1118 -0.1471
  863MPD2    C312667   2.168   3.153  16.805  0.3093 -0.6769 -0.1137
  863MPD2    C412668   2.089   3.269  16.807 -0.1832 -0.0298  0.0286
  863MPD2    C512669   2.011   3.305  16.700 -0.4364  0.0415 -0.3090
  863MPD2     H12670   2.216   2.990  16.679 -1.8328 -1.4811 -2.2312
  863MPD2    H112671   2.087   3.333  16.895  2.7544  1.0398 -0.6980
  863MPD2    H212672   1.941   3.255  16.506 -0.6371  0.4284  2.3083
  863MPD2    H312673   1.959   3.400  16.699 -0.4356  0.0591  1.3906
  863MPD2     N12674   2.257   3.130  16.911 -0.1898  0.0576 -0.0996
  863MPD2    H512675   2.273   3.202  16.981 -0.6930  0.4184 -0.3581
  863MPD2    N112676   2.043   3.023  16.469  0.1687 -0.2477 -0.2472
  863MPD2    H712677   1.972   3.057  16.405 -0.9541  0.5633  1.4464
  864MPD2     C12678   2.615   4.517  17.266  0.2743 -0.0683  0.2267
  864MPD2    C112679   2.680   4.417  17.202 -0.4486 -0.4134 -0.1977
  864MPD2    C212680   2.788   4.465  17.120  0.0516  0.0269 -0.2826
  864MPD2    C312681   2.830   4.597  17.110  0.7320  0.9369  0.4088
  864MPD2    C412682   2.753   4.683  17.182  0.2382  0.2135 -0.1005
  864MPD2    C512683   2.647   4.651  17.255 -0.2781 -0.2515  0.5889
  864MPD2     H12684   2.854   4.396  17.069 -1.2074 -0.9136 -0.6393
  864MPD2    H112685   2.777   0.062  17.169  0.1227  0.3481  0.8296
  864MPD2    H212686   2.538   4.497  17.339 -1.1853 -3.3578 -2.2195
  864MPD2    H312687   2.593   0.006  17.304 -0.1907  0.3166 -0.2454
  864MPD2     N12688   2.925   4.644  17.018  0.4213  0.6535 -0.1149
  864MPD2    H512689   2.936   0.020  17.025 -0.3639  0.6005  1.9389
  864MPD2    N112690   2.637   4.284  17.210 -0.3785 -0.0682  0.0542
  864MPD2    H712691   2.558   4.261  17.269 -0.0298  0.3795  0.6966
  865MPD2     C12692   2.794   4.679  16.055  0.0964 -0.0572  0.1006
  865MPD2    C112693   2.824   4.581  16.146  0.5780  0.0131 -1.2841
  865MPD2    C212694   2.865   4.629  16.273  0.0686  0.0589  0.2581
  865MPD2    C312695   2.864   0.036  16.298 -0.6171  0.1262  0.8533
  865MPD2    C412696   2.838   0.133  16.202 -0.0161 -0.4589 -0.1547
  865MPD2    C512697   2.794   0.087  16.084 -0.2342 -0.8313 -1.3132
  865MPD2     H12698   2.903   4.561  16.349 -2.0804 -0.5783  0.7593
  865MPD2    H112699   2.845   0.239  16.223  0.6621 -0.4842 -0.2436
  865MPD2    H212700   2.764   4.654  15.954 -1.2638 -0.2506  0.5481
  865MPD2    H312701   2.757   0.153  16.006 -1.9738  0.0517  0.2710
  865MPD2     N12702   2.904   0.087  16.432  0.3302 -0.5913  0.0639
  865MPD2    H512703   2.915   0.187  16.437 -3.3863 -0.2118  0.1531
  865MPD2    N112704   2.822   4.443  16.106  0.5124  0.0654  0.1534
  865MPD2    H712705   2.773   4.427  16.019 -0.3432  0.9225  0.4833
  866MPD2     C12706   4.398   4.499  11.404  0.8687  0.5645 -0.2461
  866MPD2    C112707   4.388   4.423  11.285  0.1001  0.6508 -0.1373
  866MPD2    C212708   4.324   4.480  11.175  0.7863  0.6063 -0.7338
  866MPD2    C312709   4.297   4.619  11.178 -0.4867 -0.5058  0.3325
  866MPD2    C412710   4.336   4.698  11.285 -0.4629 -0.2466 -0.5307
  866MPD2    C512711   4.374   4.633  11.396  0.5517 -0.3985 -0.1310
  866MPD2     H12712   4.298   4.423  11.087  1.9006  0.2445 -0.8364
  866MPD2    H112713   4.330   0.081  11.288 -1.3542 -0.3510  1.4326
  866MPD2    H212714   4.449   4.475  11.496 -0.8140  1.5303  0.9178
  866MPD2    H312715   4.402   4.687  11.485 -0.6470  0.8879 -0.5419
  866MPD2     N12716   4.238   4.688  11.069 -0.6997  0.0258  0.4709
  866MPD2    H512717   4.243   0.064  11.082  2.0195 -0.1473  0.9408
  866MPD2    N112718   4.445   4.295  11.290  0.6035 -0.1750 -0.1314
  866MPD2    H712719   4.469   4.271  11.386  0.1755  0.6121  0.1715
  867MPD2     C12720   1.611   4.202  16.248 -0.0782 -0.7526  0.0097
  867MPD2    C112721   1.700   4.180  16.352 -0.4581 -0.2247 -0.2461
  867MPD2    C212722   1.745   4.291  16.422  0.4582 -0.5695 -0.1861
  867MPD2    C312723   1.691   4.412  16.406  0.0324  0.0985 -0.1949
  867MPD2    C412724   1.595   4.433  16.304 -0.3908  0.2330  0.0700
  867MPD2    C512725   1.558   4.322  16.225 -0.7732 -0.4237  0.0567
  867MPD2     H12726   1.820   4.280  16.500  1.4347  0.8997 -0.9085
  867MPD2    H112727   1.553   4.532  16.287  2.0107  1.0112 -1.3847
  867MPD2    H212728   1.560   4.124  16.192  1.6915 -2.1891  0.4156
  867MPD2    H312729   1.491   4.337  16.141 -1.0540 -0.6283  0.2470
  867MPD2     N12730   1.763   4.528  16.447 -0.1857 -0.2050  0.5090
  867MPD2    H512731   1.730   4.614  16.405 -1.8973  0.9722  4.2927
  867MPD2    N112732   1.743   4.047  16.370 -0.8795  0.8092  0.3351
  867MPD2    H712733   1.717   3.978  16.300 -0.4166  1.6356 -0.6695
  868MPD2     C12734   3.318   2.575  12.747  0.4592 -0.5867  0.0737
  868MPD2    C112735   3.381   2.671  12.824 -0.1450 -0.5349 -0.1345
  868MPD2    C212736   3.304   2.757  12.898  0.3751  0.7188  0.1514
  868MPD2    C312737   3.169   2.755  12.880 -0.3281 -0.2462  0.0148
  868MPD2    C412738   3.104   2.658  12.802 -0.1255 -0.4995 -0.7952
  868MPD2    C512739   3.181   2.567  12.743 -0.5162 -0.0273 -0.0315
  868MPD2     H12740   3.354   2.842  12.942  0.4798 -0.4980  2.3317
  868MPD2    H112741   2.997   2.649  12.787 -0.0765  0.1336 -1.5264
  868MPD2    H212742   3.370   2.496  12.694  2.0309  0.0483  0.6810
  868MPD2    H312743   3.132   2.494  12.681 -1.5492  0.3379  0.3632
  868MPD2     N12744   3.096   2.864  12.938 -0.0048 -0.5610  0.0205
  868MPD2    H512745   3.148   2.936  12.988  0.4326  1.7658 -3.8220
  868MPD2    N112746   3.522   2.669  12.825 -1.0118  0.5000  0.2375
  868MPD2    H712747   3.570   2.590  12.783 -0.9836 -0.4933  2.0841
  869MPD2     C12748   0.521   2.508   1.538 -0.5642  0.2080 -0.0845
  869MPD2    C112749   0.456   2.398   1.581  0.1496 -0.1174 -0.1812
  869MPD2    C212750   0.379   2.335   1.481  0.0757  0.1926 -0.0536
  869MPD2    C312751   0.360   2.398   1.357  0.3950 -0.4423  0.0332
  869MPD2    C412752   0.427   2.516   1.320  0.0816  0.4913 -0.2484
  869MPD2    C512753   0.504   2.571   1.416  0.0675 -0.4727 -0.1679
  869MPD2     H12754   0.322   2.247   1.510 -1.9650  1.3688 -0.4925
  869MPD2    H112755   0.417   2.557   1.221  2.4327 -2.0107 -1.5250
  869MPD2    H212756   0.596   2.549   1.605 -0.4823  0.8695 -0.5862
  869MPD2    H312757   0.566   2.658   1.396 -1.6821  1.3231  2.2424
  869MPD2     N12758   0.280   2.344   1.258 -0.0530  0.6307  0.1565
  869MPD2    H512759   0.246   2.409   1.187  0.7193  0.3168 -0.5028
  869MPD2    N112760   0.483   2.352   1.711 -0.0233  0.1369 -0.3950
  869MPD2    H712761   0.538   2.409   1.774  0.0138 -1.2124  0.7982
  870MPD2     C12762   4.243   0.264   2.175 -0.0497 -0.3412  0.1056
  870MPD2    C112763   4.243   0.191   2.053 -0.0287 -0.3705  0.0134
  870MPD2    C212764   4.228   0.256   1.933 -0.1616 -0.3427 -0.3552
  870MPD2    C312765   4.218   0.389   1.922  0.6604 -0.4777  0.3666
  870MPD2    C412766   4.215   0.460   2.041  1.0516  0.5647 -0.1816
  870MPD2    C512767   4.230   0.399   2.166  0.7327 -0.3139 -0.2522
  870MPD2     H12768   4.245   0.197   1.844  0.8145 -1.3077  0.4767
  870MPD2    H112769   4.198   0.568   2.041 -0.0599  0.3948  2.9070
  870MPD2    H212770   4.272   0.222   2.270  0.1331 -2.3705 -0.8518
  870MPD2    H312771   4.214   0.463   2.252 -2.1440 -1.9375  0.4415
  870MPD2     N12772   4.229   0.449   1.793  0.0651 -0.1628  0.2928
  870MPD2    H512773   4.270   0.378   1.733 -0.1575 -0.0404 -0.0027
  870MPD2    N112774   4.260   0.047   2.068 -0.0642  0.3023  0.1552
  870MPD2    H712775   4.286   0.008   2.157 -1.4421 -0.4725  0.2058
  871MPD2     C12776   0.691   4.617  16.452  0.6507 -0.6485  0.0757
  871MPD2    C112777   0.653   4.550  16.572 -0.3605  0.3787  0.0138
  871MPD2    C212778   0.626   4.410  16.569  0.4741 -0.0712  0.1066
  871MPD2    C312779   0.668   4.332  16.460 -0.9447 -0.9739  0.2604
  871MPD2    C412780   0.716   4.397  16.347  0.5620 -0.3821  0.1243
  871MPD2    C512781   0.717   4.535  16.348 -0.0897 -0.4853  0.4196
  871MPD2     H12782   0.585   4.366  16.659 -1.9522  0.6026 -0.6570
  871MPD2    H112783   0.757   4.354  16.257 -1.6023 -1.5765 -0.2985
  871MPD2    H212784   0.706   4.724  16.452 -3.1353 -0.1330 -0.7120
  871MPD2    H312785   0.760   4.589  16.265 -1.9395  2.0074  1.0635
  871MPD2     N12786   0.655   4.193  16.470 -0.1473 -0.4590 -0.1956
  871MPD2    H512787   0.607   4.161  16.553 -1.2975  1.4284 -0.1189
  871MPD2    N112788   0.635   4.617  16.694 -0.0516  0.1276  0.6501
  871MPD2    H712789   0.652   4.717  16.691  0.1910  0.0996  1.1317
  872MPD2     C12790   1.266   1.947  14.018 -0.0639  0.0024  0.4846
  872MPD2    C112791   1.202   2.058  13.976  0.6479 -0.2178 -0.4694
  872MPD2    C212792   1.072   2.089  14.021 -1.1056 -1.1251 -1.1699
  872MPD2    C312793   1.009   1.996  14.097  0.7227  0.2924 -0.4287
  872MPD2    C412794   1.081   1.892  14.147  0.4728  0.5588  0.1491
  872MPD2    C512795   1.212   1.873  14.116 -0.7186 -0.6152 -0.3984
  872MPD2     H12796   1.014   2.173  13.984  0.6063 -0.0089 -1.2949
  872MPD2    H112797   1.025   1.816  14.200 -0.1561  0.0157 -1.2996
  872MPD2    H212798   1.364   1.919  13.982 -0.2312  0.0506 -0.0156
  872MPD2    H312799   1.259   1.783  14.152  1.3187  1.3196  1.7987
  872MPD2     N12800   0.877   2.005  14.143  0.3915 -1.1162 -0.0613
  872MPD2    H512801   0.850   1.938  14.214  0.0755  1.2209  1.9973
  872MPD2    N112802   1.266   2.154  13.894 -0.3873 -0.1672  0.4209
  872MPD2    H712803   1.223   2.246  13.895  0.0787  0.0729 -0.8890
  873MPD2     C12804   2.445   2.917   0.988 -0.3333 -0.0622  0.6368
  873MPD2    C112805   2.573   2.881   1.017 -0.0211 -0.7177  0.1155
  873MPD2    C212806   2.629   2.793   0.924 -0.1365 -0.3272  0.1557
  873MPD2    C312807   2.566   2.759   0.805  0.4636  0.2330  0.2150
  873MPD2    C412808   2.441   2.803   0.784  0.0581  0.0203 -0.3066
  873MPD2    C512809   2.378   2.883   0.875 -0.2726 -0.7447  0.2752
  873MPD2     H12810   2.731   2.757   0.929  0.4760  1.2448 -1.0427
  873MPD2    H112811   2.392   2.793   0.688  0.8401 -0.3210 -0.6704
  873MPD2    H212812   2.386   2.968   1.063 -2.2613  0.4759 -1.2336
  873MPD2    H312813   2.276   2.916   0.857 -0.0373 -1.1389 -1.6928
  873MPD2     N12814   2.632   2.690   0.700 -0.2476 -0.1593  0.0801
  873MPD2    H512815   2.581   2.690   0.612  2.1550  1.4625 -1.3397
  873MPD2    N112816   2.626   2.910   1.142  0.5330  0.4306 -0.3945
  873MPD2    H712817   2.573   2.974   1.201 -0.8332 -0.0804 -1.0653
  874MPD2     C12818   3.089   1.935  15.974 -0.2679  0.1762 -0.3869
  874MPD2    C112819   3.040   1.962  16.101  0.1984  0.0925  0.1947
  874MPD2    C212820   3.098   2.065  16.172 -0.2974 -0.2481 -0.7086
  874MPD2    C312821   3.211   2.138  16.128  0.0271 -0.2729 -0.3659
  874MPD2    C412822   3.251   2.114  15.994  0.1006  0.2354  0.2404
  874MPD2    C512823   3.193   2.013  15.925  0.5984 -0.2900  0.3702
  874MPD2     H12824   3.078   2.082  16.277 -3.1577 -1.4918 -1.0307
  874MPD2    H112825   3.340   2.153  15.946 -0.0676 -1.6491 -1.5911
  874MPD2    H212826   3.047   1.850  15.923 -1.0829  0.7724 -0.7068
  874MPD2    H312827   3.228   1.994  15.824 -0.8919  1.6656 -0.5140
  874MPD2     N12828   3.284   2.220  16.218  0.1898 -0.7490 -0.3845
  874MPD2    H512829   3.243   2.228  16.311 -1.4452 -3.6976 -0.8235
  874MPD2    N112830   2.929   1.879  16.139  0.4037 -0.2315 -0.2545
  874MPD2    H712831   2.912   1.792  16.089  1.4403 -0.5578 -0.0320
  875MPD2     C12832   4.219   0.157  14.680  1.0241  0.1374 -0.1247
  875MPD2    C112833   4.091   0.171  14.722  0.2959 -0.7916  0.9692
  875MPD2    C212834   4.067   0.232  14.845 -0.3782  0.0986 -0.0975
  875MPD2    C312835   4.169   0.277  14.927  0.2201  0.9823 -0.0576
  875MPD2    C412836   4.297   0.254  14.881 -0.0006 -0.0396 -0.0727
  875MPD2    C512837   4.320   0.193  14.763  0.2344 -0.1718 -0.0512
  875MPD2     H12838   3.963   0.255  14.865 -0.0877  1.3928 -0.0836
  875MPD2    H112839   4.379   0.306  14.928  0.2052 -1.1578  0.7973
  875MPD2    H212840   4.244   0.115  14.583  1.8109 -0.5968  0.3962
  875MPD2    H312841   4.421   0.193  14.725 -0.0683  1.8910 -0.8272
  875MPD2     N12842   4.143   0.346  15.050  0.6779  0.5055 -0.5264
  875MPD2    H512843   4.224   0.377  15.104 -0.3199 -0.5470  1.5604
  875MPD2    N112844   3.980   0.144  14.639  0.5036  0.4075  0.6334
  875MPD2    H712845   3.895   0.142  14.693 -0.3953 -0.0736 -0.8032
  876MPD2     C12846   2.712   1.723  15.638 -1.2625 -0.4247 -0.4634
  876MPD2    C112847   2.843   1.706  15.586 -0.1240  0.6671  0.2459
  876MPD2    C212848   2.936   1.646  15.671 -0.0458 -0.0786  0.7081
  876MPD2    C312849   2.901   1.601  15.798 -0.2944 -0.0891  0.3046
  876MPD2    C412850   2.769   1.621  15.841 -0.5581 -0.2473  0.7824
  876MPD2    C512851   2.676   1.673  15.760 -0.0500 -0.2419 -0.5179
  876MPD2     H12852   3.037   1.622  15.638 -0.4217 -1.2734  0.4101
  876MPD2    H112853   2.735   1.591  15.940  0.4165  0.0633  1.2120
  876MPD2    H212854   2.639   1.779  15.581 -1.1804  0.1865  0.0287
  876MPD2    H312855   2.576   1.687  15.800  0.3927  0.6907  0.2557
  876MPD2     N12856   2.998   1.523  15.874  0.6350  0.4880 -0.2130
  876MPD2    H512857   3.068   1.480  15.814 -0.1989 -3.0322  1.3321
  876MPD2    N112858   2.875   1.769  15.462  0.1668  0.0840  0.1872
  876MPD2    H712859   2.802   1.814  15.407  0.9612  1.3470  0.1559
  877MPD2     C12860   2.696   2.220  14.863  0.3793  0.3408  0.3124
  877MPD2    C112861   2.831   2.206  14.866 -0.6944 -0.2151 -0.7650
  877MPD2    C212862   2.898   2.226  14.747 -0.0176  0.5688  0.2860
  877MPD2    C312863   2.830   2.267  14.636  0.3459 -0.4383  0.3397
  877MPD2    C412864   2.691   2.277  14.644  0.0628  0.4269 -0.3812
  877MPD2    C512865   2.623   2.249  14.751  0.3954 -0.1811 -1.0093
  877MPD2     H12866   3.005   2.211  14.743 -0.2636 -1.1673  0.1712
  877MPD2    H112867   2.630   2.296  14.557 -0.8372 -0.9375 -0.0558
  877MPD2    H212868   2.626   2.213  14.946 -0.4858  0.9870 -0.3609
  877MPD2    H312869   2.517   2.263  14.768  0.9950  0.7447  2.0193
  877MPD2     N12870   2.900   2.292  14.511 -0.2227 -0.7036 -0.2120
  877MPD2    H512871   2.838   2.313  14.433  1.6851  0.9190 -1.3180
  877MPD2    N112872   2.910   2.161  14.972  0.0293 -0.1643 -0.3042
  877MPD2    H712873   3.008   2.151  14.948  0.5145  0.3649  1.4951
  878MPD2     C12874   2.188   1.369  12.960  0.5963  0.1766 -0.0002
  878MPD2    C112875   2.244   1.488  12.992 -0.9230 -0.2001  0.1047
  878MPD2    C212876   2.214   1.542  13.111  0.8637 -0.2915 -0.0646
  878MPD2    C312877   2.115   1.496  13.193  0.1414 -0.5471  0.6501
  878MPD2    C412878   2.047   1.384  13.151  1.6357  0.0615  0.4203
  878MPD2    C512879   2.081   1.326  13.033  0.0360  0.1685  0.0101
  878MPD2     H12880   2.266   1.630  13.149 -1.1388  0.1336  1.6812
  878MPD2    H112881   1.969   1.333  13.208  3.3235 -1.6970  1.1594
  878MPD2    H212882   2.225   1.313  12.875 -0.3715 -0.2261 -0.1553
  878MPD2    H312883   2.040   1.226  13.029 -0.6702  0.4349  0.5381
  878MPD2     N12884   2.106   1.540  13.328  0.6052 -0.2834 -0.3551
  878MPD2    H512885   2.181   1.600  13.359  0.6439  1.3364 -3.5460
  878MPD2    N112886   2.350   1.523  12.911 -0.0910  0.3960  0.0532
  878MPD2    H712887   2.394   1.462  12.842  1.4544 -0.8229  2.1249
  879MPD2     C12888   2.692   3.356  17.010  0.3466 -0.4192 -0.4586
  879MPD2    C112889   2.763   3.290  17.108  0.4623  0.4457  0.0143
  879MPD2    C212890   2.787   3.157  17.097 -0.6609 -0.4250  0.8019
  879MPD2    C312891   2.758   3.091  16.980  0.7483  0.3904  0.5555
  879MPD2    C412892   2.697   3.154  16.876 -0.7917  0.5306 -0.6727
  879MPD2    C512893   2.656   3.288  16.896  0.2078  0.1165 -0.1980
  879MPD2     H12894   2.850   3.106  17.168  0.7204  0.1187 -0.0218
  879MPD2    H112895   2.670   3.110  16.781  1.6392 -0.3737 -0.9479
  879MPD2    H212896   2.669   3.461  17.023 -1.6062 -0.6373 -2.0740
  879MPD2    H312897   2.606   3.337  16.814  1.0510  2.1611  0.5003
  879MPD2     N12898   2.787   2.953  16.956  0.3411 -0.0698  0.4568
  879MPD2    H512899   2.756   2.915  16.867 -1.4190 -0.3995  1.2102
  879MPD2    N112900   2.818   3.358  17.214 -0.1734 -0.6133 -0.2582
  879MPD2    H712901   2.819   3.460  17.219  1.3707 -0.5741 -1.3896
  880MPD2     C12902   4.671   4.223   0.759 -0.5263 -0.3182  0.3205
  880MPD2    C112903   4.555   4.275   0.801 -0.1009  0.0802  0.0785
  880MPD2    C212904   4.470   4.206   0.878 -0.4636 -0.8678 -0.0014
  880MPD2    C312905   4.494   4.077   0.921  0.4287 -0.7909 -0.1288
  880MPD2    C412906   4.601   4.013   0.861  0.3382 -0.2856  0.4011
  880MPD2    C512907   4.698   4.089   0.797 -0.0003 -0.3216  0.4628
  880MPD2     H12908   4.388   4.256   0.929  0.5777  0.5307  0.2973
  880MPD2    H112909   4.627   3.913   0.894  2.0126  0.3505  1.0415
  880MPD2    H212910   0.022   4.271   0.698 -0.9544  1.2160  0.9989
  880MPD2    H312911   0.070   4.049   0.773  1.6680  2.1029  3.1273
  880MPD2     N12912   4.402   4.010   1.004  0.4649  0.1065  0.0481
  880MPD2    H512913   4.327   4.059   1.051 -0.3157 -0.0266 -1.0542
  880MPD2    N112914   4.504   4.397   0.761 -0.5765  0.0815  0.0215
  880MPD2    H712915   4.422   4.430   0.812  0.0147 -2.3176  2.5288
  881MPD2     C12916   4.448   0.578   0.118 -0.2635 -0.6974 -0.2260
  881MPD2    C112917   4.470   0.451   0.082  0.7532 -0.3959  0.2719
  881MPD2    C212918   4.482   0.354   0.182  0.1787 -0.5350  0.6930
  881MPD2    C312919   4.431   0.384   0.307  0.3812  0.3014 -0.0556
  881MPD2    C412920   4.385   0.507   0.337  0.7174  0.0420 -0.1738
  881MPD2    C512921   4.409   0.606   0.247 -0.1422  0.3343  0.1460
  881MPD2     H12922   4.498   0.250   0.156  1.4543 -0.7699  2.4281
  881MPD2    H112923   4.355   0.530   0.439  0.8769 -0.5019  0.0006
  881MPD2    H212924   4.447   0.657   0.045  1.3019 -0.6253 -0.1796
  881MPD2    H312925   4.393   0.709   0.275 -1.6943  0.4658 -1.1574
  881MPD2     N12926   4.425   0.284   0.405  1.0501  0.3553  0.4074
  881MPD2    H512927   4.375   0.317   0.487  0.1080  1.3260 -0.5696
  881MPD2    N112928   4.510   0.435  17.649  0.0231  0.4151  0.2663
  881MPD2    H712929   4.485   0.512  17.589 -2.0005 -1.0940 -0.8202
  882MPD2     C12930   2.836   2.284  13.692  0.4349 -0.1708  0.0439
  882MPD2    C112931   2.798   2.280  13.827 -0.3555 -0.4188  1.0371
  882MPD2    C212932   2.675   2.229  13.860  0.3731 -0.2762  0.3178
  882MPD2    C312933   2.586   2.180  13.762  0.0294  0.1811  1.0265
  882MPD2    C412934   2.615   2.183  13.631 -0.3609  0.9034 -0.1845
  882MPD2    C512935   2.736   2.243  13.601  0.1114 -0.4112  0.1639
  882MPD2     H12936   2.647   2.213  13.964 -0.3020  0.5609  0.2721
  882MPD2    H112937   2.539   2.158  13.559  0.5408  1.0452 -1.1748
  882MPD2    H212938   2.938   2.308  13.663 -0.9083  2.2929 -2.6448
  882MPD2    H312939   2.757   2.245  13.495 -1.0153 -0.0877 -0.0532
  882MPD2     N12940   2.464   2.118  13.800 -0.3677  0.1598 -0.4338
  882MPD2    H512941   2.395   2.096  13.729 -0.0611  0.9249 -0.9697
  882MPD2    N112942   2.896   2.306  13.925 -0.1476  1.0923 -0.0076
  882MPD2    H712943   2.992   2.317  13.892 -0.6702  0.2963 -1.7957
  883MPD2     C12944   0.175   2.166  16.460  0.4516 -0.1181  0.1495
  883MPD2    C112945   0.201   2.077  16.357  0.3275 -1.3327  0.4646
  883MPD2    C212946   0.315   1.994  16.376  0.5117  0.3715  0.6266
  883MPD2    C312947   0.380   1.981  16.498  0.0809 -0.6703  1.0803
  883MPD2    C412948   0.349   2.073  16.599  0.2826  0.0374 -0.5852
  883MPD2    C512949   0.248   2.158  16.574 -0.4958 -0.9014  0.0142
  883MPD2     H12950   0.355   1.928  16.301  0.1755  0.8343  0.0335
  883MPD2    H112951   0.400   2.080  16.694 -1.0109 -2.3152  0.2804
  883MPD2    H212952   0.107   2.249  16.444  3.0576  1.5598 -2.2830
  883MPD2    H312953   0.225   2.226  16.655  2.2644 -1.7764  1.5399
  883MPD2     N12954   0.498   1.903  16.499 -0.2936  0.4211 -0.2355
  883MPD2    H512955   0.536   1.888  16.406 -1.5669  1.2280 -0.8920
  883MPD2    N112956   0.137   2.075  16.234 -0.3945 -0.5319  0.0988
  883MPD2    H712957   0.143   1.993  16.175 -0.0289  0.4629 -1.2693
  884MPD2     C12958   2.140   2.643  15.395  0.2661  0.0590 -0.3735
  884MPD2    C112959   2.156   2.746  15.300  0.8588  0.7215 -0.0840
  884MPD2    C212960   2.042   2.807  15.253  0.2447 -0.4062  0.1322
  884MPD2    C312961   1.922   2.780  15.307  0.0039  0.2397  0.8338
  884MPD2    C412962   1.907   2.681  15.397  0.1517  0.3145 -1.3263
  884MPD2    C512963   2.019   2.611  15.445 -0.2218  1.0966 -0.3453
  884MPD2     H12964   2.037   2.886  15.178  0.2269 -0.9070 -0.3928
  884MPD2    H112965   1.808   2.645  15.423  0.4563  0.5943  0.2219
  884MPD2    H212966   2.225   2.587  15.432  1.3454  0.9311 -1.5501
  884MPD2    H312967   2.016   2.523  15.508  0.9121  1.4471  0.2039
  884MPD2     N12968   1.802   2.851  15.256 -0.3084  0.4825 -0.0682
  884MPD2    H512969   1.826   2.928  15.195  1.5134 -0.9821 -1.2226
  884MPD2    N112970   2.282   2.787  15.246  0.3312 -0.1057 -0.6779
  884MPD2    H712971   2.274   2.861  15.178  0.3394 -0.0739 -0.6441
  885MPD2     C12972   4.544   2.853   0.125  0.0265 -0.2715 -0.1195
  885MPD2    C112973   4.677   2.879   0.139 -0.7116 -0.5763  0.0514
  885MPD2    C212974   0.023   2.931   0.030 -0.1035 -0.1247  0.7202
  885MPD2    C312975   4.679   2.957  17.610  0.2557 -0.1285 -0.2072
  885MPD2    C412976   4.547   2.931  17.606  0.1376 -0.2530 -0.0174
  885MPD2    C512977   4.480   2.877   0.011 -0.1647  0.4113 -0.5002
  885MPD2     H12978   0.127   2.957   0.043 -0.1258  0.6863 -0.6411
  885MPD2    H112979   4.488   2.940  17.515 -0.5395 -2.1298  0.2212
  885MPD2    H212980   4.482   2.826   0.210 -0.5328 -0.3719 -0.5599
  885MPD2    H312981   4.372   2.869   0.015  0.0276 -2.2823 -1.5271
  885MPD2     N12982   0.025   3.011  17.502  0.2536  0.1950 -0.5643
  885MPD2    H512983   0.126   3.016  17.511  0.2068 -1.8023  1.0484
  885MPD2    N112984   0.011   2.858   0.265 -0.2768  0.1225  0.2198
  885MPD2    H712985   4.678   2.816   0.337  0.8952  1.4284  1.9339
  886MPD2     C12986   1.274   1.235  14.953  0.4814  0.5250  0.4089
  886MPD2    C112987   1.410   1.247  14.926 -0.5874  0.3682  0.2346
  886MPD2    C212988   1.453   1.362  14.866 -0.1847  0.8395  0.0622
  886MPD2    C312989   1.367   1.458  14.823 -0.0657  0.4020  0.1544
  886MPD2    C412990   1.232   1.438  14.842  1.1316  0.5909 -0.5703
  886MPD2    C512991   1.185   1.331  14.910  0.7790  0.1659 -0.3485
  886MPD2     H12992   1.560   1.378  14.859 -0.0549 -0.2834 -0.4248
  886MPD2    H112993   1.163   1.519  14.818  1.1201  0.8793  0.4033
  886MPD2    H212994   1.230   1.145  14.994  0.7373 -0.2436 -0.9872
  886MPD2    H312995   1.078   1.325  14.928  0.6226  1.0503 -0.9705
  886MPD2     N12996   1.416   1.580  14.768 -0.0312 -1.2463 -0.4085
  886MPD2    H512997   1.352   1.653  14.738  1.8865  0.6056 -0.0600
  886MPD2    N112998   1.507   1.155  14.969  0.5060 -0.3946 -0.2085
  886MPD2    H712999   1.605   1.176  14.957  0.4241 -0.0521 -0.2798
  887MPD2     C13000   1.835   1.584  15.101  0.3918  0.1913 -0.4271
  887MPD2    C113001   1.838   1.524  15.227 -0.4935 -0.0869 -0.1430
  887MPD2    C213002   1.896   1.596  15.331 -0.6124 -0.4162 -0.1445
  887MPD2    C313003   1.955   1.721  15.310 -0.8395 -0.4103 -0.4234
  887MPD2    C413004   1.949   1.782  15.187 -0.3567 -0.0289 -0.3819
  887MPD2    C513005   1.891   1.706  15.087 -0.2163 -0.0960  0.2930
  887MPD2     H13006   1.906   1.557  15.432 -0.0756  1.3032  0.4643
  887MPD2    H113007   1.991   1.874  15.148  0.7283  0.8033  2.7335
  887MPD2    H213008   1.785   1.538  15.017 -1.1264  2.5076 -0.7921
  887MPD2    H313009   1.905   1.740  14.985  0.3747  0.5330  0.5832
  887MPD2     N13010   2.015   1.786  15.417  0.0097 -0.5758 -0.4032
  887MPD2    H513011   2.001   1.741  15.507 -2.1629 -0.7703 -0.8150
  887MPD2    N113012   1.801   1.390  15.254 -0.2966 -0.2478  0.3004
  887MPD2    H713013   1.810   1.362  15.351 -0.1325  0.0830  0.3848
  888MPD2     C13014   3.961   1.622  14.633 -0.5154 -0.6175  0.8753
  888MPD2    C113015   3.953   1.649  14.767  0.0195  0.5562  0.5468
  888MPD2    C213016   4.037   1.735  14.828  0.5389 -0.2421  0.2013
  888MPD2    C313017   4.111   1.822  14.750  0.2549 -0.0228  0.3117
  888MPD2    C413018   4.124   1.804  14.615  0.0269 -0.8112  0.6103
  888MPD2    C513019   4.045   1.706  14.556  0.5944  0.6318  0.0849
  888MPD2     H13020   4.037   1.747  14.936  1.8099  1.1792  0.0483
  888MPD2    H113021   4.185   1.863  14.548  0.6428 -2.4147 -0.2225
  888MPD2    H213022   3.901   1.551  14.578  1.5295 -1.3681 -0.3891
  888MPD2    H313023   4.052   1.689  14.450 -0.7950 -2.0411  0.3950
  888MPD2     N13024   4.160   1.938  14.807  0.1726 -0.2449 -0.0149
  888MPD2    H513025   4.167   1.937  14.908 -1.4229 -0.8378  0.1017
  888MPD2    N113026   3.869   1.566  14.852  0.1613 -0.3643  0.7780
  888MPD2    H713027   3.895   1.552  14.949 -0.0804  1.7341  1.1438
  889MPD2     C13028   2.388   0.856  12.987 -0.4699 -0.8079  0.3300
  889MPD2    C113029   2.522   0.866  13.017 -0.6129 -1.1703 -0.3703
  889MPD2    C213030   2.569   0.995  13.045 -0.4313 -0.3106 -0.3246
  889MPD2    C313031   2.484   1.085  13.106 -0.2210  0.5273  0.2910
  889MPD2    C413032   2.348   1.066  13.097 -0.5126  0.6108 -0.6070
  889MPD2    C513033   2.303   0.951  13.039  0.0648 -0.9187  0.2093
  889MPD2     H13034   2.675   1.007  13.063 -0.4407  0.3514 -0.7126
  889MPD2    H113035   2.278   1.137  13.140 -2.2814 -1.0418 -0.8074
  889MPD2    H213036   2.349   0.756  12.970 -1.5600 -0.6552  1.9097
  889MPD2    H313037   2.195   0.938  13.043 -0.1872  1.5919  1.4349
  889MPD2     N13038   2.546   1.198  13.165 -0.0507 -0.7945 -0.0899
  889MPD2    H513039   2.646   1.214  13.161  0.2510 -2.4691  0.4963
  889MPD2    N113040   2.608   0.769  12.967 -0.1611  0.9603 -0.3609
  889MPD2    H713041   2.565   0.697  12.909 -1.1392  0.2406  1.2593
  890MPD2     C13042   2.520   2.734  14.638 -0.1294  0.0128 -0.0974
  890MPD2    C113043   2.636   2.816  14.652  0.6177 -0.4050  0.1256
  890MPD2    C213044   2.737   2.770  14.732 -0.5254  0.4034 -0.3452
  890MPD2    C313045   2.721   2.651  14.805 -0.0105 -0.7193 -0.4023
  890MPD2    C413046   2.605   2.585  14.788 -0.4909 -0.5628  0.7222
  890MPD2    C513047   2.499   2.626  14.719  0.0105  0.1172  0.7948
  890MPD2     H13048   2.825   2.827  14.760 -0.5021  1.0916 -1.8441
  890MPD2    H113049   2.580   2.493  14.840 -1.5289  0.2764  1.7216
  890MPD2    H213050   2.442   2.755  14.565  0.7879  1.6474 -0.6123
  890MPD2    H313051   2.417   2.558  14.701 -0.3296  0.4011  1.2957
  890MPD2     N13052   2.815   2.617  14.901 -0.0515  0.4589  0.4534
  890MPD2    H513053   2.898   2.674  14.891  1.9460 -2.5976 -0.3734
  890MPD2    N113054   2.655   2.941  14.578  0.6014 -0.1691 -0.1306
  890MPD2    H713055   2.583   2.969  14.513 -0.7032 -1.0041  0.9592
  891MPD2     C13056   0.971   0.960  16.745  1.0308 -0.5486  0.1140
  891MPD2    C113057   0.905   1.079  16.770  0.4465  0.3852  0.2503
  891MPD2    C213058   0.982   1.187  16.810 -0.1546  0.0218  0.1689
  891MPD2    C313059   1.119   1.181  16.817  0.0766 -0.1221  0.0053
  891MPD2    C413060   1.190   1.064  16.785  0.0499  0.5803  0.3598
  891MPD2    C513061   1.111   0.955  16.746  0.3484  0.0041 -0.6274
  891MPD2     H13062   0.933   1.279  16.838  0.0867  0.2897 -0.2931
  891MPD2    H113063   1.298   1.049  16.778  0.0089  1.9288 -3.1841
  891MPD2    H213064   0.921   0.871  16.710 -1.4516  0.5306  0.8993
  891MPD2    H313065   1.166   0.862  16.733  2.9932  1.1396  2.5972
  891MPD2     N13066   1.176   1.304  16.864 -0.0846 -0.4063  0.3449
  891MPD2    H513067   1.119   1.385  16.885 -0.0245 -0.5308  0.9962
  891MPD2    N113068   0.763   1.090  16.743 -0.2366 -0.1836  0.1798
  891MPD2    H713069   0.720   1.017  16.687  0.4507 -0.2476 -0.2547
  892MPD2     C13070   1.952   2.601  14.263  0.8357  0.0628 -0.7802
  892MPD2    C113071   1.888   2.478  14.286  0.1058  0.0164  0.1515
  892MPD2    C213072   1.923   2.364  14.215 -0.8647 -0.2102 -0.5007
  892MPD2    C313073   2.019   2.373  14.112  0.9925  0.0499  0.1384
  892MPD2    C413074   2.079   2.496  14.090  0.0813  0.2257  0.3826
  892MPD2    C513075   2.052   2.607  14.167  0.0131  0.5584  0.3572
  892MPD2     H13076   1.874   2.269  14.234 -1.9944  0.2021 -1.3149
  892MPD2    H113077   2.142   2.508  14.003  2.1141 -1.7221  1.5993
  892MPD2    H213078   1.918   2.690  14.316 -0.7613 -1.4228  0.6616
  892MPD2    H313079   2.094   2.701  14.133 -1.2722  1.0174  0.0302
  892MPD2     N13080   2.068   2.258  14.037 -0.7700  0.5400 -0.1848
  892MPD2    H513081   2.155   2.276  13.989  1.8165 -1.3157  3.8072
  892MPD2    N113082   1.790   2.468  14.388  0.6045  0.7135 -0.1280
  892MPD2    H713083   1.753   2.557  14.420  3.1494  0.9709  2.1357
  893MPD2     C13084   4.007   1.531   1.337  0.0731  0.2891  0.1994
  893MPD2    C113085   4.116   1.616   1.359 -0.7693 -0.4591  0.3492
  893MPD2    C213086   4.119   1.732   1.283  0.7382  0.2871 -0.3590
  893MPD2    C313087   4.013   1.777   1.200 -0.4795  0.6639  0.4762
  893MPD2    C413088   3.910   1.694   1.190 -0.1345  0.1017  0.2979
  893MPD2    C513089   3.909   1.573   1.253  0.1640  0.2939 -0.0010
  893MPD2     H13090   4.201   1.803   1.292  0.5544  0.3956  0.5274
  893MPD2    H113091   3.829   1.718   1.122 -1.1313 -0.3954  1.3174
  893MPD2    H213092   3.997   1.442   1.398 -0.5851  0.6088  0.5544
  893MPD2    H313093   3.829   1.503   1.232  0.9881  0.0127 -2.1461
  893MPD2     N13094   4.001   1.899   1.132 -0.1165 -0.5714  0.2776
  893MPD2    H513095   3.921   1.927   1.076  1.2663 -0.2789 -1.5508
  893MPD2    N113096   4.212   1.571   1.458 -0.3842  0.0858 -0.3741
  893MPD2    H713097   4.194   1.487   1.512 -0.5533  0.0734 -0.4514
  894MPD2     C13098   1.448   3.736   0.765  0.3668  0.1373  0.1171
  894MPD2    C113099   1.538   3.730   0.869 -0.5890  0.5212 -0.3750
  894MPD2    C213100   1.619   3.838   0.895 -0.7821 -0.1921  0.1638
  894MPD2    C313101   1.625   3.949   0.813 -0.7875 -0.1201  0.3659
  894MPD2    C413102   1.563   3.938   0.688 -0.4914  0.0180 -0.5994
  894MPD2    C513103   1.470   3.835   0.673 -0.0678  0.1478  0.5979
  894MPD2     H13104   1.656   3.847   0.997  1.4962 -2.2193 -0.4683
  894MPD2    H113105   1.559   4.005   0.603  0.2090  0.0453 -0.6082
  894MPD2    H213106   1.370   3.663   0.747  0.8197 -0.8952  2.2631
  894MPD2    H313107   1.407   3.827   0.585  0.8517  1.1320 -0.1643
  894MPD2     N13108   1.705   4.061   0.853  0.1951 -0.4757  0.5393
  894MPD2    H513109   1.749   4.055   0.944 -2.0119  0.7197  1.6699
  894MPD2    N113110   1.523   3.643   0.980  0.5054  0.2853  0.3614
  894MPD2    H713111   1.568   3.672   1.066 -1.5482 -0.7173  1.7790
  895MPD2     C13112   1.288   1.490  13.749  0.3712 -0.6987 -0.5723
  895MPD2    C113113   1.167   1.543  13.781 -0.1062 -0.0339 -0.6723
  895MPD2    C213114   1.067   1.533  13.684 -0.7861 -0.0397  0.0966
  895MPD2    C313115   1.101   1.491  13.553  0.9442 -0.2010  0.1186
  895MPD2    C413116   1.226   1.455  13.522  0.5698 -0.2391  0.1954
  895MPD2    C513117   1.312   1.448  13.624  0.1206  0.2898  0.2669
  895MPD2     H13118   0.962   1.562  13.689 -1.3446 -1.9637 -0.3715
  895MPD2    H113119   1.266   1.439  13.422  0.7122 -4.4473  0.9093
  895MPD2    H213120   1.372   1.487  13.817 -1.2626 -0.1811  1.4950
  895MPD2    H313121   1.413   1.422  13.595  0.4539 -0.0314  1.7142
  895MPD2     N13122   0.999   1.504  13.456 -0.2751 -0.0830  0.0590
  895MPD2    H513123   0.908   1.533  13.490 -0.9923 -0.2240 -1.7486
  895MPD2    N113124   1.140   1.590  13.912 -0.0335 -0.3307  0.5818
  895MPD2    H713125   1.205   1.563  13.985 -0.4058  1.0096  1.4062
  896MPD2     C13126   3.244   4.022   1.798  0.1038  0.7785 -0.5610
  896MPD2    C113127   3.258   3.996   1.662  1.0783 -0.5925 -0.1250
  896MPD2    C213128   3.141   4.007   1.586  0.5514 -0.1807  0.0165
  896MPD2    C313129   3.018   4.031   1.646  0.2481  0.3960 -0.1599
  896MPD2    C413130   3.005   4.046   1.782 -0.2760  0.0545  0.2129
  896MPD2    C513131   3.119   4.046   1.861 -0.6921 -0.5395 -0.2634
  896MPD2     H13132   3.143   4.014   1.478 -1.4818  0.9678  0.0688
  896MPD2    H113133   2.908   4.056   1.830  0.2180  0.2560  1.1599
  896MPD2    H213134   3.329   4.015   1.866  0.9349  1.9268 -1.4820
  896MPD2    H313135   3.113   4.048   1.969 -3.2486  1.3834 -0.4438
  896MPD2     N13136   2.907   4.049   1.557  0.0951 -0.8659 -0.0067
  896MPD2    H513137   2.928   4.027   1.460 -1.3990  1.1279 -0.8001
  896MPD2    N113138   3.391   3.970   1.614 -0.0135 -0.2159  0.3650
  896MPD2    H713139   3.469   3.982   1.678  0.0743 -0.9544  0.3921
  897MPD2     C13140   0.106   1.069  10.082  0.3095  0.0673  0.0430
  897MPD2    C113141   0.025   1.171  10.131 -0.3280  0.1349 -0.1251
  897MPD2    C213142   4.654   1.143  10.227  0.0059  0.8141 -0.1689
  897MPD2    C313143   4.648   1.015  10.281  0.0487 -0.1521 -0.5565
  897MPD2    C413144   0.007   0.918  10.234 -0.5081 -0.1903  0.1507
  897MPD2    C513145   0.100   0.946  10.139  0.6703  0.7265 -0.0934
  897MPD2     H13146   4.596   1.222  10.274 -3.2628 -0.9613 -1.2178
  897MPD2    H113147   4.719   0.815  10.265 -1.0977 -0.2443 -0.2730
  897MPD2    H213148   0.178   1.099  10.008  0.3492  0.3086  0.1767
  897MPD2    H313149   0.171   0.868  10.112  0.8376  0.3628  1.3796
  897MPD2     N13150   4.568   1.001  10.402  0.2927 -0.3127  0.4833
  897MPD2    H513151   4.515   1.085  10.424 -2.6629 -1.2403 -3.2289
  897MPD2    N113152   0.042   1.303  10.076  0.1792  0.1151 -0.3428
  897MPD2    H713153   0.090   1.306   9.986 -0.4437 -2.3089 -0.7566
  898MPD2     C13154   1.198   2.692   0.006 -0.5051 -0.0607 -0.5501
  898MPD2    C113155   1.262   2.601  17.630 -0.1037  0.2548  0.4178
  898MPD2    C213156   1.246   2.599  17.494  0.6535  0.1109 -0.5146
  898MPD2    C313157   1.163   2.692  17.434  0.4798  0.4737  0.1303
  898MPD2    C413158   1.099   2.787  17.520 -0.6923  0.2945  0.4298
  898MPD2    C513159   1.126   2.791  17.653  0.3568  0.1147 -0.3392
  898MPD2     H13160   1.294   2.517  17.442  0.0567 -1.3537  1.2794
  898MPD2    H113161   1.025   2.862  17.494  0.9842  0.8824 -2.6536
  898MPD2    H213162   1.212   2.694   0.114 -1.3295 -1.6017 -0.4035
  898MPD2    H313163   1.067   2.847   0.023  1.5765  1.2441 -0.2342
  898MPD2     N13164   1.154   2.686  17.292  0.6754  0.2486 -0.2658
  898MPD2    H513165   1.219   2.619  17.251 -0.7443 -1.2181 -0.0982
  898MPD2    N113166   1.342   2.500  17.676  0.2035  0.1070 -0.1535
  898MPD2    H713167   1.375   2.427  17.613 -1.3231 -1.8027  1.2762
  899MPD2     C13168   2.428   2.701  17.611  0.0503 -0.3402 -0.0356
  899MPD2    C113169   2.337   2.794  17.557 -0.1801  0.5209  0.0730
  899MPD2    C213170   2.231   2.851  17.629 -0.6795 -0.8116  0.7900
  899MPD2    C313171   2.213   2.799   0.054 -0.9318 -0.0162 -0.0502
  899MPD2    C413172   2.304   2.712   0.114  0.3995 -0.2677 -0.5735
  899MPD2    C513173   2.409   2.665   0.042 -0.0664 -0.7642 -0.4964
  899MPD2     H13174   2.165   2.922  17.581 -0.2425 -0.5920  0.5195
  899MPD2    H113175   2.287   2.684   0.217 -0.4898 -0.4338 -0.7607
  899MPD2    H213176   2.503   2.643  17.560  0.9657 -0.1878  1.1365
  899MPD2    H313177   2.475   2.597   0.095  1.5869  0.5031 -0.9057
  899MPD2     N13178   2.107   2.836   0.132 -0.2737 -0.2157 -0.8747
  899MPD2    H513179   2.097   2.797   0.224  1.0088  2.3043  0.3397
  899MPD2    N113180   2.362   2.852  17.431 -0.2518 -0.2535 -0.7278
  899MPD2    H713181   2.314   2.938  17.408 -2.0236 -0.9463  0.3893
  900MPD2     C13182   2.222   4.368  12.311 -0.7836 -0.6322  0.5696
  900MPD2    C113183   2.271   4.270  12.224  0.1365  0.0675  0.2320
  900MPD2    C213184   2.238   4.283  12.090  0.3362 -0.3887 -0.5698
  900MPD2    C313185   2.158   4.373  12.042  0.3481 -0.0061 -0.1845
  900MPD2    C413186   2.104   4.464  12.124  0.0232 -0.4477 -0.4012
  900MPD2    C513187   2.140   4.468  12.258 -0.2750  0.2567  0.1842
  900MPD2     H13188   2.269   4.210  12.016  2.4543  2.9083 -2.9444
  900MPD2    H113189   2.025   4.533  12.095  1.6828  1.5926 -0.0879
  900MPD2    H213190   2.258   4.377  12.413 -0.3850  0.9779  0.2815
  900MPD2    H313191   2.108   4.547  12.325 -2.3153 -2.5230  2.4546
  900MPD2     N13192   2.122   4.364  11.908 -0.4829 -0.3448 -0.6341
  900MPD2    H513193   2.159   4.279  11.867  4.1468  0.3179  2.2287
  900MPD2    N113194   2.370   4.179  12.268  0.6165  0.1025 -0.0248
  900MPD2    H713195   2.391   4.173  12.367  1.9601  0.2182 -0.3118
  901MPD2     C13196   2.353   3.304  12.731  0.3645  0.0362 -0.5324
  901MPD2    C113197   2.472   3.282  12.663  0.0407  0.4225 -0.5852
  901MPD2    C213198   2.525   3.393  12.595  0.0898  1.1811 -0.0575
  901MPD2    C313199   2.462   3.516  12.584 -0.3198 -0.2273  0.5808
  901MPD2    C413200   2.340   3.538  12.649 -0.1010 -0.8266  0.4562
  901MPD2    C513201   2.290   3.431  12.732  0.8169  0.3818  0.2563
  901MPD2     H13202   2.613   3.387  12.532 -0.6849 -0.9248 -0.9490
  901MPD2    H113203   2.283   3.630  12.656 -1.4429 -1.5833 -0.5104
  901MPD2    H213204   2.311   3.224  12.791  1.4552 -2.6327 -3.2999
  901MPD2    H313205   2.206   3.443  12.799 -1.3897 -0.7222 -2.2919
  901MPD2     N13206   2.528   3.620  12.512  0.3043  0.2990 -0.2900
  901MPD2    H513207   2.619   3.599  12.474  1.6348  1.6811  2.2003
  901MPD2    N113208   2.529   3.148  12.671 -0.1469  0.1122  0.0656
  901MPD2    H713209   2.476   3.084  12.729 -1.1470 -0.2040 -1.1946
  902MPD2     C13210   1.242   2.126  13.059  1.1801 -0.3027 -0.7034
  902MPD2    C113211   1.262   2.235  12.974  0.1057 -0.7044  0.2612
  902MPD2    C213212   1.384   2.243  12.909 -0.0265  0.0189  0.0938
  902MPD2    C313213   1.486   2.151  12.925  0.5424  0.6473 -0.2925
  902MPD2    C413214   1.462   2.045  13.011 -0.2013 -0.4559 -0.2596
  902MPD2    C513215   1.341   2.034  13.078 -0.5286 -0.1946 -0.5248
  902MPD2     H13216   1.395   2.321  12.833  1.7307  1.0886  1.4473
  902MPD2    H113217   1.537   1.970  13.035  0.8596  0.6604 -0.0747
  902MPD2    H213218   1.148   2.102  13.108  0.3040 -0.8912 -2.6653
  902MPD2    H313219   1.332   1.963  13.160  0.9450  0.8615  0.5465
  902MPD2     N13220   1.604   2.142  12.846 -0.4416 -0.1442  0.3979
  902MPD2    H513221   1.653   2.053  12.852  0.1313  0.3720  3.0661
  902MPD2    N113222   1.170   2.341  12.949 -0.4223  0.2154 -0.5562
  902MPD2    H713223   1.208   2.422  12.903  0.3109 -0.4297 -1.0857
  903MPD2     C13224   1.812   2.250  11.972 -0.2810  0.3541 -0.7819
  903MPD2    C113225   1.734   2.259  12.080  0.7389 -0.2867  0.3552
  903MPD2    C213226   1.593   2.271  12.064 -0.0762 -0.0466 -0.4309
  903MPD2    C313227   1.537   2.279  11.940  0.0874 -0.0478 -0.0184
  903MPD2    C413228   1.612   2.282  11.823 -0.3850 -0.2011  0.1078
  903MPD2    C513229   1.748   2.266  11.851 -1.0804  0.3388 -0.2265
  903MPD2     H13230   1.532   2.252  12.151  0.2677  2.6297  0.3990
  903MPD2    H113231   1.588   2.299  11.719 -0.2981  1.1910  0.3119
  903MPD2    H213232   1.920   2.252  11.966 -0.1944 -0.9943  0.4249
  903MPD2    H313233   1.813   2.265  11.764 -1.0039 -0.3355 -0.1615
  903MPD2     N13234   1.397   2.279  11.924 -0.3153  0.2514  0.4649
  903MPD2    H513235   1.363   2.244  11.835 -0.0047 -2.2429  1.3167
  903MPD2    N113236   1.795   2.252  12.202 -0.5070 -0.0255 -0.4204
  903MPD2    H713237   1.895   2.234  12.199 -0.4961  0.0928 -0.7480
  904MPD2     C13238   0.456   0.670  13.818  0.3528  0.1567  0.1753
  904MPD2    C113239   0.525   0.793  13.827 -0.0100  0.3133  0.9286
  904MPD2    C213240   0.647   0.807  13.762  0.3172 -0.6415 -0.4388
  904MPD2    C313241   0.697   0.706  13.682 -0.5146  0.0452  0.1656
  904MPD2    C413242   0.616   0.593  13.664  0.4017 -0.1126  0.8189
  904MPD2    C513243   0.501   0.573  13.732  0.7758 -0.4812  0.4562
  904MPD2     H13244   0.701   0.901  13.760 -0.9215  0.0819  0.3141
  904MPD2    H113245   0.653   0.513  13.601  0.2516 -0.7124  1.4952
  904MPD2    H213246   0.364   0.650  13.871  1.1046  0.4564  1.5970
  904MPD2    H313247   0.448   0.479  13.729  1.1384 -0.6408 -0.9817
  904MPD2     N13248   0.824   0.728  13.614  0.1568 -0.1106 -0.0701
  904MPD2    H513249   0.882   0.799  13.656 -0.5523  0.7808 -0.6044
  904MPD2    N113250   0.488   0.908  13.905 -0.1586  0.1179  0.4997
  904MPD2    H713251   0.548   0.990  13.896 -0.9192  0.8029  1.6278
  905MPD2     C13252   0.149   1.421  13.646  0.1676 -0.2001  0.2741
  905MPD2    C113253   0.274   1.428  13.695  0.2403 -0.2157  0.0870
  905MPD2    C213254   0.373   1.482  13.617  0.0857 -0.1597 -0.1332
  905MPD2    C313255   0.354   1.529  13.491 -0.4312 -0.0188 -0.3640
  905MPD2    C413256   0.223   1.517  13.437 -0.2044  0.4062  0.5795
  905MPD2    C513257   0.125   1.464  13.519 -0.8945  0.9079 -0.1438
  905MPD2     H13258   0.474   1.480  13.658 -0.6688 -0.1771  1.7158
  905MPD2    H113259   0.191   1.552  13.339  0.1051 -0.3824  0.1895
  905MPD2    H213260   0.068   1.390  13.710  1.1631 -0.5418  1.3764
  905MPD2    H313261   0.026   1.444  13.480 -0.3261  0.8051 -1.5332
  905MPD2     N13262   0.459   1.566  13.400 -0.2418 -0.2725  0.6989
  905MPD2    H513263   0.434   1.582  13.303 -2.0595 -0.9994  1.0422
  905MPD2    N113264   0.283   1.374  13.825 -0.6823 -0.0670 -0.0498
  905MPD2    H713265   0.209   1.311  13.853  0.5909 -1.4819  0.0852
  906MPD2     C13266   3.404   1.034  11.009 -0.1372  0.2816  0.1146
  906MPD2    C113267   3.330   0.967  10.909  0.1023  0.5454 -0.1543
  906MPD2    C213268   3.262   0.847  10.938 -0.3055  0.2411 -0.1130
  906MPD2    C313269   3.258   0.799  11.066 -0.0906 -0.2578  0.3843
  906MPD2    C413270   3.330   0.870  11.163  0.0563  0.0027  0.3557
  906MPD2    C513271   3.405   0.979  11.135  0.1320 -0.0062 -0.4118
  906MPD2     H13272   3.206   0.799  10.859 -1.0414 -0.2868  0.7411
  906MPD2    H113273   3.327   0.836  11.266 -0.3231  2.1012  1.0367
  906MPD2    H213274   3.460   1.125  10.991 -1.0799  1.3972  2.7105
  906MPD2    H313275   3.445   1.035  11.218 -2.2728 -0.3201  0.9537
  906MPD2     N13276   3.167   0.697  11.098  0.5783 -0.2085  0.0181
  906MPD2    H513277   3.112   0.663  11.020 -1.1210 -0.1611  1.1955
  906MPD2    N113278   3.309   1.031  10.782 -0.1403 -0.5449  0.7143
  906MPD2    H713279   3.271   0.975  10.707 -1.6207  0.0947  1.0026
  907MPD2     C13280   2.304   0.324  15.895 -0.2905  0.3540 -0.3474
  907MPD2    C113281   2.271   0.190  15.895 -0.5079 -0.0903  0.0741
  907MPD2    C213282   2.292   0.102  16.009  0.7979 -0.6625  0.6059
  907MPD2    C313283   2.359   0.167  16.117 -0.5958  0.0301  0.1213
  907MPD2    C413284   2.396   0.301  16.121  0.4234  0.1846 -0.1950
  907MPD2    C513285   2.363   0.375  16.009 -0.2965  0.3836 -0.1040
  907MPD2     H13286   2.263   4.723  16.012  1.2955 -0.7031  3.5381
  907MPD2    H113287   2.469   0.343  16.189  0.8059 -0.0649 -0.4480
  907MPD2    H213288   2.283   0.390  15.812 -0.3536  3.0217  1.8051
  907MPD2    H313289   2.399   0.477  16.003  2.8894 -0.7813 -0.7802
  907MPD2     N13290   2.412   0.075  16.213  0.3094  0.0604  0.0201
  907MPD2    H513291   2.394   4.702  16.192  0.2235 -0.1073  0.8949
  907MPD2    N113292   2.218   0.141  15.775  0.5259 -0.4217  0.4521
  907MPD2    H713293   2.199   0.207  15.700  0.8221 -0.6120  0.2101
  908MPD2     C13294   4.575   1.379   9.278 -0.1382 -0.3996  0.9843
  908MPD2    C113295   4.566   1.292   9.378  0.4915 -0.7745  0.3129
  908MPD2    C213296   4.554   1.333   9.508 -0.2326  0.9482  0.2014
  908MPD2    C313297   4.569   1.470   9.538 -0.6784 -0.0718  0.4562
  908MPD2    C413298   4.569   1.561   9.439 -0.4330 -0.0907 -0.1547
  908MPD2    C513299   4.572   1.514   9.310  0.1955 -0.5750 -0.3763
  908MPD2     H13300   4.538   1.266   9.592  0.6769 -0.7202 -0.9768
  908MPD2    H113301   4.575   1.668   9.456 -2.1643 -0.4205  2.4368
  908MPD2    H213302   4.581   1.353   9.173 -0.2497 -0.2355  0.9381
  908MPD2    H313303   4.595   1.582   9.229  1.0953 -2.0282 -1.3296
  908MPD2     N13304   4.549   1.496   9.679  0.8413  0.3410 -0.2800
  908MPD2    H513305   4.536   1.422   9.747 -0.2483 -0.9415 -1.9051
  908MPD2    N113306   4.560   1.156   9.343 -0.5059 -0.4206 -0.0163
  908MPD2    H713307   4.559   1.137   9.243  0.4469 -1.9238  0.2619
  909MPD2     C13308   0.452   4.387  12.296 -0.5553 -0.5919  0.8444
  909MPD2    C113309   0.381   4.285  12.223 -0.3045 -0.2770 -0.0075
  909MPD2    C213310   0.241   4.287  12.219 -0.6194 -0.2298  0.7160
  909MPD2    C313311   0.172   4.396  12.267 -0.5945 -0.9525 -0.7251
  909MPD2    C413312   0.246   4.494  12.337  0.0787  0.1894  0.2618
  909MPD2    C513313   0.382   4.493  12.350  0.8762 -0.2309  0.3154
  909MPD2     H13314   0.185   4.219  12.156  0.2536  1.1152 -1.5148
  909MPD2    H113315   0.191   4.578  12.378 -1.4225 -0.5790 -0.2152
  909MPD2    H213316   0.559   4.387  12.308 -0.6367 -2.0070  1.5111
  909MPD2    H313317   0.434   4.579  12.391 -0.4911  0.3689  0.7754
  909MPD2     N13318   0.031   4.400  12.250 -0.4718 -0.0194 -0.2058
  909MPD2    H513319   4.715   4.321  12.200 -1.1262 -0.0392  0.3763
  909MPD2    N113320   0.443   4.173  12.157  0.3084  0.0307 -0.4370
  909MPD2    H713321   0.379   4.103  12.122  1.4167 -0.9727 -0.4449
  910MPD2     C13322   1.327   0.687  15.892  0.9189 -0.2645 -0.6799
  910MPD2    C113323   1.411   0.592  15.837 -0.1764  0.5060  0.4317
  910MPD2    C213324   1.396   0.561  15.700  0.7387  0.0825  0.2627
  910MPD2    C313325   1.297   0.623  15.620 -0.3203  0.0491  0.0679
  910MPD2    C413326   1.204   0.708  15.684  0.3885 -0.2228 -0.2337
  910MPD2    C513327   1.222   0.735  15.814  0.2028  0.6519 -0.1828
  910MPD2     H13328   1.457   0.478  15.667 -0.2319 -0.2612 -0.6474
  910MPD2    H113329   1.118   0.749  15.632  0.7023  0.0215 -0.5604
  910MPD2    H213330   1.335   0.726  15.993  3.3289  2.1837 -1.8108
  910MPD2    H313331   1.145   0.788  15.868 -0.3359 -0.1210 -0.1800
  910MPD2     N13332   1.267   0.581  15.490 -0.0849  0.3707  0.5194
  910MPD2    H513333   1.179   0.611  15.449  0.5740  0.5785 -0.7745
  910MPD2    N113334   1.504   0.510  15.904  0.3009  0.1713 -0.0335
  910MPD2    H713335   1.563   0.444  15.855  3.3239  2.4368  0.5657
  911MPD2     C13336   3.879   1.299  16.157  0.8888  0.0116  0.1688
  911MPD2    C113337   3.897   1.402  16.254  0.7623  0.3392  0.3631
  911MPD2    C213338   3.812   1.513  16.257  0.0961 -0.2339  0.2333
  911MPD2    C313339   3.710   1.516  16.169 -0.5016  0.0298 -0.2100
  911MPD2    C413340   3.695   1.412  16.081 -0.1752  0.3771  0.8420
  911MPD2    C513341   3.781   1.311  16.065  0.4373  0.2262 -0.3118
  911MPD2     H13342   3.831   1.593  16.328  1.1740 -0.3308  0.0566
  911MPD2    H113343   3.615   1.412  16.007 -1.3108 -1.2508  2.0521
  911MPD2    H213344   3.947   1.216  16.151  1.4526  0.5055 -0.2492
  911MPD2    H313345   3.761   1.227  15.999  2.5607 -1.3512  1.0231
  911MPD2     N13346   3.608   1.622  16.171 -0.1645 -0.0476 -0.3645
  911MPD2    H513347   3.531   1.585  16.116  1.2739  0.1176 -2.4950
  911MPD2    N113348   3.996   1.382  16.349  0.4560 -0.0702  0.0627
  911MPD2    H713349   4.037   1.289  16.343 -1.7632 -1.0638 -0.0775
  912MPD2     C13350   3.343   1.474  15.561  0.4993  0.6300  0.8474
  912MPD2    C113351   3.368   1.476  15.697 -0.6247 -0.1017 -0.5479
  912MPD2    C213352   3.408   1.358  15.757 -0.7252 -0.2205 -0.2325
  912MPD2    C313353   3.420   1.240  15.680 -0.3336  0.5541  0.2723
  912MPD2    C413354   3.387   1.239  15.546 -0.1074  0.2809  0.1761
  912MPD2    C513355   3.362   1.357  15.491  0.5707  0.1667 -0.6408
  912MPD2     H13356   3.424   1.351  15.864  3.5871 -2.6948 -1.0657
  912MPD2    H113357   3.382   1.151  15.484  1.8723 -0.0080  0.4173
  912MPD2    H213358   3.320   1.562  15.503 -2.7497  0.8612  2.4875
  912MPD2    H313359   3.359   1.348  15.383 -1.9444  0.3991 -0.5899
  912MPD2     N13360   3.461   1.135  15.760 -0.0639 -0.0887  0.1510
  912MPD2    H513361   3.497   1.146  15.854 -0.6310  2.3085  0.0790
  912MPD2    N113362   3.351   1.600  15.772 -0.0083  0.2314  0.5592
  912MPD2    H713363   3.338   1.682  15.713  1.8296 -1.0573 -1.6466
  913MPD2     C13364   3.895   2.116  10.641 -0.1135 -0.6115  0.0008
  913MPD2    C113365   4.018   2.155  10.687 -0.8448  0.3988 -0.3889
  913MPD2    C213366   4.096   2.224  10.596  0.0602 -0.9186 -0.2183
  913MPD2    C313367   4.048   2.264  10.471 -0.3076 -0.4442  0.8581
  913MPD2    C413368   3.925   2.223  10.427  0.1140  0.9076  0.3787
  913MPD2    C513369   3.851   2.149  10.514 -0.3846  0.2024 -0.1578
  913MPD2     H13370   4.201   2.243  10.617 -0.3439  1.8922 -0.6883
  913MPD2    H113371   3.895   2.254  10.328  1.4647  1.5030  0.1434
  913MPD2    H213372   3.831   2.052  10.701 -0.1562  1.6678  2.3812
  913MPD2    H313373   3.747   2.128  10.492 -0.9703  2.0625  0.8363
  913MPD2     N13374   4.129   2.333  10.376  0.5899  0.3406  0.1128
  913MPD2    H513375   4.089   2.338  10.283 -0.0524 -2.0354  0.2564
  913MPD2    N113376   4.057   2.108  10.808  1.0168 -0.2339  0.3673
  913MPD2    H713377   3.985   2.058  10.859  1.0367 -0.3749  0.2568
  914MPD2     C13378   2.668   2.994  11.882 -0.2403  0.1489  0.6865
  914MPD2    C113379   2.701   3.091  11.976 -0.4895 -0.3371  0.2846
  914MPD2    C213380   2.755   3.055  12.099  0.3255 -0.1213 -0.4133
  914MPD2    C313381   2.765   2.923  12.133 -0.1861 -0.1850 -0.1605
  914MPD2    C413382   2.727   2.826  12.042 -0.0425  0.3019  0.2423
  914MPD2    C513383   2.689   2.862  11.915 -0.3448 -0.3670  0.1673
  914MPD2     H13384   2.785   3.136  12.164  2.0415 -0.1821 -1.1432
  914MPD2    H113385   2.746   2.722  12.064 -1.3591 -0.3350 -1.7022
  914MPD2    H213386   2.601   3.005  11.797 -1.6878 -0.3064  1.7631
  914MPD2    H313387   2.672   2.784  11.842  0.2501 -1.3309  1.0511
  914MPD2     N13388   2.795   2.900  12.266  0.5378  0.1761 -0.0014
  914MPD2    H513389   2.832   2.976  12.322  1.4136 -0.1661 -0.1241
  914MPD2    N113390   2.665   3.226  11.964 -0.4028  0.0526  0.0656
  914MPD2    H713391   2.671   3.285  12.047  1.4258 -1.3790  0.9744
  915MPD2     C13392   4.288   2.287  15.630  0.2216  0.5886 -0.1809
  915MPD2    C113393   4.392   2.375  15.600  0.4299  0.7322  0.0797
  915MPD2    C213394   4.407   2.494  15.668 -0.1288  0.1941 -0.4614
  915MPD2    C313395   4.316   2.513  15.771 -0.9180 -0.3402 -0.0247
  915MPD2    C413396   4.212   2.422  15.791 -0.1114 -0.9127 -0.3450
  915MPD2    C513397   4.199   2.313  15.724 -0.3168 -0.1514 -0.4969
  915MPD2     H13398   4.482   2.569  15.645  1.2761 -0.7774  0.9220
  915MPD2    H113399   4.134   2.436  15.864  1.0800  1.4764  0.4760
  915MPD2    H213400   4.269   2.205  15.562  0.2588  0.3009  0.1576
  915MPD2    H313401   4.127   2.239  15.757  0.7357 -0.1166  1.8541
  915MPD2     N13402   4.310   2.626  15.854 -0.2136  0.4401  0.0732
  915MPD2    H513403   4.242   2.625  15.928 -0.3606  0.9478 -0.0490
  915MPD2    N113404   4.487   2.333  15.501 -0.1568 -0.4753 -0.0487
  915MPD2    H713405   4.462   2.254  15.442 -2.3588  0.4796 -0.4012
  916MPD2     C13406   2.961   1.057  15.681  0.2578  0.2875  0.2471
  916MPD2    C113407   3.052   1.017  15.776 -0.2481  0.6041 -0.1412
  916MPD2    C213408   3.117   0.895  15.757 -0.2805 -0.1866  0.0564
  916MPD2    C313409   3.096   0.824  15.638 -0.0314 -0.1802  0.4304
  916MPD2    C413410   3.009   0.875  15.544 -0.1117  0.5417  0.4615
  916MPD2    C513411   2.932   0.982  15.576 -0.0959  0.9291 -0.3666
  916MPD2     H13412   3.190   0.854  15.827  0.0488  0.1431 -0.0968
  916MPD2    H113413   2.973   0.814  15.462  2.5126 -0.1489 -0.2008
  916MPD2    H213414   2.917   1.156  15.681  0.3986  0.3447 -0.9206
  916MPD2    H313415   2.846   1.005  15.513 -0.2384  0.3508 -0.3801
  916MPD2     N13416   3.154   0.697  15.624  0.4289  0.5198 -0.1631
  916MPD2    H513417   3.212   0.674  15.704 -0.1540  2.0224  0.6918
  916MPD2    N113418   3.093   1.108  15.873  0.8567  0.0302  0.4594
  916MPD2    H713419   3.060   1.204  15.868  1.6097  0.2971  0.7108
  917MPD2     C13420   3.547   3.233  10.979 -0.0301 -0.2341 -0.1487
  917MPD2    C113421   3.662   3.276  11.039  0.4270 -0.1788  0.3261
  917MPD2    C213422   3.739   3.364  10.961 -0.1830 -0.4733  0.6991
  917MPD2    C313423   3.702   3.415  10.842  0.2278  1.0031  0.1625
  917MPD2    C413424   3.583   3.373  10.786 -0.3258  0.5936 -0.5212
  917MPD2    C513425   3.510   3.282  10.854 -0.0105  0.7066  0.2006
  917MPD2     H13426   3.833   3.398  11.005  0.0640  0.6299 -0.6909
  917MPD2    H113427   3.544   3.415  10.694 -0.7755  0.3661 -0.4342
  917MPD2    H213428   3.487   3.154  11.024  0.4166  0.2398  1.2614
  917MPD2    H313429   3.430   3.231  10.801 -1.2804  1.6850  1.1714
  917MPD2     N13430   3.779   3.514  10.773  0.3676 -0.1103  0.2279
  917MPD2    H513431   3.758   3.517  10.673  3.3287  1.1221 -0.3589
  917MPD2    N113432   3.697   3.222  11.165  0.2636  0.7724  0.0908
  917MPD2    H713433   3.626   3.159  11.199 -0.7241  0.7325 -2.0043
  918MPD2     C13434   4.032   3.708  12.040 -0.0960  0.4197  0.4750
  918MPD2    C113435   4.067   3.576  12.043  0.4294 -0.7394  0.2343
  918MPD2    C213436   4.002   3.487  11.964  0.0839  0.3069  0.1290
  918MPD2    C313437   3.917   3.531  11.875  0.5872  0.0462 -0.6303
  918MPD2    C413438   3.884   3.666  11.871 -0.3139  0.0949  0.2320
  918MPD2    C513439   3.944   3.754  11.956  0.1330 -0.1807 -0.7730
  918MPD2     H13440   4.030   3.382  11.971 -0.4423  0.2015  0.6742
  918MPD2    H113441   3.805   3.701  11.806 -0.3134  1.5330  0.9954
  918MPD2    H213442   4.075   3.776  12.112  1.7218 -2.1595  1.8274
  918MPD2    H313443   3.922   3.860  11.962  0.1450 -0.2637  0.6753
  918MPD2     N13444   3.856   3.434  11.793  0.5769  0.2902 -0.4690
  918MPD2    H513445   3.863   3.336  11.818  0.2267  0.0912 -1.1689
  918MPD2    N113446   4.158   3.522  12.140 -0.5873 -0.0642  0.1728
  918MPD2    H713447   4.162   3.422  12.158 -0.5160 -0.0388  0.3020
  919MPD2     C13448   4.148   2.468  11.518  0.4969 -1.0090 -0.7600
  919MPD2    C113449   4.119   2.342  11.474  0.4459  0.0210 -0.0401
  919MPD2    C213450   4.063   2.332  11.351  0.7041  0.0208  0.3013
  919MPD2    C313451   4.043   2.450  11.267  0.3939  0.6720 -0.0915
  919MPD2    C413452   4.092   2.572  11.316 -0.8785  0.4094 -0.4379
  919MPD2    C513453   4.130   2.585  11.447  0.1232  0.6078 -1.1191
  919MPD2     H13454   4.030   2.234  11.318 -0.8959  0.5310  0.3686
  919MPD2    H113455   4.094   2.658  11.250  0.6198  1.0296  0.4203
  919MPD2    H213456   4.188   2.483  11.617  1.4168 -0.9272 -1.1370
  919MPD2    H313457   4.174   2.675  11.488 -2.4014  1.5521 -0.4950
  919MPD2     N13458   3.988   2.447  11.138 -0.0381  0.4983 -0.1499
  919MPD2    H513459   3.983   2.541  11.102 -1.0533  0.5148  0.0562
  919MPD2    N113460   4.125   2.230  11.564 -1.0738 -0.3521  0.3922
  919MPD2    H713461   4.094   2.140  11.530  0.9459  0.3397 -3.2987
  920MPD2     C13462   4.051   2.789  10.191 -0.2126  0.9246  0.5859
  920MPD2    C113463   3.930   2.714  10.178 -0.0918  0.0535  0.2178
  920MPD2    C213464   3.890   2.649  10.293  0.0706  0.1765  0.4883
  920MPD2    C313465   3.957   2.655  10.418  0.0621 -0.3984 -0.9507
  920MPD2    C413466   4.078   2.723  10.425  0.3809 -0.3916 -0.1201
  920MPD2    C513467   4.117   2.793  10.314 -0.9343  0.4142  0.3693
  920MPD2     H13468   3.804   2.584  10.291  1.6272 -1.8668 -1.1581
  920MPD2    H113469   4.129   2.751  10.516 -0.7333  1.6547 -0.1321
  920MPD2    H213470   4.096   2.843  10.108 -0.0813 -2.7442 -1.7289
  920MPD2    H313471   4.206   2.854  10.318 -0.9713  0.3881  1.6375
  920MPD2     N13472   3.898   2.589  10.527  0.2235 -0.1053  0.2475
  920MPD2    H513473   3.816   2.534  10.504 -0.6240  0.3998  2.0459
  920MPD2    N113474   3.860   2.708  10.053  0.2255  0.0097  0.5079
  920MPD2    H713475   3.780   2.645  10.051  1.0304 -0.9813 -0.1432
  921MPD2     C13476   0.074   1.415  17.094 -0.3026  0.2559  0.0049
  921MPD2    C113477   0.100   1.393  16.962  0.7341 -0.4244 -0.1034
  921MPD2    C213478   0.010   1.440  16.865  0.2244 -0.2993  0.1133
  921MPD2    C313479   4.606   1.477  16.898 -0.0601  0.8610 -0.0357
  921MPD2    C413480   4.587   1.492  17.033  0.1303 -1.0739  0.1267
  921MPD2    C513481   4.678   1.467  17.134 -0.3548  0.1260  0.0150
  921MPD2     H13482   0.031   1.429  16.759 -1.4738 -1.2413 -0.1091
  921MPD2    H113483   4.493   1.536  17.064 -0.3743 -1.3094 -1.1002
  921MPD2    H213484   0.142   1.377  17.170 -0.5715  0.0720  0.1526
  921MPD2    H313485   4.656   1.471  17.240 -1.8967 -0.2780 -0.2875
  921MPD2     N13486   4.510   1.489  16.795  0.5425 -0.2356 -0.0384
  921MPD2    H513487   4.539   1.487  16.698  3.0038  0.5249  0.6954
  921MPD2    N113488   0.212   1.316  16.928  0.3154  0.4932  0.2970
  921MPD2    H713489   0.278   1.286  16.999 -0.9411 -0.5345  1.0409
  922MPD2     C13490   0.856   3.675  17.259 -0.4964  0.5538  0.5227
  922MPD2    C113491   0.851   3.797  17.330 -0.2547 -0.3911  0.1507
  922MPD2    C213492   0.762   3.811  17.438  0.2166 -0.9933  0.2984
  922MPD2    C313493   0.670   3.714  17.471  0.0372 -0.6116 -0.0707
  922MPD2    C413494   0.676   3.600  17.400 -0.3816  0.4119  0.2865
  922MPD2    C513495   0.763   3.579  17.298 -0.5160 -0.4243  0.7476
  922MPD2     H13496   0.751   3.905  17.491  0.2756 -1.5853  1.3640
  922MPD2    H113497   0.604   3.520  17.404 -2.1587  1.9930  0.1533
  922MPD2    H213498   0.926   3.648  17.180  0.7135  1.9577  1.1095
  922MPD2    H313499   0.758   3.483  17.247  3.1858 -0.2970  0.1849
  922MPD2     N13500   0.575   3.745  17.571 -0.1002  0.1706  0.6866
  922MPD2    H513501   0.565   3.839  17.607  1.4994  1.5691 -2.5113
  922MPD2    N113502   0.919   3.913  17.292  0.2142 -0.0952  0.3931
  922MPD2    H713503   0.882   4.001  17.326 -2.0490 -0.2365 -1.7327
  923MPD2     C13504   2.816   0.308   9.445  0.3422  0.0676 -0.2174
  923MPD2    C113505   2.785   0.439   9.479  0.1851  0.4139  0.9151
  923MPD2    C213506   2.864   0.506   9.572 -0.6324  0.1553 -0.2222
  923MPD2    C313507   2.966   0.447   9.640 -0.6912  0.2558  0.3948
  923MPD2    C413508   2.992   0.318   9.603  0.4906 -0.1442 -0.7599
  923MPD2    C513509   2.920   0.244   9.509  0.8487  0.0786 -0.2345
  923MPD2     H13510   2.831   0.603   9.605  0.3112  0.2817  0.3435
  923MPD2    H113511   3.073   0.266   9.653  0.7035  1.5099  0.6179
  923MPD2    H213512   2.764   0.263   9.361  1.2129 -1.6172  0.1559
  923MPD2    H313513   2.929   0.142   9.475 -0.4769  0.4037 -1.5839
  923MPD2     N13514   3.020   0.500   9.762  0.4801  0.6316  0.3493
  923MPD2    H513515   3.085   0.437   9.807 -1.0688 -0.2397  1.4019
  923MPD2    N113516   2.677   0.492   9.407  0.4358 -0.4887 -0.2700
  923MPD2    H713517   2.656   0.431   9.327  0.6226  1.2315 -1.6340
  924MPD2     C13518   2.424   4.014  16.100  0.1938 -0.3115 -0.2392
  924MPD2    C113519   2.408   4.027  16.230 -0.4887 -0.6363 -0.5703
  924MPD2    C213520   2.450   4.140  16.298 -0.6516  0.5406  0.0643
  924MPD2    C313521   2.507   4.249  16.226 -0.0540 -0.3596 -0.2819
  924MPD2    C413522   2.517   4.237  16.088  0.2446 -0.1908 -0.1811
  924MPD2    C513523   2.480   4.116  16.029  0.3952 -0.0070 -0.7135
  924MPD2     H13524   2.435   4.145  16.406 -1.7801 -0.7921 -0.0213
  924MPD2    H113525   2.568   4.313  16.029  0.3081 -0.7425 -0.8323
  924MPD2    H213526   2.383   3.925  16.053 -1.1995  0.7815 -1.0605
  924MPD2    H313527   2.480   4.102  15.922 -1.0996  0.1059 -0.7216
  924MPD2     N13528   2.541   4.370  16.290 -0.3355 -0.1597 -0.0132
  924MPD2    H513529   2.573   4.446  16.231  0.4526 -0.5533 -0.0850
  924MPD2    N113530   2.352   3.917  16.293 -0.4606 -0.4470 -0.7680
  924MPD2    H713531   2.360   3.826  16.248  1.2355  1.0202 -3.4427
  925MPD2     C13532   0.767   1.621  14.612  0.5182  0.0944  0.1624
  925MPD2    C113533   0.654   1.697  14.597  0.1385 -0.4444  0.4684
  925MPD2    C213534   0.574   1.712  14.707 -0.3981  0.3846  1.0501
  925MPD2    C313535   0.614   1.663  14.829 -0.0236  0.7233 -0.9128
  925MPD2    C413536   0.723   1.581  14.841  0.1581  0.1465 -0.2842
  925MPD2    C513537   0.802   1.564  14.727 -0.9482 -0.3415  0.0390
  925MPD2     H13538   0.486   1.774  14.694 -1.6104 -1.2293  1.5473
  925MPD2    H113539   0.753   1.536  14.935 -1.2298  0.2264  0.1897
  925MPD2    H213540   0.834   1.612  14.527  2.9927 -1.0809  2.2777
  925MPD2    H313541   0.895   1.509  14.732 -1.0264 -0.5241 -0.4871
  925MPD2     N13542   0.548   1.684  14.958 -0.1297 -0.3092 -0.2311
  925MPD2    H513543   0.599   1.651  15.040 -2.9309 -2.4278  0.6614
  925MPD2    N113544   0.630   1.771  14.476 -0.6796  0.4473  0.5151
  925MPD2    H713545   0.702   1.758  14.406  0.1199  1.3925  1.1694
  926MPD2     C13546   4.033   0.267  12.958 -0.5122  0.4217  0.4572
  926MPD2    C113547   4.024   0.397  13.006  0.2809  0.4226 -0.7023
  926MPD2    C213548   3.996   0.505  12.916 -0.4449 -0.8226  0.1677
  926MPD2    C313549   3.974   0.474  12.788  0.3713 -0.5004 -0.3911
  926MPD2    C413550   3.981   0.348  12.740 -0.4606 -0.5794  0.0263
  926MPD2    C513551   4.018   0.241  12.824  0.6649  0.3309 -0.4235
  926MPD2     H13552   4.002   0.604  12.961  0.5738 -0.7178 -0.1966
  926MPD2    H113553   3.976   0.322  12.635  2.5613 -2.3368  0.3186
  926MPD2    H213554   4.062   0.183  13.021  0.3234  0.7877  0.5572
  926MPD2    H313555   4.023   0.138  12.789  0.9349  0.3712 -0.5061
  926MPD2     N13556   3.932   0.569  12.692 -0.5990  1.1357  0.1393
  926MPD2    H513557   3.904   0.540  12.599  0.8409 -1.3699  0.4868
  926MPD2    N113558   4.033   0.427  13.144  0.0263  0.2316  0.0522
  926MPD2    H713559   4.038   0.521  13.182  2.6087  0.6894 -1.3949
  927MPD2     C13560   3.578   2.862  17.506  0.5724 -0.0778 -0.6132
  927MPD2    C113561   3.656   2.877  17.616 -0.6180 -0.2147 -0.3284
  927MPD2    C213562   3.795   2.877  17.609 -0.2681  0.4670  0.2245
  927MPD2    C313563   3.857   2.873  17.485  0.0756  0.0328 -0.3154
  927MPD2    C413564   3.773   2.870  17.368  0.3894  0.1870  0.0124
  927MPD2    C513565   3.636   2.849  17.383 -0.3684 -0.7931 -0.5898
  927MPD2     H13566   3.867   2.884  17.690  2.0901 -2.2123 -1.6775
  927MPD2    H113567   3.813   2.864  17.268 -0.7501 -2.9067 -0.2740
  927MPD2    H213568   3.471   2.873  17.508  0.5608 -0.4380  1.3423
  927MPD2    H313569   3.580   2.839  17.291 -0.0284  0.3622 -0.9282
  927MPD2     N13570   3.995   2.886  17.479 -0.4237  0.4330 -0.0660
  927MPD2    H513571   4.056   2.873  17.560  0.6738  0.1164 -0.9475
  927MPD2    N113572   3.595   2.875   0.042 -0.1349  0.1962  0.3400
  927MPD2    H713573   3.493   2.881   0.036 -0.0667  1.5743  0.4182
  928MPD2     C13574   2.490   1.746   1.264 -1.0836  0.2327  0.4642
  928MPD2    C113575   2.623   1.768   1.250  0.2295 -0.1256  0.2874
  928MPD2    C213576   2.672   1.742   1.120  0.1180 -0.2584  0.2763
  928MPD2    C313577   2.603   1.673   1.020 -0.3698  0.0276  0.4449
  928MPD2    C413578   2.472   1.641   1.051 -0.3884  0.2705 -0.7047
  928MPD2    C513579   2.416   1.683   1.166  0.3010  0.3530  0.1967
  928MPD2     H13580   2.769   1.772   1.081 -0.3824  0.0662 -0.7084
  928MPD2    H113581   2.400   1.611   0.976  0.5775  0.3415 -1.6556
  928MPD2    H213582   2.450   1.776   1.360 -0.0634  1.6325  0.4467
  928MPD2    H313583   2.311   1.664   1.188  0.5688 -1.1428  0.1356
  928MPD2     N13584   2.648   1.655   0.885 -0.2960  0.3173 -0.0140
  928MPD2    H513585   2.576   1.638   0.815 -2.6325  2.1069  1.9493
  928MPD2    N113586   2.690   1.846   1.347 -0.3508  0.1458  0.4435
  928MPD2    H713587   2.632   1.879   1.423  0.5643  0.7976  0.8696
  929MPD2     C13588   2.658   0.957  10.558 -0.2350  0.3099  0.3171
  929MPD2    C113589   2.531   0.913  10.557  0.0691 -0.1816  0.1852
  929MPD2    C213590   2.448   0.932  10.441  0.7408 -0.9851  0.3712
  929MPD2    C313591   2.497   1.031  10.349 -0.4717  0.6335 -0.6761
  929MPD2    C413592   2.625   1.084  10.366  0.3394  0.2237  0.4150
  929MPD2    C513593   2.712   1.041  10.461 -0.1958 -0.6468  0.5141
  929MPD2     H13594   2.344   0.902  10.442  0.4230  0.0958 -0.1864
  929MPD2    H113595   2.667   1.150  10.290 -1.3495 -0.6369 -1.2709
  929MPD2    H213596   2.723   0.931  10.641 -0.4335  0.0343  0.3882
  929MPD2    H313597   2.811   1.084  10.470 -0.7263  0.6482  0.1579
  929MPD2     N13598   2.420   1.078  10.230 -0.2468  0.7195  0.3539
  929MPD2    H513599   2.455   1.158  10.178  1.7221 -0.2409  0.2114
  929MPD2    N113600   2.487   0.846  10.678  0.0301 -0.7326  0.0479
  929MPD2    H713601   2.549   0.849  10.758  0.1893 -2.4257  0.0048
  930MPD2     C13602   3.879   2.887  13.883  0.0392  0.1063 -0.0359
  930MPD2    C113603   3.873   2.974  13.780  0.6422  0.2683  0.1097
  930MPD2    C213604   3.802   2.946  13.667  0.7054 -0.4007  0.6733
  930MPD2    C313605   3.755   2.819  13.635  0.3729 -0.4982 -0.1537
  930MPD2    C413606   3.768   2.722  13.735 -0.3757  0.0279  0.6988
  930MPD2    C513607   3.822   2.762  13.856  0.0495 -0.4920  0.1296
  930MPD2     H13608   3.786   3.020  13.590 -2.4701 -0.4136  1.3247
  930MPD2    H113609   3.733   2.621  13.721 -0.9058  0.2628  0.3518
  930MPD2    H213610   3.926   2.920  13.975 -1.0366  1.5510 -0.0028
  930MPD2    H313611   3.817   2.679  13.927 -0.0468 -1.6151 -1.1876
  930MPD2     N13612   3.706   2.797  13.503 -0.0020  0.0715 -0.0627
  930MPD2    H513613   3.672   2.875  13.448 -0.5831 -0.6845 -0.7961
  930MPD2    N113614   3.915   3.106  13.806  0.2096  0.0324 -0.5258
  930MPD2    H713615   3.913   3.137  13.903 -0.7877 -1.0592 -0.1908
  931MPD2     C13616   3.981   2.830   0.629 -0.0251 -0.2585  0.2235
  931MPD2    C113617   3.845   2.837   0.677  0.4790  0.0384  0.0434
  931MPD2    C213618   3.830   2.852   0.813 -0.6207 -0.2151 -0.2379
  931MPD2    C313619   3.940   2.882   0.894 -0.5244  0.1592  0.0330
  931MPD2    C413620   4.065   2.870   0.848 -0.3260 -0.5454 -0.1199
  931MPD2    C513621   4.086   2.846   0.717  0.0711  0.0778  0.3859
  931MPD2     H13622   3.737   2.871   0.865  0.5505  1.5270  1.2067
  931MPD2    H113623   4.147   2.899   0.913 -0.5378  0.6426 -0.3937
  931MPD2    H213624   4.000   2.827   0.523  1.1855 -0.7831  0.4575
  931MPD2    H313625   4.185   2.864   0.677  0.3574 -2.0392  0.1912
  931MPD2     N13626   3.933   2.912   1.032  0.2627 -0.0359  0.4250
  931MPD2    H513627   4.017   2.951   1.072  0.8287  0.8348 -1.6041
  931MPD2    N113628   3.737   2.818   0.590  0.6423 -0.1641  0.0964
  931MPD2    H713629   3.766   2.796   0.495 -1.6598  1.9122 -1.1048
  932MPD2     C13630   1.372   2.344  11.568  0.2823 -0.3120 -0.2629
  932MPD2    C113631   1.491   2.317  11.501  0.5849 -0.1712 -0.1196
  932MPD2    C213632   1.519   2.189  11.475 -0.6207 -0.3640  0.1765
  932MPD2    C313633   1.434   2.083  11.520 -0.6265 -0.3119  0.3180
  932MPD2    C413634   1.316   2.112  11.588  0.9392 -0.7702  0.5444
  932MPD2    C513635   1.279   2.242  11.597 -0.3604  0.3066 -0.3795
  932MPD2     H13636   1.619   2.169  11.437 -1.8907  0.0751 -3.3618
  932MPD2    H113637   1.251   2.035  11.628  0.4641 -0.7858 -0.2569
  932MPD2    H213638   1.338   2.446  11.579  1.3137  0.2871 -2.6830
  932MPD2    H313639   1.182   2.278  11.630  0.0094 -0.0611  1.1084
  932MPD2     N13640   1.475   1.940  11.518  0.1932  0.1699 -0.1724
  932MPD2    H513641   1.429   1.875  11.581 -0.5206  0.4059 -0.4481
  932MPD2    N113642   1.588   2.413  11.464 -0.2056  0.0054  0.1235
  932MPD2    H713643   1.670   2.380  11.413  0.2654 -0.5216  1.2331
  933MPD2     C13644   2.744   2.429   1.946 -0.1171 -0.8917 -0.1008
  933MPD2    C113645   2.688   2.393   1.821  0.2016 -0.1414 -1.1220
  933MPD2    C213646   2.557   2.436   1.790 -0.6443 -0.7821  0.3888
  933MPD2    C313647   2.478   2.504   1.884 -0.5297  0.3849  0.7464
  933MPD2    C413648   2.534   2.526   2.013  0.1659  0.0866 -0.3957
  933MPD2    C513649   2.663   2.487   2.046 -0.8533 -0.9262 -0.5950
  933MPD2     H13650   2.521   2.441   1.688  0.5299  0.2754  0.0316
  933MPD2    H113651   2.469   2.556   2.094 -0.4008 -0.5124 -0.6341
  933MPD2    H213652   2.840   2.391   1.979  0.8488  1.5596 -0.0358
  933MPD2    H313653   2.686   2.482   2.152  1.1493  0.9225 -0.9571
  933MPD2     N13654   2.347   2.546   1.853  0.1610 -0.5664 -0.4571
  933MPD2    H513655   2.308   2.512   1.766 -0.6192  0.1382 -0.3759
  933MPD2    N113656   2.765   2.312   1.733  0.0059 -0.0827 -0.7404
  933MPD2    H713657   2.855   2.290   1.774 -0.7276  1.6684  1.8099
  934MPD2     C13658   2.792   3.994   2.192  0.0532  0.3482 -0.5138
  934MPD2    C113659   2.868   3.914   2.103 -0.4297 -0.3921  0.8846
  934MPD2    C213660   2.796   3.861   1.995  0.6903 -0.1674 -0.7733
  934MPD2    C313661   2.661   3.888   1.969  0.6464  0.1510 -0.6121
  934MPD2    C413662   2.593   3.962   2.059  0.0727  0.6179 -0.3401
  934MPD2    C513663   2.656   4.015   2.172 -0.6649  0.7071  0.1509
  934MPD2     H13664   2.860   3.795   1.937  1.5980  2.6402 -3.0030
  934MPD2    H113665   2.486   3.975   2.053  0.1694  1.2886 -0.6525
  934MPD2    H213666   2.828   4.038   2.285 -0.2881 -0.3812 -0.0343
  934MPD2    H313667   2.597   4.072   2.243 -1.3514 -0.2293  0.3279
  934MPD2     N13668   2.590   3.840   1.861 -0.4887  0.4607 -0.2553
  934MPD2    H513669   2.492   3.869   1.859 -0.4689  0.5105 -0.4431
  934MPD2    N113670   3.000   3.873   2.129  0.6086  0.2899 -0.2057
  934MPD2    H713671   3.035   3.808   2.060  0.2422 -1.1908  1.0169
  935MPD2     C13672   2.982   3.250   1.168  0.1082 -0.2232  0.0123
  935MPD2    C113673   2.859   3.280   1.113 -0.5053  0.0756 -0.4670
  935MPD2    C213674   2.772   3.359   1.181 -0.6275  0.1057  0.1929
  935MPD2    C313675   2.800   3.397   1.314  0.0262 -0.2885 -0.1892
  935MPD2    C413676   2.927   3.373   1.363 -0.3311  0.1484 -0.4697
  935MPD2    C513677   3.018   3.306   1.293  0.1341  0.4091  0.1257
  935MPD2     H13678   2.684   3.404   1.137 -0.3728 -0.9731 -1.4100
  935MPD2    H113679   2.960   3.398   1.463 -0.2264  1.7177 -0.8876
  935MPD2    H213680   3.061   3.201   1.113 -1.4574 -0.4803 -1.9961
  935MPD2    H313681   3.117   3.285   1.333  1.5989  4.1825 -1.4201
  935MPD2     N13682   2.724   3.489   1.382  0.4058  0.4448 -0.0485
  935MPD2    H513683   2.777   3.539   1.452 -0.3332  0.2819  0.6259
  935MPD2    N113684   2.809   3.227   0.997  0.2634 -0.1397  0.5051
  935MPD2    H713685   2.720   3.260   0.961  0.5438  1.3884  1.1754
  936MPD2     C13686   2.058   0.082  12.195 -0.7671  0.9105 -0.0478
  936MPD2    C113687   2.043   0.190  12.281 -0.1567 -0.1925 -0.5875
  936MPD2    C213688   2.072   0.316  12.233 -0.1671  0.7367 -0.6543
  936MPD2    C313689   2.129   0.334  12.107 -0.4929 -0.0015  1.1831
  936MPD2    C413690   2.136   0.234  12.026  0.5185  0.8354 -0.0653
  936MPD2    C513691   2.099   0.107  12.069  0.4199 -0.5140 -0.0275
  936MPD2     H13692   2.053   0.396  12.304 -1.3910  0.4674 -0.6717
  936MPD2    H113693   2.192   0.241  11.934  0.8226  1.0809  0.1421
  936MPD2    H213694   2.032   4.707  12.226  0.2644  0.5005 -0.4957
  936MPD2    H313695   2.109   0.015  12.012 -0.5654 -0.4900 -0.2344
  936MPD2     N13696   2.186   0.460  12.076  0.4046  0.0266 -0.1967
  936MPD2    H513697   2.167   0.531  12.146 -0.0762 -0.4309  0.1389
  936MPD2    N113698   2.008   0.189  12.421  0.0368 -0.0940  0.7112
  936MPD2    H713699   1.988   0.282  12.458  0.6381  1.3505 -2.5799
  937MPD2     C13700   4.516   1.610  11.613 -0.3508  0.0039 -0.3706
  937MPD2    C113701   4.515   1.748  11.594  0.4172 -0.2446  0.2290
  937MPD2    C213702   4.583   1.799  11.482 -0.1162 -0.1323  1.1056
  937MPD2    C313703   4.667   1.724  11.409 -0.5432  0.5405 -0.0769
  937MPD2    C413704   4.677   1.592  11.433 -0.2285 -0.2223  0.7819
  937MPD2    C513705   4.598   1.531  11.538 -0.3001  0.7820 -0.1299
  937MPD2     H13706   4.590   1.903  11.451 -0.6297 -0.3076  0.3944
  937MPD2    H113707   0.007   1.514  11.382  0.6729  1.1071 -0.2670
  937MPD2    H213708   4.443   1.561  11.676 -0.2617  2.6007  1.7885
  937MPD2    H313709   4.600   1.424  11.558  1.2972  0.2636 -3.1023
  937MPD2     N13710   4.723   1.786  11.301 -0.0947  0.3336  0.2509
  937MPD2    H513711   4.697   1.884  11.289  1.5737  0.7249 -0.2501
  937MPD2    N113712   4.418   1.829  11.655 -0.1022 -0.0755 -0.9130
  937MPD2    H713713   4.408   1.921  11.614  4.7647  0.6920 -0.3149
  938MPD2     C13714   1.626   3.640   0.309 -0.8224  0.7337 -0.5933
  938MPD2    C113715   1.676   3.647   0.438 -0.0897 -0.3826  0.0088
  938MPD2    C213716   1.631   3.557   0.531  0.1355 -0.0457  0.7041
  938MPD2    C313717   1.554   3.449   0.491 -0.0843  0.1963 -0.4322
  938MPD2    C413718   1.516   3.439   0.363  0.3327  0.4523  0.4308
  938MPD2    C513719   1.543   3.533   0.278  0.1140  1.0715  0.6121
  938MPD2     H13720   1.651   3.570   0.636 -0.5060  3.6567  0.3854
  938MPD2    H113721   1.445   3.361   0.335 -0.3889  1.3476 -0.2436
  938MPD2    H213722   1.660   3.696   0.223  1.8592  2.3020  1.4847
  938MPD2    H313723   1.508   3.507   0.179  2.7163  3.7590 -1.0296
  938MPD2     N13724   1.511   3.341   0.578 -0.5371 -0.3959 -0.0154
  938MPD2    H513725   1.435   3.280   0.549 -1.2698  0.7339 -0.5054
  938MPD2    N113726   1.764   3.760   0.471 -0.3085 -0.3158 -0.4569
  938MPD2    H713727   1.801   3.756   0.566  0.1444  2.5549 -0.5052
  939MPD2     C13728   3.456   3.904   1.030 -0.0833 -0.2876 -0.0548
  939MPD2    C113729   3.458   4.038   1.036 -0.3163 -0.0535 -0.1284
  939MPD2    C213730   3.534   4.096   0.935  0.3810 -0.1869  0.6054
  939MPD2    C313731   3.593   4.028   0.829  0.2514  0.0704  0.5955
  939MPD2    C413732   3.593   3.891   0.837 -0.2840 -0.3581  0.2136
  939MPD2    C513733   3.521   3.830   0.937  0.1735 -0.0084 -0.1206
  939MPD2     H13734   3.567   4.198   0.949 -0.2448  0.3761 -2.0110
  939MPD2    H113735   3.640   3.825   0.765  2.4179  1.4514  0.3115
  939MPD2    H213736   3.404   3.851   1.109 -1.5662 -0.1462 -0.9311
  939MPD2    H313737   3.508   3.722   0.943  0.0028  0.0164 -0.0489
  939MPD2     N13738   3.664   4.100   0.728  0.4049 -0.5523 -0.0476
  939MPD2    H513739   3.650   4.200   0.739  0.9610 -0.2369 -2.2486
  939MPD2    N113740   3.408   4.108   1.144 -0.5660  0.0666 -0.5792
  939MPD2    H713741   3.358   4.047   1.208 -0.9258 -0.0940 -1.0137
  940MPD2     C13742   2.360   0.457  12.638 -0.0560 -0.1491  0.0635
  940MPD2    C113743   2.361   0.338  12.708  0.5509 -0.3178  0.0284
  940MPD2    C213744   2.366   0.219  12.630  0.5939  0.0820 -0.1806
  940MPD2    C313745   2.382   0.230  12.492  0.3053  0.7023 -0.5914
  940MPD2    C413746   2.376   0.344  12.427  0.1625  0.1913  0.1469
  940MPD2    C513747   2.368   0.464  12.496 -0.4881 -0.0154  0.3040
  940MPD2     H13748   2.364   0.120  12.676  1.5389 -0.6604 -1.7347
  940MPD2    H113749   2.375   0.349  12.319  0.3137  2.2783  0.2435
  940MPD2    H213750   2.355   0.554  12.688 -0.4698 -0.3562  0.4272
  940MPD2    H313751   2.368   0.559  12.445  1.3131 -0.0662  0.2096
  940MPD2     N13752   2.399   0.117  12.411 -0.3146  0.3012 -0.1896
  940MPD2    H513753   2.437   0.134  12.318 -2.5894  1.5045 -0.8895
  940MPD2    N113754   2.341   0.317  12.848 -0.2783  0.2363  0.0007
  940MPD2    H713755   2.322   0.223  12.879  2.0591  0.5652  2.3566
  941MPD2     C13756   1.298   4.056   9.392 -0.3750 -0.6389  0.0856
  941MPD2    C113757   1.401   4.009   9.469  0.0208 -0.0075  0.2200
  941MPD2    C213758   1.374   3.895   9.540 -0.0490 -0.1946  0.1481
  941MPD2    C313759   1.257   3.825   9.523 -0.2607  0.4054  0.5385
  941MPD2    C413760   1.152   3.879   9.450 -0.0253  0.5211 -0.2986
  941MPD2    C513761   1.173   3.995   9.385 -0.2918  0.3821  0.2364
  941MPD2     H13762   1.459   3.856   9.594 -0.0865 -1.2549 -0.5576
  941MPD2    H113763   1.054   3.833   9.446  0.1939 -0.0721  1.0153
  941MPD2    H213764   1.304   4.148   9.335  0.4467 -0.1698  0.9456
  941MPD2    H313765   1.089   4.041   9.334  0.0685  1.3641  0.5325
  941MPD2     N13766   1.230   3.702   9.585 -0.0529 -1.0167 -0.3796
  941MPD2    H513767   1.140   3.657   9.570 -0.8879  0.4105  0.3281
  941MPD2    N113768   1.527   4.069   9.478  0.6381  0.4052 -0.2791
  941MPD2    H713769   1.598   4.010   9.521  0.7351  0.1748 -0.7601
  942MPD2     C13770   1.230   0.867   9.368  0.2750 -0.0264  0.1127
  942MPD2    C113771   1.364   0.838   9.398  0.5556 -0.1970 -0.4593
  942MPD2    C213772   1.443   0.940   9.449  0.6695 -0.7407  0.0821
  942MPD2    C313773   1.388   1.060   9.490 -0.9517  0.5661  0.2860
  942MPD2    C413774   1.254   1.084   9.465 -0.5807 -0.5326  0.2298
  942MPD2    C513775   1.178   0.990   9.393  0.3860  0.5834  0.1120
  942MPD2     H13776   1.549   0.920   9.463  1.4105  1.3527 -2.5908
  942MPD2    H113777   1.214   1.181   9.492  1.8947  0.7666 -0.6907
  942MPD2    H213778   1.166   0.798   9.313  1.2311 -0.5199 -0.3898
  942MPD2    H313779   1.079   1.014   9.354  0.2204 -0.2978 -0.0131
  942MPD2     N13780   1.464   1.165   9.541  0.1911 -0.0602  0.2648
  942MPD2    H513781   1.409   1.249   9.556 -0.4597 -0.4553  0.0815
  942MPD2    N113782   1.425   0.716   9.362 -0.2820 -0.4765 -0.4365
  942MPD2    H713783   1.526   0.701   9.359  0.1909  2.5774  0.2548
  943MPD2     C13784   0.373   3.796   9.664  0.0328 -0.5668 -0.0884
  943MPD2    C113785   0.266   3.733   9.719 -0.3017  0.0045 -0.9349
  943MPD2    C213786   0.137   3.755   9.674 -0.2664 -0.2057 -0.0662
  943MPD2    C313787   0.108   3.844   9.577 -0.1514  0.1434  0.0272
  943MPD2    C413788   0.214   3.912   9.519 -0.4071 -0.0813  0.7101
  943MPD2    C513789   0.341   3.884   9.563 -0.0449 -0.7095  0.3966
  943MPD2     H13790   0.051   3.700   9.711 -1.2968  1.7423  0.4226
  943MPD2    H113791   0.194   3.994   9.451 -0.8348 -1.4038 -0.7525
  943MPD2    H213792   0.478   3.784   9.689  0.3432  0.7288 -0.7949
  943MPD2    H313793   0.427   3.933   9.518 -1.6120 -0.4647 -2.3188
  943MPD2     N13794   4.702   3.876   9.535  0.3576  0.6172  0.4001
  943MPD2    H513795   4.694   3.949   9.465  0.0731  1.6049  1.4539
  943MPD2    N113796   0.296   3.639   9.818 -0.5223 -0.0538  0.2455
  943MPD2    H713797   0.395   3.627   9.837 -0.2188  0.0873 -1.2635
  944MPD2     C13798   1.124   2.780  11.448 -0.9570  0.1358 -0.2845
  944MPD2    C113799   1.036   2.796  11.338  0.1776 -0.7770 -0.2456
  944MPD2    C213800   0.910   2.845  11.361  0.1298 -0.4808  0.3267
  944MPD2    C313801   0.877   2.872  11.495  0.5664  0.0008 -0.4409
  944MPD2    C413802   0.959   2.852  11.606  0.7263 -0.2283 -0.2395
  944MPD2    C513803   1.082   2.804  11.578  0.7539 -0.9663 -0.3887
  944MPD2     H13804   0.836   2.872  11.287  0.6780  2.8919  0.9938
  944MPD2    H113805   0.932   2.859  11.710 -0.7117 -1.0149 -0.5709
  944MPD2    H213806   1.230   2.760  11.434 -1.1763 -1.2031 -0.0349
  944MPD2    H313807   1.163   2.800  11.649 -0.3107 -0.8873  0.8238
  944MPD2     N13808   0.740   2.920  11.519 -0.2079  0.1647  0.5245
  944MPD2    H513809   0.684   2.896  11.437 -0.5606 -1.4789  1.2347
  944MPD2    N113810   1.083   2.771  11.203 -0.7189 -0.0105 -0.0222
  944MPD2    H713811   1.183   2.773  11.184 -0.1960  0.0984  2.7094
    1TCq1    O113812   2.911   4.665  15.740  0.0296  0.5158 -0.6363
    1TCq1    C113813   2.912   4.605  15.619 -0.1179  0.6697  0.1951
    1TCq1    O213814   2.906   4.484  15.611  0.3359  0.7108 -0.0490
    1TCq1    C213815   2.981   4.698  15.532  0.5098  0.2291 -0.5322
    1TCq1    C313816   3.060   4.650  15.430  0.6143 -0.1381  0.0467
    1TCq1    C413817   3.114   0.018  15.353  0.2157 -0.0782 -0.0272
    1TCq1    C513818   3.100   0.156  15.369  0.0171  0.6165 -0.2903
    1TCq1    C613819   3.022   0.202  15.468 -0.1573 -0.6145  0.2537
    1TCq1    C713820   2.957   0.108  15.555 -0.0461 -0.4508 -0.0793
    1TCq1    C813821   2.969   0.339  15.458  0.6024  0.4706 -0.4088
    1TCq1    O413822   2.907   0.380  15.551 -0.7056  0.1852 -0.1477
    1TCq1    C913823   3.193   4.696  15.242  0.0565 -0.7540  0.2937
    1TCq1    O513824   3.195   4.575  15.213  0.0420  0.8017 -0.0833
    1TCq1    O613825   3.252   0.055  15.173 -0.2606 -0.5766 -0.2743
    1TCq1    H113826   2.941   0.033  15.749 -1.4734  1.1042 -1.7421
    1TCq1    H213827   3.077   4.545  15.412  0.7992 -0.0909 -0.0553
    1TCq1    H313828   3.158   0.215  15.298  1.2308 -0.0825  0.1235
    1TCq1    H413829   2.875   0.144  15.616 -1.8823 -2.0937 -1.5821
    2MPD2     C13830   2.790   0.743  15.187 -0.3277 -0.1598  0.0175
    2MPD2    C113831   2.860   0.659  15.104 -0.1803  0.2109  0.5870
    2MPD2    C213832   2.910   0.536  15.144  0.2506  0.7854  0.1113
    2MPD2    C313833   2.899   0.495  15.278  0.3159 -0.0192  0.0240
    2MPD2    C413834   2.838   0.586  15.363  0.1942  0.1502  0.1417
    2MPD2    C513835   2.791   0.712  15.320  0.1655  0.2192  0.2374
    2MPD2     H13836   2.981   0.478  15.087  1.1239 -0.5188  2.5275
    2MPD2    H113837   2.833   0.570  15.470 -1.2812 -1.4980 -0.1760
    2MPD2    H213838   2.748   0.836  15.148 -1.4180 -0.3725  0.6858
    2MPD2    H313839   2.750   0.789  15.385 -1.7362 -1.2623  0.8070
    2MPD2     N13840   2.963   0.378  15.327 -0.0008 -0.2202 -0.1916
    2MPD2    H513841   3.000   0.318  15.254  1.2241  0.3968 -0.0717
    2MPD2    N113842   2.889   0.714  14.978 -0.6489 -0.2426  0.1461
    2MPD2    H713843   2.854   0.807  14.960  0.0123 -0.3430 -1.6387
    3TMC2    C113844   2.911   0.688  14.744 -0.7633 -0.4373  0.5514
    3TMC2    C213845   2.933   0.820  14.730 -0.3555  0.6207  0.5969
    3TMC2    C313846   2.916   0.879  14.601  0.4297 -0.9511 -0.6090
    3TMC2    C413847   2.880   0.607  14.633  0.2884  0.0643  0.6228
    3TMC2    C513848   2.859   0.667  14.516  0.1781 -0.5417 -0.6310
    3TMC2    C613849   2.879   0.805  14.490 -0.4545 -0.2881 -0.2439
    3TMC2     C13850   2.917   0.630  14.873 -0.5839  1.1801 -0.4262
    3TMC2     O13851   2.926   0.508  14.873 -0.6180 -0.2749  0.4089
    3TMC2     H13852   2.961   0.890  14.808  1.7465  0.7842 -0.2787
    3TMC2    H113853   2.853   0.503  14.649 -0.3625  0.2544  0.7465
    3TMC2    H213854   2.871   0.851  14.392 -0.5790 -0.6548 -0.4038
    3TMC2    C713855   2.836   0.579  14.408 -0.4645 -0.7332 -0.1891
    3TMC2    C813856   2.949   1.019  14.587  0.4993  0.2041  0.5777
    3TMC2    O113857   2.830   0.462  14.444 -0.2152 -0.3370 -0.5371
    3TMC2    O213858   2.874   1.110  14.621  0.2006 -0.6595 -0.6491
    3TMC2    O513859   3.044   1.028  14.486 -0.5901 -0.7839  0.6070
    3TMC2    H513860   3.088   0.940  14.487 -0.0748 -0.5194  1.9713
    4MPD2     C13861   1.908   1.098  13.406 -0.6733 -0.2176 -0.3961
    4MPD2    C113862   1.948   1.005  13.310  0.6936 -0.8438  0.1783
    4MPD2    C213863   2.072   0.952  13.317 -0.1384  0.2963  0.3518
    4MPD2    C313864   2.161   1.010  13.401 -0.3410 -0.6960  0.1292
    4MPD2    C413865   2.128   1.106  13.491 -0.5404 -0.2554 -0.4796
    4MPD2    C513866   1.995   1.149  13.493 -0.1607 -0.1801 -0.3945
    4MPD2     H13867   2.108   0.875  13.249 -2.4982 -0.3856 -0.1119
    4MPD2    H113868   2.188   1.148  13.571  0.1879  0.2564 -1.2862
    4MPD2    H213869   1.804   1.126  13.414 -0.3229  1.7028 -2.5240
    4MPD2    H313870   1.968   1.227  13.564 -3.4648 -0.6369 -1.1896
    4MPD2     N13871   2.295   0.967  13.409  0.6084 -0.0033  0.4662
    4MPD2    H513872   2.302   0.876  13.364 -2.2528  0.2965 -0.5983
    4MPD2    N113873   1.842   0.954  13.232 -0.1609 -0.2182 -0.2423
    4MPD2    H713874   1.756   1.006  13.218 -0.4036 -1.1151 -1.9976
    5TCq2    C113875   2.398   1.010  13.497 -0.3287 -1.0492 -1.0989
    5TCq2    O213876   2.423   1.115  13.553  0.5312  0.1789 -0.3877
    5TCq2    C213877   2.511   0.915  13.496 -0.4901  0.0865  0.2426
    5TCq2    C313878   2.528   0.820  13.400 -0.9367 -0.4094  0.0443
    5TCq2    C413879   2.616   0.723  13.430  0.3870 -0.1456 -0.4558
    5TCq2    C513880   2.689   0.717  13.546 -0.5214  0.3876 -0.4747
    5TCq2    C613881   2.673   0.821  13.634  0.0939 -0.2422  0.0347
    5TCq2    C713882   2.588   0.919  13.605 -0.2300  0.1394 -0.1854
    5TCq2    C813883   2.712   0.795  13.777  0.0292 -0.2881 -0.4762
    5TCq2    O413884   2.717   0.883  13.857  0.7534 -0.3802 -0.2405
    5TCq2    C913885   2.628   0.609  13.345  0.5342 -0.1616 -0.2719
    5TCq2    O513886   2.517   0.561  13.309 -0.3231 -0.1993 -0.9030
    5TCq2    O613887   2.732   0.532  13.354 -0.3996  0.0973  0.2030
    5TCq2    H213888   2.470   0.820  13.309  0.3030  1.3002 -0.7390
    5TCq2    H313889   2.761   0.640  13.566 -0.6608  0.4651  0.3345
    5TCq2    H413890   2.561   0.970  13.697  2.3985 -1.9693  1.7566
    6MPD1     C13891   1.366   1.572  11.581  0.0094 -0.0716 -0.1612
    6MPD1    C113892   1.318   1.663  11.675  0.1065 -0.4442 -0.1451
    6MPD1    C213893   1.354   1.647  11.803 -0.5776 -0.0174 -0.1808
    6MPD1    C313894   1.436   1.543  11.839  0.3232  0.4518  0.3847
    6MPD1    C413895   1.489   1.460  11.752  0.7093 -0.9066  0.2951
    6MPD1    C513896   1.442   1.470  11.619 -0.4685  0.8662 -0.3897
    6MPD1     H13897   1.321   1.716  11.879 -1.5948 -0.9845  0.2554
    6MPD1    H113898   1.546   1.370  11.775 -1.2331 -2.5628 -1.4306
    6MPD1    H213899   1.341   1.579  11.476 -1.9390  0.1865  0.3063
    6MPD1    H313900   1.477   1.405  11.540 -1.6190 -1.0004  0.6376
    6MPD1     N13901   1.473   1.517  11.975 -0.7719  0.1584 -0.1024
    6MPD1    H513902   1.546   1.447  11.987  0.7251  1.8277  0.6480
    6MPD1    N113903   1.254   1.775  11.628  0.3605 -0.7112  0.0282
    6MPD1    H613904   1.191   1.817  11.697 -1.6156 -2.0632 -0.9603
    6MPD1    H713905   1.218   1.757  11.535  0.3347  2.4210 -0.5861
    7MPD2     C13906   1.331   1.435  12.829 -0.8394 -0.3246  0.6713
    7MPD2    C113907   1.387   1.348  12.736 -0.1271  0.2079  0.5508
    7MPD2    C213908   1.411   1.220  12.781  0.1270 -0.3451  0.0957
    7MPD2    C313909   1.376   1.174  12.904 -0.0225 -0.6766  0.0323
    7MPD2    C413910   1.318   1.262  12.996 -0.3104  0.8829 -0.2609
    7MPD2    C513911   1.291   1.390  12.953  0.4117 -0.7354  0.5127
    7MPD2     H13912   1.466   1.150  12.719  1.2047  2.5048 -2.2051
    7MPD2    H113913   1.301   1.233  13.099  0.5890  0.0963 -0.3299
    7MPD2    H213914   1.317   1.539  12.801  1.1628 -0.3337 -0.3636
    7MPD2    H313915   1.262   1.461  13.030 -0.6737 -1.1423  0.4876
    7MPD2     N13916   1.417   1.043  12.927  0.4138  0.6053  0.6132
    7MPD2    H513917   1.476   1.000  12.857  2.5537  0.6656  2.3801
    7MPD2    N113918   1.449   1.383  12.613  0.0080 -0.2196 -0.2051
    7MPD2    H713919   1.483   1.306  12.556  1.0387  0.2823 -0.2683
    8TMC3    C113920   1.497   0.863  13.049 -0.2158 -0.4804  0.0662
    8TMC3    C213921   1.613   0.881  13.119 -0.2532 -0.0256 -1.1418
    8TMC3    C313922   1.729   0.849  13.061  0.8408 -0.4104  0.6793
    8TMC3    C413923   1.505   0.816  12.920  0.2847  0.4085 -0.0490
    8TMC3    C513924   1.622   0.765  12.869 -0.4337  0.3615  0.3868
    8TMC3    C613925   1.740   0.779  12.940 -0.3544 -0.4782 -0.3308
    8TMC3     C13926   1.411   0.979  13.054 -0.0554  1.0333  0.2360
    8TMC3     O13927   1.343   1.004  13.152  0.2254  0.5895  0.4022
    8TMC3     H13928   1.599   0.916  13.220 -0.2347  0.4410 -1.3011
    8TMC3    H113929   1.420   0.803  12.854  0.0683  2.1140 -0.1056
    8TMC3    H213930   1.833   0.741  12.899 -1.0239 -1.4030 -0.9903
    8TMC3    C713931   1.629   0.828  12.737 -0.0368  0.0460  0.3526
    8TMC3    C813932   1.854   0.860  13.134 -0.1850  0.7109  0.4461
    8TMC3    O113933   1.563   0.932  12.736 -0.0298  0.4247 -0.4448
    8TMC3    O213934   1.951   0.801  13.096  0.1323 -0.2442  0.4433
    9TMC3    C113935   1.529   1.545  12.201 -0.5691 -1.0119 -0.1176
    9TMC3    C213936   1.625   1.444  12.186 -0.0508 -0.2101  0.1389
    9TMC3    C313937   1.662   1.380  12.303  1.1122  0.5770  0.4629
    9TMC3    C413938   1.469   1.572  12.328 -0.2873 -0.1148  0.1107
    9TMC3    C513939   1.527   1.504  12.433 -0.4996 -0.4009 -0.7181
    9TMC3    C613940   1.614   1.403  12.428  0.3514  0.2835 -0.8482
    9TMC3     C13941   1.446   1.593  12.086 -0.1284 -0.3629  0.4207
    9TMC3     O13942   1.388   1.699  12.095 -0.0314 -0.1120 -0.3659
    9TMC3     H13943   1.682   1.423  12.096 -1.0845 -1.4422 -0.2316
    9TMC3    H113944   1.380   1.634  12.325 -1.0373 -1.3068 -1.7946
    9TMC3    H213945   1.657   1.357  12.517 -1.3397 -2.0870 -1.2672
    9TMC3    C713946   1.449   1.509  12.558  0.0002 -0.2103  0.8296
    9TMC3    C813947   1.731   1.251  12.276 -0.0410  0.0335  0.1875
    9TMC3    O113948   1.399   1.614  12.588 -0.5935 -1.1694  0.0184
    9TMC3    O213949   1.775   1.239  12.161 -0.0913 -0.2491 -0.3312
   10MPD2     C13950   1.803   0.775  12.432  0.3002 -0.4341  0.0694
   10MPD2    C113951   1.757   0.850  12.533  0.2766  0.1799 -0.1727
   10MPD2    C213952   1.746   0.982  12.524 -0.5308 -0.5575 -0.4190
   10MPD2    C313953   1.769   1.042  12.399  0.4822 -0.5583  0.4031
   10MPD2    C413954   1.813   0.969  12.295 -0.1177  0.1741  0.5755
   10MPD2    C513955   1.833   0.835  12.313  0.1349  0.7486  0.4653
   10MPD2     H13956   1.717   1.036  12.614  2.1399  1.9321 -1.0567
   10MPD2    H113957   1.831   1.009  12.196  0.3072 -0.9380  0.2050
   10MPD2    H213958   1.801   0.666  12.436 -2.1062 -0.3953 -0.0318
   10MPD2    H313959   1.859   0.767  12.233 -0.4421  1.2629 -0.1544
   10MPD2     N13960   1.733   1.177  12.392 -0.3300 -0.7704 -0.5325
   10MPD2    H513961   1.700   1.218  12.479  0.0976 -1.6332  0.0307
   10MPD2    N113962   1.715   0.777  12.650 -0.6631  0.0291  0.2741
   10MPD2    H713963   1.745   0.681  12.662  1.5636  0.6173 -0.4716
   11MPD2     C13964   2.768   0.435  14.162  0.6738 -0.2909 -0.0739
   11MPD2    C113965   2.771   0.575  14.165 -0.3312  0.5023  1.3542
   11MPD2    C213966   2.742   0.651  14.049  0.6507 -0.1389 -0.2531
   11MPD2    C313967   2.717   0.589  13.927 -0.4713  0.0973 -0.0957
   11MPD2    C413968   2.724   0.453  13.921 -0.1057  0.4996  0.6871
   11MPD2    C513969   2.736   0.386  14.038 -0.9571  0.2574  0.1306
   11MPD2     H13970   2.750   0.759  14.046 -0.7788 -0.0593 -1.1488
   11MPD2    H113971   2.700   0.401  13.829 -1.3493 -1.4544  2.1158
   11MPD2    H213972   2.787   0.372  14.248  0.9385 -0.3815 -0.2006
   11MPD2    H313973   2.715   0.280  14.035 -1.0149  0.2970 -0.6550
   11MPD2     N13974   2.699   0.662  13.801 -0.1506 -0.0794 -0.9780
   11MPD2    H513975   2.666   0.605  13.723 -2.5927  1.5121 -1.1120
   11MPD2    N113976   2.812   0.639  14.287  0.4204 -0.4195 -0.5239
   11MPD2    H713977   2.802   0.740  14.280 -1.5398 -0.5845 -0.1198
    1MPD1     C13978   4.240   2.184  16.356  0.2526 -0.0922  0.2474
    1MPD1    C113979   4.289   2.074  16.292 -0.2404  0.3486 -0.2194
    1MPD1    C213980   4.405   2.015  16.350 -0.7512  0.4932 -0.2034
    1MPD1    C313981   4.463   2.067  16.461  0.2524  0.7868 -0.0467
    1MPD1    C413982   4.411   2.180  16.522  0.1610 -0.1396  0.4145
    1MPD1    C513983   4.296   2.230  16.471 -0.0624  0.2723  0.3358
    1MPD1     H13984   4.438   1.922  16.305 -0.6495 -0.3912  1.7174
    1MPD1    H113985   4.459   2.212  16.613  0.5504  1.4423 -0.3433
    1MPD1    H213986   4.144   2.225  16.328  0.0908 -0.5096  0.1892
    1MPD1    H313987   4.258   2.318  16.521 -2.3473  0.4390 -1.6951
    1MPD1     N13988   4.577   2.003  16.515  0.2814  0.1777  0.6871
    1MPD1    H513989   4.616   2.050  16.596  0.3212 -0.9152  1.2982
    1MPD1    N113990   4.231   2.011  16.185  0.1745  0.6200 -0.0598
    1MPD1    H613991   4.300   1.976  16.119  0.4610  1.2485 -0.0902
    1MPD1    H713992   4.168   2.079  16.142 -2.1336 -0.2751  1.8999
    2MPD1     C13993   0.331   2.193  17.212  0.3893 -0.2793  0.0650
    2MPD1    C113994   0.275   2.262  17.113 -0.0058  0.0880 -1.0889
    2MPD1    C213995   0.212   2.184  17.010  0.5113  0.3376 -0.1858
    2MPD1    C313996   0.188   2.045  17.020 -0.2438 -0.6180 -0.6124
    2MPD1    C413997   0.234   1.985  17.137 -0.5541  0.4373 -0.1526
    2MPD1    C513998   0.315   2.055  17.221 -0.3795  0.1202  0.5057
    2MPD1     H13999   0.191   2.232  16.916 -2.9418 -2.4075 -0.8125
    2MPD1    H114000   0.209   1.881  17.157  1.0827  0.3047  1.2165
    2MPD1    H214001   0.398   2.247  17.279 -1.5773  1.4436  0.6452
    2MPD1    H314002   0.365   2.002  17.302  0.2654  0.3242  0.2415
    2MPD1     N14003   0.111   1.985  16.922 -0.2255 -0.3243 -0.0532
    2MPD1    H514004   0.078   2.049  16.850 -2.8375  0.1654  1.5791
    2MPD1    N114005   0.318   2.390  17.084  0.0867 -0.4570  0.5321
    2MPD1    H614006   0.331   2.441  17.171  1.6212 -2.0185  1.2111
    2MPD1    H714007   0.249   2.443  17.030 -0.1022  0.5329  1.7439
    3TMC3    C114008   0.089   1.798  16.777  0.3021  0.3719 -0.5070
    3TMC3    C214009   0.161   1.694  16.736 -0.4680 -0.1427 -0.5259
    3TMC3    C314010   0.171   1.680  16.605  0.1793 -0.1278 -0.3611
    3TMC3    C414011   0.007   1.871  16.693  0.0758 -0.0325  0.1786
    3TMC3    C514012   0.012   1.833  16.557 -0.7722  0.4549  0.3568
    3TMC3    C614013   0.102   1.745  16.513 -0.1122 -0.9371 -0.9769
    3TMC3     C14014   0.117   1.846  16.913 -0.0416  0.3049  0.4769
    3TMC3     O14015   0.166   1.759  16.980 -0.1131 -0.3653  1.0684
    3TMC3     H14016   0.224   1.637  16.804  0.3813  1.2450 -0.1617
    3TMC3    H114017   4.655   1.938  16.728  0.7210  0.0427  1.4654
    3TMC3    H214018   0.106   1.724  16.407 -0.6973  1.0403 -1.3938
    3TMC3    C714019   4.645   1.897  16.460 -0.3173 -0.4340 -0.0677
    3TMC3    C814020   0.271   1.578  16.566  0.0154  0.0231 -0.4153
    3TMC3    O114021   4.638   1.845  16.354  0.2102 -0.4156  0.5024
    3TMC3    O214022   0.311   1.504  16.654  0.8364 -0.1967  0.3192
    4MPD1     C14023   0.677   1.437  16.276 -0.0767  0.8397 -0.1443
    4MPD1    C114024   0.612   1.543  16.208 -0.7467  0.5053 -0.5257
    4MPD1    C214025   0.493   1.591  16.275 -0.1849 -0.4343  0.1493
    4MPD1    C314026   0.437   1.539  16.390  0.2639 -0.1715 -0.2781
    4MPD1    C414027   0.503   1.431  16.447  0.3941 -0.2321  0.3106
    4MPD1    C514028   0.617   1.382  16.386 -0.0166  0.1463  0.5407
    4MPD1     H14029   0.440   1.679  16.238 -1.0664 -2.0299 -2.3730
    4MPD1    H114030   0.462   1.386  16.536  0.3982 -0.8649 -0.0096
    4MPD1    H214031   0.769   1.401  16.231 -1.4822 -1.9148 -0.8119
    4MPD1    H314032   0.670   1.306  16.442  1.8644 -1.3884 -3.3485
    4MPD1     N14033   0.331   1.607  16.450  0.6903 -0.3107  0.7642
    4MPD1    H514034   0.285   1.683  16.401  1.4813 -0.6167 -0.4707
    4MPD1    N114035   0.674   1.615  16.110  0.3856 -0.1091  0.6264
    4MPD1    H614036   0.746   1.564  16.058  0.5670 -1.8842  2.6198
    4MPD1    H714037   0.605   1.657  16.048  0.2994  0.4094  1.0761
    1TCq1    O114038   1.910   2.185  11.522  0.4114 -0.0949 -0.4044
    1TCq1    C114039   1.886   2.199  11.389 -1.1102  0.2269  0.1805
    1TCq1    O214040   1.812   2.279  11.336  0.1529  0.3586 -0.0084
    1TCq1    C214041   1.986   2.117  11.327  0.6903 -0.5467 -0.5771
    1TCq1    C314042   2.008   1.996  11.392  0.3069  0.3375  0.2923
    1TCq1    C414043   2.101   1.906  11.343 -0.4421  0.0184 -0.8780
    1TCq1    C514044   2.189   1.955  11.246  0.0611  0.1817  0.9018
    1TCq1    C614045   2.174   2.084  11.196  0.4612 -0.1058  0.5267
    1TCq1    C714046   2.064   2.170  11.226  0.2214 -0.3605 -0.3295
    1TCq1    C814047   2.237   2.129  11.076 -0.6338  0.6905  0.2828
    1TCq1    O414048   2.258   2.251  11.074  0.0423  0.5027 -0.5210
    1TCq1    C914049   2.139   1.805  11.427 -0.5628  0.2169 -0.3257
    1TCq1    O514050   2.189   1.705  11.379 -0.3090  0.4133  0.1468
    1TCq1    O614051   2.097   1.813  11.544  0.0539 -0.4266  0.7456
    1TCq1    H114052   1.978   2.117  11.538  0.4152 -0.3219 -1.4386
    1TCq1    H214053   1.931   1.962  11.460  2.2918 -1.6582  1.5500
    1TCq1    H314054   2.283   1.903  11.233 -1.0427 -0.9741 -2.6118
    1TCq1    H414055   2.044   2.261  11.170 -2.8942  0.0726  1.4917
    2MPD1     C14056   2.481   2.046  10.637 -0.4742 -0.0673  0.0400
    2MPD1    C114057   2.418   1.924  10.663  0.5809  0.0652  0.2360
    2MPD1    C214058   2.358   1.918  10.790  0.5582  0.4699  0.5155
    2MPD1    C314059   2.348   2.026  10.874 -0.1811  0.5668 -0.3991
    2MPD1    C414060   2.388   2.150  10.835 -0.7380 -0.3265 -0.1130
    2MPD1    C514061   2.470   2.151  10.725  0.1930  0.2989  0.5636
    2MPD1     H14062   2.317   1.821  10.813  0.8922 -0.1634 -1.4861
    2MPD1    H114063   2.393   2.239  10.898  3.4886 -0.3887 -0.3473
    2MPD1    H214064   2.541   2.059  10.547 -1.9408 -0.3925 -0.9918
    2MPD1    H314065   2.512   2.248  10.704 -1.0363  0.4384 -1.2651
    2MPD1     N14066   2.281   2.018  10.995  0.2808 -0.1556 -0.2744
    2MPD1    H514067   2.253   1.922  11.011 -0.0964 -0.1455 -0.8725
    2MPD1    N114068   2.440   1.810  10.597 -0.0282 -0.2390 -0.1512
    2MPD1    H614069   2.444   1.828  10.497 -1.2086 -0.2612 -0.1955
    2MPD1    H714070   2.360   1.750  10.614 -0.7303  0.2609 -1.6841
    1TCq1    O114071   1.891   3.946  11.101 -0.0141  0.4651 -0.8685
    1TCq1    C114072   1.787   4.006  11.161  0.1892  0.4223  0.0867
    1TCq1    O214073   1.770   3.995  11.282  0.6223 -0.1728 -0.1471
    1TCq1    C214074   1.726   4.099  11.073  0.2583 -0.0447  0.1986
    1TCq1    C314075   1.806   4.179  10.986 -0.3114  0.1320 -0.0011
    1TCq1    C414076   1.778   4.314  10.977  0.4140 -0.6503 -0.2073
    1TCq1    C514077   1.669   4.365  11.044  0.2015  0.6823  0.2434
    1TCq1    C614078   1.582   4.284  11.116 -0.2757 -0.4892 -0.0034
    1TCq1    C714079   1.616   4.156  11.129 -0.1963  0.2161  0.1210
    1TCq1    C814080   1.472   4.341  11.189  0.9609  0.0973 -0.8085
    1TCq1    O414081   1.427   4.267  11.273 -0.0464  0.2185  0.4128
    1TCq1    C914082   1.889   4.406  10.981  0.2334  0.0221  0.1971
    1TCq1    O514083   2.002   4.355  10.955  0.4091  0.3928 -0.4066
    1TCq1    O614084   1.869   4.529  11.000 -0.4296 -0.8691  0.5141
    1TCq1    H114085   1.888   3.956  11.004 -0.7892  3.4756 -0.5286
    1TCq1    H214086   1.907   4.146  10.968 -0.0824  2.2085 -2.4875
    1TCq1    H314087   1.652   4.472  11.037 -1.2844  0.4479  0.2026
    1TCq1    H414088   1.559   4.092  11.196  0.1969 -0.8373 -0.5382
    2MPD1     C14089   1.076   4.664  11.236 -0.8227  0.0295  0.0689
    2MPD1    C114090   1.161   4.711  11.135 -0.2003  0.7576 -0.7722
    2MPD1    C214091   1.259   4.629  11.092  0.5033  0.7492 -0.0231
    2MPD1    C314092   1.296   4.517  11.164 -0.3625 -0.5200  0.3403
    2MPD1    C414093   1.214   4.471  11.265 -0.1178  1.0833  0.3402
    2MPD1    C514094   1.101   4.541  11.301  0.4271  0.0973  0.2422
    2MPD1     H14095   1.318   4.677  11.014 -0.1222  0.2867 -0.7750
    2MPD1    H114096   1.248   4.399  11.339 -0.5480 -2.7326 -3.1412
    2MPD1    H214097   1.002   4.724  11.287 -0.7550  1.0419 -1.0252
    2MPD1    H314098   1.039   4.503  11.381  0.0074 -0.8555 -0.5334
    2MPD1     N14099   1.416   4.452  11.132  0.5338  0.0793 -0.2182
    2MPD1    H514100   1.472   4.495  11.059  0.0856 -0.8465 -1.1043
    2MPD1    N114101   1.125   0.107  11.071 -0.4064  0.4569  0.5183
    2MPD1    H614102   1.204   0.136  11.013 -0.6814 -2.2577 -1.2283
    2MPD1    H714103   1.093   0.177  11.137 -0.5730 -1.7191  2.7190
    1MPD1     C14104   4.105   1.372  12.880  0.0229  0.3021  0.1718
    1MPD1    C114105   4.001   1.463  12.860 -0.7525 -1.1295  0.5370
    1MPD1    C214106   3.940   1.451  12.735  0.7815  0.0425  0.4257
    1MPD1    C314107   3.976   1.346  12.640  0.5566  0.0825 -0.5508
    1MPD1    C414108   4.081   1.262  12.671  0.3033  0.0891 -0.3563
    1MPD1    C514109   4.135   1.273  12.798  0.4937  0.6787  0.0544
    1MPD1     H14110   3.853   1.511  12.714  0.6535 -0.0111  0.7931
    1MPD1    H114111   4.101   1.170  12.618 -1.8931  0.0695 -1.1694
    1MPD1    H214112   4.170   1.374  12.968  0.7289  0.0956 -0.3414
    1MPD1    H314113   4.207   1.198  12.830 -0.8309  0.3995  2.4514
    1MPD1     N14114   3.903   1.337  12.520 -0.1076 -0.3903  0.5935
    1MPD1    H514115   3.829   1.404  12.502 -0.6232 -0.3717  2.7063
    1MPD1    N114116   3.993   1.573  12.949 -0.2433 -0.1665  0.2793
    1MPD1    H614117   3.897   1.607  12.946 -0.2563 -0.1968  0.3536
    1MPD1    H714118   4.019   1.537  13.040 -1.3165 -1.6040  0.0235
    2MPD1     C14119   3.082   1.913  11.276 -0.3195  0.2262 -0.3078
    2MPD1    C114120   3.023   1.817  11.191 -0.0259  0.2731 -0.1189
    2MPD1    C214121   3.103   1.752  11.096  0.2765 -0.2013  0.0192
    2MPD1    C314122   3.237   1.766  11.091  0.7911 -0.2444  0.0250
    2MPD1    C414123   3.293   1.849  11.183  0.5142  0.5945  0.0961
    2MPD1    C514124   3.221   1.922  11.272 -0.5331  0.6442 -0.8067
    2MPD1     H14125   3.050   1.685  11.029  0.1051  1.4458 -1.4773
    2MPD1    H114126   3.401   1.854  11.189  0.5319 -1.0484  1.0953
    2MPD1    H214127   3.025   1.981  11.338 -1.3265 -0.2090 -0.7533
    2MPD1    H314128   3.276   1.995  11.330  1.4609 -0.5068 -1.2428
    2MPD1     N14129   3.319   1.710  10.984  0.5645  0.2704 -0.4635
    2MPD1    H514130   3.418   1.730  10.977  0.9072 -1.3489 -0.1272
    2MPD1    N114131   2.887   1.808  11.177 -0.4659 -0.0410  0.2830
    2MPD1    H614132   2.863   1.715  11.142 -1.8602 -0.0746  1.3384
    2MPD1    H714133   2.832   1.834  11.259  0.1070 -0.2230  0.7255
    3MPD1     C14134   3.026   1.444  10.084 -0.2089 -0.5359 -0.0461
    3MPD1    C114135   2.969   1.404  10.201  0.2657 -0.0773  0.2696
    3MPD1    C214136   3.043   1.426  10.315 -0.1553  0.5777 -0.4743
    3MPD1    C314137   3.173   1.488  10.305  0.5629  0.3745  0.9809
    3MPD1    C414138   3.215   1.535  10.185 -0.4626  0.4539 -0.3052
    3MPD1    C514139   3.138   1.521  10.075  0.4869  0.1164  0.1717
    3MPD1     H14140   2.995   1.390  10.405  1.6254 -0.5110  0.0409
    3MPD1    H114141   3.300   1.598  10.161 -0.3767  0.3578 -0.2553
    3MPD1    H214142   2.974   1.446   9.989  0.1713  1.6143 -0.2110
    3MPD1    H314143   3.162   1.573   9.983 -0.9991  0.7918  0.1728
    3MPD1     N14144   3.252   1.506  10.427 -0.3381  0.7360  0.3286
    3MPD1    H514145   3.207   1.495  10.517 -1.0676  1.3755  0.0482
    3MPD1    N114146   2.842   1.347  10.211  0.2742  0.3150 -0.0525
    3MPD1    H614147   2.855   1.282  10.288 -0.7071 -0.8993 -0.9277
    3MPD1    H714148   2.822   1.295  10.126  0.0607 -0.2746  0.3580
    4MPD2     C14149   3.968   1.686  11.816 -0.1056  0.7346  0.5365
    4MPD2    C114150   4.039   1.573  11.847  0.0565 -0.0141 -0.2372
    4MPD2    C214151   4.119   1.518  11.751  0.4359  0.0331  0.5284
    4MPD2    C314152   4.126   1.569  11.625 -0.0575 -0.1314 -0.2325
    4MPD2    C414153   4.069   1.693  11.602  0.0737  0.0463 -0.4646
    4MPD2    C514154   3.987   1.746  11.698  0.0954 -0.2010 -0.3685
    4MPD2     H14155   4.193   1.443  11.777 -0.4698 -1.3730 -0.9317
    4MPD2    H114156   4.070   1.747  11.508 -0.8049  1.6606  0.4501
    4MPD2    H214157   3.898   1.728  11.888 -1.3655 -0.5092  0.0339
    4MPD2    H314158   3.919   1.826  11.673  1.5276  0.4797 -2.1330
    4MPD2     N14159   4.195   1.517  11.509 -0.3582 -0.3787 -0.6117
    4MPD2    H514160   4.196   1.569  11.422 -1.4015  2.0279  0.8231
    4MPD2    N114161   4.007   1.496  11.963 -0.1059 -0.0595  0.9756
    4MPD2    H714162   4.052   1.405  11.968  2.6895  1.4827  3.8748
    5TMC3    C114163   3.851   1.403  12.109  0.2818 -0.8662 -0.3466
    5TMC3    C214164   3.853   1.387  12.242 -0.6522  0.1927  0.0241
    5TMC3    C314165   3.856   1.262  12.291 -0.3613 -0.4604  0.2001
    5TMC3    C414166   3.845   1.293  12.028 -0.4721  0.4212  0.0062
    5TMC3    C514167   3.834   1.169  12.086 -0.1005  0.9005  0.5170
    5TMC3    C614168   3.848   1.150  12.218  0.6975 -0.0620  0.4835
    5TMC3     C14169   3.908   1.523  12.051 -0.8321 -0.4090  0.8379
    5TMC3     O14170   3.854   1.629  12.074 -0.3485  0.2147  0.0900
    5TMC3     H14171   3.868   1.472  12.308 -1.6054  2.1021 -2.2137
    5TMC3    H114172   3.815   1.315  11.927 -0.6452 -1.9835 -0.4727
    5TMC3    H214173   3.853   1.053  12.266  0.9156 -0.3555 -0.1304
    5TMC3    C714174   3.829   1.059  11.996 -0.0376  0.3643  0.1696
    5TMC3    C814175   3.916   1.239  12.425 -0.9471  0.1754 -0.1428
    5TMC3    O114176   3.811   0.947  12.044 -0.6162  0.4594 -0.0391
    5TMC3    O214177   3.971   1.131  12.433  0.6987 -0.0308 -0.0133
    6TMC3    C114178   3.364   1.595  10.781  0.5071  0.4823 -0.1804
    6TMC3    C214179   3.333   1.601  10.649  0.0487 -0.1849 -0.3440
    6TMC3    C314180   3.437   1.579  10.559  0.1615  0.6578 -0.0422
    6TMC3    C414181   3.490   1.550  10.825 -0.0736  0.0904 -0.6022
    6TMC3    C514182   3.592   1.534  10.730  0.0361 -0.4409  0.6329
    6TMC3    C614183   3.566   1.544  10.594  0.0867 -0.0567  1.1022
    6TMC3     C14184   3.268   1.636  10.879 -0.2744  0.4071  0.5897
    6TMC3     O14185   3.151   1.617  10.853  0.0276 -0.7980  0.3220
    6TMC3     H14186   3.238   1.644  10.620 -0.2795 -0.6052  0.1149
    6TMC3    H114187   3.506   1.547  10.932 -0.8915  2.4668 -0.4254
    6TMC3    H214188   3.642   1.540  10.517 -0.4653  2.0136  0.4525
    6TMC3    C714189   3.715   1.481  10.780  0.0375 -0.7507 -0.7574
    6TMC3    C814190   3.378   1.552  10.429 -0.7566 -0.2712 -0.0726
    6TMC3    O114191   3.724   1.459  10.899 -0.1626 -0.6964 -0.1208
    6TMC3    O214192   3.459   1.572  10.339 -0.0660  0.1657  0.2401
    7MPD2     C14193   3.939   0.920  11.516  0.0270 -0.3864 -0.4284
    7MPD2    C114194   4.005   1.042  11.542  0.3625 -0.5274  0.1920
    7MPD2    C214195   3.988   1.093  11.665 -0.1863 -0.4746 -0.1651
    7MPD2    C314196   3.911   1.036  11.768  0.3092 -0.1875 -0.6399
    7MPD2    C414197   3.834   0.923  11.733  0.3828  0.2373  1.2403
    7MPD2    C514198   3.855   0.860  11.610 -0.1040  0.4258 -0.0947
    7MPD2     H14199   4.035   1.189  11.683 -0.2453  0.3976 -4.5714
    7MPD2    H114200   3.775   0.872  11.808  1.6555 -2.2548  0.5801
    7MPD2    H214201   3.951   0.854  11.431  1.3325  2.0816 -2.1322
    7MPD2    H314202   3.817   0.763  11.581 -0.5676  0.2325  1.1879
    7MPD2     N14203   3.903   1.102  11.887  0.1026  0.1295  0.0064
    7MPD2    H514204   3.962   1.184  11.899 -0.9505  1.0504 -1.0795
    7MPD2    N114205   4.107   1.094  11.461  0.5756 -0.5733  0.0937
    7MPD2    H714206   4.151   1.178  11.499  1.1470 -0.1676 -1.4520
    8TMC3    C114207   4.277   1.116  11.302  0.1261 -0.1988 -0.4570
    8TMC3    C214208   4.245   1.161  11.176 -0.2445  0.9401 -0.5893
    8TMC3    C314209   4.245   1.299  11.155 -0.0141  0.0102 -0.1567
    8TMC3    C414210   4.321   1.200  11.401 -0.2635  0.5695  0.5188
    8TMC3    C514211   4.315   1.328  11.381 -0.3276 -0.0374  0.3132
    8TMC3    C614212   4.267   1.377  11.262  0.0329 -0.0316  0.5569
    8TMC3     C14213   4.163   1.034  11.354 -0.0310  0.0419 -0.2344
    8TMC3     O14214   4.135   0.928  11.302 -0.2250 -0.4721 -0.2841
    8TMC3     H14215   4.210   1.092  11.100  1.0635  0.1837 -0.5034
    8TMC3    H114216   4.361   1.162  11.494  0.0941 -0.3938 -0.0225
    8TMC3    H214217   4.242   1.483  11.257  0.1429 -0.0892 -1.2688
    8TMC3    C714218   4.258   1.395  11.505  0.6789  0.0689 -0.0398
    8TMC3    C814219   4.169   1.352  11.051 -0.4532 -0.0838 -0.1076
    8TMC3    O114220   4.251   1.316  11.597 -0.4014  0.1757 -0.2467
    8TMC3    O214221   4.068   1.407  11.091  0.0154  0.2298 -0.0216
    9MPD2     C14222   4.223   1.390  10.691 -0.1382  0.3480  0.0183
    9MPD2    C114223   4.147   1.372  10.810 -0.1194 -0.5125  0.2544
    9MPD2    C214224   4.007   1.400  10.807  0.0635 -0.3074  0.2031
    9MPD2    C314225   3.947   1.453  10.693  0.3622 -0.5107  0.1991
    9MPD2    C414226   4.029   1.490  10.588 -0.6637  0.2212  0.4625
    9MPD2    C514227   4.156   1.446  10.585  0.2666  0.1110 -0.2198
    9MPD2     H14228   3.951   1.381  10.898  0.8117  0.1887  0.7595
    9MPD2    H114229   3.991   1.522  10.492 -0.7991  1.5887  0.9732
    9MPD2    H214230   4.330   1.376  10.688 -0.0926  0.6614  0.1581
    9MPD2    H314231   4.211   1.465  10.494 -1.9345  0.9522 -1.3657
    9MPD2     N14232   3.813   1.497  10.685  0.4851  0.4172 -0.4002
    9MPD2    H514233   3.798   1.538  10.593  1.1607 -0.9829 -1.1218
    9MPD2    N114234   4.219   1.329  10.925 -0.5102  0.0464 -0.1316
    9MPD2    H714235   4.308   1.280  10.921 -0.5515  0.1085 -2.1015
    1MPD1     C14236   3.315   0.646  16.509  0.1713 -0.1490  0.8919
    1MPD1    C114237   3.201   0.578  16.485 -0.4253  0.1628  1.1103
    1MPD1    C214238   3.106   0.634  16.408 -0.0155 -0.1050  0.2758
    1MPD1    C314239   3.142   0.731  16.321  0.4639  0.1922  0.0689
    1MPD1    C414240   3.265   0.789  16.329  0.3474 -0.4802 -0.3895
    1MPD1    C514241   3.351   0.751  16.424 -0.3243  0.2992 -0.4966
    1MPD1     H14242   3.010   0.586  16.417 -0.2683  0.5164  0.9612
    1MPD1    H114243   3.290   0.872  16.263 -0.1178  0.4566  0.6154
    1MPD1    H214244   3.384   0.614  16.586  0.7066 -2.8422 -0.7149
    1MPD1    H314245   3.437   0.813  16.443 -0.6766  0.6900 -0.1767
    1MPD1     N14246   3.058   0.792  16.222  0.6269  0.3080  0.4527
    1MPD1    H514247   3.100   0.865  16.166 -0.8749 -0.0491 -1.1481
    1MPD1    N114248   3.168   0.477  16.575  0.5970 -0.1864 -0.5443
    1MPD1    H614249   3.252   0.423  16.597 -0.3764 -1.8188 -0.8799
    1MPD1    H714250   3.091   0.418  16.546  1.7272 -1.2290 -1.4433
    2MPD1     C14251   2.340   1.476  15.914 -0.0646  0.0452 -0.2188
    2MPD1    C114252   2.293   1.350  15.881 -0.1512  0.3707 -0.0613
    2MPD1    C214253   2.374   1.238  15.896 -0.1667  0.2333  0.1176
    2MPD1    C314254   2.503   1.252  15.943 -0.5547  0.5559 -0.3326
    2MPD1    C414255   2.550   1.380  15.981  0.0334  0.3121  0.1181
    2MPD1    C514256   2.466   1.489  15.964  0.3708 -0.2485  0.4088
    2MPD1     H14257   2.337   1.144  15.857 -1.1818  1.0340 -0.8430
    2MPD1    H114258   2.646   1.396  16.030  0.0077 -2.2420  1.0099
    2MPD1    H214259   2.270   1.559  15.904 -0.2889 -0.1964 -0.6734
    2MPD1    H314260   2.503   1.587  15.991  2.3441 -1.0300  0.5813
    2MPD1     N14261   2.592   1.138  15.935  0.0551  0.0987 -0.5220
    2MPD1    H514262   2.547   1.053  15.903  1.0774 -0.6271 -0.0436
    2MPD1    N114263   2.161   1.330  15.827 -0.1278 -0.0762 -0.4832
    2MPD1    H614264   2.124   1.243  15.863 -1.2641  0.3236 -0.6692
    2MPD1    H714265   2.096   1.404  15.852 -0.0348  0.4144 -1.6872
    3TCq2    C114266   2.726   1.136  15.973 -0.5175  0.8496  0.7385
    3TCq2    O214267   2.796   1.222  16.025  0.5195  0.7641 -0.1269
    3TCq2    C214268   2.775   1.001  15.960 -0.3451 -0.3090  0.3644
    3TCq2    C314269   2.728   0.920  15.863 -0.6816  0.0149  0.6655
    3TCq2    C414270   2.750   0.791  15.868  0.2229 -0.0017  0.1895
    3TCq2    C514271   2.825   0.731  15.964 -1.0742 -0.7581 -0.1168
    3TCq2    C614272   2.881   0.811  16.063 -0.2130  0.6238 -0.0552
    3TCq2    C714273   2.842   0.946  16.068 -0.1078 -0.1266  0.3647
    3TCq2    C814274   2.924   0.754  16.189  0.5042  0.1189 -0.4216
    3TCq2    O414275   2.852   0.666  16.227 -0.3035 -0.2726  0.3069
    3TCq2    C914276   2.695   0.705  15.763 -0.3490 -0.2985  0.1674
    3TCq2    O514277   2.709   0.582  15.770  0.1841  0.0390 -0.2952
    3TCq2    O614278   2.590   0.753  15.713 -0.0143 -0.9234 -0.7455
    3TCq2    H214279   2.671   0.967  15.784 -0.4147  0.6416  0.8459
    3TCq2    H314280   2.850   0.626  15.955 -2.1598 -0.8900 -1.7109
    3TCq2    H414281   2.867   1.007  16.154  0.5800  0.5288 -0.2954
    1TCq1    O114282   1.167   4.562  12.310 -0.6066 -0.2644 -0.1284
    1TCq1    C114283   1.100   4.452  12.350  0.3141  0.0311 -0.4940
    1TCq1    O214284   0.996   4.409  12.299  0.1188 -0.5687  0.5479
    1TCq1    C214285   1.111   4.437  12.494 -0.4413 -0.4834  0.6462
    1TCq1    C314286   0.991   4.453  12.560 -0.3862 -0.1422 -0.3388
    1TCq1    C414287   0.999   4.448  12.693  0.1026  0.0046 -0.4974
    1TCq1    C514288   1.120   4.436  12.759  0.2480  0.0212 -0.0765
    1TCq1    C614289   1.234   4.420  12.689  0.4423  0.2621  0.0540
    1TCq1    C714290   1.236   4.429  12.558  0.2975 -0.5662 -0.4814
    1TCq1    C814291   1.362   4.401  12.753  0.1356 -0.6608 -0.3110
    1TCq1    O414292   1.460   4.389  12.679 -0.5764  0.4673 -0.3635
    1TCq1    C914293   0.875   4.447  12.771 -0.4585 -0.2656  0.5157
    1TCq1    O514294   0.766   4.439  12.704 -0.1118 -0.4064  0.0430
    1TCq1    O614295   0.882   4.462  12.893 -0.2470 -0.1672 -0.6605
    1TCq1    H114296   1.211   4.610  12.383  1.0034 -4.5512  1.7176
    1TCq1    H214297   0.899   4.454  12.503 -1.2741  1.5985  1.1392
    1TCq1    H314298   1.114   4.427  12.867  3.9161  0.2971  0.1322
    1TCq1    H414299   1.317   4.403  12.491 -0.8076  1.8246 -2.7254
    2MPD2     C14300   1.604   4.413  12.924  0.3492  0.1599  0.0594
    2MPD2    C114301   1.477   4.388  12.968  0.0079  0.0811 -0.5126
    2MPD2    C214302   1.465   4.384  13.108  0.0602 -0.1502  0.1119
    2MPD2    C314303   1.571   4.400  13.198  0.0703 -0.1141  0.0097
    2MPD2    C414304   1.691   4.425  13.143 -0.1153 -0.0615  0.0381
    2MPD2    C514305   1.710   4.437  13.010  0.1544 -0.5530  0.4471
    2MPD2     H14306   1.363   4.384  13.144 -0.6419 -2.3317 -1.8505
    2MPD2    H114307   1.783   4.419  13.201  0.1174  0.6109 -0.2630
    2MPD2    H214308   1.628   4.428  12.819  1.9981  0.5262  0.4971
    2MPD2    H314309   1.808   4.457  12.966  0.0980 -0.1554  0.5053
    2MPD2     N14310   1.549   4.389  13.337  0.1520 -0.5516  0.1255
    2MPD2    H514311   1.457   4.352  13.359 -0.4616  0.1069 -1.3875
    2MPD2    N114312   1.359   4.390  12.888 -0.0577 -0.9848  0.0245
    2MPD2    H714313   1.273   4.388  12.942 -0.7531  2.5138 -0.9137
    3TCq1    O114314   1.182   4.378  13.608 -0.0330 -0.1653 -0.2177
    3TCq1    C114315   1.261   4.423  13.715 -0.7879 -0.2043 -1.1275
    3TCq1    O214316   1.207   4.448  13.822  0.6756  0.2248  0.4041
    3TCq1    C214317   1.398   4.390  13.693 -0.2932  0.0590  0.3459
    3TCq1    C314318   1.464   4.331  13.796 -0.2115  0.6184  0.0706
    3TCq1    C414319   1.594   4.306  13.782  0.1906 -0.2660 -0.0580
    3TCq1    C514320   1.653   4.326  13.664 -0.3664 -0.8325  0.6734
    3TCq1    C614321   1.584   4.381  13.558  0.6653  0.0059 -0.5132
    3TCq1    C714322   1.457   4.419  13.577  0.3033 -0.6167  0.1265
    3TCq1    C814323   1.641   4.418  13.437  0.0121  0.7685  0.5946
    3TCq1    O414324   1.759   4.444  13.430  0.7055 -0.5922  0.2093
    3TCq1    C914325   1.672   4.250  13.891 -0.7063  0.4927 -0.1656
    3TCq1    O514326   1.792   4.211  13.875  0.6735  0.1241 -0.2086
    3TCq1    O614327   1.615   4.263  14.004 -0.4483  0.5140  0.0333
    3TCq1    H114328   1.238   4.354  13.532  1.2239  0.9384  0.3673
    3TCq1    H214329   1.409   4.297  13.884  1.2004 -0.3900  0.5588
    3TCq1    H314330   1.754   4.286  13.650 -0.1937 -0.0981 -0.1893
    3TCq1    H414331   1.409   4.487  13.507  2.5472  2.6801  1.8134
    1MPD2     C14332   0.517   4.251  15.328  0.2796 -0.1324 -0.3059
    1MPD2    C114333   0.501   4.144  15.236  0.4218  0.8038 -0.1513
    1MPD2    C214334   0.613   4.094  15.182 -0.3458 -0.2624 -0.3232
    1MPD2    C314335   0.739   4.136  15.209 -0.2208 -0.0498  0.1158
    1MPD2    C414336   0.757   4.242  15.299 -0.1037  0.5465  0.2484
    1MPD2    C514337   0.643   4.300  15.353  0.4232 -0.5469 -0.2858
    1MPD2     H14338   0.601   4.014  15.110 -0.7837 -0.4806 -0.0064
    1MPD2    H114339   0.854   4.276  15.333  0.0044 -0.2213  0.7020
    1MPD2    H214340   0.433   4.296  15.382 -1.7562  1.1977 -4.6010
    1MPD2    H314341   0.649   4.389  15.415  0.3423 -0.7896  0.0727
    1MPD2     N14342   0.838   4.077  15.139 -0.2040  0.1337  0.3923
    1MPD2    H514343   0.815   3.999  15.078  1.2969 -0.8567  1.0817
    1MPD2    N114344   0.372   4.123  15.182 -0.0567  0.0276  0.2886
    1MPD2    H714345   0.300   4.176  15.230  1.7249 -0.6325  3.7032
    2TMC3    C114346   0.188   4.002  15.072  0.3257 -0.3303 -0.0315
    2TMC3    C214347   0.171   3.919  14.972  0.6563  0.3272 -0.5192
    2TMC3    C314348   0.100   3.960  14.861 -0.6110 -1.0199  0.5832
    2TMC3    C414349   0.113   4.118  15.081 -0.7605 -0.1612  0.3696
    2TMC3    C514350   0.036   4.148  14.970  0.1119 -0.5457  0.2245
    2TMC3    C614351   0.028   4.074  14.857  0.1159 -0.2499 -0.0233
    2TMC3     C14352   0.333   4.015  15.110  0.2060 -0.0999  0.0320
    2TMC3     O14353   0.406   3.934  15.057 -0.3747  0.0231  0.3176
    2TMC3     H14354   0.216   3.821  14.969 -0.8782 -0.4430  1.6624
    2TMC3    H114355   0.117   4.181  15.169 -1.6582 -0.1431  0.3945
    2TMC3    H214356   0.000   4.115  14.760  0.1352 -0.4746 -0.1252
    2TMC3    C714357   4.678   4.268  14.969 -0.2101 -0.0684 -0.2670
    2TMC3    C814358   0.164   3.945  14.730 -0.1371 -0.4013 -0.8573
    2TMC3    O114359   4.642   4.303  14.859  0.0650 -0.3294  0.7411
    2TMC3    O214360   0.102   3.941  14.624  0.1667  0.2893 -0.3684
    3TCq1    O114361   4.522   4.400  16.018 -0.3228 -0.3526  0.1097
    3TCq1    C114362   4.458   4.365  15.905  0.7145  0.2843 -0.7264
    3TCq1    O214363   4.506   4.272  15.832 -0.2285  0.0862  0.0289
    3TCq1    C214364   4.424   4.487  15.845  0.1461 -0.4815 -0.3822
    3TCq1    C314365   4.356   4.581  15.924 -0.5142  0.3111  0.5423
    3TCq1    C414366   4.324   4.694  15.865  0.6822 -0.5889  0.8923
    3TCq1    C514367   4.355   4.718  15.733 -0.4768 -0.1619  0.1677
    3TCq1    C614368   4.426   4.625  15.661  1.7707  0.8083 -0.7894
    3TCq1    C714369   4.458   4.506  15.714  0.6142 -0.4607 -0.5869
    3TCq1    C814370   4.407   4.642  15.515  0.0183  0.5464  0.3316
    3TCq1    O414371   4.314   4.716  15.481 -0.3852 -0.3309  0.3738
    3TCq1    C914372   4.257   0.073  15.938 -0.6565  0.0009  0.0389
    3TCq1    O514373   4.203   0.039  16.050  0.1834 -0.9961  0.7565
    3TCq1    O614374   4.239   0.182  15.873  0.2290 -0.0002 -0.0149
    3TCq1    H114375   4.494   4.491  16.042 -1.0394  0.1311 -2.5079
    3TCq1    H214376   4.324   4.560  16.026 -1.5018 -0.6082  0.0365
    3TCq1    H314377   4.329   0.090  15.693 -0.1158 -0.3219 -0.4546
    3TCq1    H414378   4.507   4.425  15.662  1.6204  1.5710 -2.7609
    4MPD2     C14379   4.395   4.605  15.225  0.0477  0.0040  0.9361
    4MPD2    C114380   4.491   4.543  15.311 -0.5864  0.2772  0.2506
    4MPD2    C214381   4.576   4.457  15.257  0.6799 -0.0270 -0.7441
    4MPD2    C314382   4.578   4.428  15.123  0.0842  0.4757  0.5061
    4MPD2    C414383   4.488   4.489  15.037 -0.3017 -0.0582  0.0761
    4MPD2    C514384   4.401   4.579  15.092 -0.0520  0.1194  0.2276
    4MPD2     H14385   4.643   4.405  15.325  0.2653  0.8019  0.3149
    4MPD2    H114386   4.478   4.468  14.932  1.5625  0.2723 -0.1694
    4MPD2    H214387   4.314   4.661  15.270 -0.2284  0.6434 -0.3592
    4MPD2    H314388   4.332   4.631  15.028 -1.0537 -1.1880  0.2584
    4MPD2     N14389   4.665   4.324  15.088  0.1690  0.5260  0.3951
    4MPD2    H514390   4.713   4.269  15.160  2.8537  0.0071 -1.7870
    4MPD2    N114391   4.495   4.565  15.448  0.2965 -0.5368  0.3826
    4MPD2    H714392   4.571   4.522  15.500 -2.4233 -3.2639  2.0671
    5TMC2    C114393   0.954   3.926  14.847 -0.0115 -0.1936 -0.3393
    5TMC2    C214394   1.018   4.010  14.761  0.8126  0.0433 -0.4820
    5TMC2    C314395   1.100   4.106  14.798 -0.5073  0.2557  0.0457
    5TMC2    C414396   0.977   3.948  14.981  0.4427 -0.5991 -0.3420
    5TMC2    C514397   1.041   4.062  15.022 -0.5544  0.7896  0.4294
    5TMC2    C614398   1.109   4.144  14.933 -0.0862 -0.6699  0.1364
    5TMC2     C14399   0.809   3.909  14.830  0.1961 -0.0949 -0.6677
    5TMC2     O14400   0.740   3.873  14.925  0.6017  0.1247  0.1207
    5TMC2     H14401   1.007   3.985  14.656  0.8868 -1.6157 -0.1051
    5TMC2    H114402   0.940   3.870  15.047  1.0858  0.0848  0.8218
    5TMC2    H214403   1.166   4.231  14.967 -0.6683 -0.7912  1.4235
    5TMC2    C714404   0.969   4.126  15.127 -0.5114 -0.0223 -0.6181
    5TMC2    C814405   1.160   4.191  14.694 -0.2418 -0.2885  0.1689
    5TMC2    O114406   1.022   4.229  15.171  0.0674  0.7582  0.0227
    5TMC2    O214407   1.183   4.156  14.583  0.0959 -0.1276  0.5154
    5TMC2    O514408   1.142   4.316  14.734 -1.0694 -0.2961  0.2182
    5TMC2    H514409   1.122   4.337  14.828  1.8673 -1.6552  1.1409
    6MPD2     C14410   0.386   3.893  14.539  0.4963 -0.1918 -0.2897
    6MPD2    C114411   0.407   3.920  14.671 -0.6759 -0.5006  0.1961
    6MPD2    C214412   0.538   3.929  14.717  0.5548  0.1917  0.1571
    6MPD2    C314413   0.645   3.902  14.638  0.0888  0.4423  0.2130
    6MPD2    C414414   0.626   3.891  14.503  0.2035 -0.1066  0.0042
    6MPD2    C514415   0.493   3.883  14.453  0.0881  0.1204  0.9118
    6MPD2     H14416   0.545   3.963  14.820  1.9003  1.0640 -0.2207
    6MPD2    H114417   0.708   3.875  14.434  0.9683  0.2733  0.8218
    6MPD2    H214418   0.286   3.893  14.497  1.4905 -0.5985 -2.6256
    6MPD2    H314419   0.482   3.867  14.347  1.9621 -0.8129  0.8697
    6MPD2     N14420   0.775   3.901  14.695  0.1140 -0.4889 -0.2047
    6MPD2    H514421   0.850   3.886  14.628  1.5839 -1.7465  1.7308
    6MPD2    N114422   0.296   3.932  14.757  0.7362 -0.3614 -0.0674
    6MPD2    H714423   0.327   3.941  14.853 -1.3327 -0.8891  0.6450
  945NH4     N114424   3.297   2.238   3.270  0.0278  0.1087  0.1299
  945NH4     H214425   3.332   2.314   3.208 -3.5247  4.5502  3.5486
  945NH4     H314426   3.212   2.282   3.311  1.1781  1.8229  0.6719
  945NH4     H414427   3.365   2.219   3.346  2.1443  1.4663 -1.4236
  945NH4     H514428   3.260   2.156   3.218 -2.4192  1.9746 -1.0854
  946SOD     NA14429   1.875   4.687  11.148 -0.3191  0.5181 -0.1458
  947SOD     NA14430   4.143   4.590   7.354 -0.0466 -0.1601  0.0093
  948SOD     NA14431   0.073   3.373  11.405  0.4883 -0.1952 -0.2041
  949SOD     NA14432   3.249   2.709   0.925 -0.2071 -0.2744 -0.1443
  950SOD     NA14433   1.339   4.242   9.945  0.5179 -0.8843 -0.0220
  951SOD     NA14434   4.322   1.206   3.090 -0.0306  0.1218  0.1874
  952SOD     NA14435   1.696   4.210  14.718 -0.0993  0.2354  0.3796
  953SOD     NA14436   1.923   4.389   3.463 -0.0089  0.0090  0.5128
  954SOD     NA14437   2.919   1.942  16.747  0.1175 -0.2346 -0.0311
  955SOD     NA14438   4.117   4.674   0.455  0.1545  0.6421  0.4322
  956SOD     NA14439   4.633   3.547  12.944  0.1797 -0.7336 -0.1043
  957SOD     NA14440   2.113   1.513  11.308 -0.3426  0.1182 -0.3226
  958SOD     NA14441   2.524   2.483  17.329  0.3331  0.2537  0.1093
  959SOD     NA14442   1.019   1.729  10.332  0.1445 -0.3876 -0.3189
  960SOD     NA14443   4.653   3.373  13.815 -0.0482  0.1084 -0.0898
  961SOD     NA14444   0.405   0.696   3.206  0.1953  0.1353 -0.1910
  962SOD     NA14445   1.665   4.543  12.342 -0.1788  0.0937 -0.3904
  963SOD     NA14446   3.476   3.573   2.998  0.0978  0.2562 -0.6649
  964SOD     NA14447   1.804   4.226  14.119  0.4572 -0.1334 -0.0663
  965SOD     NA14448   3.294   1.649   7.349  0.1420 -0.0406 -0.1270
  966SOD     NA14449   0.795   0.484   0.731  0.7095 -0.1585  0.0925
  967SOD     NA14450   0.579   3.068  10.624 -0.2618 -0.1220  0.2257
  968SOD     NA14451   2.110   3.085   3.053 -0.0447 -0.0597  0.4234
  969SOD     NA14452   2.177   4.247  10.867  0.0062 -0.2056 -0.1689
  970SOD     NA14453   3.238   3.398   5.628  0.1688  0.1233  0.4338
  971SOD     NA14454   1.250   4.478  11.895  0.0558 -0.0063 -0.4927
  972SOD     NA14455   2.183   0.413  15.257  0.0796 -0.4202  0.4495
  973SOD     NA14456   0.180   4.663  10.406 -0.4630  0.5286  0.0742
  974SOD     NA14457   4.225   1.197  14.422  0.3231  0.1897  0.0760
  975SOD     NA14458   3.076   4.168   9.200  0.0859  0.4601 -0.2379
  976SOD     NA14459   2.877   4.529  14.587  0.3159  0.2732 -0.0723
  977SOD     NA14460   1.223   0.510  13.974 -0.0107  0.1151 -0.4594
  978SOD     NA14461   1.032   3.726   1.143 -0.4517 -0.5780  0.2176
  979SOD     NA14462   2.596   3.345   9.028  0.4102  0.4685 -0.4696
  980SOD     NA14463   2.848   0.398  15.767  0.1161 -0.0212 -0.3026
  981SOD     NA14464   0.457   2.714   5.895  0.1566 -0.3133  0.0876
  982SOD     NA14465   2.123   4.595  11.295 -0.2898 -0.0386  0.1757
  983SOD     NA14466   2.950   4.228  16.908 -0.2348  0.5440  0.2385
  984SOD     NA14467   2.600   2.590  16.444  0.1204 -0.2777 -0.1487
  985SOD     NA14468   1.434   3.177  11.567 -0.1859  0.3316 -0.7036
  986SOD     NA14469   0.948   0.544  14.781  0.7310  0.0432  0.3551
  987SOD     NA14470   2.910   3.274  12.493 -0.3737  0.6951  0.0864
  988SOD     NA14471   1.228   0.736  12.553  0.2320 -0.1352 -0.0049
  989SOD     NA14472   1.905   4.243  14.439  0.5803  0.0304 -0.5176
  990SOD     NA14473   1.244   3.859  13.356  0.0714 -0.2729  0.4504
  991SOD     NA14474   0.565   3.325  10.461 -0.0146  0.0490  0.1473
  992SOD     NA14475   1.787   2.775  12.343  0.1989 -0.0298  0.0065
  993SOD     NA14476   4.468   0.548  15.753  0.1492 -0.2189 -0.3450
  994SOD     NA14477   2.174   1.639  11.638  0.0658  0.0678  0.4497
  995SOD     NA14478   2.786   0.409   0.358 -0.2606  0.2797 -0.2157
  996SOD     NA14479   4.528   3.761  11.764  0.0335  0.2412 -0.0618
  997SOD     NA14480   0.314   2.435   0.703 -0.1271  0.4107 -0.0041
  998SOD     NA14481   4.251   3.125   9.679 -0.5701 -0.0276 -0.1033
  999SOD     NA14482   4.108   0.533  10.965 -0.3072  0.0383  0.5031
 1000SOD     NA14483   3.453   0.116  15.112 -0.2607 -0.0249 -0.1674
 1001SOD     NA14484   2.694   1.951  14.091  0.1734  0.1412  0.4770
 1002SOD     NA14485   0.555   1.512   2.473 -0.3368  0.0676  0.0116
 1003SOD     NA14486   3.150   0.156  15.011  0.1213  0.3174 -0.0041
 1004SOD     NA14487   0.925   4.678  15.200  0.1669  0.6450 -0.3414
 1005SOD     NA14488   0.762   3.591  10.014 -0.2036 -0.0392 -0.1773
 1006SOD     NA14489   2.903   1.143  13.380  0.2819  0.2044  0.0353
 1007SOD     NA14490   0.558   3.671  10.477  0.0912 -0.3624  0.3581
 1008SOD     NA14491   4.340   4.142  10.872 -0.0745 -0.6153  0.0996
 1009SOD     NA14492   2.526   4.577  10.584  0.0053 -0.3337  0.4838
 1010SOD     NA14493   2.793   4.333   0.676 -0.1127 -0.2335 -0.2628
 1011SOL     OW14494   2.726   1.576   6.729  0.3637  0.7418 -0.0561
 1011SOL    HW114495   2.800   1.597   6.672 -0.0693 -3.5770 -2.1586
 1011SOL    HW214496   2.751   1.501   6.782  1.5507  1.5289  0.5086
 1012SOL     OW14497   4.652   0.567  16.324  0.3972 -0.0407  0.8974
 1012SOL    HW114498   4.599   0.580  16.246  0.4873  0.4641  0.9181
 1012SOL    HW214499   0.004   0.608  16.285 -1.6666  1.2349 -1.8541
 1013SOL     OW14500   1.257   0.487  10.239  0.4215  0.0025 -0.0711
 1013SOL    HW114501   1.304   0.563  10.205 -0.8539  0.1765 -1.4144
 1013SOL    HW214502   1.311   0.470  10.316 -2.0699 -0.7661  1.5092
 1014SOL     OW14503   2.862   2.085   9.129  0.3988  1.0533 -0.3666
 1014SOL    HW114504   2.833   2.165   9.172  0.3828  0.4580  0.7444
 1014SOL    HW214505   2.771   2.056   9.125  2.2037 -4.4414 -2.3699
 1015SOL     OW14506   0.472   1.576  15.871 -0.2220  0.5575 -0.1775
 1015SOL    HW114507   0.558   1.584  15.830 -1.1773 -1.9056 -2.6711
 1015SOL    HW214508   0.477   1.482  15.893 -0.5711  0.6229  0.1758
 1016SOL     OW14509   2.373   0.868  17.098 -0.5197 -0.3199 -0.2643
 1016SOL    HW114510   2.303   0.933  17.107 -0.9518 -0.7425 -0.5701
 1016SOL    HW214511   2.372   0.865  17.002  0.2834 -1.1359 -0.2394
 1017SOL     OW14512   4.283   1.103   6.754  0.6285  0.1649  0.6190
 1017SOL    HW114513   4.287   1.009   6.739  0.2264  0.1215  0.7861
 1017SOL    HW214514   4.228   1.123   6.679  0.3891 -3.7337 -0.2446
 1018SOL     OW14515   0.820   4.154   4.880 -0.5603 -0.2105 -0.2717
 1018SOL    HW114516   0.796   4.176   4.790  0.7521 -2.2209 -1.1033
 1018SOL    HW214517   0.749   4.097   4.912 -1.2727  0.4711 -0.6350
 1019SOL     OW14518   0.332   2.858  14.920  0.2036  0.1784 -1.0363
 1019SOL    HW114519   0.407   2.821  14.872  0.5756  0.7534 -0.8954
 1019SOL    HW214520   0.269   2.866  14.849 -1.1644 -0.9241  0.0481
 1020SOL     OW14521   3.137   0.051   9.076  0.4097  0.0148  0.1012
 1020SOL    HW114522   3.120   0.137   9.038  0.0307 -0.2825 -0.4002
 1020SOL    HW214523   3.215   0.070   9.129  1.6103 -0.5116 -1.4884
 1021SOL     OW14524   2.494   2.358  11.138 -0.3957  0.7099  0.4000
 1021SOL    HW114525   2.557   2.294  11.106 -3.1390 -1.6408 -0.2857
 1021SOL    HW214526   2.407   2.320  11.126 -0.6703  0.4084  3.3879
 1022SOL     OW14527   1.464   2.218   5.921 -0.1386 -0.0361  0.1668
 1022SOL    HW114528   1.557   2.230   5.902 -0.0155 -0.6438  0.3727
 1022SOL    HW214529   1.458   2.270   6.002  0.4810  0.6147 -0.2126
 1023SOL     OW14530   3.278   0.131   1.294 -0.2856 -0.0958  0.3543
 1023SOL    HW114531   3.299   0.037   1.287 -1.3816 -0.3006 -0.0530
 1023SOL    HW214532   3.247   0.137   1.384 -1.7821 -2.2093 -0.0161
 1024SOL     OW14533   1.194   0.817  10.363 -0.6512  0.1296 -0.6070
 1024SOL    HW114534   1.117   0.844  10.314 -1.4353 -0.6448  0.2208
 1024SOL    HW214535   1.259   0.809  10.293 -0.6840  0.8919 -0.7287
 1025SOL     OW14536   0.322   3.729   5.662 -0.4923 -0.4075  0.1490
 1025SOL    HW114537   0.363   3.814   5.675 -2.7997  0.7598 -0.1254
 1025SOL    HW214538   0.268   3.753   5.586 -0.4274 -0.3263  0.1281
 1026SOL     OW14539   0.361   1.987   8.856  0.0143  0.2708 -0.2907
 1026SOL    HW114540   0.428   2.024   8.799  0.9673 -0.9737  0.0339
 1026SOL    HW214541   0.287   2.043   8.834  0.1575  0.0359 -1.3807
 1027SOL     OW14542   2.966   0.233   8.583  0.4296 -0.5557 -0.1595
 1027SOL    HW114543   2.989   0.326   8.579 -0.5135 -0.2706  1.0658
 1027SOL    HW214544   3.038   0.194   8.533  1.7362  0.8040  0.6437
 1028SOL     OW14545   3.625   3.635   3.148  0.0426 -0.0766  0.2446
 1028SOL    HW114546   3.598   3.686   3.224 -1.7170  0.0871 -0.4739
 1028SOL    HW214547   3.714   3.621   3.180 -1.1513 -1.1014  3.1637
 1029SOL     OW14548   0.477   2.195   3.773  0.0201 -0.3165 -0.2512
 1029SOL    HW114549   0.394   2.190   3.821  0.7355  2.0416  1.2257
 1029SOL    HW214550   0.535   2.174   3.846  0.8491 -2.4311 -1.5391
 1030SOL     OW14551   0.715   4.275   2.366  0.2886  0.0782 -0.6386
 1030SOL    HW114552   0.799   4.229   2.368 -1.1994 -2.6410 -0.5597
 1030SOL    HW214553   0.662   4.195   2.373  0.3320  0.1538  0.5752
 1031SOL     OW14554   4.179   1.457   6.552  0.5180  0.0864  0.0414
 1031SOL    HW114555   4.123   1.411   6.490 -2.2973  1.8099  1.3388
 1031SOL    HW214556   4.265   1.441   6.513  1.0333 -1.0863  1.6684
 1032SOL     OW14557   0.948   0.401   1.769 -0.2802 -0.2151  0.1817
 1032SOL    HW114558   0.950   0.305   1.768 -0.7020 -0.2374  1.1891
 1032SOL    HW214559   0.895   0.429   1.694 -1.6819  2.0197  1.9969
 1033SOL     OW14560   0.979   0.507  10.253 -0.7970 -0.2077  0.4326
 1033SOL    HW114561   0.943   0.557  10.327 -2.5998 -0.6464 -0.1473
 1033SOL    HW214562   1.071   0.529  10.244 -0.5899 -0.9837  0.6173
 1034SOL     OW14563   2.771   2.859   9.537 -0.3121 -0.0715  0.1955
 1034SOL    HW114564   2.735   2.941   9.570 -0.6879 -0.7337  1.4212
 1034SOL    HW214565   2.809   2.836   9.622  1.0105  1.2180 -0.0475
 1035SOL     OW14566   0.780   3.463   8.533  0.1710 -0.0915 -0.2458
 1035SOL    HW114567   0.746   3.498   8.615  1.2310 -1.1645  0.6643
 1035SOL    HW214568   0.809   3.374   8.555 -1.1188  0.0502  2.0499
 1036SOL     OW14569   3.014   4.400  16.531  0.1172 -0.3263  0.5629
 1036SOL    HW114570   2.976   4.487  16.545 -0.4799 -0.7171  1.3794
 1036SOL    HW214571   2.984   4.381  16.442 -2.0820  1.0368  1.0330
 1037SOL     OW14572   1.356   1.152   3.928 -0.0322  0.4277  0.4998
 1037SOL    HW114573   1.420   1.120   3.992 -1.1081  0.1009  1.4177
 1037SOL    HW214574   1.372   1.246   3.925 -0.5960  0.4983 -0.1175
 1038SOL     OW14575   2.803   4.626   3.207 -0.0128 -0.4254  0.3489
 1038SOL    HW114576   2.881   4.575   3.228 -0.4469 -0.3581  2.0914
 1038SOL    HW214577   2.732   4.587   3.258 -0.0431  1.6177  1.8928
 1039SOL     OW14578   1.786   2.833   5.132 -0.3479 -0.4783 -0.2227
 1039SOL    HW114579   1.833   2.874   5.204  2.1898 -2.0458 -0.9702
 1039SOL    HW214580   1.850   2.804   5.066 -0.3862 -1.7919  0.3078
 1040SOL     OW14581   1.305   4.634  16.894 -0.0742 -0.3128  0.3520
 1040SOL    HW114582   1.256   4.655  16.974 -0.4771 -0.9321  0.2718
 1040SOL    HW214583   1.295   4.539  16.882 -1.1722  0.0618 -1.6472
 1041SOL     OW14584   4.575   1.483  17.506 -0.0934 -0.0239  0.2861
 1041SOL    HW114585   4.524   1.530  17.572 -1.6346  1.3540 -1.8841
 1041SOL    HW214586   4.662   1.520  17.518 -0.0561 -0.1565  0.4135
 1042SOL     OW14587   1.400   3.112   6.548 -0.3475 -0.3795 -0.4080
 1042SOL    HW114588   1.315   3.084   6.517 -0.5346  0.4709 -0.6461
 1042SOL    HW214589   1.408   3.204   6.524  2.4865 -0.5394 -0.1296
 1043SOL     OW14590   3.602   2.400   6.368  0.5238 -0.6332  0.1911
 1043SOL    HW114591   3.595   2.495   6.375 -0.1277 -0.8131  1.9264
 1043SOL    HW214592   3.546   2.382   6.292 -3.8895  1.5722  2.8892
 1044SOL     OW14593   4.363   2.058   0.229  0.2157 -0.1761  0.5533
 1044SOL    HW114594   4.395   2.120   0.294  0.7343 -0.3243  0.4430
 1044SOL    HW214595   4.268   2.070   0.232  0.5160  2.4794 -1.2134
 1045SOL     OW14596   4.549   1.198   0.976 -0.1025  0.2112  0.1821
 1045SOL    HW114597   4.610   1.132   0.943  1.0095  1.0004  0.6460
 1045SOL    HW214598   4.477   1.191   0.913 -0.6573  2.2899  0.5782
 1046SOL     OW14599   4.707   2.000   3.314  0.1822 -0.3951 -0.1962
 1046SOL    HW114600   4.630   2.058   3.311  1.1517  0.8887 -0.0002
 1046SOL    HW214601   0.044   2.058   3.357 -0.8140  1.3464 -1.0934
 1047SOL     OW14602   3.885   1.272   4.859  0.2935  0.5071 -0.1433
 1047SOL    HW114603   3.901   1.215   4.783  2.4970 -2.0178  2.1927
 1047SOL    HW214604   3.924   1.222   4.931  0.9936  1.1262 -0.0919
 1048SOL     OW14605   1.656   0.899   7.151 -0.2026  0.1342  0.7226
 1048SOL    HW114606   1.747   0.919   7.128 -0.5288  0.7467 -0.0401
 1048SOL    HW214607   1.626   0.846   7.078 -1.1268  0.6872  0.7057
 1049SOL     OW14608   3.406   0.914   7.676  0.3522 -0.0173  1.1610
 1049SOL    HW114609   3.429   0.842   7.734 -0.7487 -1.6671 -0.4584
 1049SOL    HW214610   3.495   0.940   7.654  0.7379 -0.5833  2.0551
 1050SOL     OW14611   1.205   1.668   8.530 -0.0236 -0.1654  1.0769
 1050SOL    HW114612   1.292   1.707   8.538  0.0990 -0.1026 -0.5912
 1050SOL    HW214613   1.217   1.602   8.461 -0.2021  0.4607  0.4461
 1051SOL     OW14614   0.608   4.221   1.905 -0.0114  0.3078 -0.2532
 1051SOL    HW114615   0.530   4.166   1.903 -1.7930  2.8355 -0.2409
 1051SOL    HW214616   0.600   4.275   1.984  0.4348  0.3072 -0.2076
 1052SOL     OW14617   2.088   3.985   2.234 -0.2243  0.4317 -0.0016
 1052SOL    HW114618   2.017   3.993   2.298  1.4918 -1.4374  2.1266
 1052SOL    HW214619   2.071   4.058   2.175  3.0557  2.0274  1.0002
 1053SOL     OW14620   0.084   0.352   1.689  0.2790 -0.1798 -0.4318
 1053SOL    HW114621   0.091   0.259   1.711  2.2757  0.4335  1.5760
 1053SOL    HW214622   0.164   0.364   1.638 -0.9533 -0.3295 -2.3831
 1054SOL     OW14623   0.323   3.358  12.779 -0.4632  0.0367  0.5440
 1054SOL    HW114624   0.323   3.400  12.864 -0.7242  0.4036  0.3617
 1054SOL    HW214625   0.254   3.414  12.744  0.4687 -0.7503 -2.5830
 1055SOL     OW14626   2.951   0.481  10.221 -0.6102  0.2044  0.0468
 1055SOL    HW114627   2.939   0.570  10.251 -0.2058 -0.5297  2.3368
 1055SOL    HW214628   3.039   0.476  10.259 -0.5431  1.2536  0.0322
 1056SOL     OW14629   3.377   3.009  16.842  0.2471 -0.4752  0.1302
 1056SOL    HW114630   3.427   2.966  16.911  1.4001 -0.1044 -0.4783
 1056SOL    HW214631   3.448   3.052  16.794  0.4704 -1.4822 -0.4450
 1057SOL     OW14632   1.468   1.368   7.557  0.1267  0.1703 -0.5846
 1057SOL    HW114633   1.458   1.358   7.462  0.1687 -1.2811 -0.4331
 1057SOL    HW214634   1.542   1.310   7.575 -1.1780 -1.4147 -0.3764
 1058SOL     OW14635   1.049   2.421  13.586 -0.1007 -0.1162 -0.3875
 1058SOL    HW114636   1.055   2.438  13.680 -0.5307  0.0276 -0.3861
 1058SOL    HW214637   0.959   2.450  13.572 -0.3642 -0.9819 -0.4874
 1059SOL     OW14638   4.207   2.274   8.530 -0.3569  0.2158  0.0469
 1059SOL    HW114639   4.292   2.259   8.489  0.0733  0.3989  0.8641
 1059SOL    HW214640   4.142   2.224   8.481 -1.4558  1.6651 -0.0061
 1060SOL     OW14641   2.954   3.393   8.515  0.4595  0.1937 -0.2408
 1060SOL    HW114642   3.034   3.378   8.463 -0.6137  0.1468 -1.8944
 1060SOL    HW214643   2.972   3.326   8.580  0.9579  1.6119  1.0721
 1061SOL     OW14644   2.723   1.636   8.483  0.3704  0.0495 -0.6977
 1061SOL    HW114645   2.787   1.687   8.534  0.7055 -0.8523 -0.2197
 1061SOL    HW214646   2.785   1.566   8.461  0.6293  0.1951 -0.4345
 1062SOL     OW14647   4.475   2.804   7.220 -0.1709  0.3321 -0.2319
 1062SOL    HW114648   4.473   2.880   7.278  1.0497 -0.1940  0.5059
 1062SOL    HW214649   4.568   2.796   7.197 -0.9448 -0.6397 -3.0646
 1063SOL     OW14650   3.312   2.358   5.948 -0.2723  0.7373 -0.1329
 1063SOL    HW114651   3.237   2.401   5.908 -0.3632  0.2635 -0.4719
 1063SOL    HW214652   3.380   2.359   5.880  1.1074 -0.1086  1.2231
 1064SOL     OW14653   3.029   4.477   8.488  0.0369  0.0920 -0.0035
 1064SOL    HW114654   3.001   4.385   8.497  1.7439 -0.3514  0.7266
 1064SOL    HW214655   2.977   4.509   8.561  1.0098 -0.4074  0.8982
 1065SOL     OW14656   3.571   2.816   4.530 -0.3843 -0.0461 -0.2237
 1065SOL    HW114657   3.546   2.899   4.570  1.5652  1.0070 -1.1674
 1065SOL    HW214658   3.663   2.832   4.506 -0.3475  0.5849  0.3515
 1066SOL     OW14659   1.537   1.060   4.132 -0.4223  0.3096 -0.0599
 1066SOL    HW114660   1.566   1.115   4.205 -0.3312  1.2279 -0.7853
 1066SOL    HW214661   1.556   0.973   4.166 -0.0375 -0.5623 -2.5341
 1067SOL     OW14662   0.047   0.494   2.152  0.4693  0.7870 -0.4362
 1067SOL    HW114663   4.693   0.441   2.157  0.1925  1.2005 -0.4395
 1067SOL    HW214664   0.057   0.515   2.059  1.6187  1.9431 -0.0645
 1068SOL     OW14665   1.482   3.887   3.581  0.4877  0.1142 -0.0281
 1068SOL    HW114666   1.514   3.810   3.628 -3.2716 -0.8952  0.8077
 1068SOL    HW214667   1.547   3.951   3.611 -0.3457  1.0697 -0.2687
 1069SOL     OW14668   1.544   2.012  15.754 -0.2603  0.1153  0.5016
 1069SOL    HW114669   1.456   1.975  15.765 -0.3092 -0.0265 -0.3597
 1069SOL    HW214670   1.579   2.030  15.842 -1.5478  1.9893  0.6399
 1070SOL     OW14671   3.350   0.123   9.212 -0.1405 -0.7393 -0.0727
 1070SOL    HW114672   3.411   0.111   9.285  0.5731  1.1467 -0.3609
 1070SOL    HW214673   3.293   0.191   9.248  0.2474  0.7954 -2.3879
 1071SOL     OW14674   4.159   3.260   6.223  0.1308  0.2986 -0.0326
 1071SOL    HW114675   4.227   3.195   6.206 -1.2889 -1.7609  2.4184
 1071SOL    HW214676   4.103   3.222   6.290 -3.0813  2.2068 -1.6176
 1072SOL     OW14677   2.925   4.092  16.523 -0.0954 -0.3660  0.6291
 1072SOL    HW114678   3.007   4.043  16.532  0.0650 -0.3666 -0.9083
 1072SOL    HW214679   2.948   4.137  16.442  1.3068 -0.7829  0.7911
 1073SOL     OW14680   0.503   1.085   8.986 -0.6935 -0.6675  0.2636
 1073SOL    HW114681   0.459   1.165   8.956 -1.4054 -0.4186  1.9876
 1073SOL    HW214682   0.428   1.028   9.003 -2.3040  0.6635 -2.3303
 1074SOL     OW14683   4.511   0.635   3.478  0.2606 -0.8883  0.3883
 1074SOL    HW114684   4.496   0.582   3.400 -0.1164  1.6220 -1.2447
 1074SOL    HW214685   4.424   0.664   3.503  0.8876  1.4205 -0.1387
 1075SOL     OW14686   2.754   3.802   6.921 -0.0929  0.1852  0.3338
 1075SOL    HW114687   2.709   3.827   6.840  2.0461  0.2634 -0.8176
 1075SOL    HW214688   2.769   3.711   6.897 -1.0862  0.5713 -1.7379
 1076SOL     OW14689   1.383   4.708   2.294 -0.3438  0.6154 -0.1911
 1076SOL    HW114690   1.337   0.057   2.256 -0.8848  1.0200  1.2370
 1076SOL    HW214691   1.340   4.626   2.271 -1.1736  0.4965  1.7466
 1077SOL     OW14692   1.669   4.244   4.904 -0.3343  0.0841 -0.1108
 1077SOL    HW114693   1.717   4.305   4.960  0.9181 -1.2692  0.2991
 1077SOL    HW214694   1.701   4.241   4.814  1.6757 -1.8158  0.6497
 1078SOL     OW14695   3.130   1.076   5.885  0.1322  0.3398  0.4959
 1078SOL    HW114696   3.038   1.056   5.899  0.7754 -2.4046  0.6847
 1078SOL    HW214697   3.124   1.157   5.834  0.8652 -0.6069 -1.0881
 1079SOL     OW14698   3.486   2.073   5.220 -0.4102 -0.4955 -0.8197
 1079SOL    HW114699   3.500   2.167   5.206  0.0779 -0.1404  2.0938
 1079SOL    HW214700   3.498   2.039   5.132  0.7222 -0.1119 -0.8127
 1080SOL     OW14701   2.350   1.072   5.608 -0.1041 -0.3446  0.4378
 1080SOL    HW114702   2.379   0.998   5.661  1.1289  0.8760  1.4446
 1080SOL    HW214703   2.360   1.146   5.667 -1.0111 -0.9743  1.3830
 1081SOL     OW14704   0.822   2.447   4.853 -0.3840  0.1525  0.0256
 1081SOL    HW114705   0.739   2.484   4.823 -0.5922 -1.1096 -0.9057
 1081SOL    HW214706   0.880   2.498   4.796 -1.8830  2.9299  0.9369
 1082SOL     OW14707   4.252   1.143   3.642  0.1287  0.4636 -0.2642
 1082SOL    HW114708   4.164   1.179   3.653 -0.3897 -0.8150 -0.2365
 1082SOL    HW214709   4.264   1.101   3.727  2.5997 -0.3612 -1.0486
 1083SOL     OW14710   0.608   3.954   7.223 -0.3951 -0.6749  0.5830
 1083SOL    HW114711   0.619   3.910   7.139 -0.1797  1.4785 -0.5064
 1083SOL    HW214712   0.661   3.896   7.278 -0.0531  0.6065  1.5966
 1084SOL     OW14713   1.445   2.724   7.485 -0.0010  0.1520  0.0591
 1084SOL    HW114714   1.420   2.816   7.479 -2.2148 -0.3564  1.2379
 1084SOL    HW214715   1.436   2.707   7.579  1.5293  2.0139  0.5286
 1085SOL     OW14716   3.276   2.321   5.197  0.2433  0.2237  0.2871
 1085SOL    HW114717   3.366   2.350   5.212  0.0867  0.1416  1.3840
 1085SOL    HW214718   3.278   2.266   5.118 -2.4013  0.3789  0.1058
 1086SOL     OW14719   4.633   2.560   5.916  0.2059 -0.0595  0.2798
 1086SOL    HW114720   4.606   2.504   5.989  1.7853 -0.7959  0.2870
 1086SOL    HW214721   4.660   2.491   5.856 -0.1800 -0.4239  0.5225
 1087SOL     OW14722   2.459   0.021   1.269 -0.0732 -0.4845  0.1198
 1087SOL    HW114723   2.529   0.026   1.203 -0.0825  0.0355  0.1430
 1087SOL    HW214724   2.386   4.716   1.215 -1.1296 -0.5047  1.5652
 1088SOL     OW14725   1.846   4.606  10.753  0.2830  0.1876  0.0781
 1088SOL    HW114726   1.858   4.563  10.838  0.8398 -0.5650 -0.3780
 1088SOL    HW214727   1.902   4.683  10.759 -0.4281  0.7054  0.0625
 1089SOL     OW14728   1.939   4.593  14.786 -0.1805 -0.3828 -0.7750
 1089SOL    HW114729   1.994   4.592  14.865  0.0618 -0.6249 -0.9483
 1089SOL    HW214730   1.852   4.608  14.825 -0.3037 -2.3337 -0.2997
 1090SOL     OW14731   0.629   1.439   7.368  0.0846  0.6136 -0.1410
 1090SOL    HW114732   0.659   1.356   7.332 -0.7049  0.5063 -0.5323
 1090SOL    HW214733   0.624   1.490   7.288 -0.0474  1.3446  0.3340
 1091SOL     OW14734   0.892   0.768   1.675 -0.0845  0.1680 -0.6566
 1091SOL    HW114735   0.886   0.860   1.699 -1.6850 -0.7501  2.5811
 1091SOL    HW214736   0.830   0.738   1.741  0.7192 -0.4911 -0.2001
 1092SOL     OW14737   3.389   4.370   7.767 -0.1100  0.3973  0.1201
 1092SOL    HW114738   3.484   4.382   7.770  0.2955 -2.2388 -1.7148
 1092SOL    HW214739   3.368   4.382   7.859 -0.3610  0.0352  0.1121
 1093SOL     OW14740   2.321   1.817  14.903  0.6366 -0.2018 -0.1174
 1093SOL    HW114741   2.241   1.868  14.886  0.1904 -0.5416  0.9568
 1093SOL    HW214742   2.310   1.788  14.993 -0.8534  1.0100  0.1019
 1094SOL     OW14743   3.643   0.277   7.429 -0.0855  0.0191 -0.0791
 1094SOL    HW114744   3.547   0.284   7.431 -0.1820 -0.9090 -1.6019
 1094SOL    HW214745   3.664   0.305   7.340  1.6277 -1.7702 -0.2333
 1095SOL     OW14746   1.327   4.204   2.358  0.0389 -0.1715  0.0898
 1095SOL    HW114747   1.339   4.160   2.273 -0.2974 -1.4568  0.7104
 1095SOL    HW214748   1.418   4.199   2.385  0.4785  2.3055 -0.9556
 1096SOL     OW14749   2.449   3.852   4.607 -0.8091 -0.1813  0.0067
 1096SOL    HW114750   2.428   3.832   4.516 -0.7109 -2.3401  0.4494
 1096SOL    HW214751   2.529   3.902   4.594 -0.6754 -0.3887  0.0440
 1097SOL     OW14752   4.323   3.374   4.826  0.3571  0.4398 -0.3499
 1097SOL    HW114753   4.359   3.300   4.875 -2.1881 -1.8660 -1.9541
 1097SOL    HW214754   4.298   3.336   4.742 -0.0875 -0.9408  0.4039
 1098SOL     OW14755   2.559   3.403   4.886 -0.4020  0.6354 -0.7036
 1098SOL    HW114756   2.470   3.378   4.912  0.3810  0.1061  1.4447
 1098SOL    HW214757   2.565   3.368   4.797 -0.7643 -0.6600 -0.2165
 1099SOL     OW14758   0.376   2.321   5.074 -0.2648  0.0509 -0.2963
 1099SOL    HW114759   0.428   2.333   4.995 -0.2983  0.4080 -0.2623
 1099SOL    HW214760   0.360   2.227   5.075 -0.6365  0.1186 -0.0266
 1100SOL     OW14761   1.124   3.140   4.992  0.4193 -0.3208 -0.3548
 1100SOL    HW114762   1.151   3.076   4.926 -0.3356 -3.2940  2.2665
 1100SOL    HW214763   1.142   3.224   4.949  1.3200  1.6603  3.9426
 1101SOL     OW14764   0.381   0.597   6.528  0.5711 -0.8746  0.2428
 1101SOL    HW114765   0.384   0.681   6.574 -1.9550 -2.3981  3.1406
 1101SOL    HW214766   0.346   0.625   6.444  0.5951 -0.4343  0.3775
 1102SOL     OW14767   3.498   1.570   8.139 -0.1209 -0.0127  0.5504
 1102SOL    HW114768   3.527   1.526   8.218 -0.5517  0.0268  0.7319
 1102SOL    HW214769   3.570   1.549   8.079 -0.7537 -0.9197  0.0974
 1103SOL     OW14770   0.783   2.360   4.434 -0.2350  0.0202  0.4816
 1103SOL    HW114771   0.804   2.268   4.449  1.8718  0.4355  0.0854
 1103SOL    HW214772   0.711   2.366   4.497  0.2135  0.1496  0.9829
 1104SOL     OW14773   1.956   1.342  17.384  0.3392 -0.0999 -0.4899
 1104SOL    HW114774   1.905   1.324  17.464  1.2179 -0.0305  0.0901
 1104SOL    HW214775   1.931   1.268  17.330 -0.8785 -0.5738  0.7144
 1105SOL     OW14776   3.190   2.301   7.105  0.0021 -0.2936 -0.0874
 1105SOL    HW114777   3.233   2.364   7.047  1.1822 -1.5396 -0.5519
 1105SOL    HW214778   3.251   2.228   7.097  1.2795  0.7706 -0.0381
 1106SOL     OW14779   2.541   3.632   5.881 -0.3486 -0.3289 -0.0288
 1106SOL    HW114780   2.470   3.608   5.822  0.4863 -5.3625  1.0110
 1106SOL    HW214781   2.532   3.575   5.958 -1.5237  2.2545  1.7342
 1107SOL     OW14782   2.359   0.950   4.823 -0.3389  0.2908 -0.1560
 1107SOL    HW114783   2.373   1.039   4.855  1.1352 -0.4129  1.1507
 1107SOL    HW214784   2.449   0.920   4.832 -0.7673 -0.8508  0.2802
 1108SOL     OW14785   3.568   4.644   3.206  0.2087  0.6471  0.3523
 1108SOL    HW114786   3.526   4.621   3.123  2.1849 -0.1849 -0.4103
 1108SOL    HW214787   3.645   4.588   3.208 -1.4522 -1.6862 -1.3491
 1109SOL     OW14788   1.419   2.903   1.553  0.0655  0.7270  0.0106
 1109SOL    HW114789   1.399   2.952   1.473 -2.0803  3.1807  2.0222
 1109SOL    HW214790   1.333   2.872   1.582  1.2770  0.1810  3.0194
 1110SOL     OW14791   4.086   1.629   7.265 -0.2711 -0.0788  0.4424
 1110SOL    HW114792   4.085   1.536   7.287 -0.8064 -0.2436 -0.2505
 1110SOL    HW214793   3.996   1.650   7.293  0.3188  1.3296  1.2748
 1111SOL     OW14794   2.199   1.270   8.954 -0.4155  0.2193  0.2483
 1111SOL    HW114795   2.184   1.343   9.014 -0.2702  0.4627 -0.0105
 1111SOL    HW214796   2.288   1.287   8.924 -1.2595  0.2028 -2.2788
 1112SOL     OW14797   0.722   2.623   7.479  0.0998  0.1023  0.0627
 1112SOL    HW114798   0.705   2.550   7.538 -0.1756 -0.0852 -0.2521
 1112SOL    HW214799   0.784   2.662   7.540  0.6678 -0.0616 -0.4097
 1113SOL     OW14800   0.444   3.367   7.519 -0.0062 -0.0831  0.5823
 1113SOL    HW114801   0.400   3.396   7.438 -0.0830 -0.0986  0.6180
 1113SOL    HW214802   0.414   3.419   7.593  1.9438  0.7918  0.7564
 1114SOL     OW14803   4.188   2.141   3.402 -0.2515  0.5219 -0.1072
 1114SOL    HW114804   4.229   2.058   3.425 -1.2848 -0.3859 -1.5225
 1114SOL    HW214805   4.162   2.128   3.311  0.6194 -2.2340  0.0215
 1115SOL     OW14806   0.490   3.240   5.120  0.1768  0.1646  0.0959
 1115SOL    HW114807   0.459   3.327   5.145  3.9896  1.7205 -0.5211
 1115SOL    HW214808   0.490   3.236   5.025  2.0082  0.8260  0.0520
 1116SOL     OW14809   4.412   3.582  10.022  0.1695  0.5359 -0.2024
 1116SOL    HW114810   4.472   3.518  10.061 -0.1106 -0.5368 -1.5349
 1116SOL    HW214811   4.475   3.653  10.010  1.1513 -0.2520  0.1749
 1117SOL     OW14812   1.120   0.892  16.164 -0.1551 -0.8714  0.2624
 1117SOL    HW114813   1.076   0.955  16.222  2.0727  1.5069 -0.6444
 1117SOL    HW214814   1.207   0.931  16.166 -1.3283  1.6931  0.9476
 1118SOL     OW14815   0.601   3.866   2.064  0.0062  0.4776 -0.0193
 1118SOL    HW114816   0.531   3.890   2.124  0.3694  0.4068  0.4282
 1118SOL    HW214817   0.635   3.794   2.117 -0.9700 -0.0342 -0.0991
 1119SOL     OW14818   0.764   0.545  15.140  0.8964  0.3065  0.0477
 1119SOL    HW114819   0.823   0.499  15.201  1.4436  1.4649  0.3832
 1119SOL    HW214820   0.812   0.538  15.057 -2.1780 -4.2913 -1.3413
 1120SOL     OW14821   3.236   2.467   3.893 -0.0556 -0.5588  0.0016
 1120SOL    HW114822   3.193   2.553   3.894 -0.6836 -0.8654 -1.4896
 1120SOL    HW214823   3.325   2.503   3.892 -0.1227 -0.4740 -1.7887
 1121SOL     OW14824   1.551   4.032   5.801 -0.5238  0.4768  0.2615
 1121SOL    HW114825   1.560   4.110   5.747 -0.2769 -1.1104 -1.9970
 1121SOL    HW214826   1.622   3.976   5.771 -1.1779  1.3248 -2.8321
 1122SOL     OW14827   0.273   2.520  16.755 -0.2222 -0.0573  0.3036
 1122SOL    HW114828   0.226   2.577  16.694  0.5178 -0.7363 -0.9051
 1122SOL    HW214829   0.202   2.478  16.804  1.5095 -1.9059  1.2357
 1123SOL     OW14830   4.621   3.123   7.797  0.1867  0.2595  0.3825
 1123SOL    HW114831   4.714   3.143   7.786  0.1918  0.1410  0.2040
 1123SOL    HW214832   4.627   3.037   7.837  3.1662  1.7991  3.2321
 1124SOL     OW14833   1.448   1.639   5.510 -0.0380 -0.3245 -0.3373
 1124SOL    HW114834   1.397   1.701   5.457  1.1459 -1.1891 -2.4986
 1124SOL    HW214835   1.533   1.665   5.476  1.1817 -1.4392  1.8702
 1125SOL     OW14836   0.748   2.930   5.740 -0.0001  0.4659  0.0001
 1125SOL    HW114837   0.779   2.942   5.650 -0.4128  1.8739  0.0449
 1125SOL    HW214838   0.692   3.007   5.743 -0.2930  0.2851 -0.7728
 1126SOL     OW14839   1.657   4.715   9.000  0.0890  0.3661  0.3757
 1126SOL    HW114840   1.654   4.657   9.075 -0.5818  1.1162  0.9296
 1126SOL    HW214841   1.571   0.029   9.014 -0.0902 -0.0272  0.3578
 1127SOL     OW14842   0.371   3.651   6.498  0.5712  0.4974 -0.3764
 1127SOL    HW114843   0.361   3.651   6.403  0.2366  0.0061 -0.3459
 1127SOL    HW214844   0.386   3.558   6.518  0.6055  0.2452 -1.5642
 1128SOL     OW14845   0.535   2.062  16.968  0.3593  0.0303  0.0036
 1128SOL    HW114846   0.477   2.102  17.033  0.9567  2.3062 -0.8730
 1128SOL    HW214847   0.477   2.009  16.913 -2.2897  1.3830  1.5111
 1129SOL     OW14848   1.660   3.032   5.688 -0.0698  0.4205 -0.3603
 1129SOL    HW114849   1.697   2.963   5.633  1.7829  0.7323  0.4941
 1129SOL    HW214850   1.698   3.015   5.774  0.6381 -0.9107 -0.9518
 1130SOL     OW14851   3.623   3.761   4.360 -0.2518  0.6253  0.3337
 1130SOL    HW114852   3.642   3.673   4.329 -2.0846  0.2060  0.3795
 1130SOL    HW214853   3.604   3.806   4.278 -3.1771  1.9264  1.6918
 1131SOL     OW14854   0.342   1.556  17.069  0.4389 -0.6880  0.3583
 1131SOL    HW114855   0.404   1.569  16.997 -1.6650  2.6088 -0.8851
 1131SOL    HW214856   0.261   1.598  17.040 -1.5066 -2.6383  2.9235
 1132SOL     OW14857   3.412   0.716  13.248  0.1800  0.2267 -0.1572
 1132SOL    HW114858   3.390   0.623  13.257  1.0617 -0.0593 -0.9361
 1132SOL    HW214859   3.500   0.713  13.210 -0.1838 -1.0552 -0.9080
 1133SOL     OW14860   4.316   2.836  11.236 -0.0671 -0.0199 -0.0512
 1133SOL    HW114861   4.371   2.807  11.310  1.1747 -0.8870 -1.3205
 1133SOL    HW214862   4.226   2.843  11.267  0.3126 -0.9421  1.2796
 1134SOL     OW14863   4.647   1.556   3.119  0.1268  0.0403 -0.0563
 1134SOL    HW114864   4.678   1.639   3.155  0.0213  0.8266 -1.7723
 1134SOL    HW214865   4.701   1.497   3.171  0.3278 -0.9011 -1.3259
 1135SOL     OW14866   2.369   2.395  14.053 -0.3875  1.1788 -0.0628
 1135SOL    HW114867   2.417   2.473  14.026  1.1819  0.2111 -0.0782
 1135SOL    HW214868   2.426   2.359  14.121  0.7770 -0.4237 -1.8715
 1136SOL     OW14869   1.455   1.160   6.229 -0.0088 -0.3015  0.0532
 1136SOL    HW114870   1.513   1.210   6.287  0.7414 -0.3907 -0.6041
 1136SOL    HW214871   1.401   1.135   6.304 -0.2519  2.2238  0.7366
 1137SOL     OW14872   1.421   1.710  17.475 -0.1742 -0.5506 -0.0581
 1137SOL    HW114873   1.357   1.698  17.546  0.9356 -0.0311  1.0402
 1137SOL    HW214874   1.355   1.724  17.407  0.3892 -2.2891 -0.9569
 1138SOL     OW14875   3.151   3.510   6.161  0.6219  0.0988  0.3802
 1138SOL    HW114876   3.246   3.517   6.172  0.5434 -2.1460  2.5551
 1138SOL    HW214877   3.130   3.426   6.120  2.0664 -0.0381 -0.1118
 1139SOL     OW14878   1.927   2.191   6.465  0.1955 -0.0396 -0.6218
 1139SOL    HW114879   1.922   2.109   6.514 -0.6059 -0.6442 -1.7202
 1139SOL    HW214880   1.951   2.260   6.527 -1.9917  0.1290  0.0663
 1140SOL     OW14881   0.550   4.056   2.411  0.9926  0.0173  0.3472
 1140SOL    HW114882   0.607   3.995   2.458  0.1214 -0.7556  0.3938
 1140SOL    HW214883   0.507   4.098   2.486  0.2312  1.4924 -0.8930
 1141SOL     OW14884   4.656   3.330  10.728 -0.1794  0.0292  0.2415
 1141SOL    HW114885   0.021   3.309  10.703 -0.3026 -2.6058  2.0428
 1141SOL    HW214886   4.638   3.259  10.789  2.9050 -0.9437  0.0000
 1142SOL     OW14887   4.047   1.969   8.694  0.0893 -1.2659  0.2635
 1142SOL    HW114888   4.130   1.995   8.736 -0.2734  1.3429 -0.6162
 1142SOL    HW214889   3.994   2.033   8.743  0.2621 -1.2400  0.4185
 1143SOL     OW14890   3.492   0.266   0.414 -0.0639 -0.6692  0.2179
 1143SOL    HW114891   3.490   0.270   0.510  1.8217  0.0131  0.2210
 1143SOL    HW214892   3.467   0.175   0.397  0.8213 -0.4136 -2.5131
 1144SOL     OW14893   4.593   2.519  12.918  0.1201  0.1256  0.4589
 1144SOL    HW114894   4.530   2.501  12.987 -0.5575 -0.8346 -0.4039
 1144SOL    HW214895   4.624   2.430  12.901  0.6889  0.2645  0.7751
 1145SOL     OW14896   1.784   3.755   7.621  0.1610 -0.0982 -0.3806
 1145SOL    HW114897   1.843   3.680   7.619 -0.5800 -0.6728 -0.5379
 1145SOL    HW214898   1.844   3.829   7.619  0.5021 -0.4153 -2.1591
 1146SOL     OW14899   0.269   3.499  12.393 -0.1253 -0.2027 -0.3612
 1146SOL    HW114900   0.174   3.497  12.382 -0.3464  1.7468  1.1214
 1146SOL    HW214901   0.274   3.591  12.421  1.3406 -0.0128 -1.2573
 1147SOL     OW14902   4.295   3.852  12.824 -0.0313  0.3985  0.1202
 1147SOL    HW114903   4.221   3.902  12.860  1.7542  2.7589  0.4880
 1147SOL    HW214904   4.353   3.920  12.791  1.8083 -0.7516  1.0112
 1148SOL     OW14905   4.184   2.778   8.885  0.3784  0.1110  0.2440
 1148SOL    HW114906   4.224   2.691   8.892  0.5651  0.1767 -0.0149
 1148SOL    HW214907   4.170   2.799   8.978 -0.3632  0.1846  0.1119
 1149SOL     OW14908   2.195   3.717   2.721  0.1849  0.1151 -0.4194
 1149SOL    HW114909   2.287   3.711   2.747 -0.7715 -1.0787  2.6267
 1149SOL    HW214910   2.220   3.726   2.629  0.1782  0.6402 -0.3734
 1150SOL     OW14911   3.017   0.281  14.570 -0.1666  0.6002  0.2750
 1150SOL    HW114912   3.081   0.248  14.507  0.0820 -0.3694  1.0438
 1150SOL    HW214913   2.964   0.342  14.518 -0.1152 -0.9851 -1.6346
 1151SOL     OW14914   4.513   4.030  16.003  0.0808  0.0611 -0.2658
 1151SOL    HW114915   4.511   4.082  15.923 -0.9404 -0.6166 -0.6828
 1151SOL    HW214916   4.577   3.961  15.982 -1.3236 -0.8894 -1.4338
 1152SOL     OW14917   4.144   2.738   4.278  1.0398  0.4969 -0.0470
 1152SOL    HW114918   4.099   2.656   4.297 -0.2317  1.5713  1.5585
 1152SOL    HW214919   4.104   2.772   4.198 -1.9678  0.7700  1.5653
 1153SOL     OW14920   0.729   1.651  10.040  0.1308  0.8078  0.0903
 1153SOL    HW114921   0.760   1.728   9.992 -0.0873  2.9518  3.3385
 1153SOL    HW214922   0.787   1.591   9.993 -0.4063 -0.0427  0.4990
 1154SOL     OW14923   2.271   1.205  17.414 -0.2426 -0.2649 -0.3629
 1154SOL    HW114924   2.365   1.224  17.412 -0.4835  0.9713 -0.2797
 1154SOL    HW214925   2.231   1.292  17.420 -3.0767 -1.5591 -0.6499
 1155SOL     OW14926   4.508   3.334   2.862 -0.3342 -0.1224  0.0442
 1155SOL    HW114927   4.461   3.343   2.779 -2.1053  0.7696  1.1431
 1155SOL    HW214928   4.547   3.247   2.855  1.4444  0.7910 -1.3402
 1156SOL     OW14929   4.388   4.233   5.269 -0.0222 -0.7997 -0.0780
 1156SOL    HW114930   4.299   4.199   5.282 -0.1317 -0.9559 -1.2349
 1156SOL    HW214931   4.423   4.162   5.216  0.8067 -0.2184 -0.3106
 1157SOL     OW14932   2.956   1.256  14.348  0.1969 -0.0328 -0.2031
 1157SOL    HW114933   2.901   1.266  14.425  2.0054 -0.5009  1.1554
 1157SOL    HW214934   2.999   1.172  14.363  0.8685  0.2261 -0.6681
 1158SOL     OW14935   2.476   2.431   7.321 -0.0166 -0.0183  0.0007
 1158SOL    HW114936   2.413   2.362   7.342 -0.1865  0.7794  2.0218
 1158SOL    HW214937   2.433   2.463   7.242 -0.1539 -3.3740 -1.2738
 1159SOL     OW14938   3.202   0.712   1.733 -0.2168 -0.0024  0.4141
 1159SOL    HW114939   3.142   0.642   1.710  0.7893 -0.1527 -1.8477
 1159SOL    HW214940   3.252   0.683   1.809  0.6594 -2.1268 -0.9650
 1160SOL     OW14941   3.076   4.448   8.878 -0.1300  0.1909  0.3219
 1160SOL    HW114942   3.169   4.431   8.862  0.4069  2.7209  0.6639
 1160SOL    HW214943   3.067   4.541   8.858  0.1402  0.3416  0.8848
 1161SOL     OW14944   1.147   3.609   2.857 -0.1233  0.4782 -0.0504
 1161SOL    HW114945   1.217   3.674   2.855 -0.5810  0.9674 -0.3931
 1161SOL    HW214946   1.167   3.570   2.942  1.2440  0.6921 -0.2782
 1162SOL     OW14947   3.268   0.974   2.055 -0.1247  0.2879  0.2974
 1162SOL    HW114948   3.173   0.987   2.055 -0.0923  0.5020 -0.1431
 1162SOL    HW214949   3.271   0.899   1.995 -3.9248  0.8669 -0.6160
 1163SOL     OW14950   1.444   2.061   5.093 -0.0895 -0.4910 -0.3102
 1163SOL    HW114951   1.458   2.141   5.042  1.2031 -0.5580 -0.0687
 1163SOL    HW214952   1.353   2.070   5.122  0.7021  1.5728  1.5415
 1164SOL     OW14953   1.788   1.424  11.128  0.4599  0.0472  0.3279
 1164SOL    HW114954   1.822   1.454  11.212  1.3197  0.9986 -0.3681
 1164SOL    HW214955   1.726   1.359  11.161  0.3357 -0.7553 -1.4777
 1165SOL     OW14956   4.603   0.976   5.177  0.8610 -0.1056 -0.0029
 1165SOL    HW114957   4.659   1.039   5.221 -0.0799 -0.3231  1.5080
 1165SOL    HW214958   4.542   1.031   5.127  0.5165 -0.2802  0.2295
 1166SOL     OW14959   1.703   3.375  13.927 -0.4908  0.2658  0.5576
 1166SOL    HW114960   1.719   3.377  13.833 -1.0094 -0.8077  0.4420
 1166SOL    HW214961   1.780   3.326  13.957  0.2292  0.9656 -0.1634
 1167SOL     OW14962   3.897   0.109   3.567  0.2651 -0.2020 -0.0519
 1167SOL    HW114963   3.973   0.082   3.618 -0.0890  0.2613  0.7115
 1167SOL    HW214964   3.830   0.047   3.594  2.1349 -2.2583 -0.0919
 1168SOL     OW14965   2.786   0.388   5.609 -0.6048  0.1768  0.0515
 1168SOL    HW114966   2.815   0.461   5.554 -1.7883 -0.8352 -1.9303
 1168SOL    HW214967   2.831   0.313   5.569  1.2138  1.0399  0.5140
 1169SOL     OW14968   2.091   1.282  16.708 -0.2279 -0.4076 -0.0735
 1169SOL    HW114969   2.180   1.272  16.741  0.2988  0.5603 -1.1978
 1169SOL    HW214970   2.064   1.343  16.776  1.2701 -0.3491  0.4668
 1170SOL     OW14971   0.282   0.348  13.827  0.3166 -0.0232 -0.2682
 1170SOL    HW114972   0.272   0.257  13.853  1.1674  0.0852  0.4222
 1170SOL    HW214973   0.326   0.380  13.906 -2.0508 -0.1125  1.0853
 1171SOL     OW14974   2.527   2.682   4.496  0.1447  0.5701  0.4666
 1171SOL    HW114975   2.618   2.709   4.495 -0.3969  2.3710  0.6905
 1171SOL    HW214976   2.514   2.661   4.589 -0.7971 -5.5640 -1.0399
 1172SOL     OW14977   3.551   4.077  17.518 -0.1506  0.5612 -0.3977
 1172SOL    HW114978   3.561   4.146  17.583 -0.7942 -0.6715  1.0009
 1172SOL    HW214979   3.622   4.095  17.456  2.2833 -1.9115  1.7086
 1173SOL     OW14980   3.363   4.065   7.672  0.1609  0.7675  0.7626
 1173SOL    HW114981   3.361   4.147   7.721  0.8194  1.9633 -1.2522
 1173SOL    HW214982   3.320   4.010   7.738  0.2883 -1.5840 -1.1288
 1174SOL     OW14983   4.064   4.639  15.538  0.7465  0.3841 -0.0233
 1174SOL    HW114984   4.142   4.636  15.482 -0.2014  0.8584 -1.3585
 1174SOL    HW214985   4.070   4.545  15.557  3.1890  0.1359 -1.9897
 1175SOL     OW14986   1.614   4.709   8.708  0.0219  0.0024  0.4805
 1175SOL    HW114987   1.662   4.697   8.790  0.9418  0.8453  0.0624
 1175SOL    HW214988   1.593   0.077   8.710 -0.9037 -0.2094  1.0056
 1176SOL     OW14989   2.781   0.089   6.675  0.4430 -0.2881  0.2696
 1176SOL    HW114990   2.849   0.098   6.608  0.4063  2.2616  0.5771
 1176SOL    HW214991   2.796   0.173   6.719  0.9061 -0.3995  0.3206
 1177SOL     OW14992   1.871   4.249   2.786 -0.1544  0.2940  0.1871
 1177SOL    HW114993   1.901   4.180   2.844 -1.8429 -0.8847 -0.3184
 1177SOL    HW214994   1.824   4.300   2.852 -0.7911  0.7931 -0.6466
 1178SOL     OW14995   0.417   1.090   7.922 -0.1438 -0.1407  0.0821
 1178SOL    HW114996   0.504   1.129   7.933  0.2082 -0.5912 -1.0399
 1178SOL    HW214997   0.445   0.999   7.929 -0.6416 -0.3457 -0.6176
 1179SOL     OW14998   3.926   0.141   6.612 -0.2497  0.0857 -0.0621
 1179SOL    HW114999   3.988   0.069   6.615  0.5029  0.6834 -1.1843
 1179SOL    HW215000   3.854   0.105   6.664 -1.6800  2.0473 -0.6866
 1180SOL     OW15001   1.166   2.663   7.233  0.0814  0.1359  0.1123
 1180SOL    HW115002   1.252   2.620   7.242 -1.2428 -1.9371  2.6293
 1180SOL    HW215003   1.141   2.672   7.325  0.7073 -1.0570  0.4053
 1181SOL     OW15004   3.308   4.319   4.908 -0.4209 -0.0816 -0.3068
 1181SOL    HW115005   3.313   4.391   4.844 -0.1688  0.3859  0.2355
 1181SOL    HW215006   3.318   4.236   4.862  0.0956  0.0069 -0.3585
 1182SOL     OW15007   1.148   3.281  14.194  0.8425  0.0579 -0.4806
 1182SOL    HW115008   1.119   3.221  14.264 -1.0851  0.7917 -0.6362
 1182SOL    HW215009   1.060   3.294  14.157  1.3895 -1.5412 -2.3453
 1183SOL     OW15010   3.795   4.348   2.255  0.1795  0.3523 -0.0003
 1183SOL    HW115011   3.765   4.430   2.217 -0.3434  0.2818  0.2613
 1183SOL    HW215012   3.778   4.293   2.178 -1.2380 -1.3607  1.5003
 1184SOL     OW15013   2.387   3.208  14.580 -0.0404 -0.0087 -0.4669
 1184SOL    HW115014   2.361   3.247  14.663 -0.1807 -0.1982 -0.4230
 1184SOL    HW215015   2.327   3.252  14.520 -0.7870  0.0456  0.3256
 1185SOL     OW15016   4.127   3.612   5.499 -0.2948 -0.2061 -0.0895
 1185SOL    HW115017   4.048   3.583   5.454  0.2292  0.2737 -1.3220
 1185SOL    HW215018   4.092   3.626   5.587  1.1621 -2.3928  0.8434
 1186SOL     OW15019   2.253   0.800   7.137 -0.2457  0.3183 -0.5210
 1186SOL    HW115020   2.279   0.888   7.164 -1.0415  0.3175  0.2615
 1186SOL    HW215021   2.247   0.750   7.218 -2.0049 -1.3484 -1.6713
 1187SOL     OW15022   2.565   3.401  16.302 -0.6248 -0.0627  0.0443
 1187SOL    HW115023   2.523   3.324  16.342 -2.3418  2.4537  3.0773
 1187SOL    HW215024   2.574   3.369  16.213 -1.1537  0.1988 -0.0992
 1188SOL     OW15025   1.538   4.306   6.703 -0.8085 -0.2790 -0.3214
 1188SOL    HW115026   1.552   4.308   6.797  1.7597  0.3071 -0.7374
 1188SOL    HW215027   1.444   4.290   6.693 -1.2233  0.9819  1.6259
 1189SOL     OW15028   1.607   0.724  10.436 -0.1285 -0.6291  0.0655
 1189SOL    HW115029   1.639   0.656  10.376  0.0589 -1.9208  1.6134
 1189SOL    HW215030   1.576   0.671  10.510  0.1756 -0.3586  0.3890
 1190SOL     OW15031   3.252   3.489   5.109  0.2707 -0.2563  0.2927
 1190SOL    HW115032   3.293   3.559   5.058 -0.4538  0.7640  1.1256
 1190SOL    HW215033   3.159   3.512   5.115  0.3971  0.3089  0.1094
 1191SOL     OW15034   0.066   0.078   1.684  0.0063 -0.0359  0.5730
 1191SOL    HW115035   0.040   4.711   1.677  0.3181 -0.0938  0.1542
 1191SOL    HW215036   0.158   0.075   1.659  0.5239 -0.4733  2.5267
 1192SOL     OW15037   4.591   3.646   8.824  0.6995  0.2939 -0.0759
 1192SOL    HW115038   4.671   3.667   8.872  0.8016  0.7222 -0.4317
 1192SOL    HW215039   4.564   3.561   8.859  2.7942  0.1402  1.1710
 1193SOL     OW15040   1.631   4.698   4.237 -0.4366 -0.1288  0.7819
 1193SOL    HW115041   1.712   4.680   4.286 -0.1760  0.6117  0.6148
 1193SOL    HW215042   1.654   0.044   4.177 -0.3406 -0.0146  0.9543
 1194SOL     OW15043   1.900   2.398  15.101 -0.6256  0.1096  0.4560
 1194SOL    HW115044   1.823   2.426  15.151 -0.8696 -1.7621  1.1440
 1194SOL    HW215045   1.932   2.319  15.145  1.1452  0.2696 -0.5369
 1195SOL     OW15046   2.763   3.235   6.483 -0.3398  0.0825 -0.2128
 1195SOL    HW115047   2.836   3.293   6.460  0.5238 -1.1571 -0.5499
 1195SOL    HW215048   2.709   3.302   6.525  1.0841  0.2885  1.2930
 1196SOL     OW15049   3.282   0.229   0.924  0.1693 -0.2973 -0.1570
 1196SOL    HW115050   3.236   0.231   0.840  0.2079  0.0527 -0.1677
 1196SOL    HW215051   3.374   0.218   0.898  0.5488 -1.8943  1.8317
 1197SOL     OW15052   0.838   1.249  11.632 -0.0688 -0.2272 -0.1185
 1197SOL    HW115053   0.821   1.272  11.723  0.6342  0.6690 -0.2160
 1197SOL    HW215054   0.751   1.237  11.594 -1.3063  1.1917  2.3417
 1198SOL     OW15055   2.225   3.679   5.104  0.1953  0.5400 -0.4615
 1198SOL    HW115056   2.291   3.629   5.152  0.6604 -0.2544 -1.9383
 1198SOL    HW215057   2.162   3.608   5.115  0.3928  0.1869 -1.5962
 1199SOL     OW15058   2.541   1.307  11.687 -0.1487 -0.7246 -0.4452
 1199SOL    HW115059   2.461   1.254  11.692  0.1375 -1.1291 -0.1343
 1199SOL    HW215060   2.595   1.249  11.634 -1.0770 -1.0499 -1.0257
 1200SOL     OW15061   2.275   4.049   2.529 -0.1281  0.0365  0.4256
 1200SOL    HW115062   2.235   4.030   2.444  2.0380  2.0251 -1.0309
 1200SOL    HW215063   2.336   3.975   2.531 -1.1523 -0.7681  2.8807
 1201SOL     OW15064   4.458   0.669   2.303  0.0685 -0.5587  0.5721
 1201SOL    HW115065   4.376   0.679   2.352 -0.3777  3.1749 -0.9318
 1201SOL    HW215066   4.515   0.617   2.360  1.5391  0.4265  0.0145
 1202SOL     OW15067   2.853   4.319   8.891 -0.1191  0.0211  0.2995
 1202SOL    HW115068   2.871   4.225   8.900  2.5821  0.8102  3.1923
 1202SOL    HW215069   2.941   4.356   8.887  0.7145 -2.1674 -1.4470
 1203SOL     OW15070   1.167   1.281   7.166 -0.3532 -0.1936 -0.1702
 1203SOL    HW115071   1.079   1.257   7.194 -0.5206  1.1375  0.4424
 1203SOL    HW215072   1.184   1.361   7.214  2.2211 -1.2487  0.6894
 1204SOL     OW15073   1.737   1.274   7.353  0.5215 -0.0738  1.0894
 1204SOL    HW115074   1.811   1.324   7.388 -0.4742  1.0582  1.5918
 1204SOL    HW215075   1.687   1.345   7.313 -1.6758 -1.5502  1.2145
 1205SOL     OW15076   0.516   2.853   5.031  0.0682  0.5764 -0.1932
 1205SOL    HW115077   0.600   2.817   5.002 -0.2668  0.8572 -1.5311
 1205SOL    HW215078   0.546   2.908   5.103  1.4725  0.4590 -0.6899
 1206SOL     OW15079   2.413   3.041   7.733 -0.0910 -0.5552  0.3232
 1206SOL    HW115080   2.350   3.019   7.801 -0.0876 -1.1467  0.1377
 1206SOL    HW215081   2.420   3.136   7.741 -0.6846 -0.3657 -1.2891
 1207SOL     OW15082   0.935   2.547   8.444  0.1927  0.2341 -0.1921
 1207SOL    HW115083   0.940   2.520   8.536 -0.1897 -0.6098 -0.4158
 1207SOL    HW215084   0.993   2.482   8.403  1.4786  0.5060  1.1868
 1208SOL     OW15085   2.127   0.560   4.945  0.4550  0.4084  0.8384
 1208SOL    HW115086   2.091   0.549   5.032  0.2691 -1.8028  0.4588
 1208SOL    HW215087   2.097   0.649   4.925  0.7014  0.1097 -0.8475
 1209SOL     OW15088   1.403   1.290   7.310  0.2422  0.0609  0.6464
 1209SOL    HW115089   1.460   1.306   7.236 -1.0996  1.6261 -0.0366
 1209SOL    HW215090   1.314   1.282   7.276 -0.3173  0.1092  2.1209
 1210SOL     OW15091   0.998   3.772   4.035  0.0885 -0.5455 -0.0727
 1210SOL    HW115092   1.013   3.706   3.968  4.3441 -1.4157  1.7271
 1210SOL    HW215093   1.012   3.718   4.112  1.8133  0.1865  0.1330
 1211SOL     OW15094   1.502   4.167  10.086 -0.1635 -0.2799  0.3144
 1211SOL    HW115095   1.594   4.190  10.091 -0.4073  0.8702 -0.5861
 1211SOL    HW215096   1.479   4.164  10.179  0.6727 -1.2573  0.4930
 1212SOL     OW15097   1.903   4.109   1.823 -0.3784  0.7763 -0.6372
 1212SOL    HW115098   1.856   4.137   1.745 -0.9714 -1.4047 -1.0575
 1212SOL    HW215099   1.834   4.074   1.879  2.3784 -1.9165  1.1379
 1213SOL     OW15100   4.275   0.920   4.283  0.3583  0.3153  0.2286
 1213SOL    HW115101   4.336   0.990   4.305  0.2758  0.2066  0.8163
 1213SOL    HW215102   4.306   0.854   4.345  1.5395 -0.0145 -0.7333
 1214SOL     OW15103   3.275   4.574  14.359 -0.1935  0.1946  0.6341
 1214SOL    HW115104   3.203   4.510  14.353 -0.5593  0.6502  0.1299
 1214SOL    HW215105   3.341   4.543  14.298 -0.9381  1.0351 -0.5830
 1215SOL     OW15106   3.191   2.787   8.649 -0.3818 -0.0228  0.1952
 1215SOL    HW115107   3.152   2.721   8.592  2.4491 -0.2865 -1.4212
 1215SOL    HW215108   3.185   2.748   8.736  1.3673  0.9581  0.7549
 1216SOL     OW15109   0.045   1.662   7.969 -0.7605  0.0453 -0.6969
 1216SOL    HW115110   4.697   1.641   7.912 -2.0767 -0.4098  1.1699
 1216SOL    HW215111   0.103   1.719   7.919 -0.6092  0.6079  0.1288
 1217SOL     OW15112   3.628   4.256   0.001 -0.0212  0.1720 -0.2166
 1217SOL    HW115113   3.557   4.288   0.057 -0.6480 -0.9202 -0.3775
 1217SOL    HW215114   3.703   4.315  17.701 -0.4362  0.7014 -0.0789
 1218SOL     OW15115   4.617   0.478   6.906 -0.4537 -0.1738 -0.1439
 1218SOL    HW115116   4.655   0.563   6.881  0.9767 -0.6541  0.3822
 1218SOL    HW215117   4.662   0.427   6.838  1.7346  1.9514 -0.2944
 1219SOL     OW15118   0.863   3.420   5.696  0.5012 -0.1121  0.2221
 1219SOL    HW115119   0.771   3.397   5.686  0.7324 -0.7564 -0.4949
 1219SOL    HW215120   0.906   3.376   5.622 -3.1542  1.2468 -2.7034
 1220SOL     OW15121   1.313   2.034   3.168 -0.4796 -0.5395  0.4764
 1220SOL    HW115122   1.378   2.095   3.135 -0.9119 -1.2123 -1.6277
 1220SOL    HW215123   1.281   1.995   3.087 -1.1447 -0.5659  0.7453
 1221SOL     OW15124   4.026   1.741   2.252 -0.0526  0.1009  0.1576
 1221SOL    HW115125   4.077   1.791   2.316 -0.4306  0.5749  0.0917
 1221SOL    HW215126   4.000   1.809   2.190  0.1262  0.0680  0.0463
 1222SOL     OW15127   1.513   1.164   0.697  0.0750  0.2642  0.0106
 1222SOL    HW115128   1.603   1.181   0.725 -0.5260  3.1966  0.1972
 1222SOL    HW215129   1.479   1.250   0.720  3.0532  1.5000 -0.1964
 1223SOL     OW15130   2.505   2.429   6.201 -0.1412 -0.1033  0.1719
 1223SOL    HW115131   2.567   2.358   6.222  1.6862  1.3889 -0.1475
 1223SOL    HW215132   2.443   2.373   6.155 -0.3169 -0.0623  0.3569
 1224SOL     OW15133   2.655   4.406   6.988  0.0832  0.1462  0.7841
 1224SOL    HW115134   2.628   4.492   7.021 -1.7809  0.4057 -1.3910
 1224SOL    HW215135   2.670   4.357   7.069 -0.8561 -1.5298 -0.0607
 1225SOL     OW15136   3.737   1.145  13.749 -0.8377  0.5035 -0.1361
 1225SOL    HW115137   3.674   1.083  13.712  0.6724 -2.7968  2.8757
 1225SOL    HW215138   3.691   1.223  13.781 -2.3708 -0.7030  0.5977
 1226SOL     OW15139   2.818   4.579   6.051  0.3499 -0.0654 -0.3603
 1226SOL    HW115140   2.843   4.507   5.992 -2.1735  0.5484 -2.1679
 1226SOL    HW215141   2.819   4.527   6.131 -1.6002  1.2703  0.5402
 1227SOL     OW15142   1.307   2.855   3.553 -0.6661 -0.6263 -0.8301
 1227SOL    HW115143   1.245   2.796   3.509  0.6244 -3.0767  0.6236
 1227SOL    HW215144   1.391   2.814   3.530  0.5381  0.4486  1.7335
 1228SOL     OW15145   1.200   2.333   4.499  0.3186  0.0597 -0.1087
 1228SOL    HW115146   1.229   2.292   4.418 -1.3421  1.5179 -1.4280
 1228SOL    HW215147   1.157   2.256   4.536  0.6331 -0.6450 -1.2124
 1229SOL     OW15148   1.981   2.606   2.849  0.1408 -0.1725 -0.4181
 1229SOL    HW115149   2.032   2.679   2.814  1.1542 -0.3120  0.7686
 1229SOL    HW215150   1.980   2.554   2.769  0.3700 -0.5245 -0.1944
 1230SOL     OW15151   3.114   4.625   7.969  0.6088 -0.5916 -0.1259
 1230SOL    HW115152   3.066   4.541   7.973 -2.5109  1.2600  1.4970
 1230SOL    HW215153   3.142   4.642   8.058  0.7171  0.0339 -0.2816
 1231SOL     OW15154   4.507   1.019   3.996 -0.4900  0.7213 -0.3181
 1231SOL    HW115155   4.489   1.092   4.056 -2.1686 -1.6286  2.0377
 1231SOL    HW215156   4.572   1.060   3.939  1.7678 -0.4745  1.3793
 1232SOL     OW15157   1.716   1.993   6.730  0.2417 -0.2458  0.3037
 1232SOL    HW115158   1.668   1.956   6.656  0.3457  0.5086 -0.1430
 1232SOL    HW215159   1.651   2.043   6.778 -0.1383 -0.2507 -0.2055
 1233SOL     OW15160   0.330   4.397   6.895 -0.3486 -0.3074  0.2451
 1233SOL    HW115161   0.376   4.409   6.812  0.6412  1.9844  1.1279
 1233SOL    HW215162   0.387   4.333   6.938  2.5184  0.1662 -2.8392
 1234SOL     OW15163   3.339   3.464   2.862 -0.2468 -0.3591 -0.5453
 1234SOL    HW115164   3.290   3.466   2.780  0.0986  1.1835 -0.7156
 1234SOL    HW215165   3.359   3.370   2.854  0.8275 -0.1146 -0.6994
 1235SOL     OW15166   0.113   4.087   3.846  0.7034 -0.6388 -0.3419
 1235SOL    HW115167   0.139   4.009   3.797 -0.2654 -1.8847  1.1363
 1235SOL    HW215168   0.113   4.059   3.938  1.0912 -0.2624 -0.2253
 1236SOL     OW15169   0.740   3.412   8.936 -0.1338 -0.1987 -0.4691
 1236SOL    HW115170   0.817   3.358   8.919 -0.8312 -1.3930  0.1205
 1236SOL    HW215171   0.673   3.350   8.908 -0.2569 -0.9367  1.4407
 1237SOL     OW15172   3.923   1.082   9.993 -0.1681  0.3620 -0.2108
 1237SOL    HW115173   3.948   1.019  10.061  1.7919  0.6825 -0.6454
 1237SOL    HW215174   3.830   1.087  10.018 -0.8455 -1.8366 -2.2342
 1238SOL     OW15175   1.722   4.307   4.617 -0.7338  0.2408 -0.1047
 1238SOL    HW115176   1.801   4.359   4.598  1.3313 -2.0365  2.2043
 1238SOL    HW215177   1.727   4.253   4.538 -2.4311 -0.0375 -0.0072
 1239SOL     OW15178   3.164   2.837   7.524 -0.5085 -0.4755 -0.3077
 1239SOL    HW115179   3.201   2.780   7.456  3.0021 -2.1480  3.0623
 1239SOL    HW215180   3.146   2.775   7.595 -0.0804 -1.2427 -0.8628
 1240SOL     OW15181   1.735   1.875   5.537 -0.8783  0.1276  0.0511
 1240SOL    HW115182   1.713   1.801   5.593  0.7708  1.1529  2.0680
 1240SOL    HW215183   1.740   1.840   5.448  0.7365 -0.9001  0.5554
 1241SOL     OW15184   4.304   1.893   3.433 -0.1336 -0.3349 -0.0419
 1241SOL    HW115185   4.257   1.819   3.471  0.4767 -1.0804 -0.7090
 1241SOL    HW215186   4.338   1.846   3.356  0.3207 -0.2522  0.1081
 1242SOL     OW15187   0.306   1.539   7.316 -0.0244 -0.0255 -0.1828
 1242SOL    HW115188   0.313   1.521   7.410 -2.8770  1.5431  0.3095
 1242SOL    HW215189   0.393   1.513   7.284  0.8808 -0.2936  2.5004
 1243SOL     OW15190   3.489   4.397   9.039 -0.3853  0.6912 -0.1158
 1243SOL    HW115191   3.542   4.477   9.045 -3.0060  2.4810 -0.8060
 1243SOL    HW215192   3.513   4.342   9.113 -0.9302  0.2649 -0.2602
 1244SOL     OW15193   2.997   2.213   1.887 -0.3463  0.0626  0.2486
 1244SOL    HW115194   2.979   2.124   1.916  1.1268  0.2486  1.6924
 1244SOL    HW215195   3.091   2.212   1.902 -0.1394 -0.5279 -1.0768
 1245SOL     OW15196   4.350   1.498  12.002 -0.1105  0.1026 -0.4866
 1245SOL    HW115197   4.363   1.429  11.937 -2.3666 -2.3076  1.6101
 1245SOL    HW215198   4.379   1.579  11.960  0.2796  1.0299  1.6117
 1246SOL     OW15199   0.622   0.076  14.370  0.1241 -0.4630  0.1308
 1246SOL    HW115200   0.599   4.711  14.392  1.6945 -0.7552  0.5891
 1246SOL    HW215201   0.703   0.078  14.421  0.3691  1.3917 -0.3364
 1247SOL     OW15202   2.777   0.547   3.276 -0.0657 -0.6395  0.0176
 1247SOL    HW115203   2.757   0.485   3.346  0.0226  1.3368  1.7798
 1247SOL    HW215204   2.705   0.523   3.218 -0.9128 -0.4806  1.0109
 1248SOL     OW15205   2.758   2.712   7.848  0.0816 -0.7079  0.2131
 1248SOL    HW115206   2.707   2.661   7.785 -0.0629 -0.1405 -0.1309
 1248SOL    HW215207   2.748   2.802   7.818  0.7795 -0.7032  0.0033
 1249SOL     OW15208   2.682   1.820   8.799  0.0094 -0.1766  0.2652
 1249SOL    HW115209   2.729   1.738   8.814  1.5780  1.2008  2.9968
 1249SOL    HW215210   2.741   1.859   8.735 -1.3089  1.6876  0.2104
 1250SOL     OW15211   3.937   4.263   5.437  0.1163 -0.4409  0.2670
 1250SOL    HW115212   4.013   4.321   5.432  1.3081 -1.9588  0.9233
 1250SOL    HW215213   3.878   4.326   5.479  2.9672  0.7104  2.5755
 1251SOL     OW15214   0.223   2.748  14.268  0.1043  0.2330 -0.4646
 1251SOL    HW115215   0.194   2.835  14.240 -0.0487  0.1022 -0.7141
 1251SOL    HW215216   0.132   2.722  14.285  0.5015 -0.9575 -0.1464
 1252SOL     OW15217   3.013   4.122   1.267 -0.1983 -0.4753 -0.1500
 1252SOL    HW115218   3.025   4.029   1.284 -1.0938 -0.3076  1.3298
 1252SOL    HW215219   3.029   4.124   1.173 -0.0154 -2.0048 -0.1426
 1253SOL     OW15220   0.864   0.220   6.116  0.2253  0.4268 -0.8943
 1253SOL    HW115221   0.777   0.252   6.091 -0.0179  1.3332  1.1694
 1253SOL    HW215222   0.856   0.135   6.072  0.0759  1.4696 -2.9129
 1254SOL     OW15223   3.059   1.167  13.593 -0.4918 -0.3713  0.3648
 1254SOL    HW115224   3.096   1.094  13.543  1.1641 -0.5974  1.9162
 1254SOL    HW215225   3.088   1.148  13.683  1.1487 -0.5021 -0.1898
 1255SOL     OW15226   0.691   2.280   7.612  0.1059  0.6080  0.7216
 1255SOL    HW115227   0.618   2.276   7.551  1.1982 -0.1372 -0.5304
 1255SOL    HW215228   0.662   2.333   7.686  2.5460  2.3149  0.4572
 1256SOL     OW15229   4.647   3.909   5.463  0.3195 -0.1099 -0.3349
 1256SOL    HW115230   4.669   3.937   5.552  2.1494  1.1606 -1.1843
 1256SOL    HW215231   4.555   3.885   5.461  0.4644 -0.6547 -0.6065
 1257SOL     OW15232   3.628   3.665  11.419  0.0364 -0.2972  0.0205
 1257SOL    HW115233   3.677   3.634  11.496  1.2017  1.7755  0.1150
 1257SOL    HW215234   3.684   3.655  11.343  0.2393 -1.3700  0.3012
 1258SOL     OW15235   1.256   3.533   4.371  0.5604  0.0375 -0.3697
 1258SOL    HW115236   1.337   3.550   4.323  0.3084  2.3211 -0.0269
 1258SOL    HW215237   1.245   3.439   4.364  0.8222 -0.0973  1.1843
 1259SOL     OW15238   0.984   0.922  13.915 -0.3254  0.5857  0.2028
 1259SOL    HW115239   1.062   0.916  13.970 -1.2444  1.0596  1.5681
 1259SOL    HW215240   0.975   1.015  13.895 -2.8441  0.2918  0.0018
 1260SOL     OW15241   3.775   3.118  16.422 -0.1943  0.1617  0.2166
 1260SOL    HW115242   3.826   3.126  16.341  0.6149 -0.7946  0.6328
 1260SOL    HW215243   3.796   3.202  16.464 -0.8271 -0.3445  1.5418
 1261SOL     OW15244   3.706   1.867   6.835 -0.3763 -0.1700 -0.0459
 1261SOL    HW115245   3.791   1.911   6.824 -0.0908 -0.4490  1.0603
 1261SOL    HW215246   3.729   1.775   6.844 -1.2880 -0.3931 -0.0277
 1262SOL     OW15247   3.299   0.391   2.172  0.0772 -0.5730  0.5377
 1262SOL    HW115248   3.286   0.314   2.116  1.2925  0.5487 -1.3316
 1262SOL    HW215249   3.364   0.423   2.109  1.5773 -1.7021  1.5013
 1263SOL     OW15250   2.491   3.820  13.561  0.3305  0.6143  0.6753
 1263SOL    HW115251   2.420   3.831  13.624  0.7724  1.1657  1.0708
 1263SOL    HW215252   2.481   3.730  13.531 -2.2350  0.6526  1.4468
 1264SOL     OW15253   3.998   1.689   5.773  0.6309  0.0675 -0.2520
 1264SOL    HW115254   3.949   1.771   5.773  2.9573  1.4109  1.4988
 1264SOL    HW215255   3.936   1.629   5.731 -1.5194  1.2251  1.2302
 1265SOL     OW15256   2.796   2.293  17.617  0.1076  0.0305  0.2414
 1265SOL    HW115257   2.855   2.218  17.619 -1.4535 -1.2475 -1.4525
 1265SOL    HW215258   2.839   2.365  17.664 -1.0726  1.9681 -1.6330
 1266SOL     OW15259   1.125   2.743   7.547  0.4582 -0.2820 -0.0566
 1266SOL    HW115260   1.120   2.648   7.546 -0.5572 -0.2257 -1.4617
 1266SOL    HW215261   1.135   2.775   7.636  1.7220 -0.7038 -0.0625
 1267SOL     OW15262   3.493   0.205   4.341  0.2642 -0.2168  0.2369
 1267SOL    HW115263   3.501   0.239   4.252  0.4126 -1.7121 -0.3236
 1267SOL    HW215264   3.569   0.146   4.340 -0.1239 -0.7062 -0.4172
 1268SOL     OW15265   1.251   1.888   8.824  0.0799  0.2852 -0.0947
 1268SOL    HW115266   1.224   1.802   8.856  1.0398 -0.4807 -1.3275
 1268SOL    HW215267   1.337   1.866   8.786  1.3012  0.9798  2.2919
 1269SOL     OW15268   0.229   2.192   3.892  0.1183  0.1840  0.1960
 1269SOL    HW115269   0.156   2.132   3.874  1.4780 -1.4015 -0.0534
 1269SOL    HW215270   0.193   2.269   3.849 -0.7231  0.4461  1.3777
 1270SOL     OW15271   2.982   2.079   8.839  0.2325  0.5754  0.1519
 1270SOL    HW115272   2.939   2.126   8.911 -0.1368 -0.1217  0.3851
 1270SOL    HW215273   3.003   2.147   8.775 -0.7670  1.4420  0.7547
 1271SOL     OW15274   4.067   0.538   8.607  0.1697  0.4050  0.2637
 1271SOL    HW115275   4.116   0.525   8.525 -0.6211  0.6414 -0.2387
 1271SOL    HW215276   4.140   0.538   8.670  0.7359 -0.7580 -0.3766
 1272SOL     OW15277   1.331   1.471   8.729  0.6692 -0.5971 -0.2697
 1272SOL    HW115278   1.269   1.440   8.796 -0.9837  0.6126 -1.2573
 1272SOL    HW215279   1.328   1.559   8.766 -1.4278 -0.6431 -0.2815
 1273SOL     OW15280   3.749   0.120   1.462 -0.1669  0.4089  0.0732
 1273SOL    HW115281   3.668   0.147   1.419  1.1886  1.6541 -1.7066
 1273SOL    HW215282   3.737   0.025   1.462  1.1044  0.2466  1.7758
 1274SOL     OW15283   1.181   4.319  14.072 -0.6397 -0.4186 -0.6007
 1274SOL    HW115284   1.201   4.324  13.979 -0.3218 -1.2607 -0.5835
 1274SOL    HW215285   1.271   4.316  14.104 -0.8078  1.1904  0.0196
 1275SOL     OW15286   3.971   3.517   1.502 -0.1996 -0.3390  0.5914
 1275SOL    HW115287   3.927   3.438   1.535  1.1015 -0.9835  0.8052
 1275SOL    HW215288   4.000   3.483   1.418 -2.0724  2.1270 -1.0409
 1276SOL     OW15289   2.465   0.677   8.909 -0.0701  0.3552 -0.1284
 1276SOL    HW115290   2.476   0.587   8.878  1.1040  2.3953 -5.5605
 1276SOL    HW215291   2.403   0.717   8.847  0.4012  0.3698 -0.5835
 1277SOL     OW15292   2.954   0.668   3.508 -0.5900 -0.3859 -0.3134
 1277SOL    HW115293   2.901   0.666   3.428  0.8534  1.9392 -1.3176
 1277SOL    HW215294   2.876   0.656   3.562 -0.8380  1.9606 -0.1567
 1278SOL     OW15295   1.780   0.047   4.005  0.2408 -0.3582 -0.1124
 1278SOL    HW115296   1.753   0.125   4.053 -0.0639  1.0655 -2.6267
 1278SOL    HW215297   1.697   0.027   3.962  1.3989  2.1822 -3.5082
 1279SOL     OW15298   2.650   0.234   3.632  0.5700 -0.3898  0.1149
 1279SOL    HW115299   2.646   0.144   3.600  0.5050 -1.1127  2.1162
 1279SOL    HW215300   2.564   0.239   3.674 -0.4811 -0.1264 -2.1046
 1280SOL     OW15301   1.714   1.745   0.695 -0.0803 -0.6361  0.2319
 1280SOL    HW115302   1.679   1.816   0.750 -1.5101  1.4668 -3.3719
 1280SOL    HW215303   1.772   1.799   0.642 -0.2340 -1.1718 -0.4830
 1281SOL     OW15304   1.235   4.714  11.595  0.2075  0.4360  0.0018
 1281SOL    HW115305   1.237   0.049  11.520  1.9949 -0.3639 -0.6012
 1281SOL    HW215306   1.201   0.050  11.660 -1.3906 -0.6809  0.2139
 1282SOL     OW15307   3.123   1.623  11.600  0.3685  0.4518  0.2987
 1282SOL    HW115308   3.054   1.581  11.549 -0.0809  0.6487  0.7453
 1282SOL    HW215309   3.189   1.592  11.538  0.4111  1.6683 -0.2675
 1283SOL     OW15310   1.599   0.256   8.704  0.2158 -0.0779 -0.0033
 1283SOL    HW115311   1.627   0.319   8.771 -0.6691  0.4139 -0.1049
 1283SOL    HW215312   1.554   0.313   8.643  2.4343  0.3412 -1.2470
 1284SOL     OW15313   1.437   1.873   7.974 -0.1124 -0.3431 -0.4060
 1284SOL    HW115314   1.445   1.874   8.070  1.6289  0.4315 -0.5750
 1284SOL    HW215315   1.416   1.782   7.955 -3.5619 -0.2883  3.0630
 1285SOL     OW15316   3.179   1.173  17.441 -0.4434 -0.0491 -0.0237
 1285SOL    HW115317   3.241   1.124  17.494  0.7640  0.4805 -0.9500
 1285SOL    HW215318   3.196   1.142  17.352 -2.4884  0.1852 -0.4976
 1286SOL     OW15319   4.327   2.937   3.997  0.1437  0.2651 -0.0161
 1286SOL    HW115320   4.346   3.030   3.984  2.2530 -0.4888 -2.3797
 1286SOL    HW215321   4.405   2.893   3.964  0.6178  2.4247 -1.7370
 1287SOL     OW15322   3.791   1.473  13.625 -0.3288  0.1318 -0.2570
 1287SOL    HW115323   3.750   1.545  13.577 -0.6681 -0.5817 -1.0282
 1287SOL    HW215324   3.761   1.487  13.715  1.9994 -2.6237  0.9158
 1288SOL     OW15325   0.036   2.067   3.736 -0.5744 -0.2440 -0.7786
 1288SOL    HW115326   4.699   2.008   3.693  1.7462 -2.4435 -1.1255
 1288SOL    HW215327   0.027   2.143   3.678 -2.3973  1.5829  1.9289
 1289SOL     OW15328   1.793   1.068  17.491  0.9797  0.3174 -0.5248
 1289SOL    HW115329   1.804   0.977  17.462 -0.2872  0.0271 -0.0665
 1289SOL    HW215330   1.876   1.077  17.537  0.8466  0.2056 -0.2636
 1290SOL     OW15331   2.285   3.782   9.407  0.0531 -0.3960 -0.1952
 1290SOL    HW115332   2.200   3.759   9.444 -0.7082 -1.6628 -2.6735
 1290SOL    HW215333   2.313   3.837   9.479 -1.1010  0.4123 -0.3584
 1291SOL     OW15334   2.380   1.425   3.272 -0.2652  0.0646 -0.2616
 1291SOL    HW115335   2.288   1.402   3.288 -0.0171  1.1428  2.6981
 1291SOL    HW215336   2.412   1.335   3.273 -0.0827  0.1368  1.1892
 1292SOL     OW15337   0.284   0.733   3.007 -0.7148  0.9731 -0.4452
 1292SOL    HW115338   0.233   0.661   2.972  0.6967  0.0017 -0.5056
 1292SOL    HW215339   0.272   0.793   2.933 -1.6300  1.3397 -0.0081
 1293SOL     OW15340   1.104   1.106  17.482 -0.2600 -0.0424  0.1922
 1293SOL    HW115341   1.118   1.174  17.416  2.6832 -1.3973 -0.5892
 1293SOL    HW215342   1.046   1.144  17.548 -0.7322 -0.3118 -0.0612
 1294SOL     OW15343   2.464   1.530  17.513 -0.5721 -0.0407  0.3989
 1294SOL    HW115344   2.501   1.443  17.499  0.5174  0.6133 -0.7293
 1294SOL    HW215345   2.374   1.520  17.482 -0.0798 -0.8920 -0.7518
 1295SOL     OW15346   2.119   0.771  10.422  0.5379 -0.4555  0.0724
 1295SOL    HW115347   2.184   0.839  10.400 -2.0274  2.3723  1.2123
 1295SOL    HW215348   2.146   0.747  10.511  2.1513  2.8823  0.5017
 1296SOL     OW15349   3.521   2.398  14.887  0.0267 -0.2880 -0.3009
 1296SOL    HW115350   3.489   2.402  14.978 -1.1470 -3.9219 -0.5570
 1296SOL    HW215351   3.444   2.435  14.843  1.3744  0.8552 -1.7063
 1297SOL     OW15352   2.579   3.774   3.225  0.4239 -0.1840  0.1593
 1297SOL    HW115353   2.645   3.792   3.158 -1.9347  1.7844 -1.6583
 1297SOL    HW215354   2.554   3.863   3.250  0.5809 -0.5771  1.6968
 1298SOL     OW15355   2.412   1.571   6.121  0.7269 -0.0708 -0.2404
 1298SOL    HW115356   2.339   1.514   6.094 -1.2580  2.8518 -1.0267
 1298SOL    HW215357   2.372   1.645   6.166  2.2564  0.1962  0.6651
 1299SOL     OW15358   1.343   0.345  12.588 -0.3722 -0.0165 -0.0992
 1299SOL    HW115359   1.286   0.414  12.554 -1.1012 -0.0932  0.9734
 1299SOL    HW215360   1.280   0.284  12.626  1.3883 -2.7686 -1.5850
 1300SOL     OW15361   1.014   3.137   8.144 -0.0025  0.1615 -0.8016
 1300SOL    HW115362   1.058   3.098   8.220  1.4008 -1.7575 -2.5905
 1300SOL    HW215363   0.971   3.216   8.177  0.2289 -0.3691  0.7692
 1301SOL     OW15364   3.761   2.781   2.626  0.8739 -0.0932  0.6936
 1301SOL    HW115365   3.840   2.832   2.608 -0.0353  1.6578  1.7132
 1301SOL    HW215366   3.779   2.704   2.570 -0.5061  1.5477 -1.9999
 1302SOL     OW15367   0.291   2.689  10.657  0.8245  0.2277 -0.0725
 1302SOL    HW115368   0.268   2.684  10.565 -4.7189  0.3428  1.2727
 1302SOL    HW215369   0.255   2.776  10.678 -3.0116 -1.6737  1.1663
 1303SOL     OW15370   3.116   0.025   1.027 -0.3658  0.3433  0.5428
 1303SOL    HW115371   3.182   4.713   0.968 -1.6640  0.0229 -0.7277
 1303SOL    HW215372   3.117   0.119   1.009 -0.4802  0.3953  0.8112
 1304SOL     OW15373   3.452   2.610   4.766  0.5076 -0.3862 -0.3339
 1304SOL    HW115374   3.546   2.615   4.784  0.3352 -2.6172  1.1354
 1304SOL    HW215375   3.453   2.655   4.682  1.3619  0.7296  0.2672
 1305SOL     OW15376   1.910   1.886   1.653 -0.2419  0.0321 -0.4551
 1305SOL    HW115377   1.980   1.946   1.681  2.1131 -2.7374 -0.3423
 1305SOL    HW215378   1.938   1.797   1.674 -1.2170 -0.5493 -1.6026
 1306SOL     OW15379   0.618   0.146  10.417 -0.3993  0.0416  0.5428
 1306SOL    HW115380   0.568   0.066  10.433  0.5996 -0.4504  1.1610
 1306SOL    HW215381   0.592   0.195  10.495  2.6742  0.4474  1.3189
 1307SOL     OW15382   2.643   4.474   3.761  0.4421  0.1298  0.1431
 1307SOL    HW115383   2.587   4.426   3.700 -0.2837 -1.0605  1.7418
 1307SOL    HW215384   2.730   4.466   3.721  0.0560  2.0347 -1.0875
 1308SOL     OW15385   3.968   1.393   4.314  0.2598  0.0505 -0.1735
 1308SOL    HW115386   3.966   1.365   4.222 -2.6193 -0.5935  0.0717
 1308SOL    HW215387   4.051   1.440   4.312  0.6425 -0.5596  2.7718
 1309SOL     OW15388   0.315   3.338   4.159  0.3069 -0.0250  0.5523
 1309SOL    HW115389   0.241   3.368   4.212 -0.5655 -1.7778  0.3183
 1309SOL    HW215390   0.378   3.409   4.171  0.7334  0.1053 -2.3536
 1310SOL     OW15391   2.328   0.623   2.472  0.0794 -0.2872 -0.4182
 1310SOL    HW115392   2.328   0.703   2.419  0.7019  1.1771  1.8021
 1310SOL    HW215393   2.344   0.562   2.399 -0.3153 -1.1768  0.2366
 1311SOL     OW15394   3.153   2.668   8.353  0.2622  0.2673  0.3974
 1311SOL    HW115395   3.059   2.662   8.336  0.2662  0.5101  0.2976
 1311SOL    HW215396   3.153   2.763   8.367  2.2337  0.4602 -0.8789
 1312SOL     OW15397   3.375   4.037   8.299 -0.1204  0.1448  0.2498
 1312SOL    HW115398   3.341   4.107   8.243 -1.7561 -1.3678 -0.6635
 1312SOL    HW215399   3.461   4.027   8.258  0.2034 -0.9206  1.2068
 1313SOL     OW15400   3.970   3.841   3.088  0.1141  0.5373 -0.1831
 1313SOL    HW115401   4.050   3.865   3.040  1.2079  1.0828  1.9134
 1313SOL    HW215402   3.999   3.841   3.179 -0.3299  0.3227 -0.0435
 1314SOL     OW15403   4.580   3.778   1.349 -0.1715  0.6422 -0.0877
 1314SOL    HW115404   4.664   3.822   1.338  1.5775 -2.4581  0.8649
 1314SOL    HW215405   4.590   3.723   1.427 -1.5005  0.9476  0.2927
 1315SOL     OW15406   0.775   3.271   8.208  0.0884 -0.2781 -0.1450
 1315SOL    HW115407   0.748   3.231   8.290 -0.2937 -1.1972 -0.7231
 1315SOL    HW215408   0.754   3.208   8.139 -0.6241 -0.0185 -0.1612
 1316SOL     OW15409   0.342   1.113  12.895  0.8110  0.6521 -0.8708
 1316SOL    HW115410   0.347   1.030  12.847  1.0313 -0.1702  0.5890
 1316SOL    HW215411   0.250   1.140  12.893  0.2130 -1.3364  0.2526
 1317SOL     OW15412   0.706   4.455   3.171  0.3404 -0.4804 -0.4485
 1317SOL    HW115413   0.779   4.492   3.221 -0.0076  0.3023 -0.5193
 1317SOL    HW215414   0.724   4.505   3.092  0.0260 -0.7447 -0.6863
 1318SOL     OW15415   1.694   3.171   3.084 -0.4705 -0.0068  0.4500
 1318SOL    HW115416   1.667   3.175   2.993  1.6729 -1.8809 -0.2630
 1318SOL    HW215417   1.620   3.138   3.135 -0.3741  0.0896  0.6551
 1319SOL     OW15418   2.382   4.337   6.771  0.1230 -0.1763 -0.0400
 1319SOL    HW115419   2.331   4.300   6.843  0.1126  1.0230  0.5879
 1319SOL    HW215420   2.333   4.307   6.695 -2.1868  0.2223  1.2711
 1320SOL     OW15421   1.367   3.861   3.340 -0.1218 -0.0221 -0.3152
 1320SOL    HW115422   1.427   3.865   3.414 -1.5417 -1.5684  0.9433
 1320SOL    HW215423   1.339   3.770   3.353 -2.0445  0.7928  1.3095
 1321SOL     OW15424   2.224   2.947  14.608 -0.2286 -0.2651  0.2072
 1321SOL    HW115425   2.220   2.960  14.513  1.4065 -1.4841 -0.0275
 1321SOL    HW215426   2.256   3.033  14.636 -1.0295 -0.0826  0.5422
 1322SOL     OW15427   0.732   1.439  12.104 -0.3481  0.2581  0.6054
 1322SOL    HW115428   0.811   1.454  12.156  1.5141  2.5492 -2.8973
 1322SOL    HW215429   0.723   1.530  12.075  0.7433 -0.3874 -1.6896
 1323SOL     OW15430   0.711   3.498  10.419 -0.3662  0.0567 -0.0533
 1323SOL    HW115431   0.697   3.496  10.324 -0.4465  1.0327 -0.0679
 1323SOL    HW215432   0.799   3.460  10.410 -0.8332 -1.5444  2.1650
 1324SOL     OW15433   3.421   3.289   7.606  0.2094  0.0126 -0.5595
 1324SOL    HW115434   3.508   3.258   7.582  0.3004  1.2318 -1.7649
 1324SOL    HW215435   3.442   3.290   7.700 -0.1386 -0.0323 -0.4807
 1325SOL     OW15436   1.379   1.357   3.644 -0.3830  0.4935 -0.2516
 1325SOL    HW115437   1.446   1.342   3.577 -0.1119 -0.6979  0.2787
 1325SOL    HW215438   1.314   1.294   3.612  0.0190 -0.4201  0.7402
 1326SOL     OW15439   0.935   2.723   5.447 -0.5444  0.1691 -0.4701
 1326SOL    HW115440   0.889   2.807   5.447 -1.7174 -0.5014  1.0815
 1326SOL    HW215441   1.021   2.736   5.487 -1.7773  1.7857  1.6293
 1327SOL     OW15442   1.781   0.653   7.779 -0.1217  0.2542  0.0874
 1327SOL    HW115443   1.766   0.579   7.719  1.1191  1.0276 -1.1707
 1327SOL    HW215444   1.736   0.716   7.723  2.2198  2.2302  0.4211
 1328SOL     OW15445   4.041   1.525   2.926 -0.7437  0.0681 -0.4888
 1328SOL    HW115446   3.969   1.465   2.947 -0.3261 -0.3583 -0.2696
 1328SOL    HW215447   4.003   1.600   2.881  3.5279  2.1272 -0.6421
 1329SOL     OW15448   1.257   0.573   5.425  0.2763  0.6084 -0.2184
 1329SOL    HW115449   1.328   0.543   5.481 -0.8216  1.2688  1.5293
 1329SOL    HW215450   1.247   0.661   5.460  0.4003 -0.3373  2.2011
 1330SOL     OW15451   2.431   0.780   3.657 -0.1920 -0.7049  0.6032
 1330SOL    HW115452   2.383   0.728   3.722 -0.5127  0.8296  1.6110
 1330SOL    HW215453   2.493   0.824   3.716  0.3784 -1.9635  0.9403
 1331SOL     OW15454   2.099   2.115   4.755  0.0496 -0.8597  0.3702
 1331SOL    HW115455   2.158   2.063   4.701  1.4984 -1.2463  2.3168
 1331SOL    HW215456   2.034   2.051   4.784 -0.7229  0.5888  1.8931
 1332SOL     OW15457   1.491   3.194   2.094 -0.0941 -0.0290 -0.0261
 1332SOL    HW115458   1.562   3.142   2.055  0.9283  1.5639 -0.3026
 1332SOL    HW215459   1.425   3.132   2.063  1.1685 -1.2081 -0.3575
 1333SOL     OW15460   0.700   1.111   8.402  0.0748 -0.2639  0.4033
 1333SOL    HW115461   0.666   1.030   8.441 -2.2614 -0.5408 -2.2636
 1333SOL    HW215462   0.684   1.163   8.481 -0.3132  0.7100 -0.3269
 1334SOL     OW15463   3.158   2.021   2.715  0.0374  0.1230 -0.5887
 1334SOL    HW115464   3.127   1.960   2.649 -1.9863 -0.3472  0.7779
 1334SOL    HW215465   3.109   1.994   2.793  2.0082 -0.3228  0.4961
 1335SOL     OW15466   2.221   0.978   8.956 -0.0298  0.0380 -0.4123
 1335SOL    HW115467   2.303   0.958   9.002  0.6877  0.1868 -1.6032
 1335SOL    HW215468   2.209   1.071   8.973  0.0132  0.0614 -0.5083
 1336SOL     OW15469   1.000   2.617   8.094  0.3170  0.3418 -0.0063
 1336SOL    HW115470   1.010   2.536   8.144 -2.9735 -0.0128  0.1239
 1336SOL    HW215471   1.032   2.679   8.159  0.7196  0.3140 -0.1787
 1337SOL     OW15472   0.188   2.572   2.300 -0.5583 -0.5405  0.6019
 1337SOL    HW115473   0.216   2.649   2.252  1.5042 -2.2409 -0.8835
 1337SOL    HW215474   0.133   2.530   2.234 -1.5880  0.2970  0.9152
 1338SOL     OW15475   0.836   1.388  17.094 -0.5297  0.3463  0.3190
 1338SOL    HW115476   0.794   1.351  17.016 -0.1423 -3.0775  1.7072
 1338SOL    HW215477   0.761   1.406  17.151 -0.4579 -0.0588  0.5441
 1339SOL     OW15478   0.626   1.672  17.070  0.3114 -0.1291  0.0692
 1339SOL    HW115479   0.575   1.663  16.989  0.7963  0.0794 -0.2587
 1339SOL    HW215480   0.632   1.582  17.101 -1.4782 -0.2155  0.1794
 1340SOL     OW15481   2.454   0.446  17.391 -0.0128  0.2209 -0.3315
 1340SOL    HW115482   2.452   0.359  17.430 -2.0308  0.4495  0.0948
 1340SOL    HW215483   2.532   0.438  17.336 -1.7017 -1.1064 -2.5336
 1341SOL     OW15484   0.625   0.118   3.205 -0.5682  0.2240  0.2424
 1341SOL    HW115485   0.576   0.084   3.130 -0.5960 -2.1330  1.3627
 1341SOL    HW215486   0.706   0.132   3.155 -0.4452 -2.8133 -0.3893
 1342SOL     OW15487   1.145   2.422   9.661 -0.0918 -0.3284 -0.0516
 1342SOL    HW115488   1.161   2.467   9.745  2.0687 -0.8216 -0.1912
 1342SOL    HW215489   1.193   2.479   9.600 -2.1972  1.9552  0.4188
 1343SOL     OW15490   1.503   0.016   3.405  0.4825 -0.1903 -0.1183
 1343SOL    HW115491   1.524   4.667   3.348 -2.7012  0.7646 -2.4895
 1343SOL    HW215492   1.490   4.685   3.482 -0.5055  2.0137  1.3093
 1344SOL     OW15493   3.408   3.472   6.176  0.1969 -0.8653 -0.4837
 1344SOL    HW115494   3.452   3.395   6.140 -1.7816 -0.5787 -3.4284
 1344SOL    HW215495   3.474   3.541   6.172  0.3025 -1.0887 -2.2489
 1345SOL     OW15496   0.101   1.643  13.888  0.2200  0.0406 -0.7833
 1345SOL    HW115497   0.168   1.642  13.819  1.4295 -2.5977  0.4304
 1345SOL    HW215498   0.029   1.667  13.830 -1.8313 -1.7132  1.0407
 1346SOL     OW15499   4.482   3.529   4.602  0.1860 -0.5110 -0.2065
 1346SOL    HW115500   4.478   3.434   4.589  1.4580 -0.4485 -1.1418
 1346SOL    HW215501   4.431   3.572   4.534 -0.8925 -1.6851 -0.1296
 1347SOL     OW15502   4.436   0.847  16.232  0.4537 -0.1967 -0.0950
 1347SOL    HW115503   4.492   0.922  16.251  0.5376 -0.1471 -0.5387
 1347SOL    HW215504   4.379   0.846  16.309  1.5082 -2.1164  0.6703
 1348SOL     OW15505   1.029   2.022  16.031  0.2450  0.1684  0.3751
 1348SOL    HW115506   1.122   1.998  16.027 -0.0317 -1.0872  1.3673
 1348SOL    HW215507   1.007   1.956  16.097  1.6566 -0.3376  0.3402
 1349SOL     OW15508   0.580   2.802   7.970 -0.2456 -0.1309  0.4878
 1349SOL    HW115509   0.506   2.773   8.023  0.3361  0.9152  1.8574
 1349SOL    HW215510   0.555   2.862   7.900  0.4975 -0.9286 -0.4665
 1350SOL     OW15511   1.645   0.415   6.447  0.1578 -0.1032 -0.0235
 1350SOL    HW115512   1.701   0.421   6.524  0.0271  0.2039  0.0458
 1350SOL    HW215513   1.566   0.450   6.488 -0.4746  0.1262 -1.4318
 1351SOL     OW15514   1.105   1.005   1.583 -0.4220  0.7975  0.6280
 1351SOL    HW115515   1.170   0.949   1.541 -0.2140  0.1896  1.7779
 1351SOL    HW215516   1.146   1.010   1.669  0.3475 -1.4465  0.3837
 1352SOL     OW15517   0.172   1.706  14.556  0.4115  0.3177 -0.4792
 1352SOL    HW115518   0.132   1.682  14.472  1.1456  1.1728 -1.0735
 1352SOL    HW215519   0.232   1.775  14.529 -1.9132  1.8237 -1.8787
 1353SOL     OW15520   4.530   0.724   8.009  0.5022  0.4923 -0.1298
 1353SOL    HW115521   4.549   0.787   7.940 -1.1729  1.8597  0.6696
 1353SOL    HW215522   4.442   0.701   7.980  0.2119  1.9361 -0.3362
 1354SOL     OW15523   4.614   0.732  13.975  0.1155 -0.4060  0.0431
 1354SOL    HW115524   4.555   0.779  14.034  0.3455 -0.6402  0.4628
 1354SOL    HW215525   4.576   0.749  13.889  2.1486 -1.2197 -1.0221
 1355SOL     OW15526   1.688   3.902   3.164 -0.6599 -0.3529 -0.2251
 1355SOL    HW115527   1.614   3.908   3.103 -0.6336  1.7844 -0.0502
 1355SOL    HW215528   1.752   3.965   3.130 -0.5752 -0.6815 -0.6828
 1356SOL     OW15529   3.881   1.320   1.598  0.6777  0.5965  0.1969
 1356SOL    HW115530   3.871   1.269   1.517 -0.3335 -0.1736  0.8101
 1356SOL    HW215531   3.976   1.313   1.614  0.4962  1.5129  1.6293
 1357SOL     OW15532   4.251   0.244   8.102 -0.5470 -0.2206 -0.2397
 1357SOL    HW115533   4.187   0.242   8.030  1.7235 -1.9306 -2.2182
 1357SOL    HW215534   4.247   0.337   8.123  2.3494  0.2647 -1.8118
 1358SOL     OW15535   1.715   3.124  16.463 -0.8016 -0.2137 -0.9089
 1358SOL    HW115536   1.735   3.101  16.554  0.1390 -0.3239 -1.1351
 1358SOL    HW215537   1.626   3.158  16.458  0.0257  1.8902 -1.5282
 1359SOL     OW15538   3.678   1.913   1.304  0.3455  0.7754 -0.2451
 1359SOL    HW115539   3.688   1.902   1.210 -3.7402  0.5648 -0.6461
 1359SOL    HW215540   3.582   1.916   1.305  0.3482  1.0003 -0.9596
 1360SOL     OW15541   3.435   3.825  14.442 -0.1354  0.2633 -0.1452
 1360SOL    HW115542   3.359   3.872  14.410  0.0475  0.5656 -0.1348
 1360SOL    HW215543   3.382   3.749  14.468  0.2932 -0.6826 -2.0402
 1361SOL     OW15544   2.963   4.358   4.664  0.2508 -0.0453 -0.3252
 1361SOL    HW115545   2.931   4.303   4.736  0.4347 -0.2930 -0.4327
 1361SOL    HW215546   3.024   4.420   4.704 -1.9135  1.6427  0.3859
 1362SOL     OW15547   2.519   3.151   3.332  0.7735  0.2151 -0.3123
 1362SOL    HW115548   2.610   3.129   3.350 -0.2899 -2.3564  1.8842
 1362SOL    HW215549   2.526   3.210   3.257  0.0287  0.1078 -0.4643
 1363SOL     OW15550   3.554   3.049   2.669 -0.1187 -0.0771 -0.6501
 1363SOL    HW115551   3.630   3.079   2.720  0.1675  0.9637 -1.6843
 1363SOL    HW215552   3.581   3.076   2.581  1.4832  2.7818  0.7053
 1364SOL     OW15553   4.260   1.805   0.272 -0.0924  0.2875  0.5700
 1364SOL    HW115554   4.332   1.858   0.239 -0.3526  1.2166  1.5081
 1364SOL    HW215555   4.265   1.728   0.216 -1.5856 -0.5293  1.5464
 1365SOL     OW15556   4.322   0.854   6.388  0.5076  0.0700  0.2948
 1365SOL    HW115557   4.373   0.803   6.325  0.6513  0.9847 -0.3367
 1365SOL    HW215558   4.235   0.839   6.350  0.4382 -0.5299  0.6968
 1366SOL     OW15559   1.780   2.537   5.232  0.4523  0.4205 -0.0297
 1366SOL    HW115560   1.691   2.543   5.267  0.7403  1.0000  0.5987
 1366SOL    HW215561   1.824   2.619   5.257  2.1016 -0.0027 -1.5410
 1367SOL     OW15562   2.793   0.293  16.806 -0.0674 -0.0263  0.3796
 1367SOL    HW115563   2.730   0.225  16.784  2.0028 -2.2559  1.2715
 1367SOL    HW215564   2.743   0.374  16.795 -0.3073 -0.2902 -0.4550
 1368SOL     OW15565   3.694   4.715   8.352 -0.0751  0.0992  0.1962
 1368SOL    HW115566   3.786   4.717   8.325  0.1506 -0.2769  0.9404
 1368SOL    HW215567   3.686   4.639   8.410 -2.5802  0.7370  0.6513
 1369SOL     OW15568   2.744   3.237   8.690  0.2711 -0.0313  0.1086
 1369SOL    HW115569   2.664   3.290   8.692  0.6181  0.4785  0.7133
 1369SOL    HW215570   2.781   3.272   8.772  0.1303 -2.1105  1.0490
 1370SOL     OW15571   0.263   0.887   5.849  0.4477  0.1467 -0.1942
 1370SOL    HW115572   0.279   0.812   5.791  2.5402  0.5354 -0.1150
 1370SOL    HW215573   0.304   0.855   5.929 -1.2440 -3.1995 -0.6760
 1371SOL     OW15574   1.949   3.785   4.879 -0.0887 -0.2086 -0.3305
 1371SOL    HW115575   1.888   3.793   4.805  0.1754 -0.7487 -0.6030
 1371SOL    HW215576   2.000   3.866   4.875 -0.8768  0.2441 -1.3456
 1372SOL     OW15577   1.441   3.032   7.271 -0.4054  0.0566 -0.3939
 1372SOL    HW115578   1.400   2.946   7.271 -1.1476  0.4155 -0.1150
 1372SOL    HW215579   1.446   3.047   7.366 -2.0512  3.8102 -0.9163
 1373SOL     OW15580   4.079   0.632   8.181  0.0833  0.0742  0.6397
 1373SOL    HW115581   4.095   0.562   8.118  0.5210 -0.2442  1.0977
 1373SOL    HW215582   4.164   0.647   8.222  1.5882 -2.1344 -1.6670
 1374SOL     OW15583   3.168   2.929   8.035 -0.3406  0.7817  0.8592
 1374SOL    HW115584   3.110   2.854   8.047  1.0944 -0.6274 -0.8244
 1374SOL    HW215585   3.122   2.980   7.968  0.1243  0.6021  0.3995
 1375SOL     OW15586   1.094   1.804  14.465 -0.5502  0.3005 -0.0456
 1375SOL    HW115587   1.180   1.842  14.446  0.2479 -1.8806 -0.7148
 1375SOL    HW215588   1.092   1.719  14.421  0.0441  0.7288 -0.9052
 1376SOL     OW15589   3.130   2.083   2.338  0.7551  0.3319 -0.0408
 1376SOL    HW115590   3.099   2.016   2.278 -0.0008  0.8166 -0.1990
 1376SOL    HW215591   3.211   2.097   2.290 -0.0954  1.7548 -1.0962
 1377SOL     OW15592   3.097   0.316   3.979  0.0697  0.2080  0.0251
 1377SOL    HW115593   3.160   0.257   3.937 -1.3040 -1.6775  0.6240
 1377SOL    HW215594   3.056   0.259   4.044 -3.1737  1.7193 -0.6547
 1378SOL     OW15595   1.896   2.843   8.756 -0.4000 -0.0845 -1.3229
 1378SOL    HW115596   1.833   2.830   8.827 -0.4836  0.1325 -1.3566
 1378SOL    HW215597   1.865   2.924   8.715 -1.5809  0.0551 -0.1554
 1379SOL     OW15598   1.746   2.041  17.338 -0.4307 -0.2635 -0.3956
 1379SOL    HW115599   1.781   2.025  17.250 -0.5144  0.2925 -0.5324
 1379SOL    HW215600   1.786   2.128  17.349 -2.2812  0.6357 -0.8584
 1380SOL     OW15601   4.594   3.594  13.179 -0.4719  0.6433  0.5087
 1380SOL    HW115602   4.584   3.675  13.228 -0.2362  1.0034 -0.0499
 1380SOL    HW215603   4.615   3.524  13.242 -0.6080  0.6059  0.5123
 1381SOL     OW15604   2.834   3.149   6.940 -0.3778 -0.2859  0.5214
 1381SOL    HW115605   2.835   3.242   6.964  1.2744  0.1195 -1.1011
 1381SOL    HW215606   2.773   3.114   7.005 -1.5589  0.7464 -0.0318
 1382SOL     OW15607   4.096   2.708   8.344  0.2561  0.0601  1.1597
 1382SOL    HW115608   4.024   2.771   8.348  0.5089  0.3893  0.5958
 1382SOL    HW215609   4.077   2.656   8.421  0.6262  0.2784  1.3984
 1383SOL     OW15610   3.953   1.464   3.988  0.2256 -0.0334 -0.3219
 1383SOL    HW115611   3.862   1.435   3.985  0.2195 -0.0287 -0.1665
 1383SOL    HW215612   4.000   1.388   4.023 -0.3559  0.5120  1.6266
 1384SOL     OW15613   3.927   2.718   8.752 -0.1380 -0.2573 -0.2860
 1384SOL    HW115614   3.844   2.747   8.790  0.0698  1.2354 -0.9739
 1384SOL    HW215615   3.987   2.768   8.807  0.0832 -2.2582  1.3109
 1385SOL     OW15616   3.919   3.094  16.202  0.3522 -0.3937  0.3785
 1385SOL    HW115617   3.934   3.002  16.223 -4.1002 -1.5846 -1.8508
 1385SOL    HW215618   3.983   3.112  16.133 -1.8863  0.7168 -1.3884
 1386SOL     OW15619   2.393   4.030   7.442 -0.0706  1.1275 -0.5650
 1386SOL    HW115620   2.467   4.078   7.479  1.2733 -1.5759  0.2891
 1386SOL    HW215621   2.391   3.953   7.499 -4.3602  1.8222  0.2514
 1387SOL     OW15622   1.856   0.941   4.307 -0.3635 -0.3143  0.1267
 1387SOL    HW115623   1.799   0.973   4.377 -0.1624  1.8801 -0.7205
 1387SOL    HW215624   1.939   0.989   4.313 -0.0702 -1.2392  3.5213
 1388SOL     OW15625   1.939   3.421  10.414 -0.3463 -0.4629 -0.9942
 1388SOL    HW115626   1.941   3.470  10.496  0.3648  0.5739 -1.6310
 1388SOL    HW215627   1.850   3.440  10.384 -0.3316 -1.0553 -1.3994
 1389SOL     OW15628   3.951   3.282   8.695  0.1002 -0.0593  0.2170
 1389SOL    HW115629   3.969   3.375   8.705  0.5864  0.1002 -2.1378
 1389SOL    HW215630   3.855   3.280   8.700  0.0033  0.9984 -1.2493
 1390SOL     OW15631   0.359   4.432   6.324  0.5150 -0.1949 -0.5618
 1390SOL    HW115632   0.276   4.476   6.306  0.2387 -0.7966 -0.7619
 1390SOL    HW215633   0.324   4.353   6.365 -0.4562  0.2995 -0.4402
 1391SOL     OW15634   3.750   3.863  13.219  0.0896  0.9529 -0.2489
 1391SOL    HW115635   3.752   3.953  13.187  2.5930  0.5196 -1.3126
 1391SOL    HW215636   3.738   3.821  13.133 -3.0357  2.3072 -0.4594
 1392SOL     OW15637   3.944   4.553   0.846  0.4573  0.0175 -0.2585
 1392SOL    HW115638   3.908   4.616   0.909 -0.7372  1.1276 -2.0761
 1392SOL    HW215639   3.871   4.497   0.820  0.2335 -0.1687  0.7527
 1393SOL     OW15640   3.650   1.400   3.654  0.2634  0.1566 -0.3021
 1393SOL    HW115641   3.714   1.445   3.599 -2.2006  1.6607 -1.9696
 1393SOL    HW215642   3.645   1.478   3.709 -3.8502  0.4448 -1.0947
 1394SOL     OW15643   0.188   4.580   9.549  0.2573  0.8071  0.4398
 1394SOL    HW115644   0.218   4.643   9.615  2.7396  0.7580 -0.6635
 1394SOL    HW215645   0.099   4.578   9.584  0.4402 -0.2164  0.8352
 1395SOL     OW15646   2.588   2.471  12.260  0.0603 -0.3533  0.0607
 1395SOL    HW115647   2.645   2.547  12.276 -0.6541  0.1460  0.2156
 1395SOL    HW215648   2.564   2.478  12.168 -1.2636  0.8734  0.4992
 1396SOL     OW15649   0.771   1.589   7.563 -0.3609 -0.6502 -0.8727
 1396SOL    HW115650   0.719   1.532   7.507 -1.3686 -0.9287  0.3552
 1396SOL    HW215651   0.858   1.559   7.538  0.6785  0.5446  1.3096
 1397SOL     OW15652   1.412   3.848   7.282  0.0405  0.2251  0.0843
 1397SOL    HW115653   1.500   3.866   7.315 -0.6034 -0.3604  2.1105
 1397SOL    HW215654   1.394   3.757   7.302  0.5545 -0.4433 -2.4963
 1398SOL     OW15655   2.695   0.885   2.666  1.0011  0.1119  0.0349
 1398SOL    HW115656   2.725   0.841   2.745  1.4207 -0.6139 -0.5231
 1398SOL    HW215657   2.623   0.941   2.697 -0.5715 -1.5745 -0.5477
 1399SOL     OW15658   2.639   0.370  17.215  0.2410  0.3743  0.2295
 1399SOL    HW115659   2.724   0.413  17.213  0.1968  0.3506 -1.5711
 1399SOL    HW215660   2.607   0.374  17.125 -1.0283 -0.5574  0.6343
 1400SOL     OW15661   3.457   2.592   6.665  0.7622  0.0567 -0.0914
 1400SOL    HW115662   3.509   2.514   6.683 -0.2504 -0.2984  1.3120
 1400SOL    HW215663   3.461   2.611   6.571 -2.2689 -2.4494 -0.7325
 1401SOL     OW15664   0.970   1.008  17.213  0.1708 -0.1313 -0.6943
 1401SOL    HW115665   0.994   1.097  17.190  1.9940 -0.5243 -0.3428
 1401SOL    HW215666   0.997   1.009  17.305  0.0026 -0.5491 -0.6374
 1402SOL     OW15667   0.669   4.648   6.981 -0.1002  0.4995  0.2392
 1402SOL    HW115668   0.749   4.597   6.974 -0.6543 -0.0451 -1.9138
 1402SOL    HW215669   0.697   0.011   7.007 -0.3212  0.5646  0.2610
 1403SOL     OW15670   3.667   3.430   7.636 -0.0108 -0.0900  0.0192
 1403SOL    HW115671   3.644   3.370   7.707 -0.0875 -0.9234 -0.7048
 1403SOL    HW215672   3.600   3.497   7.647  3.2999  2.7797  2.8303
 1404SOL     OW15673   0.592   1.754   7.717 -0.4974  0.3521  0.3365
 1404SOL    HW115674   0.607   1.836   7.670  0.4410  0.6638  1.1920
 1404SOL    HW215675   0.640   1.696   7.657 -0.7209 -0.3182  0.7987
 1405SOL     OW15676   0.048   0.853   9.813 -0.3661 -0.0385 -0.4922
 1405SOL    HW115677   0.063   0.807   9.895 -1.7884  0.4804  0.0668
 1405SOL    HW215678   0.112   0.804   9.761 -0.2614  0.2523 -0.6406
 1406SOL     OW15679   3.414   3.011   3.741  0.5186 -0.5708 -0.2678
 1406SOL    HW115680   3.469   3.069   3.689 -0.7752  0.1063 -0.8872
 1406SOL    HW215681   3.334   3.052   3.708  0.7082 -1.4509 -1.8043
 1407SOL     OW15682   1.638   4.502  14.078 -0.0627  0.1996 -0.0379
 1407SOL    HW115683   1.623   4.509  14.172  0.3060  2.7224 -0.1642
 1407SOL    HW215684   1.635   4.409  14.055  0.7434 -0.2317  1.6146
 1408SOL     OW15685   1.810   4.645   7.506 -1.0607 -0.1234 -0.3229
 1408SOL    HW115686   1.901   4.659   7.478 -1.1501  1.4023  0.1427
 1408SOL    HW215687   1.787   4.567   7.455 -2.2311  0.4276 -0.6299
 1409SOL     OW15688   0.712   4.285  11.015 -0.1385  0.1562 -0.4415
 1409SOL    HW115689   0.668   4.339  11.080 -0.6409  0.6703 -1.2097
 1409SOL    HW215690   0.723   4.204  11.065 -0.1379  0.5606  0.2124
 1410SOL     OW15691   2.118   2.031  14.878 -0.2588  0.0476 -0.2971
 1410SOL    HW115692   2.043   1.979  14.848  0.8885 -1.1066 -1.1706
 1410SOL    HW215693   2.080   2.113  14.909 -0.8816  0.0511 -1.0682
 1411SOL     OW15694   1.130   1.195  10.273 -0.1353  0.1790  0.3690
 1411SOL    HW115695   1.199   1.188  10.207 -2.1774  1.4893 -1.9411
 1411SOL    HW215696   1.057   1.198  10.211 -1.4191  2.6025  2.0107
 1412SOL     OW15697   1.156   4.103  12.232  0.1755  0.6671 -0.3258
 1412SOL    HW115698   1.117   4.075  12.315  0.9398 -0.1558 -0.2386
 1412SOL    HW215699   1.142   4.020  12.186 -1.2381 -0.3874  2.0203
 1413SOL     OW15700   2.333   2.235  16.990 -0.0545 -0.1283  0.0713
 1413SOL    HW115701   2.273   2.286  16.936 -1.4399 -0.0870  1.6082
 1413SOL    HW215702   2.357   2.308  17.047 -0.6497  0.3840 -0.3412
 1414SOL     OW15703   1.693   3.683   3.710 -0.2645 -0.1443 -0.3340
 1414SOL    HW115704   1.757   3.681   3.782 -3.4112  0.7771  2.4549
 1414SOL    HW215705   1.714   3.609   3.653  0.6508 -2.1427  2.5790
 1415SOL     OW15706   2.129   0.822   2.053  0.5789 -0.1423  0.7022
 1415SOL    HW115707   2.158   0.906   2.018  0.0694 -0.0443  0.5121
 1415SOL    HW215708   2.185   0.762   2.004  1.4573  1.8694 -0.7572
 1416SOL     OW15709   2.993   3.225  11.738  0.0610  0.2071 -0.5469
 1416SOL    HW115710   3.036   3.139  11.734  1.4584  0.7686  2.8497
 1416SOL    HW215711   2.989   3.234  11.833  0.2727 -0.6604 -0.4510
 1417SOL     OW15712   4.444   3.182   4.009  0.5347  0.2630  0.4412
 1417SOL    HW115713   4.514   3.151   3.951  0.5682  1.7714 -0.3227
 1417SOL    HW215714   4.500   3.214   4.080 -0.2135  0.1860  1.0619
 1418SOL     OW15715   0.937   2.204   4.876 -0.1308 -0.1517  0.4614
 1418SOL    HW115716   0.867   2.139   4.864  0.1233 -0.5696  1.2538
 1418SOL    HW215717   0.889   2.287   4.872  1.5194  0.7247 -0.9339
 1419SOL     OW15718   2.010   4.130  13.642 -0.7504  0.3933  0.5283
 1419SOL    HW115719   2.013   4.225  13.634 -0.6088  0.1143 -2.8931
 1419SOL    HW215720   2.068   4.097  13.573 -2.0558 -0.6004 -0.0938
 1420SOL     OW15721   3.492   1.926   8.424  0.2091 -0.5972  0.5386
 1420SOL    HW115722   3.519   1.866   8.493  0.1995 -1.1708  0.0474
 1420SOL    HW215723   3.580   1.959   8.406  0.3918 -0.1099  2.3976
 1421SOL     OW15724   3.171   0.729   3.944  0.3729  0.0460 -0.1170
 1421SOL    HW115725   3.150   0.809   3.994  0.6027  1.6947 -2.6944
 1421SOL    HW215726   3.096   0.670   3.958  1.5359 -1.3492  0.2693
 1422SOL     OW15727   4.480   2.302   7.755  0.3700 -0.4888 -0.4925
 1422SOL    HW115728   4.543   2.273   7.689  1.2998 -0.3947  0.3562
 1422SOL    HW215729   4.528   2.282   7.836  0.8778  2.6477 -0.0277
 1423SOL     OW15730   3.337   1.554   4.060 -0.0394  0.4420 -0.2757
 1423SOL    HW115731   3.343   1.517   3.972  1.2661  0.3893 -0.1697
 1423SOL    HW215732   3.245   1.541   4.083  0.0131 -2.5353 -1.7659
 1424SOL     OW15733   0.456   2.007   3.555  0.0821  0.0726  0.7225
 1424SOL    HW115734   0.466   1.942   3.624  0.2809 -0.7505 -0.0839
 1424SOL    HW215735   0.472   2.088   3.604  0.3461  0.3635  0.1537
 1425SOL     OW15736   1.416   1.330   2.614 -0.5729  0.5039 -0.1120
 1425SOL    HW115737   1.436   1.316   2.522 -0.5238 -0.2563  0.0181
 1425SOL    HW215738   1.462   1.263   2.665 -0.8541  0.4731  0.1040
 1426SOL     OW15739   0.164   4.101   3.465 -0.5449 -0.4635 -0.1276
 1426SOL    HW115740   0.219   4.138   3.397  1.5711 -1.7391  0.8983
 1426SOL    HW215741   0.076   4.113   3.430  0.8803  0.2809 -3.3709
 1427SOL     OW15742   3.273   0.998   6.397 -0.2143  0.7130 -0.5212
 1427SOL    HW115743   3.282   1.041   6.312  0.4700 -1.6303 -1.6475
 1427SOL    HW215744   3.355   0.952   6.414 -0.9069 -0.4204 -0.2324
 1428SOL     OW15745   4.128   0.564   4.309 -0.7916 -0.1667  0.1438
 1428SOL    HW115746   4.042   0.601   4.289  0.5296  1.7585 -2.0892
 1428SOL    HW215747   4.138   0.585   4.401 -0.8623 -1.6281  0.4833
 1429SOL     OW15748   3.122   0.858   0.919 -0.0139 -0.3974  0.5347
 1429SOL    HW115749   3.122   0.773   0.962 -1.2656 -0.3538  0.6053
 1429SOL    HW215750   3.098   0.909   0.996  0.3994  1.8688 -0.8228
 1430SOL     OW15751   4.162   2.487   9.204 -0.4409 -0.0908 -0.5581
 1430SOL    HW115752   4.184   2.577   9.180  0.0689  0.5149  2.2188
 1430SOL    HW215753   4.083   2.476   9.151  0.7444 -0.8993 -2.1376
 1431SOL     OW15754   0.560   4.156   1.171  0.4249 -0.7907  0.0713
 1431SOL    HW115755   0.637   4.166   1.115  0.4094 -1.1765 -0.0148
 1431SOL    HW215756   0.568   4.233   1.228 -0.5814  0.6706 -1.7283
 1432SOL     OW15757   4.036   4.032   6.414  0.3952  0.5435  0.7097
 1432SOL    HW115758   3.971   3.971   6.447 -0.1994 -0.2343 -1.9181
 1432SOL    HW215759   4.052   4.004   6.324 -0.7053 -2.1433  1.3857
 1433SOL     OW15760   3.881   0.227   9.500  0.1051 -0.4832 -0.1999
 1433SOL    HW115761   3.836   0.241   9.416 -3.1227  0.4599  1.7012
 1433SOL    HW215762   3.857   0.314   9.532  1.3598 -0.5513  0.9158
 1434SOL     OW15763   3.307   0.411   7.768 -0.3625  0.3669  0.2252
 1434SOL    HW115764   3.276   0.502   7.768 -1.6279 -0.0596  1.1395
 1434SOL    HW215765   3.322   0.396   7.861  1.5866  1.3280  0.0573
 1435SOL     OW15766   3.272   2.300   6.590 -0.2978  0.3213  0.6739
 1435SOL    HW115767   3.291   2.240   6.518 -3.3253 -0.4619  0.5062
 1435SOL    HW215768   3.350   2.312   6.644 -0.4127  1.0648  0.6810
 1436SOL     OW15769   4.422   1.490   6.426 -0.2884  0.3344 -0.3309
 1436SOL    HW115770   4.462   1.424   6.482 -0.2242 -0.2046 -1.0044
 1436SOL    HW215771   4.440   1.460   6.337 -0.4463 -1.5339  0.2826
 1437SOL     OW15772   1.230   3.981   3.622 -0.4984 -0.1398 -0.0983
 1437SOL    HW115773   1.230   4.048   3.690 -0.1182 -0.8546  0.6157
 1437SOL    HW215774   1.321   3.972   3.594  0.0695 -0.3031  1.7957
 1438SOL     OW15775   2.216   2.857   8.082  0.2184  0.0801 -0.5512
 1438SOL    HW115776   2.196   2.764   8.083  1.0906 -0.0948  0.3745
 1438SOL    HW215777   2.311   2.855   8.071  0.6277  2.6145  2.3262
 1439SOL     OW15778   0.355   0.507  15.390  0.3820 -0.6243 -0.3302
 1439SOL    HW115779   0.356   0.504  15.486  1.3098 -1.9778 -0.3879
 1439SOL    HW215780   0.433   0.458  15.363 -1.7029 -3.5170 -1.0663
 1440SOL     OW15781   2.962   3.310   7.158 -0.2049  0.0458 -0.0064
 1440SOL    HW115782   2.941   3.403   7.155 -1.4060 -0.2680 -1.6380
 1440SOL    HW215783   3.057   3.315   7.169 -0.1166  0.1272 -0.7849
 1441SOL     OW15784   4.583   2.276   3.907  0.2646 -0.7494  0.0650
 1441SOL    HW115785   4.591   2.265   3.812 -0.1595 -2.4151  0.2083
 1441SOL    HW215786   4.564   2.369   3.919  0.8910 -0.7961  1.3377
 1442SOL     OW15787   2.124   1.325   5.630 -0.2144 -0.6647 -0.5900
 1442SOL    HW115788   2.130   1.295   5.721  1.6033  2.3334  0.3033
 1442SOL    HW215789   2.043   1.375   5.621  1.6295  2.5567  0.6502
 1443SOL     OW15790   2.615   2.698   8.305  0.6685  0.3371  0.2334
 1443SOL    HW115791   2.569   2.634   8.250  2.6528 -0.1457 -0.8347
 1443SOL    HW215792   2.542   2.721   8.363  0.6493  2.4458 -0.6117
 1444SOL     OW15793   1.470   2.862   9.663 -0.4074  0.0521 -0.0261
 1444SOL    HW115794   1.495   2.919   9.735 -0.8601  1.9852 -1.3821
 1444SOL    HW215795   1.531   2.897   9.598 -0.8257  1.8281  0.5228
 1445SOL     OW15796   2.120   0.305  10.195 -0.5294  0.3597  0.0380
 1445SOL    HW115797   2.140   0.371  10.129 -0.4457 -0.8341 -1.1373
 1445SOL    HW215798   2.041   0.265  10.159  1.0636 -1.6807 -1.2122
 1446SOL     OW15799   3.765   3.670   7.164 -0.6388  0.2815  0.0458
 1446SOL    HW115800   3.719   3.743   7.204  1.1396  0.1320  2.3623
 1446SOL    HW215801   3.747   3.599   7.225  0.1126 -1.4920 -1.7783
 1447SOL     OW15802   0.216   2.478   0.495 -0.2909 -0.0686  0.4592
 1447SOL    HW115803   0.202   2.425   0.416 -0.7770 -1.6599  1.5986
 1447SOL    HW215804   0.132   2.495   0.537  0.6976 -2.2347  3.3241
 1448SOL     OW15805   4.207   1.917   6.632  0.7165 -0.1081  0.9373
 1448SOL    HW115806   4.203   1.841   6.691  1.6645 -2.0834 -1.5501
 1448SOL    HW215807   4.182   1.874   6.550 -0.5613  2.5455 -0.0796
 1449SOL     OW15808   2.934   1.548   2.482  0.2589  0.2051 -0.5421
 1449SOL    HW115809   2.849   1.585   2.459 -0.0634 -0.2953 -0.1719
 1449SOL    HW215810   2.982   1.561   2.401  1.3627  2.0990  0.4153
 1450SOL     OW15811   3.937   0.786   2.524  0.0588 -0.7862 -0.5276
 1450SOL    HW115812   3.952   0.782   2.618  1.5733 -0.1655 -0.7379
 1450SOL    HW215813   3.940   0.695   2.493 -3.6327 -1.1390  0.1004
 1451SOL     OW15814   1.513   1.068   8.646  0.1030  0.2385 -0.0769
 1451SOL    HW115815   1.525   1.024   8.731 -0.1551 -3.0138 -1.7148
 1451SOL    HW215816   1.419   1.056   8.632 -0.2592  0.7347  1.8549
 1452SOL     OW15817   0.064   0.994   6.135  0.4155 -0.0942  0.0614
 1452SOL    HW115818   0.135   1.047   6.099 -0.6900  1.2699 -0.1454
 1452SOL    HW215819   0.062   1.024   6.226 -0.4264 -0.5738  0.1996
 1453SOL     OW15820   0.501   2.432   8.208  0.3458 -0.2107 -0.0780
 1453SOL    HW115821   0.569   2.484   8.250  0.6429  0.8174 -1.8230
 1453SOL    HW215822   0.490   2.490   8.132 -0.5213  0.7116  0.7528
 1454SOL     OW15823   0.644   2.297   5.000 -0.3239  0.0730 -0.5864
 1454SOL    HW115824   0.700   2.289   5.077 -0.0004  0.3561 -0.7950
 1454SOL    HW215825   0.697   2.356   4.947 -0.7747  1.3615  0.4045
 1455SOL     OW15826   1.084   4.490   8.755  0.2055  0.3421 -0.6793
 1455SOL    HW115827   0.997   4.524   8.735  0.8942  0.9425 -2.6618
 1455SOL    HW215828   1.121   4.570   8.793  1.0686  0.7058 -2.2728
 1456SOL     OW15829   2.898   1.328   7.343  0.0345  0.1971 -0.2497
 1456SOL    HW115830   2.853   1.399   7.389 -1.8179 -0.1419 -1.5098
 1456SOL    HW215831   2.908   1.352   7.251 -1.3509  0.5416 -0.3186
 1457SOL     OW15832   2.472   4.178  14.540 -0.1912  0.4860  0.0639
 1457SOL    HW115833   2.549   4.159  14.595 -0.1563  0.7324  0.1021
 1457SOL    HW215834   2.510   4.156  14.455 -2.9163  1.9191 -1.4825
 1458SOL     OW15835   4.197   2.784  14.780 -0.2904 -0.5360 -0.3356
 1458SOL    HW115836   4.208   2.860  14.723 -0.1907  0.3465  0.8598
 1458SOL    HW215837   4.287   2.751  14.787 -1.5886 -4.1540 -0.9320
 1459SOL     OW15838   4.484   3.899   7.837 -0.1424 -0.3973  0.3516
 1459SOL    HW115839   4.570   3.878   7.801  0.4367  1.2304  0.8012
 1459SOL    HW215840   4.492   3.987   7.874  3.2029  0.2346 -1.9127
 1460SOL     OW15841   3.555   2.680   2.209 -0.0058  0.1573 -0.4355
 1460SOL    HW115842   3.605   2.714   2.135  1.8775 -2.8008 -0.5171
 1460SOL    HW215843   3.561   2.757   2.265  0.1427  0.2985 -0.6486
 1461SOL     OW15844   3.687   4.496   5.271 -0.0592 -0.0702  0.4763
 1461SOL    HW115845   3.629   4.451   5.211  0.5042 -0.0014 -0.1181
 1461SOL    HW215846   3.754   4.503   5.203  1.4051 -1.1869  1.7827
 1462SOL     OW15847   0.381   0.681   9.860  0.1194 -0.1077  0.1812
 1462SOL    HW115848   0.382   0.736   9.782 -1.5435 -0.6541 -0.2080
 1462SOL    HW215849   0.472   0.655   9.871 -0.0655 -0.5189  0.7214
 1463SOL     OW15850   4.674   1.739   8.703  0.1039 -0.7322 -0.2195
 1463SOL    HW115851   0.002   1.686   8.644 -1.0646 -2.7678  0.5385
 1463SOL    HW215852   4.705   1.723   8.792 -1.3186 -0.2200  0.3692
 1464SOL     OW15853   3.725   2.118   1.982  0.2273  0.3005  0.2452
 1464SOL    HW115854   3.647   2.063   1.979  0.5244 -0.2990  3.5490
 1464SOL    HW215855   3.684   2.190   2.031 -0.1178 -0.8106  1.5678
 1465SOL     OW15856   1.365   3.888   7.565  0.0013  0.2759  0.1940
 1465SOL    HW115857   1.314   3.968   7.552  0.0367  0.1038 -0.9732
 1465SOL    HW215858   1.321   3.819   7.516  1.8646  0.2680 -1.4277
 1466SOL     OW15859   3.095   1.916  16.883  0.2487  0.0096 -0.0401
 1466SOL    HW115860   3.074   1.919  16.976  0.3581 -2.0219  0.0481
 1466SOL    HW215861   3.187   1.890  16.886  0.3030  0.1559 -0.4339
 1467SOL     OW15862   4.379   3.807  13.736  0.3132  0.0872  0.3288
 1467SOL    HW115863   4.389   3.769  13.823  0.3314 -1.3857 -0.3239
 1467SOL    HW215864   4.310   3.874  13.740 -1.1130 -1.3916  0.5500
 1468SOL     OW15865   2.283   3.512  16.408 -0.0103 -0.3645  0.1820
 1468SOL    HW115866   2.339   3.440  16.377 -1.0904 -1.1725  0.0941
 1468SOL    HW215867   2.281   3.494  16.502  4.7688 -2.6994 -0.1747
 1469SOL     OW15868   4.043   3.139   7.675 -0.3249 -0.0024 -0.3206
 1469SOL    HW115869   4.048   3.124   7.769  0.3547 -1.6681 -0.6149
 1469SOL    HW215870   3.990   3.218   7.672  1.8242  1.3122 -3.4288
 1470SOL     OW15871   3.376   0.314   7.393 -0.4251  0.1602  0.2102
 1470SOL    HW115872   3.319   0.271   7.456 -1.2419 -0.1435 -0.7406
 1470SOL    HW215873   3.356   0.260   7.317  1.0334 -0.3045  0.1427
 1471SOL     OW15874   3.812   1.734  10.452  0.1820  0.1515  0.0591
 1471SOL    HW115875   3.806   1.733  10.357 -1.4058 -0.2088  0.1604
 1471SOL    HW215876   3.886   1.795  10.461  1.0346 -1.0452  1.2747
 1472SOL     OW15877   3.038   3.527  12.892 -0.0712 -0.1015 -0.2632
 1472SOL    HW115878   3.080   3.613  12.906  1.4475 -1.2549  2.3693
 1472SOL    HW215879   3.082   3.472  12.957 -0.5853 -0.6306 -0.3707
 1473SOL     OW15880   0.742   0.579   2.693  0.2044  0.0520  0.1215
 1473SOL    HW115881   0.671   0.604   2.752 -0.7124  1.2512 -1.4786
 1473SOL    HW215882   0.736   0.485   2.707  3.0927 -0.0626  0.5691
 1474SOL     OW15883   3.093   3.132   8.590 -0.3428 -0.2017 -0.4093
 1474SOL    HW115884   3.027   3.088   8.643 -1.2018  1.7162  0.0976
 1474SOL    HW215885   3.144   3.057   8.559  1.8051  1.8916 -1.9288
 1475SOL     OW15886   2.540   2.078   2.916  0.7461  0.0069 -0.1415
 1475SOL    HW115887   2.574   2.160   2.879 -0.6319 -0.2743 -2.0273
 1475SOL    HW215888   2.565   2.088   3.008  1.7925 -0.3195 -0.3819
 1476SOL     OW15889   2.709   1.494   7.451 -0.3116 -0.4243  0.0893
 1476SOL    HW115890   2.615   1.490   7.432  0.2554 -1.4571 -2.5256
 1476SOL    HW215891   2.727   1.582   7.419  0.0550 -0.4912  0.1084
 1477SOL     OW15892   3.353   0.880  12.532 -0.1621 -0.5191  0.2969
 1477SOL    HW115893   3.442   0.854  12.508 -1.6669 -2.6029 -2.9623
 1477SOL    HW215894   3.299   0.810  12.498  1.6449 -0.3908 -2.8697
 1478SOL     OW15895   1.954   0.746   9.689  0.2035  0.2239 -0.4147
 1478SOL    HW115896   1.900   0.756   9.767 -0.0206 -1.9613 -0.3022
 1478SOL    HW215897   1.902   0.796   9.626 -0.7437 -1.0875 -0.6674
 1479SOL     OW15898   0.028   0.776   3.449  0.3587 -0.1123 -0.0488
 1479SOL    HW115899   0.071   0.790   3.533  0.8580  1.0270 -0.4977
 1479SOL    HW215900   4.678   0.720   3.468  0.1152  0.6579  1.2373
 1480SOL     OW15901   3.449   4.307  11.065  0.1439 -0.3992 -0.0022
 1480SOL    HW115902   3.512   4.281  10.997  0.9369  1.4295  0.0573
 1480SOL    HW215903   3.466   4.236  11.127  0.4273 -0.1079  0.2522
 1481SOL     OW15904   1.026   1.292  10.520  0.7810  0.1708 -0.5899
 1481SOL    HW115905   1.116   1.302  10.552  0.4481 -0.0777  0.4282
 1481SOL    HW215906   1.046   1.260  10.432  0.0368 -1.0110 -0.3185
 1482SOL     OW15907   1.080   3.866  12.138 -0.3995 -0.3306  0.2534
 1482SOL    HW115908   1.031   3.924  12.080  0.2985 -2.0967 -2.0927
 1482SOL    HW215909   1.077   3.775  12.107 -1.9320 -0.5805  1.1634
 1483SOL     OW15910   1.545   2.641   0.838 -0.2016 -0.0124 -0.2138
 1483SOL    HW115911   1.560   2.647   0.744  0.4014 -1.2549 -0.1913
 1483SOL    HW215912   1.609   2.702   0.874 -0.6141  0.7551 -0.7953
 1484SOL     OW15913   3.408   0.009   1.986  0.0653 -0.0786 -0.4110
 1484SOL    HW115914   3.420   4.703   2.076  1.6775  0.3762 -0.4729
 1484SOL    HW215915   3.425   4.656   1.932  1.2694 -0.1812  0.1233
 1485SOL     OW15916   4.323   2.175  10.034 -0.2449 -0.2549 -0.3858
 1485SOL    HW115917   4.369   2.186   9.951  1.8624 -0.8953  0.6953
 1485SOL    HW215918   4.383   2.194  10.105  0.6735 -1.4933 -0.8272
 1486SOL     OW15919   4.448   1.236   9.037  0.3052  0.6949 -0.2471
 1486SOL    HW115920   4.355   1.227   9.017  0.1601 -0.1186  0.8226
 1486SOL    HW215921   4.454   1.329   9.015  1.9880  0.8455  0.9066
 1487SOL     OW15922   4.054   3.007  13.347  0.0097 -0.2808 -0.1042
 1487SOL    HW115923   4.034   3.076  13.410 -2.8316 -1.6575  0.4944
 1487SOL    HW215924   4.027   2.937  13.406 -0.0620  0.6854  1.0248
 1488SOL     OW15925   2.832   4.615   7.778 -0.4517  0.2087  0.5733
 1488SOL    HW115926   2.739   4.604   7.757 -0.1819  2.5145 -1.8146
 1488SOL    HW215927   2.861   4.534   7.735 -2.6038 -0.3471  0.1589
 1489SOL     OW15928   0.698   3.752   3.464  0.1877  0.0711  0.0492
 1489SOL    HW115929   0.775   3.807   3.446 -0.2344  0.9043  0.7509
 1489SOL    HW215930   0.676   3.709   3.382  1.2316 -0.2606 -0.0596
 1490SOL     OW15931   0.453   3.968   4.683  0.7059  0.4004 -0.5269
 1490SOL    HW115932   0.435   4.038   4.747  0.2386  0.6125 -0.8853
 1490SOL    HW215933   0.497   3.900   4.734  0.9744  0.5044 -0.6221
 1491SOL     OW15934   1.280   1.765   9.382  0.1483 -0.0088  0.4135
 1491SOL    HW115935   1.211   1.727   9.328  0.6304  1.4272 -1.2240
 1491SOL    HW215936   1.312   1.691   9.433 -0.6067 -0.1572  0.6650
 1492SOL     OW15937   0.693   4.667   3.672  0.6518  0.5940  0.0989
 1492SOL    HW115938   0.670   4.653   3.580  1.7268  0.9682 -0.2211
 1492SOL    HW215939   0.720   0.033   3.679 -0.7681  0.7976  2.9474
 1493SOL     OW15940   2.228   1.231   2.431 -0.0310  0.0793 -0.4796
 1493SOL    HW115941   2.142   1.260   2.464 -0.7039 -1.1196 -1.1669
 1493SOL    HW215942   2.249   1.311   2.384  1.7810  0.1771  0.5239
 1494SOL     OW15943   2.144   2.570  14.802 -0.3977 -0.3835  0.9414
 1494SOL    HW115944   2.222   2.526  14.837  0.4154  0.5515  0.3199
 1494SOL    HW215945   2.119   2.524  14.722  0.3369  0.8440  0.0011
 1495SOL     OW15946   0.188   4.383   8.742 -0.0975  0.4519 -0.6469
 1495SOL    HW115947   0.108   4.410   8.787  0.3223  0.6359 -0.0156
 1495SOL    HW215948   0.164   4.381   8.649 -1.4952 -2.9034 -0.2320
 1496SOL     OW15949   4.701   4.043  12.601  0.0233  0.4935  0.2520
 1496SOL    HW115950   4.648   4.089  12.535 -1.3163 -1.9576 -0.4048
 1496SOL    HW215951   4.710   4.110  12.669  1.1744  0.0581  0.5119
 1497SOL     OW15952   3.290   0.904   5.724  0.3558  0.0198 -0.2757
 1497SOL    HW115953   3.327   0.917   5.636 -2.6293  2.1210 -1.2330
 1497SOL    HW215954   3.268   0.994   5.751 -1.3664 -0.0112 -1.4982
 1498SOL     OW15955   4.559   0.742  15.621  0.1989  0.1253 -0.6007
 1498SOL    HW115956   4.588   0.730  15.530  0.1427  0.0660 -0.6111
 1498SOL    HW215957   4.512   0.826  15.616  0.4811  0.4005  1.6223
 1499SOL     OW15958   2.049   0.661   6.486 -0.0935  0.2213  0.0740
 1499SOL    HW115959   2.044   0.581   6.539 -2.9323  1.0365  1.0946
 1499SOL    HW215960   1.994   0.629   6.415  0.2923  0.5837 -0.3835
 1500SOL     OW15961   4.412   0.888  11.493 -0.1721  0.2205  0.1239
 1500SOL    HW115962   4.367   0.837  11.426 -3.8007  0.0526  2.6530
 1500SOL    HW215963   4.493   0.917  11.452 -0.9678  1.6792 -0.4074
 1501SOL     OW15964   1.282   0.009  12.489 -0.1984  0.2905 -0.1239
 1501SOL    HW115965   1.342   0.083  12.498 -0.6109  0.8004 -1.5336
 1501SOL    HW215966   1.237   0.034  12.570  1.8903  1.6337  0.6172
 1502SOL     OW15967   4.666   1.125   3.574  0.0337 -0.3825  0.1080
 1502SOL    HW115968   4.720   1.125   3.654 -0.0178 -1.4590  0.1495
 1502SOL    HW215969   4.599   1.064   3.606 -1.5449  0.1903 -2.1281
 1503SOL     OW15970   3.321   0.121   7.218  0.2885  0.4500 -0.4918
 1503SOL    HW115971   3.388   0.075   7.168  0.4728  1.8243 -1.4946
 1503SOL    HW215972   3.267   0.046   7.245 -0.1508  1.3353  1.0767
 1504SOL     OW15973   0.384   3.478   5.914  0.2545 -0.9852 -0.2726
 1504SOL    HW115974   0.383   3.573   5.912  0.1508 -1.0003 -1.4440
 1504SOL    HW215975   0.293   3.461   5.890  0.8776 -1.8772 -2.0647
 1505SOL     OW15976   0.381   1.804   6.897  0.1435  0.0382 -0.2645
 1505SOL    HW115977   0.430   1.845   6.827 -0.1058  1.0549  0.1564
 1505SOL    HW215978   0.336   1.732   6.853 -1.4665  1.7296 -1.3931
 1506SOL     OW15979   0.701   0.778   7.645 -0.2241 -0.3111  0.9345
 1506SOL    HW115980   0.697   0.872   7.628 -0.1999 -0.0787  2.2131
 1506SOL    HW215981   0.637   0.740   7.585  0.1204 -0.2472  0.5251
 1507SOL     OW15982   0.468   1.928   3.970  0.1743  0.5522 -0.4645
 1507SOL    HW115983   0.417   1.996   4.013 -0.4228 -0.4770  0.4434
 1507SOL    HW215984   0.414   1.903   3.895 -0.4001 -1.7132  0.7039
 1508SOL     OW15985   2.690   2.387  11.360 -0.4330  0.1679 -0.2995
 1508SOL    HW115986   2.648   2.341  11.287  2.3943 -1.9522 -0.5716
 1508SOL    HW215987   2.676   2.473  11.321 -2.7883  0.3190  0.8824
 1509SOL     OW15988   4.077   0.683  10.545  0.5089  0.6448 -0.2819
 1509SOL    HW115989   4.064   0.766  10.592 -3.0137 -0.0314 -0.0444
 1509SOL    HW215990   4.112   0.628  10.615  0.6536  1.5870  0.3936
 1510SOL     OW15991   0.720   4.546   7.581  0.5599  0.2033 -0.1134
 1510SOL    HW115992   0.724   4.623   7.525 -0.5453  1.4090  1.4733
 1510SOL    HW215993   0.673   4.488   7.520 -0.9356  1.1287  0.1774
 1511SOL     OW15994   1.872   3.201   9.544  0.0732  0.1785  0.1994
 1511SOL    HW115995   1.863   3.296   9.535  1.9961  0.3206 -0.1784
 1511SOL    HW215996   1.937   3.180   9.477  0.0226  0.3090  0.1097
 1512SOL     OW15997   2.277   2.286   8.179  0.0399 -0.3460 -0.0772
 1512SOL    HW115998   2.226   2.291   8.259 -1.1207 -0.0220 -0.8394
 1512SOL    HW215999   2.236   2.208   8.142 -1.0004  0.8648 -1.4763
 1513SOL     OW16000   3.598   3.963   4.538 -0.8320  0.6757  0.0584
 1513SOL    HW116001   3.609   3.911   4.459  1.6401  0.6424  0.4216
 1513SOL    HW216002   3.677   3.944   4.589 -0.0025  0.1213 -1.4359
 1514SOL     OW16003   0.509   1.328  11.969 -0.2353 -0.0107 -0.0341
 1514SOL    HW116004   0.588   1.355  12.015 -0.4969  2.2139 -0.8722
 1514SOL    HW216005   0.514   1.368  11.882  3.7961  1.4102  0.8962
 1515SOL     OW16006   4.372   1.144   2.032 -0.0271  0.1565  0.5596
 1515SOL    HW116007   4.443   1.176   1.977 -1.4781 -1.5522 -2.3133
 1515SOL    HW216008   4.407   1.066   2.075  1.8103 -0.9780 -2.9815
 1516SOL     OW16009   1.236   2.717   6.542  0.0660  0.0847  0.2584
 1516SOL    HW116010   1.183   2.796   6.551 -1.5690 -0.8173 -1.3213
 1516SOL    HW216011   1.179   2.654   6.587 -0.0364 -1.9904 -2.7324
 1517SOL     OW16012   2.475   4.536   1.943  0.3426 -0.5298  0.1332
 1517SOL    HW116013   2.441   4.549   2.031  0.2073 -0.5411  0.0837
 1517SOL    HW216014   2.569   4.536   1.961  0.5399 -1.0537 -0.8752
 1518SOL     OW16015   0.376   3.804   1.660 -0.0423 -0.6893  0.1915
 1518SOL    HW116016   0.334   3.725   1.694 -0.1539 -0.6698  0.1016
 1518SOL    HW216017   0.465   3.807   1.696  0.4987 -2.8088 -0.9629
 1519SOL     OW16018   0.902   0.247  11.197 -0.1429 -0.5048  0.6241
 1519SOL    HW116019   0.812   0.266  11.224 -0.1165 -0.5756  0.7624
 1519SOL    HW216020   0.875   0.195  11.121  1.6537  1.4843 -1.3998
 1520SOL     OW16021   3.604   1.130   2.462  0.2784  0.3032  0.2871
 1520SOL    HW116022   3.641   1.043   2.479  0.4504  0.0856 -1.2573
 1520SOL    HW216023   3.538   1.103   2.397  1.7147  0.7808 -1.3554
 1521SOL     OW16024   0.750   0.785   0.360 -0.0179  0.4019 -0.5181
 1521SOL    HW116025   0.844   0.785   0.380  0.1354 -2.5148 -1.3234
 1521SOL    HW216026   0.739   0.862   0.304  2.7616  0.6315 -0.7249
 1522SOL     OW16027   0.975   3.905   5.703  0.5347 -0.8122 -0.3674
 1522SOL    HW116028   1.012   3.894   5.615  0.6347 -0.1584 -0.4132
 1522SOL    HW216029   0.903   3.842   5.696 -0.1880 -0.1231  0.7376
 1523SOL     OW16030   4.414   3.823  16.387 -0.4356  0.3569 -0.0074
 1523SOL    HW116031   4.325   3.846  16.414  0.5835  2.8167  1.2409
 1523SOL    HW216032   4.422   3.860  16.300  1.1886 -0.2673 -0.1332
 1524SOL     OW16033   4.469   2.145  11.644  0.1897  0.0371 -0.3635
 1524SOL    HW116034   4.459   2.231  11.685 -3.0884 -0.2402 -0.6209
 1524SOL    HW216035   4.438   2.155  11.555 -2.0760 -0.4379  0.3729
 1525SOL     OW16036   4.470   2.098  13.487 -0.1707 -0.2023 -0.2238
 1525SOL    HW116037   4.397   2.139  13.534  0.8326  1.1689  0.1529
 1525SOL    HW216038   4.536   2.166  13.470  0.4191 -0.8271 -0.4230
 1526SOL     OW16039   4.722   3.705   3.856 -0.5262 -0.1481  0.3675
 1526SOL    HW116040   4.691   3.730   3.769 -2.0829  0.3162  1.0613
 1526SOL    HW216041   4.714   3.611   3.842  2.1788 -0.3092 -0.0431
 1527SOL     OW16042   3.127   1.249   0.985 -0.0955  0.4138  0.2912
 1527SOL    HW116043   3.034   1.224   0.985 -0.2773  1.0871 -0.3533
 1527SOL    HW216044   3.148   1.261   0.892 -0.8599 -1.8575 -0.1922
 1528SOL     OW16045   0.229   0.965   7.743 -0.0250 -0.4754  0.6947
 1528SOL    HW116046   0.306   0.985   7.689 -1.7362  2.7850 -0.5348
 1528SOL    HW216047   0.168   0.998   7.676  0.5359 -0.8641 -0.0125
 1529SOL     OW16048   0.778   0.527  10.508  0.4266  0.7120 -0.8199
 1529SOL    HW116049   0.777   0.619  10.484  1.3554  0.9778  0.1765
 1529SOL    HW216050   0.718   0.488  10.444 -0.3604 -0.9970  0.9472
 1530SOL     OW16051   3.722   2.291  11.316 -0.4504 -0.0889  0.1879
 1530SOL    HW116052   3.816   2.290  11.296 -1.1512 -0.3638 -3.0467
 1530SOL    HW216053   3.712   2.340  11.398 -2.6221  0.4489 -0.4142
 1531SOL     OW16054   3.121   1.507   7.419 -0.1907  0.3557  0.5470
 1531SOL    HW116055   3.065   1.497   7.496 -1.5880  0.5074 -0.4415
 1531SOL    HW216056   3.080   1.455   7.349 -0.4035 -1.6912  2.1822
 1532SOL     OW16057   2.125   2.108   8.050 -0.3313 -0.5512 -0.7539
 1532SOL    HW116058   2.104   2.019   8.077 -1.9726 -0.3456 -1.3746
 1532SOL    HW216059   2.114   2.107   7.955  1.7296  2.2003 -1.0357
 1533SOL     OW16060   1.847   4.512   8.617  0.1133 -0.2852  0.8676
 1533SOL    HW116061   1.762   4.553   8.634  0.6646  1.0710  0.3599
 1533SOL    HW216062   1.812   4.424   8.603 -0.4576 -0.5033  3.8461
 1534SOL     OW16063   3.445   4.615   1.514  0.2355 -0.3963 -0.0598
 1534SOL    HW116064   3.420   4.605   1.423  1.7840 -0.9212 -0.4240
 1534SOL    HW216065   3.389   4.550   1.556  0.9281 -0.4165  0.8566
 1535SOL     OW16066   3.419   1.092  12.323  0.2842  0.0682 -0.1339
 1535SOL    HW116067   3.361   1.090  12.247 -1.8637  0.4761  1.4989
 1535SOL    HW216068   3.393   1.012  12.369  0.9994 -0.9546 -1.5401
 1536SOL     OW16069   3.666   2.116   2.614 -0.0956  0.0673 -0.3617
 1536SOL    HW116070   3.732   2.079   2.557 -0.4388 -0.9480 -0.0954
 1536SOL    HW216071   3.671   2.211   2.599  2.2496  0.3598  2.2200
 1537SOL     OW16072   0.256   2.101  12.528 -0.3871  0.4393  0.2054
 1537SOL    HW116073   0.164   2.123  12.515 -0.3109 -0.1310 -1.2964
 1537SOL    HW216074   0.285   2.179  12.575 -1.3008 -0.3194  2.0035
 1538SOL     OW16075   3.303   3.488   7.508  0.2463 -0.4270  0.1407
 1538SOL    HW116076   3.342   3.405   7.533  0.9416 -0.0754  0.2316
 1538SOL    HW216077   3.382   3.541   7.506  1.7301 -2.7548 -1.9728
 1539SOL     OW16078   3.066   1.716   5.963 -0.0363  0.3039 -0.0597
 1539SOL    HW116079   3.095   1.656   6.032 -3.7213 -0.3493  0.8842
 1539SOL    HW216080   2.972   1.718   5.978  0.0534  1.0100  0.4168
 1540SOL     OW16081   2.969   3.223   5.112 -0.1134  0.4295  0.0127
 1540SOL    HW116082   3.043   3.198   5.055 -1.0384 -0.6433 -0.7251
 1540SOL    HW216083   2.984   3.160   5.182 -2.1310 -0.3732 -0.2850
 1541SOL     OW16084   3.080   2.330   3.395 -0.7602 -0.3641 -0.4505
 1541SOL    HW116085   3.087   2.413   3.442  2.0947 -0.8383 -0.0736
 1541SOL    HW216086   3.051   2.282   3.473 -0.8784 -0.0115 -0.2754
 1542SOL     OW16087   3.196   2.230   0.920  0.2180  0.1410 -0.3974
 1542SOL    HW116088   3.166   2.139   0.918  1.0453 -0.1448  0.1047
 1542SOL    HW216089   3.275   2.222   0.867  1.0658  1.4215  0.6766
 1543SOL     OW16090   2.436   2.222   5.690 -0.0196  0.0239  0.0337
 1543SOL    HW116091   2.462   2.218   5.598 -1.1758  0.0805 -0.2980
 1543SOL    HW216092   2.504   2.278   5.728  2.1218 -1.8450 -1.0672
 1544SOL     OW16093   0.498   0.213   0.086  0.2293 -0.4099  0.0979
 1544SOL    HW116094   0.501   0.308   0.082 -2.2025 -0.2949  0.8780
 1544SOL    HW216095   0.499   0.200  17.693  2.8200  0.5539  0.0149
 1545SOL     OW16096   1.806   4.221   5.869  0.2300  0.2228  0.1718
 1545SOL    HW116097   1.755   4.297   5.897 -1.0005 -0.7130  0.4823
 1545SOL    HW216098   1.808   4.176   5.954  0.6012  0.8221  0.4760
 1546SOL     OW16099   1.577   1.143   2.728 -0.2005  0.4257 -0.0749
 1546SOL    HW116100   1.609   1.134   2.818 -0.0661 -2.6955 -0.4376
 1546SOL    HW216101   1.587   1.052   2.701  0.2240  0.9623 -1.7309
 1547SOL     OW16102   2.680   1.250   2.437 -0.2707 -0.2551  0.3567
 1547SOL    HW116103   2.769   1.262   2.470 -0.4990  0.8681  0.5519
 1547SOL    HW216104   2.696   1.163   2.401  2.8997  1.5309 -2.5432
 1548SOL     OW16105   4.051   0.755   5.281 -0.3851  0.1582  0.5991
 1548SOL    HW116106   3.976   0.695   5.287 -0.3753 -0.1008 -2.0948
 1548SOL    HW216107   4.019   0.816   5.348  1.8087  3.3814 -1.2780
 1549SOL     OW16108   1.704   0.453   3.889  0.0335  0.1724  0.9556
 1549SOL    HW116109   1.765   0.486   3.955  0.2958 -0.3199  0.9585
 1549SOL    HW216110   1.628   0.417   3.934 -1.0256 -0.8308 -1.6276
 1550SOL     OW16111   3.441   4.177  11.629  0.5145 -0.0233  0.4289
 1550SOL    HW116112   3.531   4.195  11.602  1.0840 -0.8434  1.7683
 1550SOL    HW216113   3.464   4.091  11.664  3.0202  0.5104  0.0942
 1551SOL     OW16114   2.050   3.146   8.491  0.1414  0.0347  0.3808
 1551SOL    HW116115   2.058   3.138   8.586  2.0303 -1.0748  0.1350
 1551SOL    HW216116   2.139   3.147   8.455  0.6558  1.3985  1.7115
 1552SOL     OW16117   2.302   0.118   8.307 -0.2747  0.1442 -0.1494
 1552SOL    HW116118   2.280   0.163   8.389 -1.6187 -0.2276 -0.2956
 1552SOL    HW216119   2.220   0.070   8.291 -0.4307  0.2249  0.3977
 1553SOL     OW16120   4.506   4.003   4.581  0.3852 -0.2527  0.2227
 1553SOL    HW116121   4.550   3.956   4.511 -0.5078 -0.9082  0.1049
 1553SOL    HW216122   4.520   4.098   4.579 -1.1751 -0.0103  0.5355
 1554SOL     OW16123   0.651   1.426   5.055  0.0542 -0.4672  0.0380
 1554SOL    HW116124   0.719   1.438   5.121  0.3212 -0.2218 -0.2883
 1554SOL    HW216125   0.655   1.513   5.015 -1.5127  0.1796  1.2584
 1555SOL     OW16126   0.508   3.901   4.422  0.0427  0.1513 -0.4015
 1555SOL    HW116127   0.584   3.943   4.463  1.0079 -2.2911  0.3026
 1555SOL    HW216128   0.453   3.907   4.500  2.2501  1.8049  1.0464
 1556SOL     OW16129   4.400   2.036   7.991 -0.5046  0.3085  0.4485
 1556SOL    HW116130   4.469   2.100   8.005 -1.3535  1.3864 -0.2691
 1556SOL    HW216131   4.326   2.093   7.969 -0.8822  0.4097  1.9598
 1557SOL     OW16132   4.575   1.270   7.817 -0.2966  0.1447  1.0533
 1557SOL    HW116133   4.530   1.186   7.804  0.8572 -0.5343  1.4357
 1557SOL    HW216134   4.641   1.244   7.880  0.6406  2.3014  0.9557
 1558SOL     OW16135   4.705   0.608  15.139  0.4300  0.6230 -0.2017
 1558SOL    HW116136   0.076   0.607  15.144  0.4512 -0.7187 -0.8734
 1558SOL    HW216137   4.684   0.686  15.088 -1.9676 -0.0745 -0.2810
 1559SOL     OW16138   0.046   1.835   9.209  0.2782  0.5088  0.4576
 1559SOL    HW116139   0.119   1.871   9.260 -0.4003 -0.4215  2.0655
 1559SOL    HW216140   4.701   1.891   9.241  1.2447  3.8661 -3.3005
 1560SOL     OW16141   1.593   2.628   7.989  0.8226  0.4378  0.4117
 1560SOL    HW116142   1.534   2.666   7.924 -0.7360  0.6116  1.9219
 1560SOL    HW216143   1.602   2.698   8.053  0.2677  1.5554 -0.7402
 1561SOL     OW16144   1.274   0.700  17.090  0.3391 -0.4987 -0.0932
 1561SOL    HW116145   1.350   0.742  17.130  0.3552  0.1574 -0.8273
 1561SOL    HW216146   1.317   0.670  17.010 -0.2160 -1.6316  0.0313
 1562SOL     OW16147   2.173   1.963   1.685  0.1518 -0.4992  0.0896
 1562SOL    HW116148   2.234   2.032   1.711 -1.6233  1.0881  0.0644
 1562SOL    HW216149   2.200   1.890   1.741  0.3746  0.7040  1.5463
 1563SOL     OW16150   0.446   4.489  10.055 -0.6507 -0.0506  0.0863
 1563SOL    HW116151   0.521   4.530  10.013 -0.5174  1.6343  1.9172
 1563SOL    HW216152   0.367   4.501  10.002 -0.9184 -1.1061  0.2537
 1564SOL     OW16153   4.251   3.551   7.601  0.0692  0.2022  0.3741
 1564SOL    HW116154   4.271   3.492   7.674  0.9560  1.7598  1.3899
 1564SOL    HW216155   4.307   3.626   7.617  1.3612 -0.4824 -0.9027
 1565SOL     OW16156   1.723   1.992  14.235  0.4040  0.0329 -1.0041
 1565SOL    HW116157   1.698   1.925  14.171 -3.3021 -0.1778  0.6583
 1565SOL    HW216158   1.771   2.052  14.177 -1.0615  0.3400 -1.8932
 1566SOL     OW16159   1.801   0.975   5.925  0.4981  0.3767 -0.2416
 1566SOL    HW116160   1.720   0.984   5.874  1.2721  0.9451 -1.3468
 1566SOL    HW216161   1.796   0.882   5.948 -1.2789  0.2889 -0.9471
 1567SOL     OW16162   1.017   2.061   8.113 -0.3869  0.6840  0.2695
 1567SOL    HW116163   1.026   2.150   8.147 -1.8928  0.2068  1.9140
 1567SOL    HW216164   0.994   2.088   8.024 -1.3625  0.0057  0.3174
 1568SOL     OW16165   0.985   4.143   2.217 -0.0041  0.3812 -0.5486
 1568SOL    HW116166   1.070   4.148   2.172 -1.0658 -0.4364 -2.6735
 1568SOL    HW216167   0.941   4.100   2.143 -2.0273 -0.0500  0.9107
 1569SOL     OW16168   1.518   4.705   4.957 -0.2089 -0.3559 -0.2429
 1569SOL    HW116169   1.454   4.704   5.028  2.2650 -1.4272  1.9472
 1569SOL    HW216170   1.552   0.069   4.950 -2.4982  0.6705  1.4969
 1570SOL     OW16171   2.363   4.552   2.180  0.7704  0.5853 -0.3919
 1570SOL    HW116172   2.270   4.537   2.168  0.2855  0.7848  3.0591
 1570SOL    HW216173   2.371   4.526   2.272  0.6782 -1.5071 -0.9679
 1571SOL     OW16174   0.101   0.387  12.213  0.0513  0.3622 -0.0410
 1571SOL    HW116175   0.045   0.367  12.288  0.8842 -0.3141  0.3989
 1571SOL    HW216176   0.154   0.308  12.215  0.6863  0.7671 -1.3011
 1572SOL     OW16177   0.370   2.642   5.266  0.7450 -0.1795  1.0444
 1572SOL    HW116178   0.448   2.593   5.241  0.6285 -0.2478  0.8057
 1572SOL    HW216179   0.408   2.715   5.314 -0.0431  1.1429 -0.3393
 1573SOL     OW16180   2.927   1.972   1.985  0.7416 -0.4199  0.9567
 1573SOL    HW116181   2.833   1.956   1.989  0.4988 -0.0598 -3.2867
 1573SOL    HW216182   2.947   1.932   2.070 -0.2425 -1.5659  0.6441
 1574SOL     OW16183   1.096   3.941   7.741 -0.2502 -0.3496 -0.0058
 1574SOL    HW116184   1.154   4.016   7.722  0.2501 -0.9807 -0.9769
 1574SOL    HW216185   1.014   3.976   7.707  0.5403 -1.5616 -3.1647
 1575SOL     OW16186   2.104   0.313   4.386 -0.2228 -0.1925 -0.4414
 1575SOL    HW116187   2.073   0.258   4.458 -3.0302  0.1861 -1.3509
 1575SOL    HW216188   2.050   0.284   4.311 -1.1590 -2.2367  1.0176
 1576SOL     OW16189   0.022   4.381   4.078 -0.3448  0.4543 -0.1947
 1576SOL    HW116190   4.701   4.413   4.000 -0.0073  1.0625 -0.1526
 1576SOL    HW216191   4.687   4.401   4.149  0.3411 -2.0320  1.0963
 1577SOL     OW16192   1.847   0.517  13.166 -0.4207 -0.4811  0.1629
 1577SOL    HW116193   1.909   0.589  13.156  0.4087 -1.3763 -1.0299
 1577SOL    HW216194   1.851   0.473  13.082  4.4838 -2.0532  1.2235
 1578SOL     OW16195   2.930   1.877  12.653  0.3892 -0.1486 -0.3501
 1578SOL    HW116196   2.885   1.945  12.603 -0.0378  0.6699  1.1625
 1578SOL    HW216197   2.901   1.803  12.600  0.0535  0.6783 -1.3190
 1579SOL     OW16198   0.237   2.992  14.673  0.4261  0.0434  0.5162
 1579SOL    HW116199   0.197   3.064  14.722  1.3324  0.7483  0.2296
 1579SOL    HW216200   0.161   2.972  14.618  0.8429 -1.5003  0.5058
 1580SOL     OW16201   0.900   1.499   9.882  0.4245 -0.4480 -0.1109
 1580SOL    HW116202   0.935   1.409   9.884  1.0096 -0.2127  0.1650
 1580SOL    HW216203   0.964   1.545   9.828  0.3402  1.1582  1.1744
 1581SOL     OW16204   0.136   2.545   8.886  0.1943  0.2009  0.1309
 1581SOL    HW116205   0.176   2.623   8.924  0.1058 -0.3024  1.2299
 1581SOL    HW216206   0.093   2.495   8.954 -0.4942 -0.2436 -0.6239
 1582SOL     OW16207   0.032   4.075   6.184  0.3603 -0.3818  0.1080
 1582SOL    HW116208   0.081   3.995   6.166 -0.4233 -1.1811  1.5005
 1582SOL    HW216209   0.042   4.121   6.101  0.1547  0.2676  0.4419
 1583SOL     OW16210   3.403   3.714   5.454  0.2464  0.5721 -0.4025
 1583SOL    HW116211   3.362   3.721   5.368 -0.1372  3.6493  0.0616
 1583SOL    HW216212   3.399   3.807   5.476  0.1215  1.5203 -4.5886
 1584SOL     OW16213   3.828   1.499   0.934  0.2834  0.3554  0.6138
 1584SOL    HW116214   3.876   1.468   0.858 -1.1141 -2.9879  1.1203
 1584SOL    HW216215   3.854   1.444   1.008  1.0702 -0.3502 -0.1968
 1585SOL     OW16216   2.436   3.274   3.956  0.4560 -0.2270 -0.2648
 1585SOL    HW116217   2.417   3.183   3.979 -1.7004  0.3266  0.1123
 1585SOL    HW216218   2.388   3.326   4.019  1.3418 -0.6252  0.7365
 1586SOL     OW16219   1.949   0.976  17.192  0.3127 -0.1153  0.1920
 1586SOL    HW116220   1.900   0.932  17.262  1.1422  0.1040  0.9092
 1586SOL    HW216221   1.904   1.061  17.190  1.6762  0.6383  1.6553
 1587SOL     OW16222   1.645   0.883   3.835  0.0099  0.0426 -0.5643
 1587SOL    HW116223   1.549   0.878   3.840  0.1903 -0.8520  2.5635
 1587SOL    HW216224   1.655   0.910   3.744 -2.9184 -1.3626 -1.3162
 1588SOL     OW16225   4.255   4.674   2.340 -0.5036  0.2405 -0.2426
 1588SOL    HW116226   4.238   4.723   2.420 -3.2446 -1.4903  0.2150
 1588SOL    HW216227   4.275   4.591   2.383  0.3799  0.2302 -0.6588
 1589SOL     OW16228   2.888   1.838   8.602  0.1541  0.2244 -0.0415
 1589SOL    HW116229   2.968   1.787   8.613  0.9536  0.9583 -2.4003
 1589SOL    HW216230   2.910   1.928   8.577  0.1045  0.1462 -0.3681
 1590SOL     OW16231   1.984   4.558   3.948 -0.0114  0.3917 -0.6941
 1590SOL    HW116232   1.893   4.580   3.928 -1.2223 -2.2645  2.0184
 1590SOL    HW216233   2.013   4.603   3.868 -0.5530  0.7219 -0.7021
 1591SOL     OW16234   2.956   1.975   2.964  0.5128 -0.3581  0.0543
 1591SOL    HW116235   2.975   2.045   3.026 -1.4534 -1.0898  1.4391
 1591SOL    HW216236   2.954   1.902   3.026  0.4690 -1.2313 -0.9645
 1592SOL     OW16237   2.648   2.753   3.643  0.2818 -0.5767  0.7074
 1592SOL    HW116238   2.593   2.759   3.720 -0.2054  0.3088  0.2895
 1592SOL    HW216239   2.701   2.676   3.662 -2.6144 -2.2940  1.7891
 1593SOL     OW16240   3.094   4.644   4.973 -0.0263 -0.4538  0.1319
 1593SOL    HW116241   3.044   4.707   5.025 -0.2243 -1.1504  0.7886
 1593SOL    HW216242   3.083   4.559   5.015 -0.1212 -0.5597 -0.1124
 1594SOL     OW16243   4.533   2.457   9.752 -0.6934 -0.1913  0.1821
 1594SOL    HW116244   4.525   2.361   9.759  0.2703 -0.2298  0.8830
 1594SOL    HW216245   4.624   2.462   9.782 -0.3656 -2.0434 -0.4654
 1595SOL     OW16246   4.102   3.523   4.866  0.2321  0.4531 -0.1221
 1595SOL    HW116247   4.079   3.580   4.793  0.9804 -1.1947 -1.6482
 1595SOL    HW216248   4.185   3.485   4.836 -1.2313 -1.3717 -1.9093
 1596SOL     OW16249   2.917   1.034   7.695 -0.1299  0.1343  0.3358
 1596SOL    HW116250   2.845   0.978   7.667  0.2556 -0.2390  0.1013
 1596SOL    HW216251   2.924   1.020   7.789 -0.6048 -1.5291  0.1269
 1597SOL     OW16252   2.473   3.043   8.223 -0.0501 -0.3717  0.7201
 1597SOL    HW116253   2.477   2.966   8.166  0.5928 -1.0501  1.6881
 1597SOL    HW216254   2.546   3.104   8.213 -0.9422  0.8732  1.6495
 1598SOL     OW16255   1.498   4.278   7.947  0.2030 -0.5763  0.0231
 1598SOL    HW116256   1.516   4.234   7.863  1.3245 -1.0804  0.5333
 1598SOL    HW216257   1.515   4.371   7.930  0.7123 -0.4226  1.4205
 1599SOL     OW16258   0.587   2.809   1.727  0.5970  0.7300  0.5980
 1599SOL    HW116259   0.566   2.722   1.761 -0.9796  0.8312 -0.0828
 1599SOL    HW216260   0.503   2.846   1.698  0.5236  0.5865  0.6261
 1600SOL     OW16261   4.100   3.484   7.387 -0.2419  0.4194 -0.2427
 1600SOL    HW116262   4.028   3.456   7.444  1.0102 -0.6024  0.8346
 1600SOL    HW216263   4.156   3.522   7.454  1.2829  1.1533 -1.9208
 1601SOL     OW16264   0.097   2.276   3.104 -0.3864 -0.1569  0.7427
 1601SOL    HW116265   0.177   2.237   3.071 -0.5341  0.2889 -0.1591
 1601SOL    HW216266   0.032   2.251   3.037  1.3492  1.3124 -1.4966
 1602SOL     OW16267   0.587   2.244   5.428  0.3309 -0.1437 -0.0719
 1602SOL    HW116268   0.661   2.215   5.374 -0.1543  0.4973 -1.0860
 1602SOL    HW216269   0.556   2.326   5.388  1.3501  0.3237  0.0953
 1603SOL     OW16270   2.820   0.867   9.386  0.2872  0.2779  0.3145
 1603SOL    HW116271   2.863   0.898   9.466  1.3605 -3.8049  1.3288
 1603SOL    HW216272   2.746   0.811   9.412 -0.0295  0.2863 -0.5575
 1604SOL     OW16273   3.800   0.856   2.293 -0.3902 -0.1715  0.1704
 1604SOL    HW116274   3.831   0.840   2.383 -0.3021 -1.9851 -0.2002
 1604SOL    HW216275   3.874   0.913   2.269 -1.0642  0.2472 -0.8883
 1605SOL     OW16276   4.686   4.653   5.272 -0.0897  0.3551  0.0518
 1605SOL    HW116277   4.682   4.557   5.281 -1.1809  0.5187  1.1666
 1605SOL    HW216278   4.688   4.674   5.365  2.0316  0.7055 -0.0731
 1606SOL     OW16279   1.832   1.825   8.281  0.3496 -0.4432  0.0555
 1606SOL    HW116280   1.837   1.775   8.199 -0.1413  0.0828 -0.2988
 1606SOL    HW216281   1.772   1.763   8.320 -0.2403 -0.9295 -1.6096
 1607SOL     OW16282   3.040   1.599   3.442  0.5623 -0.4447 -0.4999
 1607SOL    HW116283   2.967   1.610   3.381 -0.0505  0.7525  0.4471
 1607SOL    HW216284   3.056   1.689   3.472  0.4350  0.0566 -1.9340
 1608SOL     OW16285   1.473   0.417   8.486 -0.8819  0.3674  0.6449
 1608SOL    HW116286   1.550   0.442   8.434 -0.4351 -3.0367 -0.3677
 1608SOL    HW216287   1.422   0.498   8.480 -1.6456  0.0285  2.8013
 1609SOL     OW16288   2.540   1.678   0.058  0.2197 -0.5512  0.1093
 1609SOL    HW116289   2.469   1.710   0.114  0.5414 -1.0705  0.8077
 1609SOL    HW216290   2.490   1.636  17.689  2.4131  1.6801 -2.7596
 1610SOL     OW16291   4.180   1.727   7.729  0.2872  0.4458  0.6584
 1610SOL    HW116292   4.266   1.756   7.698  0.0901  0.2766 -0.0293
 1610SOL    HW216293   4.211   1.649   7.775  1.2059  0.3502 -0.1226
 1611SOL     OW16294   1.319   0.863   7.245  0.5359 -0.0355 -0.8014
 1611SOL    HW116295   1.400   0.881   7.292  1.0929 -1.8238 -1.0439
 1611SOL    HW216296   1.325   0.923   7.171 -1.5569 -2.2637 -2.7909
 1612SOL     OW16297   2.612   4.578   5.070  0.1947  0.2320  0.5852
 1612SOL    HW116298   2.580   4.577   4.980  0.2256 -1.3119  0.5877
 1612SOL    HW216299   2.600   4.672   5.079  1.2725  0.1627  2.7317
 1613SOL     OW16300   0.874   3.511   7.304 -0.4711  0.7431  0.2163
 1613SOL    HW116301   0.836   3.599   7.307  0.2251  1.0657 -0.6503
 1613SOL    HW216302   0.903   3.500   7.214 -2.2518 -0.7340 -0.1765
 1614SOL     OW16303   2.348   3.856   8.152  0.1223  0.7741 -0.3441
 1614SOL    HW116304   2.256   3.878   8.168  0.8222  3.1660  0.4530
 1614SOL    HW216305   2.381   3.800   8.223 -0.3507 -1.0877 -1.5906
 1615SOL     OW16306   4.178   1.084   6.993 -0.1367 -0.4669  0.7486
 1615SOL    HW116307   4.218   1.098   6.907  0.0909 -1.0401  0.7603
 1615SOL    HW216308   4.186   0.989   7.002 -3.2384 -0.6953  0.8435
 1616SOL     OW16309   2.846   1.560  12.997 -0.4630 -0.3225  0.1419
 1616SOL    HW116310   2.834   1.624  12.928  0.7100  0.6975  0.8991
 1616SOL    HW216311   2.939   1.562  13.018 -0.4887 -0.9898  0.3349
 1617SOL     OW16312   4.430   0.059   3.165 -0.0007 -0.0043  0.4961
 1617SOL    HW116313   4.421   0.142   3.212  0.7277  1.1970 -1.4957
 1617SOL    HW216314   4.340   0.040   3.142  0.8730 -1.0292 -2.0607
 1618SOL     OW16315   3.768   1.691   7.212  0.5716  0.0643 -0.2389
 1618SOL    HW116316   3.678   1.687   7.179  0.5754  0.5418 -0.3054
 1618SOL    HW216317   3.760   1.710   7.305  2.5545 -0.1492 -0.0139
 1619SOL     OW16318   0.462   3.128  11.073 -0.1441  0.6772  0.1135
 1619SOL    HW116319   0.442   3.037  11.047  1.6615 -0.5027  2.9139
 1619SOL    HW216320   0.442   3.175  10.992 -1.4354  1.9716  1.1917
 1620SOL     OW16321   2.525   2.852   3.422 -0.6463 -0.0459 -0.2835
 1620SOL    HW116322   2.572   2.823   3.501 -0.1734 -0.9183 -0.8892
 1620SOL    HW216323   2.598   2.908   3.397 -0.6757  0.8788  1.7267
 1621SOL     OW16324   2.255   1.759   1.847  0.2719 -0.5824 -0.4503
 1621SOL    HW116325   2.217   1.675   1.869 -0.0147 -0.4705 -0.5192
 1621SOL    HW216326   2.346   1.731   1.858  0.3585 -0.2073 -0.1916
 1622SOL     OW16327   1.571   4.658  10.660 -0.0766  0.5159  0.2107
 1622SOL    HW116328   1.634   4.675  10.730  1.6343 -2.3228 -0.6660
 1622SOL    HW216329   1.570   0.016  10.612 -0.5749 -0.2709 -1.1359
 1623SOL     OW16330   3.494   2.181   3.488  0.2864 -0.3603  0.1707
 1623SOL    HW116331   3.464   2.255   3.541 -0.1537 -0.0936 -0.4492
 1623SOL    HW216332   3.576   2.159   3.534  0.2203  1.2264  1.0427
 1624SOL     OW16333   1.267   3.078   9.301  0.7897 -0.1165 -0.4837
 1624SOL    HW116334   1.363   3.082   9.298  0.7973  1.3837  1.6858
 1624SOL    HW216335   1.247   3.095   9.393  0.9058  0.3794 -0.5490
 1625SOL     OW16336   2.427   4.218   8.831 -0.2327 -0.1529  0.8074
 1625SOL    HW116337   2.491   4.190   8.896 -0.8420 -1.6829  0.7534
 1625SOL    HW216338   2.362   4.260   8.887 -1.1157  2.2294 -1.9739
 1626SOL     OW16339   2.368   3.402  16.657 -0.7533  0.0534  0.5304
 1626SOL    HW116340   2.398   3.315  16.682  0.2569  0.7636  1.7736
 1626SOL    HW216341   2.336   3.441  16.738  1.8809  0.3895  1.3952
 1627SOL     OW16342   1.969   0.851   6.672 -0.3250  0.0984 -0.3663
 1627SOL    HW116343   2.051   0.901   6.681 -0.3590  0.2212 -0.7650
 1627SOL    HW216344   1.992   0.793   6.600 -0.5405 -1.0483  0.4970
 1628SOL     OW16345   0.322   0.450   8.205  0.0689  0.7743 -0.0254
 1628SOL    HW116346   0.236   0.420   8.176  0.8022  0.0747 -1.4781
 1628SOL    HW216347   0.373   0.416   8.131 -1.7575  0.4112 -1.1023
 1629SOL     OW16348   3.708   4.281  10.950 -0.2431  0.7816  0.0142
 1629SOL    HW116349   3.769   4.214  10.919  0.3149  1.5341 -0.4982
 1629SOL    HW216350   3.751   4.365  10.963 -1.2053  1.0857  1.2497
 1630SOL     OW16351   0.365   2.026   5.066  1.0720 -0.0844  0.2903
 1630SOL    HW116352   0.383   1.957   5.001  3.4721 -0.9519  1.8792
 1630SOL    HW216353   0.358   1.981   5.150  1.2936 -0.6905 -0.0141
 1631SOL     OW16354   3.689   1.599   8.900  0.2202 -0.2476 -0.3381
 1631SOL    HW116355   3.728   1.544   8.968  1.1167 -0.6535 -1.1747
 1631SOL    HW216356   3.686   1.539   8.826 -0.3382 -1.3573  0.5848
 1632SOL     OW16357   3.196   1.229   8.311 -0.3816 -0.2305  0.2772
 1632SOL    HW116358   3.169   1.301   8.368 -1.5420  0.7146 -1.4196
 1632SOL    HW216359   3.288   1.237   8.336 -0.3689 -0.0234  0.1673
 1633SOL     OW16360   1.773   1.364  11.862 -0.2152 -0.2868  1.3615
 1633SOL    HW116361   1.810   1.337  11.778  2.0914 -0.2857  2.3551
 1633SOL    HW216362   1.728   1.285  11.892 -1.7513  0.1514  0.2028
 1634SOL     OW16363   3.593   2.543   8.858  0.8417  0.1718 -0.5764
 1634SOL    HW116364   3.501   2.566   8.844  1.2270  1.6768 -0.6941
 1634SOL    HW216365   3.607   2.578   8.946 -1.9753  0.3465 -0.2262
 1635SOL     OW16366   0.622   4.035  17.655  0.5610 -0.1298  0.5880
 1635SOL    HW116367   0.682   4.108  17.639  0.3986 -0.0293  0.4332
 1635SOL    HW216368   0.636   4.022   0.047  2.0830 -1.5669  0.1567
 1636SOL     OW16369   3.888   0.178  12.254 -0.2034  0.0292 -0.1657
 1636SOL    HW116370   3.879   0.238  12.328 -2.2875  0.2617 -0.6099
 1636SOL    HW216371   3.894   0.244  12.185 -4.2697  0.7607  0.1817
 1637SOL     OW16372   0.005   2.640   7.419 -0.1755  0.5883 -0.2989
 1637SOL    HW116373   0.029   2.659   7.328  0.7986 -1.2762 -0.4316
 1637SOL    HW216374   0.037   2.721   7.459 -1.1410  0.1033  1.4769
 1638SOL     OW16375   2.255   1.097  12.150 -0.0901  0.9023 -0.6020
 1638SOL    HW116376   2.308   1.097  12.071 -2.4182 -0.7468 -2.1454
 1638SOL    HW216377   2.164   1.099  12.121 -1.1389 -1.6828  2.5772
 1639SOL     OW16378   0.795   4.186   2.872  1.0426  0.1082 -0.3545
 1639SOL    HW116379   0.723   4.126   2.894  1.7479  0.0980  1.9181
 1639SOL    HW216380   0.768   4.221   2.787 -1.9769  1.1374  1.0278
 1640SOL     OW16381   0.206   4.204   3.046 -0.1013 -0.4526  0.3502
 1640SOL    HW116382   0.152   4.135   3.084  1.0216 -0.3444  2.1684
 1640SOL    HW216383   0.177   4.218   2.956 -1.9056 -0.2385  0.9691
 1641SOL     OW16384   0.408   4.170  16.610 -0.2208  0.2004  0.1261
 1641SOL    HW116385   0.377   4.259  16.628  0.8543  0.3148  1.4293
 1641SOL    HW216386   0.327   4.134  16.574  0.8789 -0.5171 -1.5763
 1642SOL     OW16387   0.933   2.552  11.874 -0.4503  0.0507 -0.3975
 1642SOL    HW116388   0.839   2.534  11.868 -0.3575  0.0079 -1.7808
 1642SOL    HW216389   0.966   2.522  11.789  2.1170  0.5848  0.4111
 1643SOL     OW16390   0.637   2.872   4.665  0.0022 -0.4998 -0.4964
 1643SOL    HW116391   0.580   2.899   4.593 -0.2862  1.8480  0.6161
 1643SOL    HW216392   0.713   2.831   4.625 -0.7620 -1.9693 -0.4694
 1644SOL     OW16393   4.061   3.658   5.758 -0.3448 -0.2368  0.2637
 1644SOL    HW116394   4.108   3.709   5.824  0.5854  0.4658 -0.9294
 1644SOL    HW216395   3.971   3.677   5.786 -0.1072 -1.3014  1.6938
 1645SOL     OW16396   1.539   1.855   6.989  0.5439 -0.1324 -0.1137
 1645SOL    HW116397   1.565   1.942   6.957 -0.7462  0.8262  1.4100
 1645SOL    HW216398   1.500   1.898   7.065  0.1964 -0.9754  0.1765
 1646SOL     OW16399   3.287   4.364   8.471 -1.0382  0.0579 -0.4353
 1646SOL    HW116400   3.277   4.274   8.500 -2.1462 -0.1758 -1.5549
 1646SOL    HW216401   3.193   4.382   8.473 -0.8541  1.2552 -2.3318
 1647SOL     OW16402   4.649   3.782  12.610 -0.4348  0.4439 -0.2038
 1647SOL    HW116403   4.668   3.876  12.611  0.2317  0.2784  2.7097
 1647SOL    HW216404   4.661   3.758  12.702  1.8763 -0.7209 -0.8048
 1648SOL     OW16405   1.940   3.540   7.644  0.2918 -0.1873  0.0886
 1648SOL    HW116406   1.960   3.517   7.735 -2.4428 -0.4546  0.6111
 1648SOL    HW216407   1.923   3.453   7.608 -2.0989  0.0105  0.7476
 1649SOL     OW16408   3.275   1.268   3.028 -0.4408 -0.1729 -0.3620
 1649SOL    HW116409   3.242   1.322   2.957  1.2936  2.1756  0.6140
 1649SOL    HW216410   3.220   1.306   3.096  0.5860  0.3111  0.1992
 1650SOL     OW16411   2.122   4.074   3.139 -0.1524 -0.3685  0.0307
 1650SOL    HW116412   2.128   3.979   3.145 -2.8512 -0.6581 -2.0817
 1650SOL    HW216413   2.201   4.093   3.088  0.9435  0.2567  1.9691
 1651SOL     OW16414   1.248   1.726   0.787 -0.7042 -0.4942  0.2281
 1651SOL    HW116415   1.342   1.717   0.806 -0.3968  0.8822 -0.6146
 1651SOL    HW216416   1.221   1.808   0.828 -4.1042  0.4749 -3.9686
 1652SOL     OW16417   2.895   0.388   7.339 -0.3137 -0.4226  0.3487
 1652SOL    HW116418   2.905   0.307   7.390  1.2957 -0.0520  0.6344
 1652SOL    HW216419   2.982   0.396   7.300  0.0732 -0.0712  1.2892
 1653SOL     OW16420   0.717   1.350   3.716 -0.6266  0.1436  0.2246
 1653SOL    HW116421   0.742   1.313   3.631  0.8413  0.9216  0.3085
 1653SOL    HW216422   0.802   1.385   3.742 -1.8873  1.7688  2.1110
 1654SOL     OW16423   2.360   0.843  16.822 -0.4653 -0.2881  0.1313
 1654SOL    HW116424   2.340   0.756  16.859  2.1107 -0.7055  0.5903
 1654SOL    HW216425   2.316   0.837  16.738  0.4178  0.7664 -0.4038
 1655SOL     OW16426   0.986   0.321   3.854 -0.2555  0.3534  0.3811
 1655SOL    HW116427   1.029   0.364   3.780 -2.1331 -0.6134 -1.2568
 1655SOL    HW216428   0.963   0.398   3.906  0.0026  1.4947 -1.1813
 1656SOL     OW16429   0.193   0.121   7.227 -0.2061 -0.2328  0.4072
 1656SOL    HW116430   0.177   0.052   7.162  1.0643  2.2999 -2.5673
 1656SOL    HW216431   0.155   0.202   7.193 -1.7890 -0.9190  0.5300
 1657SOL     OW16432   1.987   1.885   8.941  0.2467 -0.6453  0.1308
 1657SOL    HW116433   1.960   1.950   8.876  0.1736  0.0255  0.8292
 1657SOL    HW216434   1.956   1.812   8.887  0.9347 -0.4249 -0.5683
 1658SOL     OW16435   0.303   2.340   4.504  0.6566  0.1312  0.3858
 1658SOL    HW116436   0.232   2.288   4.466  1.6254 -1.1352  0.3043
 1658SOL    HW216437   0.370   2.304   4.445  0.8519  0.9427  0.1123
 1659SOL     OW16438   0.435   1.585   4.761  0.2882 -0.0637  0.0380
 1659SOL    HW116439   0.490   1.510   4.740  1.5993  0.4403  1.6474
 1659SOL    HW216440   0.380   1.583   4.683 -0.1388  1.5935  0.2977
 1660SOL     OW16441   1.690   1.570   8.995 -0.2349  0.0502 -0.1235
 1660SOL    HW116442   1.759   1.523   8.949 -0.3952  0.4767 -0.7973
 1660SOL    HW216443   1.693   1.522   9.078 -0.8906 -0.4896 -0.4105
 1661SOL     OW16444   2.019   3.625   1.564  0.3666  0.3744  0.4461
 1661SOL    HW116445   2.034   3.640   1.470 -0.5798  3.8762  0.8393
 1661SOL    HW216446   2.044   3.533   1.566  0.0966  0.3827  3.4666
 1662SOL     OW16447   3.152   0.800  13.235  0.1067 -0.7014  0.0641
 1662SOL    HW116448   3.238   0.759  13.227  0.9515  1.2321 -0.6175
 1662SOL    HW216449   3.094   0.731  13.269 -1.2977 -0.3065 -1.5456
 1663SOL     OW16450   4.160   2.618   8.585  0.5996  0.0469  0.1083
 1663SOL    HW116451   4.144   2.542   8.642 -2.2625 -0.6664 -1.6524
 1663SOL    HW216452   4.103   2.690   8.612  0.2838  0.1311 -0.7751
 1664SOL     OW16453   0.615   3.371   3.418 -0.0689 -0.2282 -0.6612
 1664SOL    HW116454   0.705   3.347   3.440  0.3420  2.9521  1.0186
 1664SOL    HW216455   0.578   3.283   3.426 -1.2193  0.5805  2.7054
 1665SOL     OW16456   0.725   0.003   8.230 -0.6700 -0.3948  0.0858
 1665SOL    HW116457   0.819   0.020   8.228 -0.8861  0.9742  0.9287
 1665SOL    HW216458   0.699   0.018   8.139 -1.3385  0.0740  0.3493
 1666SOL     OW16459   0.208   0.032   5.570 -0.3945 -0.0302 -0.3741
 1666SOL    HW116460   0.124   0.013   5.530  0.4881 -0.3967 -2.0352
 1666SOL    HW216461   0.182   0.043   5.662  0.4351 -1.6553  0.0557
 1667SOL     OW16462   3.763   0.496  16.883 -0.5588  0.2121  0.1288
 1667SOL    HW116463   3.699   0.437  16.843  0.5962 -0.4102 -0.8335
 1667SOL    HW216464   3.706   0.568  16.907 -0.5045 -0.0699  1.0771
 1668SOL     OW16465   4.043   2.188   7.020  0.1602  0.3862  0.3440
 1668SOL    HW116466   4.132   2.199   6.985  0.4030  2.7256  1.7088
 1668SOL    HW216467   4.030   2.264   7.076 -0.7633  0.3472  0.1681
 1669SOL     OW16468   3.048   0.885   5.451  0.5630 -0.1092 -0.2236
 1669SOL    HW116469   3.003   0.844   5.377 -2.1853  1.0456  0.8252
 1669SOL    HW216470   2.988   0.875   5.525  0.3710  3.2619  0.0712
 1670SOL     OW16471   2.905   1.688   7.661 -0.1705 -0.2387  0.3457
 1670SOL    HW116472   2.812   1.678   7.684  0.0838  0.8497  1.8553
 1670SOL    HW216473   2.951   1.658   7.739  0.8225  1.4097  0.3881
 1671SOL     OW16474   3.855   1.730   2.761  0.3663 -0.1236  0.2173
 1671SOL    HW116475   3.775   1.779   2.746  1.0069  0.5480 -0.9449
 1671SOL    HW216476   3.815   1.657   2.809 -0.1946 -0.3809 -0.6387
 1672SOL     OW16477   1.953   1.842   4.543 -0.5276  0.6300  0.3289
 1672SOL    HW116478   2.032   1.820   4.593  1.3971  1.0828 -2.5512
 1672SOL    HW216479   1.989   1.820   4.458 -0.2878  0.3614  0.4997
 1673SOL     OW16480   4.394   3.073   6.184 -0.4102 -0.1831  0.1003
 1673SOL    HW116481   4.457   3.122   6.237 -0.3405 -0.1290 -0.0312
 1673SOL    HW216482   4.432   2.985   6.195  0.7723  0.4880  1.4356
 1674SOL     OW16483   2.912   3.743   0.776 -0.2968 -1.0304  0.4237
 1674SOL    HW116484   2.846   3.748   0.845 -1.2484  1.5803 -0.6410
 1674SOL    HW216485   2.989   3.775   0.823 -0.6384  0.0187  0.2690
 1675SOL     OW16486   2.307   1.005  15.639 -0.3351  0.1809 -0.6225
 1675SOL    HW116487   2.390   1.013  15.592  0.8805 -4.5437  0.7470
 1675SOL    HW216488   2.325   0.954  15.718  0.6803  1.5008  0.0119
 1676SOL     OW16489   3.833   3.704   2.863 -0.2214 -0.0633 -0.1197
 1676SOL    HW116490   3.882   3.729   2.942  1.5134  0.6521 -1.4314
 1676SOL    HW216491   3.816   3.783   2.812  2.4137 -0.6200 -1.8612
 1677SOL     OW16492   1.055   1.324   1.730  0.2567  0.3150 -0.2383
 1677SOL    HW116493   0.992   1.323   1.658 -2.7942  0.8511  2.4320
 1677SOL    HW216494   1.065   1.419   1.740 -2.2217  0.9204 -3.4077
 1678SOL     OW16495   4.559   1.037   2.701  0.4194 -0.0125  0.5861
 1678SOL    HW116496   4.586   0.992   2.622  0.4504 -2.0606  1.7599
 1678SOL    HW216497   4.493   1.100   2.672  1.9321  1.7222  0.8502
 1679SOL     OW16498   1.707   1.435   3.525 -0.0370  0.4806 -0.1630
 1679SOL    HW116499   1.662   1.366   3.476 -0.8281  0.5018  0.5309
 1679SOL    HW216500   1.745   1.484   3.453  0.8073 -0.3363 -0.2844
 1680SOL     OW16501   1.265   0.527   2.287  0.0733  0.0229  0.4048
 1680SOL    HW116502   1.283   0.439   2.319 -0.0396 -0.8845 -2.0105
 1680SOL    HW216503   1.226   0.501   2.203  0.0036 -1.3609  0.8673
 1681SOL     OW16504   4.522   3.357  12.859 -0.7264 -0.0293 -0.4775
 1681SOL    HW116505   4.520   3.375  12.765 -0.5367  1.0496 -0.2853
 1681SOL    HW216506   4.430   3.336  12.871 -0.1809 -1.9359  0.3446
 1682SOL     OW16507   3.005   4.102   3.078 -0.0449 -0.3832  0.2951
 1682SOL    HW116508   3.078   4.041   3.066  3.2403  3.5803 -0.0529
 1682SOL    HW216509   2.963   4.101   2.993  0.7817 -1.4050 -0.1073
 1683SOL     OW16510   3.363   0.884   3.264 -0.3668 -0.3327 -0.5765
 1683SOL    HW116511   3.294   0.919   3.320  0.8328  0.6388  0.2831
 1683SOL    HW216512   3.366   0.790   3.282  0.2022  0.3097  2.5501
 1684SOL     OW16513   2.863   2.319   5.445  0.2477  0.4441  0.7402
 1684SOL    HW116514   2.826   2.385   5.504 -0.5945  0.7147 -0.0924
 1684SOL    HW216515   2.900   2.254   5.505  4.5837 -0.1946 -2.6238
 1685SOL     OW16516   2.347   0.678   5.306  0.2452 -0.1065 -0.4594
 1685SOL    HW116517   2.352   0.621   5.230  0.9206  1.0148 -1.2515
 1685SOL    HW216518   2.251   0.674   5.310  0.0861  1.7268 -2.3348
 1686SOL     OW16519   4.662   1.495   6.968 -0.2376  0.7791  0.5387
 1686SOL    HW116520   0.018   1.443   6.974 -1.1965 -0.8150 -0.1551
 1686SOL    HW216521   4.681   1.566   7.029  0.2121 -0.3213  1.6938
 1687SOL     OW16522   3.238   1.102   2.691 -0.2809  0.0890 -0.0499
 1687SOL    HW116523   3.277   1.126   2.775 -0.5775 -0.2750  0.1968
 1687SOL    HW216524   3.144   1.090   2.703 -0.5006  0.5911 -1.2787
 1688SOL     OW16525   2.359   0.257   4.376  0.2132 -0.1691  0.0896
 1688SOL    HW116526   2.272   0.297   4.372  0.9391  1.4412  0.5364
 1688SOL    HW216527   2.354   0.186   4.313 -3.2834 -0.8967  1.2083
 1689SOL     OW16528   1.035   1.297   5.165 -0.4409  0.1145 -0.4019
 1689SOL    HW116529   1.017   1.388   5.188  0.0754  0.3148 -0.7912
 1689SOL    HW216530   1.094   1.312   5.091  0.1142  1.2758  0.2675
 1690SOL     OW16531   1.333   4.184  17.571 -0.4480  0.2898  0.1691
 1690SOL    HW116532   1.394   4.194  17.644 -0.9609 -2.4545  0.9732
 1690SOL    HW216533   1.393   4.222  17.506 -1.2766  0.3637 -0.5490
 1691SOL     OW16534   1.068   1.603   8.161 -0.5963  0.0487 -0.8192
 1691SOL    HW116535   1.002   1.655   8.207  1.8460  2.2751  0.2083
 1691SOL    HW216536   1.017   1.539   8.112 -1.9816 -0.0406  0.7224
 1692SOL     OW16537   4.177   0.250   4.042  0.5048 -0.0584  0.5371
 1692SOL    HW116538   4.143   0.261   4.131 -2.3411  2.0133 -0.8028
 1692SOL    HW216539   4.102   0.222   3.989 -0.1950  1.1346  0.8807
 1693SOL     OW16540   1.919   3.024   3.162 -0.7739 -0.3273  0.2493
 1693SOL    HW116541   1.890   2.934   3.143 -0.7169 -0.3369  0.2054
 1693SOL    HW216542   1.853   3.081   3.122  0.9288  0.2550 -1.7606
 1694SOL     OW16543   0.462   2.698   7.556  0.0671  0.0677 -0.6105
 1694SOL    HW116544   0.541   2.654   7.528  1.4208  0.9213  1.8529
 1694SOL    HW216545   0.456   2.673   7.648 -3.4748 -2.9414 -1.6894
 1695SOL     OW16546   2.803   4.351  16.732  0.5649  0.1974 -0.4195
 1695SOL    HW116547   2.828   4.433  16.773 -2.1175  0.9184 -0.2028
 1695SOL    HW216548   2.868   4.338  16.663  0.9761 -1.8086  0.3500
 1696SOL     OW16549   3.571   1.050   3.231  0.3021 -0.4765  0.1996
 1696SOL    HW116550   3.558   1.050   3.137 -0.2844 -0.5095  0.2797
 1696SOL    HW216551   3.503   0.987   3.257  0.1229 -0.8038 -1.0521
 1697SOL     OW16552   4.557   4.314  13.330 -0.2658 -0.6187 -0.3709
 1697SOL    HW116553   4.601   4.325  13.414 -2.8945 -3.4956  1.3953
 1697SOL    HW216554   4.624   4.305  13.262 -2.1559 -2.3356 -2.0218
 1698SOL     OW16555   4.383   2.091   2.720 -0.5369  0.0135 -0.3797
 1698SOL    HW116556   4.327   2.151   2.670 -0.5687 -1.0498 -1.6313
 1698SOL    HW216557   4.443   2.057   2.654 -1.8425 -0.4896 -1.3048
 1699SOL     OW16558   1.848   0.018   5.638 -0.4485  0.3115 -0.1788
 1699SOL    HW116559   1.913   0.027   5.569 -0.7783 -0.7553 -0.6272
 1699SOL    HW216560   1.897   4.690   5.701  0.3068 -1.1183 -1.9947
 1700SOL     OW16561   3.513   2.312   3.810  0.2258  0.2116  0.3841
 1700SOL    HW116562   3.424   2.308   3.774  0.3274  1.8780 -0.0652
 1700SOL    HW216563   3.503   2.398   3.850  1.4715  0.6876 -0.3572
 1701SOL     OW16564   4.618   2.114   1.872 -0.2948  0.3061 -0.1331
 1701SOL    HW116565   4.604   2.157   1.789  0.6975  0.4311 -0.2420
 1701SOL    HW216566   4.579   2.030   1.848 -2.1288  0.7058  1.4553
 1702SOL     OW16567   1.473   4.084   7.150  0.3321 -0.1587 -0.0929
 1702SOL    HW116568   1.425   4.013   7.192  0.3106 -0.7836 -1.1993
 1702SOL    HW216569   1.512   4.043   7.073 -1.3360 -0.6830 -0.6449
 1703SOL     OW16570   1.404   2.174   8.335 -0.0653  0.0201  0.0194
 1703SOL    HW116571   1.460   2.239   8.292 -0.1835  0.1764  0.1063
 1703SOL    HW216572   1.350   2.144   8.262  0.7371 -0.3635 -0.4187
 1704SOL     OW16573   3.175   1.743   1.238 -0.1688  0.0370  0.0199
 1704SOL    HW116574   3.092   1.779   1.270  0.5314  1.9004 -0.2897
 1704SOL    HW216575   3.136   1.667   1.195  2.0450 -0.9602 -0.2286
 1705SOL     OW16576   0.240   1.282   2.040  0.4123  0.5067 -0.0070
 1705SOL    HW116577   0.191   1.229   1.977 -0.3813  1.1763  0.0491
 1705SOL    HW216578   0.238   1.367   1.996 -0.6550  0.5637  0.1480
 1706SOL     OW16579   3.024   0.302  12.658 -0.0326 -0.0439 -0.1413
 1706SOL    HW116580   3.069   0.385  12.668 -0.1087 -0.1532  1.0596
 1706SOL    HW216581   3.066   0.288  12.573 -0.5834  0.1873 -0.4580
 1707SOL     OW16582   3.750   1.990   4.938 -0.4189  0.0603  0.7250
 1707SOL    HW116583   3.750   2.051   4.864 -2.0211 -2.4049 -1.3160
 1707SOL    HW216584   3.789   2.046   5.005  0.2700  1.9198 -1.2302
 1708SOL     OW16585   4.162   3.930   4.070 -0.5024  0.1079 -0.0945
 1708SOL    HW116586   4.241   3.876   4.074 -1.6847 -1.8079 -2.3112
 1708SOL    HW216587   4.189   3.992   4.003  1.9763 -0.0908  0.7388
 1709SOL     OW16588   0.372   3.749   2.905  0.2024  0.2343 -0.0117
 1709SOL    HW116589   0.454   3.770   2.950 -1.3439  2.6566  1.6739
 1709SOL    HW216590   0.349   3.669   2.952  0.7244 -0.1313 -0.3782
 1710SOL     OW16591   1.439   1.963   2.707  0.4137 -0.3977  0.0560
 1710SOL    HW116592   1.472   2.031   2.767 -1.4027 -1.0820  1.8255
 1710SOL    HW216593   1.406   2.019   2.636 -1.5380  0.1687  1.4045
 1711SOL     OW16594   0.180   4.300   2.087 -0.7918 -0.3257 -0.4212
 1711SOL    HW116595   0.136   4.371   2.132  0.5724  1.5516 -2.0276
 1711SOL    HW216596   0.252   4.281   2.148  0.3035 -0.7468 -1.8395
 1712SOL     OW16597   0.581   3.792  12.940  0.7551  0.5093  0.3956
 1712SOL    HW116598   0.671   3.810  12.915  1.3052 -0.1866  1.8665
 1712SOL    HW216599   0.547   3.856  12.878 -1.7176 -0.5669  0.6222
 1713SOL     OW16600   1.964   0.394   2.645  0.3455 -0.1283  0.5302
 1713SOL    HW116601   2.041   0.444   2.670 -1.0457  2.5239 -0.5408
 1713SOL    HW216602   2.004   0.354   2.567  1.4935 -1.0253  1.5728
 1714SOL     OW16603   3.304   3.530   3.439  0.0608 -0.5065 -0.1780
 1714SOL    HW116604   3.364   3.456   3.432  0.9705  0.4246 -2.3122
 1714SOL    HW216605   3.355   3.597   3.484  0.7873 -1.5210  0.5010
 1715SOL     OW16606   3.950   0.274   0.711 -0.5265  0.0159 -0.1023
 1715SOL    HW116607   3.969   0.318   0.794 -0.7185  0.7821 -0.4637
 1715SOL    HW216608   3.882   0.211   0.738 -0.3399  0.6355  1.8521
 1716SOL     OW16609   3.247   0.338   9.396 -0.1216 -0.5034  0.3249
 1716SOL    HW116610   3.315   0.387   9.443  0.4598 -0.8087 -0.1934
 1716SOL    HW216611   3.181   0.349   9.465  0.2728 -0.7680  0.7501
 1717SOL     OW16612   3.890   2.573   0.405  0.1610 -0.1159 -0.3445
 1717SOL    HW116613   3.856   2.484   0.415 -1.4828  0.5542  0.0538
 1717SOL    HW216614   3.910   2.564   0.312  1.8527  1.1207 -0.0870
 1718SOL     OW16615   1.117   3.901   7.336 -0.8687  0.2581 -0.8173
 1718SOL    HW116616   1.152   3.988   7.318 -2.1442  0.6230 -1.5587
 1718SOL    HW216617   1.198   3.851   7.327 -2.6755 -2.9906  0.9363
 1719SOL     OW16618   1.669   1.667   3.995  0.2721  0.0752  0.8118
 1719SOL    HW116619   1.763   1.683   4.007  0.3460  1.1953 -1.1872
 1719SOL    HW216620   1.653   1.657   3.901  1.9129  0.7635  0.4577
 1720SOL     OW16621   3.041   0.784  13.833 -1.0386 -0.3984 -0.1995
 1720SOL    HW116622   3.060   0.694  13.860 -2.3549 -0.7705 -0.5137
 1720SOL    HW216623   2.992   0.806  13.912  2.0473  0.6471  1.4246
 1721SOL     OW16624   1.937   3.166   2.014  0.3767 -0.6484 -0.0133
 1721SOL    HW116625   1.902   3.104   2.077  0.8953 -1.2576 -0.3227
 1721SOL    HW216626   2.030   3.146   2.026  0.3268 -0.7173  0.2695
 1722SOL     OW16627   2.123   1.036   4.332  0.0394  0.1006 -0.2373
 1722SOL    HW116628   2.102   1.108   4.391 -0.0967 -1.8181  2.0370
 1722SOL    HW216629   2.216   1.027   4.349  0.0726 -0.0829 -0.5017
 1723SOL     OW16630   1.785   3.542   1.672  0.4015  0.2397 -0.6554
 1723SOL    HW116631   1.856   3.587   1.626  0.5303  0.9283  0.2082
 1723SOL    HW216632   1.774   3.603   1.745  0.0088  0.0071 -0.5188
 1724SOL     OW16633   4.190   0.830   2.022 -0.2190 -0.1880 -0.0785
 1724SOL    HW116634   4.160   0.778   1.948  0.7916 -0.9810  0.0760
 1724SOL    HW216635   4.140   0.793   2.095  0.0763  0.3687  0.4082
 1725SOL     OW16636   0.817   2.182   3.910  0.4549 -0.0879  0.1642
 1725SOL    HW116637   0.804   2.135   3.992 -0.7872  1.4052  0.8005
 1725SOL    HW216638   0.837   2.272   3.936 -2.3236  0.9579 -1.3161
 1726SOL     OW16639   1.075   1.163  13.473 -0.3917  0.0501  0.2117
 1726SOL    HW116640   1.085   1.118  13.389  2.7149 -2.7577  2.0766
 1726SOL    HW216641   1.126   1.241  13.448  0.7416 -1.0930 -1.0502
 1727SOL     OW16642   4.523   3.786   2.502 -0.3711  0.4439 -0.3581
 1727SOL    HW116643   4.471   3.833   2.437  0.3399 -0.3701 -1.5207
 1727SOL    HW216644   4.582   3.732   2.449  0.2902 -0.1449  0.9766
 1728SOL     OW16645   1.517   2.772  11.229  0.0731 -0.1336 -0.1933
 1728SOL    HW116646   1.434   2.729  11.253  0.7948 -2.3672 -1.7818
 1728SOL    HW216647   1.513   2.763  11.134  0.3533 -1.0060 -0.1226
 1729SOL     OW16648   2.118   4.623  10.935 -0.5221  0.2551  0.1321
 1729SOL    HW116649   2.060   4.556  10.970  2.3668 -0.6585  3.1340
 1729SOL    HW216650   2.115   4.695  10.997  1.2170 -0.3887  0.9768
 1730SOL     OW16651   3.444   3.041  11.243 -0.4081  0.3955  0.2841
 1730SOL    HW116652   3.397   3.119  11.217 -1.2560 -0.1632  0.1382
 1730SOL    HW216653   3.393   2.970  11.203 -0.4054  0.4956  0.1073
 1731SOL     OW16654   0.113   4.045  16.008  0.4395  0.2340  0.0737
 1731SOL    HW116655   0.056   4.017  15.937 -0.4311  0.3205  0.7223
 1731SOL    HW216656   0.121   3.970  16.066 -1.8708 -0.1110 -0.0529
 1732SOL     OW16657   1.612   0.774  13.715 -0.3130 -0.2109  0.3636
 1732SOL    HW116658   1.666   0.853  13.724 -0.7094  0.0359  0.5474
 1732SOL    HW216659   1.682   0.711  13.698 -1.3780 -1.5028  0.8090
 1733SOL     OW16660   0.147   3.155  13.906  0.1443 -0.6374  0.2349
 1733SOL    HW116661   0.096   3.219  13.955 -0.3440 -2.7477  2.4758
 1733SOL    HW216662   0.134   3.183  13.815  2.5079  0.4728  0.2335
 1734SOL     OW16663   2.376   3.016  12.878  0.6300 -1.1701 -0.2257
 1734SOL    HW116664   2.383   3.080  12.949  1.0290 -0.2175 -1.1280
 1734SOL    HW216665   2.282   3.009  12.865  0.6188  0.4287 -1.0872
 1735SOL     OW16666   3.078   2.809   1.029  0.2826 -0.1296  0.0315
 1735SOL    HW116667   3.004   2.767   1.073 -1.1439  0.6703 -1.5984
 1735SOL    HW216668   3.021   2.874   0.988 -0.5921 -1.5575 -1.0050
 1736SOL     OW16669   0.572   3.448   0.200 -0.1488  0.2934 -0.2669
 1736SOL    HW116670   0.641   3.489   0.253 -0.1136  0.7474 -0.6600
 1736SOL    HW216671   0.627   3.431   0.124  2.0160  0.7192  1.1878
 1737SOL     OW16672   4.296   3.878   7.292 -0.0766  0.0613  0.4408
 1737SOL    HW116673   4.317   3.911   7.205 -2.8152 -0.9683 -0.5947
 1737SOL    HW216674   4.363   3.917   7.349 -2.4651  2.0480  1.8949
 1738SOL     OW16675   2.217   1.318   7.456  0.6114  0.2283 -0.1422
 1738SOL    HW116676   2.235   1.245   7.514 -1.4524 -1.3485 -1.4807
 1738SOL    HW216677   2.254   1.387   7.512 -0.0841  0.8315 -0.4230
 1739SOL     OW16678   0.408   3.698   3.939 -0.5861 -0.1739  0.4485
 1739SOL    HW116679   0.424   3.770   3.878  0.1820 -0.6167  0.1261
 1739SOL    HW216680   0.443   3.748   4.013  0.5860 -0.5073  0.1216
 1740SOL     OW16681   0.334   0.943  10.892  0.2058 -0.6505 -0.3920
 1740SOL    HW116682   0.264   0.884  10.917 -0.0116 -0.4712 -0.5762
 1740SOL    HW216683   0.409   0.913  10.943  0.4729 -0.7217 -0.8276
 1741SOL     OW16684   4.103   0.861   6.156  0.6696 -0.3013  0.2089
 1741SOL    HW116685   4.187   0.870   6.110  1.2158  0.6882  1.3899
 1741SOL    HW216686   4.079   0.780   6.112 -1.6751  2.1549 -2.9973
 1742SOL     OW16687   0.239   0.381   6.980  0.2041 -0.1566 -0.4685
 1742SOL    HW116688   0.214   0.444   6.913  0.2939  0.3334 -0.0454
 1742SOL    HW216689   0.195   0.420   7.056  2.6502 -1.3856  1.5754
 1743SOL     OW16690   0.186   2.676  16.506  0.1900  0.2902 -0.8488
 1743SOL    HW116691   0.129   2.753  16.508 -0.9538 -0.5580 -0.9023
 1743SOL    HW216692   0.181   2.659  16.412 -1.4608 -0.7478 -0.5632
 1744SOL     OW16693   0.892   2.689   5.959 -0.4510  0.2714  0.0301
 1744SOL    HW116694   0.921   2.641   5.882  0.9204 -0.2719  0.8888
 1744SOL    HW216695   0.961   2.756   5.957  0.3404 -0.4767  2.1396
 1745SOL     OW16696   2.534   4.390   5.792  0.1108  0.7740 -0.1548
 1745SOL    HW116697   2.519   4.485   5.793 -0.5652  0.6696 -0.0449
 1745SOL    HW216698   2.520   4.378   5.886 -1.5933  0.8729 -0.3956
 1746SOL     OW16699   0.737   4.023   5.904 -0.0986  0.4484 -0.4181
 1746SOL    HW116700   0.678   3.954   5.935  1.1519 -0.9822 -1.2227
 1746SOL    HW216701   0.824   3.986   5.921  0.4784  1.9416 -0.1743
 1747SOL     OW16702   1.886   0.953   8.962  0.5218  0.0913 -0.3759
 1747SOL    HW116703   1.871   0.989   8.875  0.8483 -1.2141 -0.9743
 1747SOL    HW216704   1.981   0.947   8.959  0.4111 -1.5603 -0.7876
 1748SOL     OW16705   3.186   0.803   4.855  0.2149 -0.0934 -0.1237
 1748SOL    HW116706   3.262   0.858   4.835  0.0966 -0.3537 -1.2726
 1748SOL    HW216707   3.170   0.847   4.939 -0.6847  0.6479 -0.6851
 1749SOL     OW16708   1.186   2.911  13.154  0.2670  0.3535 -0.5240
 1749SOL    HW116709   1.096   2.911  13.123 -0.2259 -1.9461  0.9989
 1749SOL    HW216710   1.192   2.823  13.191  3.1106  0.4432 -0.7381
 1750SOL     OW16711   4.340   1.324   5.259  0.3067 -0.1550  0.7279
 1750SOL    HW116712   4.274   1.366   5.203  1.0580  0.2187  0.1278
 1750SOL    HW216713   4.329   1.375   5.339 -0.7358  2.8961 -1.3536
 1751SOL     OW16714   2.228   0.397   7.634  0.2040 -0.1906 -0.4237
 1751SOL    HW116715   2.305   0.379   7.578 -0.3849 -0.4256 -1.1597
 1751SOL    HW216716   2.208   0.310   7.668 -1.1417  0.4662  0.4443
 1752SOL     OW16717   3.948   1.458   7.659  0.1073 -0.0397  0.7168
 1752SOL    HW116718   3.925   1.387   7.720 -1.0905 -0.5670 -0.3602
 1752SOL    HW216719   4.039   1.437   7.637 -1.3976 -4.0705 -1.7958
 1753SOL     OW16720   3.611   1.418   1.411 -0.1063  0.6606  0.3731
 1753SOL    HW116721   3.567   1.501   1.428 -1.1531  0.5849 -1.9214
 1753SOL    HW216722   3.678   1.409   1.479 -0.5498  0.0205  0.7178
 1754SOL     OW16723   3.018   1.637  12.082  0.5575 -0.4368  0.3542
 1754SOL    HW116724   2.928   1.633  12.049  0.2586  0.2317  1.0783
 1754SOL    HW216725   3.039   1.730  12.071  1.4354 -0.5745  0.8844
 1755SOL     OW16726   3.652   2.025   9.979 -0.2531  0.3439  0.0019
 1755SOL    HW116727   3.744   2.001   9.981 -1.2359 -3.2388  1.2996
 1755SOL    HW216728   3.614   1.937   9.975 -2.1175  1.2616 -2.7464
 1756SOL     OW16729   4.471   3.604   8.569  0.0694  0.4615  0.2198
 1756SOL    HW116730   4.500   3.607   8.660  0.9442 -0.6809 -0.0233
 1756SOL    HW216731   4.431   3.691   8.567 -1.4915 -0.2371  1.6389
 1757SOL     OW16732   1.647   4.040   4.186  0.0451  0.0446 -0.7470
 1757SOL    HW116733   1.711   4.029   4.115  0.7302 -0.0115 -0.1114
 1757SOL    HW216734   1.570   4.021   4.132 -0.8278  1.0029  0.1713
 1758SOL     OW16735   4.217   4.643   3.101 -0.6759 -0.1296  0.1939
 1758SOL    HW116736   4.134   4.595   3.090 -1.2568  0.5136  1.8881
 1758SOL    HW216737   4.286   4.579   3.084 -1.4723 -1.9961  3.9581
 1759SOL     OW16738   3.198   2.713   0.430  0.3463 -0.0644 -0.7979
 1759SOL    HW116739   3.250   2.696   0.508  0.0044 -1.9891 -0.9894
 1759SOL    HW216740   3.120   2.754   0.466  0.7538 -0.6685  0.7726
 1760SOL     OW16741   3.167   0.465   1.886  0.2227 -0.6066 -0.4958
 1760SOL    HW116742   3.166   0.486   1.979 -2.1556 -1.3579 -0.3342
 1760SOL    HW216743   3.247   0.413   1.884 -0.4836 -1.7316  0.2691
 1761SOL     OW16744   2.699   1.127  11.540  0.4660  0.4251 -0.1113
 1761SOL    HW116745   2.747   1.135  11.457  2.1315  1.5220  0.9655
 1761SOL    HW216746   2.629   1.069  11.509 -0.2416  1.3894 -0.3202
 1762SOL     OW16747   3.315   4.638   0.890  0.0727 -0.3264 -0.3233
 1762SOL    HW116748   3.347   4.567   0.834  2.2755 -0.1912  0.7601
 1762SOL    HW216749   3.399   4.684   0.891  0.5168 -1.1525  0.3882
 1763SOL     OW16750   1.972   0.055   3.236  0.1793  0.0911 -0.1054
 1763SOL    HW116751   1.971   0.122   3.167 -1.2410 -1.1422 -1.2900
 1763SOL    HW216752   1.884   0.019   3.227  0.9032 -1.1642 -2.4181
 1764SOL     OW16753   0.735   1.229   5.415  0.0079  0.1934  0.3008
 1764SOL    HW116754   0.755   1.320   5.393  0.7396  0.0793  0.4758
 1764SOL    HW216755   0.823   1.197   5.438 -0.1833 -0.1211  0.5805
 1765SOL     OW16756   1.967   1.133   5.368 -0.3372  0.3882 -0.1730
 1765SOL    HW116757   2.023   1.101   5.438  2.4420 -0.7154 -2.8917
 1765SOL    HW216758   1.907   1.186   5.420 -1.7446 -0.9735 -0.4310
 1766SOL     OW16759   3.327   0.543   1.028  0.3798  0.0530 -0.4204
 1766SOL    HW116760   3.234   0.549   1.050  0.5594  1.5072 -0.0305
 1766SOL    HW216761   3.367   0.629   1.043 -0.2039 -0.1371  2.4061
 1767SOL     OW16762   1.606   4.156   8.182 -0.5576 -0.1240 -0.5604
 1767SOL    HW116763   1.566   4.201   8.107 -1.7139  1.0182  0.7492
 1767SOL    HW216764   1.618   4.222   8.250 -2.4642 -1.4469  1.0787
 1768SOL     OW16765   4.679   3.627   2.270 -0.4200  0.0334  0.1077
 1768SOL    HW116766   4.597   3.590   2.238 -1.1296  1.2399  0.5255
 1768SOL    HW216767   4.706   3.681   2.196 -0.5070  1.4257  1.1067
 1769SOL     OW16768   0.084   2.618   9.635  0.3944  0.0561  0.3989
 1769SOL    HW116769   0.122   2.694   9.678  1.2328 -0.6221  0.8535
 1769SOL    HW216770   4.716   2.631   9.651  0.4695  0.1490  0.7434
 1770SOL     OW16771   2.949   3.963   9.244  0.2730 -0.0072 -0.3022
 1770SOL    HW116772   2.856   3.958   9.266  0.1928 -1.8272 -1.0801
 1770SOL    HW216773   2.982   3.968   9.334 -0.0266 -0.2718 -0.1768
 1771SOL     OW16774   2.761   3.345  15.780  0.3787  0.0851 -0.0806
 1771SOL    HW116775   2.744   3.261  15.736  1.3932 -1.2684  2.1456
 1771SOL    HW216776   2.699   3.329  15.851  1.3829 -3.3415  0.0218
 1772SOL     OW16777   3.175   1.891   3.257  0.1538 -0.3413 -0.0961
 1772SOL    HW116778   3.226   1.826   3.304  1.7863  1.5371  0.7593
 1772SOL    HW216779   3.143   1.840   3.183  2.0215 -1.8729  0.1442
 1773SOL     OW16780   3.180   4.211   0.355  0.1950  0.0149 -0.1363
 1773SOL    HW116781   3.213   4.152   0.287 -1.2677 -0.2086 -0.6579
 1773SOL    HW216782   3.256   4.206   0.413  0.8781 -2.6014 -1.2787
 1774SOL     OW16783   2.144   1.221   1.095  0.1552 -0.7652 -0.7076
 1774SOL    HW116784   2.054   1.189   1.095  0.0990 -0.5943  1.6868
 1774SOL    HW216785   2.144   1.254   1.005 -1.7839  0.4319 -0.2763
 1775SOL     OW16786   0.741   0.045   7.435 -0.1991 -0.1384  0.0971
 1775SOL    HW116787   0.806   0.115   7.425  0.1022 -0.5031 -0.5357
 1775SOL    HW216788   0.667   0.095   7.469  0.2390  0.4944  0.1244
 1776SOL     OW16789   0.834   1.612   0.596 -0.3248  0.0326 -0.0560
 1776SOL    HW116790   0.891   1.683   0.623 -1.3718  1.4461 -1.5409
 1776SOL    HW216791   0.805   1.641   0.510 -0.0523 -2.3406 -0.9413
 1777SOL     OW16792   1.403   4.046  14.792  0.4612  0.3574 -0.5970
 1777SOL    HW116793   1.364   3.976  14.740  0.8988 -0.1689 -0.2124
 1777SOL    HW216794   1.484   4.007  14.825  0.7839  0.1097 -1.6924
 1778SOL     OW16795   1.695   1.543   6.672  0.0752  0.3871 -0.2616
 1778SOL    HW116796   1.682   1.571   6.763  1.3217 -1.9477  0.6340
 1778SOL    HW216797   1.762   1.476   6.684  1.4302  1.8180  0.2866
 1779SOL     OW16798   2.992   4.321   5.297 -0.9768 -0.4039 -0.0765
 1779SOL    HW116799   2.992   4.337   5.202 -2.3896 -0.9132 -0.1631
 1779SOL    HW216800   2.902   4.289   5.310 -0.7007 -1.6233 -1.0782
 1780SOL     OW16801   0.061   0.012   3.574  0.4970 -0.4010 -0.4821
 1780SOL    HW116802   0.042   4.722   3.482 -0.5567 -1.6055 -0.0593
 1780SOL    HW216803   0.147   0.054   3.584  0.3620 -0.1924 -0.1847
 1781SOL     OW16804   0.952   2.973   5.906  0.3312  0.0466 -0.2149
 1781SOL    HW116805   1.032   2.949   5.859 -0.3430 -1.0193 -0.7992
 1781SOL    HW216806   0.881   2.966   5.844  1.0339 -1.0897 -0.8797
 1782SOL     OW16807   0.901   2.847   2.425  0.4544  0.3442 -0.0883
 1782SOL    HW116808   0.922   2.785   2.495  0.3018  1.3053  0.8175
 1782SOL    HW216809   0.809   2.828   2.408  1.1714 -1.6654 -1.7463
 1783SOL     OW16810   1.115   0.153  10.312  0.0448  0.0141  0.0064
 1783SOL    HW116811   1.067   0.191  10.239 -0.2989 -0.2140  0.1152
 1783SOL    HW216812   1.062   0.074  10.316  0.9060 -0.6157 -1.1789
 1784SOL     OW16813   0.086   0.706   6.080 -0.3204 -0.0247 -0.1905
 1784SOL    HW116814   0.069   0.790   6.123 -1.7887 -0.2163 -0.4226
 1784SOL    HW216815   0.043   0.721   5.996 -2.0013  2.0802  1.0570
 1785SOL     OW16816   4.391   3.397  15.401  0.7847 -0.3037  0.0225
 1785SOL    HW116817   4.429   3.427  15.484  0.7629 -0.3351  0.0437
 1785SOL    HW216818   4.409   3.303  15.400 -2.2207 -0.8610 -2.3040
 1786SOL     OW16819   1.463   2.795   0.141  0.0142  0.1608  0.2196
 1786SOL    HW116820   1.463   2.765   0.050  2.4514 -1.3627  0.7153
 1786SOL    HW216821   1.410   2.725   0.180  1.9516 -0.7713  1.1666
 1787SOL     OW16822   2.419   2.537   2.773 -0.2965 -0.3395  0.3037
 1787SOL    HW116823   2.483   2.577   2.714 -0.7814 -1.4926 -0.9991
 1787SOL    HW216824   2.344   2.595   2.763  0.4009  0.7465  1.3744
 1788SOL     OW16825   4.716   3.270  12.607 -0.3523 -0.3470 -0.5510
 1788SOL    HW116826   4.686   3.360  12.621  0.7342  0.0287 -0.6516
 1788SOL    HW216827   0.062   3.264  12.671 -0.5437 -1.6993 -0.4859
 1789SOL     OW16828   3.153   1.613   6.415 -0.8300 -0.1427 -0.3245
 1789SOL    HW116829   3.237   1.578   6.385 -0.9661 -2.5020  2.0776
 1789SOL    HW216830   3.158   1.707   6.397 -1.6294 -0.3856 -1.7811
 1790SOL     OW16831   3.749   0.908   7.987  0.3640 -0.3844 -0.6245
 1790SOL    HW116832   3.844   0.894   7.985  0.7485  2.2979 -0.7609
 1790SOL    HW216833   3.747   1.002   8.004  1.2807 -0.3143 -0.8725
 1791SOL     OW16834   3.300   1.438   3.820  0.5627  0.5455  0.5021
 1791SOL    HW116835   3.227   1.394   3.777 -1.2823  1.6366  2.4718
 1791SOL    HW216836   3.319   1.499   3.748 -0.7999  0.3607 -0.0194
 1792SOL     OW16837   2.355   2.166   1.744  0.0359  0.1779  0.2597
 1792SOL    HW116838   2.275   2.218   1.751  0.2974  0.5658  0.3519
 1792SOL    HW216839   2.412   2.229   1.700  0.9856 -0.6878  0.2552
 1793SOL     OW16840   1.881   1.342   6.619  0.3627 -0.0443 -0.5548
 1793SOL    HW116841   1.813   1.279   6.597  0.0357  0.7613 -1.8665
 1793SOL    HW216842   1.902   1.372   6.530 -1.5738 -0.9991 -1.3390
 1794SOL     OW16843   3.917   3.090   1.993  0.4959  0.2839 -0.2861
 1794SOL    HW116844   3.928   3.149   2.067 -0.5123 -1.0003  0.8942
 1794SOL    HW216845   3.903   3.143   1.915 -1.7168 -0.8425 -0.6484
 1795SOL     OW16846   0.546   2.975   2.008  0.1705  0.0534 -0.0935
 1795SOL    HW116847   0.548   2.996   2.101 -4.6001 -1.7621  0.4325
 1795SOL    HW216848   0.551   2.880   2.009 -1.5842 -0.0738 -1.8072
 1796SOL     OW16849   3.803   0.559  10.617 -0.0708 -0.0953  0.0138
 1796SOL    HW116850   3.888   0.590  10.584  0.9240 -0.9855  1.7314
 1796SOL    HW216851   3.739   0.579  10.549 -2.6492  1.2628  2.8846
 1797SOL     OW16852   0.964   0.288  10.562 -0.2998 -0.4621  0.0811
 1797SOL    HW116853   0.884   0.334  10.537 -0.1096 -0.4093 -0.4397
 1797SOL    HW216854   0.933   0.197  10.561 -1.6968  0.0278  0.1725
 1798SOL     OW16855   3.363   4.249  10.284  0.4191  0.2273  0.2533
 1798SOL    HW116856   3.392   4.158  10.275 -0.3330  0.0942 -0.8464
 1798SOL    HW216857   3.328   4.249  10.194  0.3464 -1.7026  0.2642
 1799SOL     OW16858   4.179   0.379   0.570 -0.4520  0.1819  0.0680
 1799SOL    HW116859   4.106   0.362   0.629 -0.3607 -0.1795  0.0773
 1799SOL    HW216860   4.221   0.452   0.616  1.6513  0.1833 -1.8638
 1800SOL     OW16861   2.936   4.692   5.250  0.0978 -0.2161 -0.4167
 1800SOL    HW116862   2.969   4.633   5.318 -0.3876  2.5152  2.1670
 1800SOL    HW216863   2.842   4.694   5.265  0.4935 -0.3820  2.1152
 1801SOL     OW16864   2.588   1.797  14.236  0.1604  0.0512 -0.0909
 1801SOL    HW116865   2.499   1.792  14.271  0.8012  1.4727  1.7144
 1801SOL    HW216866   2.590   1.709  14.198 -1.2373  0.3870 -0.9449
 1802SOL     OW16867   2.749   2.990   3.372  0.1707  0.1670  0.1901
 1802SOL    HW116868   2.822   3.039   3.335  0.2221  0.9924  1.4158
 1802SOL    HW216869   2.762   2.906   3.327  0.2660 -0.0306  0.5894
 1803SOL     OW16870   3.833   1.293   2.897 -0.2214  0.2505  0.3973
 1803SOL    HW116871   3.777   1.223   2.862  2.0045 -0.3534 -2.0390
 1803SOL    HW216872   3.914   1.273   2.850 -0.6438 -1.9253  0.5591
 1804SOL     OW16873   0.388   2.610   1.866  0.3435 -0.6097 -0.1894
 1804SOL    HW116874   0.294   2.594   1.877  0.2346  1.0338  1.3118
 1804SOL    HW216875   0.381   2.656   1.782 -0.1735  1.6764  1.0992
 1805SOL     OW16876   1.216   0.241   6.380  1.2187  0.4912 -0.3705
 1805SOL    HW116877   1.126   0.223   6.353  0.2192  3.1695  1.1620
 1805SOL    HW216878   1.202   0.221   6.473  0.9410 -0.8160 -0.6947
 1806SOL     OW16879   1.916   4.627   1.816 -0.3866  0.2671 -0.5020
 1806SOL    HW116880   1.869   4.685   1.875  0.7314  1.0476 -0.3731
 1806SOL    HW216881   1.904   4.670   1.731 -1.8011 -0.2690 -0.5747
 1807SOL     OW16882   0.040   1.014   5.775 -0.1050 -0.4997 -0.9669
 1807SOL    HW116883   0.047   1.109   5.785 -3.7233 -0.3725  0.3928
 1807SOL    HW216884   0.129   0.991   5.801 -0.1760  1.1138  0.7161
 1808SOL     OW16885   0.568   4.443   1.107  0.8547 -0.2560  0.2566
 1808SOL    HW116886   0.634   4.433   1.038  1.6132 -3.4852  1.4800
 1808SOL    HW216887   0.489   4.451   1.054  0.4747  0.7068  0.9619
 1809SOL     OW16888   0.140   0.238   9.802 -0.0806  0.6781  0.1226
 1809SOL    HW116889   0.229   0.266   9.824  0.3029 -0.2191 -0.2880
 1809SOL    HW216890   0.118   0.169   9.865 -0.4496  1.4380  0.8273
 1810SOL     OW16891   3.873   4.571  13.491 -0.0757 -0.0069  0.2459
 1810SOL    HW116892   3.923   4.632  13.437 -0.8447 -0.1859 -0.6588
 1810SOL    HW216893   3.924   4.583  13.571 -0.0560 -1.2623  0.4194
 1811SOL     OW16894   3.147   3.546   5.774 -0.5328  0.8175  0.1845
 1811SOL    HW116895   3.207   3.592   5.833 -1.0685  1.2511  0.3863
 1811SOL    HW216896   3.065   3.541   5.824  0.0327  2.9329  1.3143
 1812SOL     OW16897   3.090   4.434   7.328  0.0716 -0.4532 -0.4787
 1812SOL    HW116898   3.135   4.419   7.411  0.9572 -1.2800 -1.1009
 1812SOL    HW216899   3.078   4.342   7.304  0.2772 -0.5630 -0.1499
 1813SOL     OW16900   3.221   4.635   2.775  0.2880  0.2051 -0.7876
 1813SOL    HW116901   3.241   4.688   2.698 -2.3971  0.8547 -1.0398
 1813SOL    HW216902   3.155   4.576   2.738  1.3982 -1.2308 -0.4834
 1814SOL     OW16903   3.207   0.126   8.476  0.1967  0.2854  0.1312
 1814SOL    HW116904   3.293   0.165   8.459 -0.2296  0.3650 -1.8365
 1814SOL    HW216905   3.224   0.065   8.548  0.6185 -2.2803 -2.1450
 1815SOL     OW16906   0.182   0.035   9.158  0.1904  0.5348 -0.5727
 1815SOL    HW116907   0.091   0.061   9.141  0.0242  0.5813  0.3543
 1815SOL    HW216908   0.230   0.067   9.083  1.1711 -0.2095 -0.2634
 1816SOL     OW16909   0.990   2.206   3.581 -0.3753  0.3213 -0.1407
 1816SOL    HW116910   0.905   2.161   3.577  0.9312 -2.0625 -1.0077
 1816SOL    HW216911   1.032   2.165   3.656 -1.9154  1.7786  1.5173
 1817SOL     OW16912   2.365   2.411   5.394  0.4891  0.4404 -0.5774
 1817SOL    HW116913   2.384   2.504   5.406 -1.9729  1.0889 -1.6302
 1817SOL    HW216914   2.443   2.360   5.412 -0.1908  0.2352  1.7527
 1818SOL     OW16915   4.281   0.950  14.011 -0.2568  0.6680  0.6151
 1818SOL    HW116916   4.295   1.009  13.937  0.7564 -0.5420 -0.1681
 1818SOL    HW216917   4.244   0.873  13.967 -0.6216  1.3477 -0.2723
 1819SOL     OW16918   4.718   4.547   3.000  0.1411  0.1534  0.1185
 1819SOL    HW116919   4.687   4.544   3.091  2.0313  0.8767  0.7762
 1819SOL    HW216920   4.662   4.620   2.973 -0.2161 -0.5042 -0.9025
 1820SOL     OW16921   1.696   0.070   6.689  0.3129 -0.6333  0.8543
 1820SOL    HW116922   1.609   0.053   6.725  0.4633  1.2716  2.1440
 1820SOL    HW216923   1.677   0.049   6.597 -0.7904  0.1678  0.8923
 1821SOL     OW16924   1.809   1.048   8.703 -0.0865 -0.4723 -0.4452
 1821SOL    HW116925   1.742   1.002   8.652  0.2952 -0.9397 -0.5226
 1821SOL    HW216926   1.862   1.081   8.631 -1.6159 -1.5745 -2.0673
 1822SOL     OW16927   1.643   2.772  14.535  0.1988 -0.5534  0.7485
 1822SOL    HW116928   1.698   2.836  14.489  0.1393 -2.0355 -1.3990
 1822SOL    HW216929   1.707   2.719  14.583 -0.3778 -0.1256  1.9778
 1823SOL     OW16930   0.853   2.885   4.178  0.2426 -0.3533 -0.1642
 1823SOL    HW116931   0.947   2.895   4.193  0.5905  1.3189 -3.5980
 1823SOL    HW216932   0.849   2.890   4.083 -0.9687  0.0611 -0.0951
 1824SOL     OW16933   3.098   2.607   9.066  0.4316 -0.0104 -0.0764
 1824SOL    HW116934   3.021   2.552   9.050  0.7876 -0.2692 -0.9123
 1824SOL    HW216935   3.112   2.593   9.160  0.3403 -0.3782 -0.1152
 1825SOL     OW16936   1.579   2.947   4.630  0.1549  0.6895  0.1547
 1825SOL    HW116937   1.606   2.861   4.659 -1.2365  0.0985 -0.2712
 1825SOL    HW216938   1.579   2.990   4.716  0.7627  0.7927  0.1004
 1826SOL     OW16939   1.793   3.344  14.650 -0.4105 -0.1246 -0.7159
 1826SOL    HW116940   1.841   3.261  14.648 -1.5021 -0.8132  1.4246
 1826SOL    HW216941   1.799   3.369  14.742  3.3842 -0.6371 -0.8563
 1827SOL     OW16942   4.015   4.621   6.934 -0.0035  0.0980  0.5563
 1827SOL    HW116943   4.013   4.539   6.984  1.2971  0.0152  0.4729
 1827SOL    HW216944   3.946   4.663   6.984 -2.1798 -2.1498 -0.5915
 1828SOL     OW16945   1.189   0.250   6.639 -0.5515 -0.3399  0.5638
 1828SOL    HW116946   1.255   0.294   6.693 -1.2773  0.1834  1.0248
 1828SOL    HW216947   1.171   0.171   6.689  0.3987 -0.1094  1.2778
 1829SOL     OW16948   0.500   3.098   5.686 -0.2457  0.6827  0.2070
 1829SOL    HW116949   0.518   3.186   5.654 -0.5963  0.6924  0.0341
 1829SOL    HW216950   0.492   3.111   5.780  1.1018 -1.2033  0.5722
 1830SOL     OW16951   2.787   1.727  17.537  0.1542 -0.1428 -0.0005
 1830SOL    HW116952   2.747   1.753  17.620  0.0655 -1.4312  0.3612
 1830SOL    HW216953   2.867   1.779  17.544 -0.4962  0.6755  1.2597
 1831SOL     OW16954   0.011   4.041   8.262 -0.3960 -0.7788 -0.0169
 1831SOL    HW116955   4.642   4.031   8.251 -0.3053 -1.6029 -0.0888
 1831SOL    HW216956   0.019   3.971   8.327  0.5052  0.4323  1.1687
 1832SOL     OW16957   0.374   0.598   2.555 -0.1834  0.0452  0.3098
 1832SOL    HW116958   0.287   0.564   2.534  0.3246 -0.7389 -0.5624
 1832SOL    HW216959   0.425   0.578   2.476 -1.5625  0.2249 -0.6146
 1833SOL     OW16960   3.723   4.409   5.517  0.6748 -0.2944 -0.0411
 1833SOL    HW116961   3.690   4.488   5.561  0.9332 -0.4829  0.4913
 1833SOL    HW216962   3.712   4.429   5.424  0.5206  2.8123  0.6274
 1834SOL     OW16963   0.959   3.144   9.185  0.2217  0.5160 -0.0182
 1834SOL    HW116964   0.952   3.178   9.275  1.1762  1.7423 -0.3998
 1834SOL    HW216965   0.867   3.119   9.175 -0.0446  1.1083  0.8992
 1835SOL     OW16966   3.859   0.915   4.397 -0.2702  0.3967 -0.3288
 1835SOL    HW116967   3.839   1.004   4.426 -1.8311 -0.4246  1.1175
 1835SOL    HW216968   3.906   0.933   4.315  1.7087 -3.4223 -0.0232
 1836SOL     OW16969   3.098   1.639   2.764 -0.1128  0.5841 -0.0290
 1836SOL    HW116970   3.114   1.711   2.703 -1.1021  1.2398  0.4653
 1836SOL    HW216971   3.002   1.634   2.770 -0.2933  2.6458 -1.2013
 1837SOL     OW16972   2.243   0.909   0.742  1.1071 -0.5830  0.4640
 1837SOL    HW116973   2.148   0.916   0.736  1.6144  3.1664 -2.6603
 1837SOL    HW216974   2.265   0.968   0.814 -1.7927  1.8485 -0.6786
 1838SOL     OW16975   2.228   4.539  16.238  0.1535 -0.3930 -0.2317
 1838SOL    HW116976   2.312   4.500  16.213  0.1249 -0.0148 -0.9197
 1838SOL    HW216977   2.224   4.524  16.333  0.6596  2.2062  0.2016
 1839SOL     OW16978   2.023   3.961   6.359 -0.1350 -0.3883  0.2409
 1839SOL    HW116979   2.093   3.900   6.382  2.4328  1.2954 -3.2211
 1839SOL    HW216980   2.033   4.031   6.423 -0.1882 -0.0397 -0.1350
 1840SOL     OW16981   0.236   2.280  11.777 -0.3511  0.3242  0.2160
 1840SOL    HW116982   0.296   2.304  11.706 -1.2201 -0.2792 -0.7312
 1840SOL    HW216983   0.155   2.270  11.726  0.4382 -2.7308 -0.4657
 1841SOL     OW16984   0.277   3.777   0.219  0.1383  0.4183  0.3865
 1841SOL    HW116985   0.262   3.706   0.157  0.5532  1.5306 -1.0037
 1841SOL    HW216986   0.254   3.731   0.300  1.2051  1.0544  1.0508
 1842SOL     OW16987   3.268   3.840   4.007  0.5703  0.6959 -0.3187
 1842SOL    HW116988   3.249   3.759   4.054 -2.3053  1.4404 -0.1754
 1842SOL    HW216989   3.225   3.818   3.924 -1.1836  3.1796 -0.0897
 1843SOL     OW16990   3.623   0.708  16.991 -0.1930 -0.8365  0.6447
 1843SOL    HW116991   3.603   0.800  16.975  1.1876 -0.5163  0.8349
 1843SOL    HW216992   3.580   0.699  17.076 -2.4860  0.1492 -0.3904
 1844SOL     OW16993   0.301   2.103  10.025  0.1548 -0.1854  0.2029
 1844SOL    HW116994   0.356   2.143  10.092  1.0157 -0.5500 -0.2834
 1844SOL    HW216995   0.357   2.117   9.949  0.0517  2.5022  0.6296
 1845SOL     OW16996   1.317   0.600   7.249  0.2534  0.3850  0.3222
 1845SOL    HW116997   1.370   0.598   7.329  1.1409 -0.1574 -0.2784
 1845SOL    HW216998   1.316   0.695   7.247  0.6267  0.4644  3.5015
 1846SOL     OW16999   3.745   2.270   6.606  0.0679 -0.0606 -0.6877
 1846SOL    HW117000   3.671   2.329   6.622 -1.2296 -2.0283  0.7199
 1846SOL    HW217001   3.716   2.210   6.537  0.3561 -0.1461 -0.7331
 1847SOL     OW17002   0.986   1.148   2.601 -0.0958 -0.0489  0.2261
 1847SOL    HW117003   0.907   1.106   2.569  1.0407 -1.0416 -1.2611
 1847SOL    HW217004   1.046   1.140   2.527  0.3066 -2.9953  0.8391
 1848SOL     OW17005   2.058   2.633   4.562 -0.5009 -0.1927  0.3896
 1848SOL    HW117006   1.970   2.619   4.597 -1.8352 -0.1562 -3.0071
 1848SOL    HW217007   2.059   2.563   4.497  0.1917 -1.3021  1.5851
 1849SOL     OW17008   0.422   2.714   1.004  0.5959  0.6589  0.3663
 1849SOL    HW117009   0.345   2.668   1.036  0.8428  1.8684  2.6703
 1849SOL    HW217010   0.440   2.682   0.916  1.8115  0.4272  0.7009
 1850SOL     OW17011   3.849   1.737   5.319  0.3757  0.0351  0.5242
 1850SOL    HW117012   3.862   1.753   5.226 -1.0534 -2.9359 -0.1971
 1850SOL    HW217013   3.803   1.818   5.342 -0.3270 -0.1117 -0.3488
 1851SOL     OW17014   1.479   1.523   4.916 -0.1389 -0.3448 -0.2280
 1851SOL    HW117015   1.512   1.447   4.964  0.4510 -0.4780 -0.8386
 1851SOL    HW217016   1.454   1.565   4.998 -0.5081 -2.2341  0.6346
 1852SOL     OW17017   0.249   3.285   5.613 -0.2283  0.1562 -0.3024
 1852SOL    HW117018   0.199   3.363   5.637 -0.6689  0.1559 -1.2149
 1852SOL    HW217019   0.198   3.216   5.656 -2.1942  2.0526  0.4119
 1853SOL     OW17020   2.927   0.074   2.579 -0.4925  0.3930 -1.5468
 1853SOL    HW117021   3.014   0.080   2.619 -2.3522 -0.7895  2.6382
 1853SOL    HW217022   2.948   0.077   2.485 -1.2243  1.9617 -1.6675
 1854SOL     OW17023   4.039   3.864   5.318  0.0261  0.1259 -0.3980
 1854SOL    HW117024   4.074   3.879   5.405 -0.7454  0.5423 -0.1578
 1854SOL    HW217025   4.023   3.770   5.313  1.9894 -0.3034  1.4512
 1855SOL     OW17026   2.227   2.690  16.732  0.0474 -0.1824  0.1871
 1855SOL    HW117027   2.259   2.761  16.788 -1.3920  2.0989 -1.9061
 1855SOL    HW217028   2.217   2.735  16.648  2.1365 -1.5044 -0.8069
 1856SOL     OW17029   0.057   2.894   3.574 -0.1872  0.4815 -0.6055
 1856SOL    HW117030   0.145   2.857   3.572 -0.0540  0.7034  0.7749
 1856SOL    HW217031   0.069   2.969   3.633 -0.3358  0.8323 -1.0192
 1857SOL     OW17032   3.857   1.550   3.598  0.2954  0.6735  0.2378
 1857SOL    HW117033   3.942   1.531   3.636  0.0721 -3.5564 -1.2776
 1857SOL    HW217034   3.859   1.643   3.577 -2.3074  0.7428  0.2582
 1858SOL     OW17035   3.045   3.452  14.498 -0.3251 -0.4970 -0.2159
 1858SOL    HW117036   3.017   3.510  14.427  1.0771  0.2494 -0.1777
 1858SOL    HW217037   3.071   3.370  14.457 -0.8619 -0.6973 -0.1581
 1859SOL     OW17038   0.472   1.850   9.709 -0.2155 -0.0340  0.7033
 1859SOL    HW117039   0.457   1.940   9.681  0.3669 -0.8686 -2.2965
 1859SOL    HW217040   0.387   1.813   9.732  0.6538 -0.8602  2.5503
 1860SOL     OW17041   4.105   1.912   5.498 -0.5779 -0.4193  0.0711
 1860SOL    HW117042   4.179   1.889   5.555 -1.3598  0.9604  1.6360
 1860SOL    HW217043   4.045   1.960   5.554  1.0491 -0.2239  1.6438
 1861SOL     OW17044   4.615   4.573   3.256 -0.3634 -0.4625 -0.6113
 1861SOL    HW117045   4.680   4.608   3.317 -1.0236 -0.5804  0.1529
 1861SOL    HW217046   4.538   4.630   3.261 -1.2078 -1.6593 -0.0587
 1862SOL     OW17047   3.887   2.545   3.230 -0.4889 -0.3218 -0.2082
 1862SOL    HW117048   3.892   2.512   3.140 -0.0263 -0.3498 -0.1706
 1862SOL    HW217049   3.843   2.471   3.272 -1.6799  0.9153  0.7384
 1863SOL     OW17050   3.317   4.372   8.841  0.2584 -0.6074 -0.2886
 1863SOL    HW117051   3.379   4.367   8.914 -0.4881  2.2660  0.5394
 1863SOL    HW217052   3.355   4.319   8.771  0.6108  0.4904 -0.9137
 1864SOL     OW17053   2.637   3.973   7.854 -0.3805 -0.4363 -0.1031
 1864SOL    HW117054   2.611   4.033   7.924 -0.2630 -0.1169 -0.3357
 1864SOL    HW217055   2.561   3.997   7.801 -1.2584  0.5355  1.6078
 1865SOL     OW17056   2.105   2.898   2.938  0.3358 -0.2319  0.0594
 1865SOL    HW117057   2.055   2.917   2.859 -0.0601 -3.0827 -0.3700
 1865SOL    HW217058   2.171   2.845   2.895  2.7495  0.7663  2.5278
 1866SOL     OW17059   1.575   1.882  10.193  0.0879 -0.2307  0.2865
 1866SOL    HW117060   1.549   1.832  10.271  0.1275 -2.4314 -1.1292
 1866SOL    HW217061   1.661   1.920  10.214  0.2473 -0.8657  0.8030
 1867SOL     OW17062   3.685   4.684   7.312 -0.4161 -0.1350  0.2529
 1867SOL    HW117063   3.598   4.648   7.331 -1.2841  0.4589 -2.6634
 1867SOL    HW217064   3.698   0.004   7.396  1.3015 -0.8402  0.3661
 1868SOL     OW17065   1.511   1.738  13.897  0.0352  0.5214 -0.4083
 1868SOL    HW117066   1.462   1.675  13.950  0.5275 -0.2045 -0.8139
 1868SOL    HW217067   1.557   1.782  13.968  0.9515  0.0027 -0.6849
 1869SOL     OW17068   3.268   2.978  13.573  0.8959 -0.3276  0.5034
 1869SOL    HW117069   3.308   3.030  13.643 -1.6012 -0.1107  1.7472
 1869SOL    HW217070   3.185   2.951  13.612  0.0289 -0.3348 -1.3518
 1870SOL     OW17071   0.698   3.698   1.508  0.1043  0.1064  0.9598
 1870SOL    HW117072   0.626   3.746   1.467  0.4163 -1.5172 -1.5510
 1870SOL    HW217073   0.656   3.612   1.520  2.3185 -1.2161 -0.5890
 1871SOL     OW17074   0.470   0.831   3.939  0.0779 -0.6363  0.3833
 1871SOL    HW117075   0.530   0.758   3.956 -1.6970 -2.6930 -2.0695
 1871SOL    HW217076   0.472   0.861   4.030  0.2335  2.5650 -0.6891
 1872SOL     OW17077   2.054   0.644   6.977 -0.1159  0.4443  0.6918
 1872SOL    HW117078   2.145   0.662   6.954 -0.5053 -0.2466 -1.4327
 1872SOL    HW217079   2.020   0.733   6.970  0.1031  0.5992  1.6038
 1873SOL     OW17080   2.879   2.612   5.277 -0.0416 -0.2882  0.4822
 1873SOL    HW117081   2.906   2.560   5.352  0.6801 -0.9745 -0.2582
 1873SOL    HW217082   2.945   2.583   5.214 -0.5290  0.2711 -0.2853
 1874SOL     OW17083   0.208   2.016  10.595  0.6464 -0.3206  0.1852
 1874SOL    HW117084   0.251   1.948  10.543  1.8867  0.5884  0.0195
 1874SOL    HW217085   0.208   2.088  10.532 -1.3632  0.8548  1.5211
 1875SOL     OW17086   0.462   1.386   5.522 -0.1831  0.6093  0.3868
 1875SOL    HW117087   0.429   1.424   5.440 -0.9173 -1.6878 -0.3793
 1875SOL    HW217088   0.433   1.295   5.514  0.0802  0.6343 -0.8311
 1876SOL     OW17089   1.837   1.301   4.273 -0.0424 -0.1758  0.3044
 1876SOL    HW117090   1.756   1.253   4.290 -0.1475  0.3168  1.2019
 1876SOL    HW217091   1.796   1.388   4.275  0.3393  0.0206 -0.3482
 1877SOL     OW17092   3.765   3.045   4.972 -0.2176  0.5788 -0.2100
 1877SOL    HW117093   3.762   3.136   4.942 -0.7446  1.0724  1.3414
 1877SOL    HW217094   3.850   3.057   5.013 -0.6442  1.8155  0.3167
 1878SOL     OW17095   0.328   4.059   1.518 -0.2873 -0.1464 -0.0055
 1878SOL    HW117096   0.359   4.013   1.440 -0.9661 -0.5325 -0.0465
 1878SOL    HW217097   0.325   3.979   1.571 -4.4784 -0.2950 -0.4859
 1879SOL     OW17098   0.208   3.579   0.410  0.1613 -0.5727 -0.0688
 1879SOL    HW117099   0.219   3.492   0.448  1.9367 -0.5542 -0.5059
 1879SOL    HW217100   0.117   3.597   0.433 -0.3548 -0.8020 -1.8852
 1880SOL     OW17101   1.565   0.916   0.979 -0.2654 -0.4528 -0.2657
 1880SOL    HW117102   1.517   0.834   0.988 -0.8769 -0.1553 -0.7518
 1880SOL    HW217103   1.550   0.957   1.064  0.9197 -1.8486  0.6098
 1881SOL     OW17104   3.581   1.038   2.944 -0.4653  0.2423 -0.1787
 1881SOL    HW117105   3.597   1.105   2.877  1.6047  1.7466  1.8398
 1881SOL    HW217106   3.511   0.986   2.903 -0.5336  1.0342 -1.0771
 1882SOL     OW17107   0.695   1.578  15.186  0.2328 -0.1273 -0.1837
 1882SOL    HW117108   0.776   1.528  15.197  0.2050  0.3146  2.0959
 1882SOL    HW217109   0.639   1.523  15.240 -0.4701 -1.7716 -2.5650
 1883SOL     OW17110   2.396   2.752  16.414  0.0899 -0.9171  0.4690
 1883SOL    HW117111   2.428   2.833  16.455  0.6086 -1.0814  0.3918
 1883SOL    HW217112   2.303   2.762  16.436 -0.1430 -0.3729 -0.7953
 1884SOL     OW17113   2.544   2.210   5.446 -0.1073 -0.3838 -0.5227
 1884SOL    HW117114   2.529   2.125   5.405 -0.0577 -1.4782  1.7417
 1884SOL    HW217115   2.640   2.207   5.449 -0.1645 -0.6670  1.2396
 1885SOL     OW17116   1.247   1.013   5.695 -0.4504  0.2872 -0.8309
 1885SOL    HW117117   1.340   1.035   5.706 -0.9888  2.6971 -0.9454
 1885SOL    HW217118   1.257   0.941   5.633 -0.9906 -0.2702 -0.2703
 1886SOL     OW17119   4.238   2.957   8.709  0.0920 -0.7405  0.2721
 1886SOL    HW117120   4.221   2.899   8.783  0.2543 -0.4985  0.4993
 1886SOL    HW217121   4.291   2.894   8.660  0.9180 -0.2221  0.4875
 1887SOL     OW17122   0.079   0.642   5.573  0.0709  0.5185 -0.3422
 1887SOL    HW117123   0.094   0.557   5.531 -1.0515 -1.1700  2.6866
 1887SOL    HW217124   0.172   0.659   5.589  1.1326 -3.6286 -1.8847
 1888SOL     OW17125   0.628   2.608  10.376  0.1673 -0.2869 -0.1817
 1888SOL    HW117126   0.546   2.585  10.419  0.3468 -0.4603  0.0682
 1888SOL    HW217127   0.661   2.526  10.341  2.2460  0.9595 -1.1808
 1889SOL     OW17128   3.778   3.674   0.076 -0.6802  0.5447 -0.2472
 1889SOL    HW117129   3.779   3.730  17.700  1.2579  0.4610 -0.2812
 1889SOL    HW217130   3.846   3.707   0.135 -0.3709 -0.2800 -0.1498
 1890SOL     OW17131   2.962   3.061   7.268  0.4634  0.0236  0.7653
 1890SOL    HW117132   2.926   3.064   7.357 -1.0937 -0.9713  0.1612
 1890SOL    HW217133   2.937   3.143   7.227  1.3925  0.4661  1.0846
 1891SOL     OW17134   4.317   0.667   7.295 -0.1427 -0.8150 -0.1977
 1891SOL    HW117135   4.339   0.598   7.232 -1.1556 -0.5514 -0.8500
 1891SOL    HW217136   4.244   0.708   7.248  0.1221 -0.4373 -0.2785
 1892SOL     OW17137   2.086   0.853   2.944 -0.1198  0.3373 -0.0053
 1892SOL    HW117138   2.058   0.822   2.858 -1.1586  0.0208  0.4489
 1892SOL    HW217139   2.108   0.767   2.978 -1.1870  0.2965  0.5850
 1893SOL     OW17140   3.248   0.929   6.689 -0.2689  0.8551 -0.8924
 1893SOL    HW117141   3.320   0.990   6.679  1.1962 -0.6045  0.6718
 1893SOL    HW217142   3.204   0.948   6.606  0.9990  1.8106 -1.3284
 1894SOL     OW17143   1.185   0.962  12.290 -0.0907  0.0949 -0.0490
 1894SOL    HW117144   1.252   0.933  12.352  1.4937  0.7196 -1.4753
 1894SOL    HW217145   1.144   1.016  12.357  0.6813 -1.2152  1.5046
 1895SOL     OW17146   3.747   0.158   2.341 -0.7453 -0.5256  0.1017
 1895SOL    HW117147   3.748   0.071   2.379  0.1595 -1.2255 -1.5092
 1895SOL    HW217148   3.820   0.152   2.279 -1.3922  1.4492 -0.8605
 1896SOL     OW17149   0.376   0.886   2.525 -0.5409  0.5420  0.0585
 1896SOL    HW117150   0.375   0.790   2.524  0.6828  0.5490 -1.9615
 1896SOL    HW217151   0.285   0.904   2.503 -0.5784  0.0498 -0.1983
 1897SOL     OW17152   3.442   1.655   5.446  0.2064 -0.0483  0.1947
 1897SOL    HW117153   3.381   1.585   5.470 -0.5992  0.2793 -0.9446
 1897SOL    HW217154   3.505   1.644   5.518  0.4206 -0.6247 -0.0841
 1898SOL     OW17155   3.705   2.368   5.756 -0.5156 -0.0152 -0.5975
 1898SOL    HW117156   3.612   2.388   5.753 -0.3893  0.5068 -0.8904
 1898SOL    HW217157   3.724   2.391   5.847 -1.7631 -1.5458  0.0512
 1899SOL     OW17158   3.810   1.251   3.910  0.1433  0.0598 -0.4922
 1899SOL    HW117159   3.780   1.243   3.820 -0.5242  2.1925 -0.4650
 1899SOL    HW217160   3.723   1.249   3.952  1.2650  1.5070  1.9230
 1900SOL     OW17161   3.216   4.163  11.502  0.0597 -0.3388  0.2600
 1900SOL    HW117162   3.240   4.104  11.431  1.7997  0.1661  0.4320
 1900SOL    HW217163   3.293   4.157  11.558 -0.3201 -0.7005  0.7475
 1901SOL     OW17164   1.033   4.366   0.525 -0.3422 -0.0112 -0.1463
 1901SOL    HW117165   1.096   4.360   0.453 -0.0607 -0.0046  0.0986
 1901SOL    HW217166   1.042   4.459   0.545  0.9681 -0.0917 -0.3429
 1902SOL     OW17167   4.257   1.053   5.846  0.2624 -0.1912 -0.2863
 1902SOL    HW117168   4.267   0.969   5.890 -1.1324 -0.3644 -0.2948
 1902SOL    HW217169   4.318   1.116   5.885 -0.6676  0.0136  0.8388
 1903SOL     OW17170   3.460   0.279   3.507  0.1804  0.4432 -0.6103
 1903SOL    HW117171   3.547   0.318   3.522  0.1343  1.7902 -3.8829
 1903SOL    HW217172   3.491   0.233   3.429  0.0482  1.1684 -1.0863
 1904SOL     OW17173   2.375   1.842  16.967  0.4860  0.5701  0.1842
 1904SOL    HW117174   2.382   1.749  16.989  1.0243  0.5500 -0.0680
 1904SOL    HW217175   2.465   1.875  16.973  0.5712  0.5322 -1.0758
 1905SOL     OW17176   0.821   1.368  15.934 -0.1382 -0.0325 -0.1692
 1905SOL    HW117177   0.806   1.287  15.884 -1.1564  0.7590 -1.1502
 1905SOL    HW217178   0.796   1.433  15.869 -0.6082  0.5293  0.5764
 1906SOL     OW17179   3.227   0.371  15.117  0.6157 -0.2280  0.3289
 1906SOL    HW117180   3.212   0.464  15.100 -0.7264 -0.8030 -1.6133
 1906SOL    HW217181   3.321   0.372  15.133  1.0324  0.2838 -2.1568
 1907SOL     OW17182   1.158   1.281   0.849  0.1481 -0.4230 -0.4393
 1907SOL    HW117183   1.237   1.326   0.819  0.2143 -1.3148 -1.6294
 1907SOL    HW217184   1.188   1.190   0.846 -0.3253 -0.6433  1.3151
 1908SOL     OW17185   0.544   3.257   7.164  0.4562 -0.3525  0.5274
 1908SOL    HW117186   0.582   3.227   7.247 -0.3659  2.2548  1.8668
 1908SOL    HW217187   0.622   3.266   7.110  0.9690 -0.1503  1.2947
 1909SOL     OW17188   1.936   3.664   6.163  0.1528  0.1147 -0.0875
 1909SOL    HW117189   1.906   3.709   6.241 -1.6656 -1.0395 -0.1175
 1909SOL    HW217190   1.960   3.577   6.197  0.8871 -0.4825 -2.0968
 1910SOL     OW17191   1.977   1.613   0.961 -0.5982  0.0565 -0.3705
 1910SOL    HW117192   1.986   1.705   0.984 -0.3392  0.7674 -3.3507
 1910SOL    HW217193   1.981   1.568   1.046 -2.9876 -2.3467 -1.5381
 1911SOL     OW17194   2.740   2.647   6.030  0.1078 -0.2331  0.4286
 1911SOL    HW117195   2.811   2.612   6.083  0.6415 -0.0140 -0.1405
 1911SOL    HW217196   2.687   2.571   6.005 -2.3904  2.1223 -1.4862
 1912SOL     OW17197   1.948   4.622  13.322 -0.0226  0.2073 -0.0553
 1912SOL    HW117198   2.018   4.558  13.332  1.0219  1.2721 -0.6238
 1912SOL    HW217199   1.887   4.581  13.383 -0.1099 -1.6465 -1.3754
 1913SOL     OW17200   0.953   0.173  10.089 -0.1270  0.1255  0.1155
 1913SOL    HW117201   1.001   0.101  10.047 -2.6223 -1.2132 -0.4358
 1913SOL    HW217202   1.013   0.247  10.078  1.3020 -0.9020  1.1279
 1914SOL     OW17203   2.084   1.020   5.575  0.3147  1.0337 -0.3731
 1914SOL    HW117204   2.094   1.064   5.660  0.9947  0.7268 -0.2958
 1914SOL    HW217205   2.173   0.985   5.573 -0.1771 -0.2426  0.0777
 1915SOL     OW17206   3.086   0.915   0.070  0.1669  0.2035 -0.5095
 1915SOL    HW117207   3.136   0.869   0.002 -1.8441  0.7561 -2.3497
 1915SOL    HW217208   3.149   0.982   0.097 -1.7004  1.3052  1.0246
 1916SOL     OW17209   1.535   1.725   8.785 -0.3987 -0.5576 -0.1775
 1916SOL    HW117210   1.554   1.790   8.853 -0.0983  1.1289 -1.8536
 1916SOL    HW217211   1.607   1.666   8.804  1.4801  1.0959 -2.1380
 1917SOL     OW17212   3.641   0.329   2.997 -0.2075  0.5050  0.0001
 1917SOL    HW117213   3.635   0.235   2.981 -2.2390  0.2133  2.5007
 1917SOL    HW217214   3.649   0.357   2.906 -0.4506  4.1298  1.1184
 1918SOL     OW17215   0.835   1.439   5.823 -0.9822 -0.0313  0.6699
 1918SOL    HW117216   0.769   1.469   5.761 -0.3212 -0.4429 -0.2420
 1918SOL    HW217217   0.887   1.385   5.763  1.5556  0.5585  2.3380
 1919SOL     OW17218   2.792   3.873   3.059  0.5334 -0.3593  0.3171
 1919SOL    HW117219   2.860   3.840   3.000 -1.2648 -3.1234 -0.2652
 1919SOL    HW217220   2.843   3.930   3.116  0.0677 -0.5031  0.8792
 1920SOL     OW17221   4.504   3.208  13.147 -0.3469 -0.2770  0.8865
 1920SOL    HW117222   4.497   3.118  13.114  1.6850 -0.0432 -0.1871
 1920SOL    HW217223   4.472   3.250  13.068 -2.1012  0.9559  2.2396
 1921SOL     OW17224   0.193   3.277   6.036 -0.4721 -0.5057 -0.2143
 1921SOL    HW117225   0.189   3.286   5.941  0.3696  1.1784 -0.0921
 1921SOL    HW217226   0.218   3.184   6.038 -0.1143 -0.4455 -1.7184
 1922SOL     OW17227   0.606   3.965   2.794  0.0548  0.1798 -0.3049
 1922SOL    HW117228   0.595   3.938   2.886  0.4541 -1.1837 -0.6553
 1922SOL    HW217229   0.516   3.993   2.783  0.0258  0.1181 -0.2234
 1923SOL     OW17230   3.914   3.792   6.119 -0.8506  0.7677  0.1424
 1923SOL    HW117231   3.977   3.861   6.095  0.5882 -0.5581  0.0743
 1923SOL    HW217232   3.973   3.726   6.156 -2.5079 -1.2331 -0.7720
 1924SOL     OW17233   3.637   0.367   7.158  0.0106 -0.0605 -0.1120
 1924SOL    HW117234   3.599   0.455   7.164  0.2290 -0.0272  0.7157
 1924SOL    HW217235   3.620   0.337   7.068  2.0343 -0.1699 -0.4532
 1925SOL     OW17236   2.361   1.040  12.394  0.5517  0.5793 -0.5528
 1925SOL    HW117237   2.297   1.066  12.328 -1.9289 -1.8435  0.9419
 1925SOL    HW217238   2.443   1.050  12.344  0.1330 -1.3132 -1.6044
 1926SOL     OW17239   3.863   2.401   2.202 -0.1357 -0.0078  0.1252
 1926SOL    HW117240   3.947   2.414   2.245 -0.6597 -0.3874  1.2664
 1926SOL    HW217241   3.864   2.305   2.192 -1.6297  0.1299 -1.3948
 1927SOL     OW17242   4.614   0.230   7.375 -0.0869  0.1543 -0.0476
 1927SOL    HW117243   4.632   0.141   7.344 -0.2985  0.1237 -0.0828
 1927SOL    HW217244   4.535   0.258   7.329  0.1727  1.2007  0.1511
 1928SOL     OW17245   0.887   3.196   8.585  0.1786  0.2176 -0.0789
 1928SOL    HW117246   0.965   3.248   8.607  1.3506 -2.7730  2.9046
 1928SOL    HW217247   0.897   3.127   8.651  0.6580  1.1242  0.7821
 1929SOL     OW17248   3.241   0.223   2.871 -0.0138  0.1997  0.0622
 1929SOL    HW117249   3.224   0.139   2.827 -0.5606  0.4644 -0.2264
 1929SOL    HW217250   3.247   0.193   2.962 -0.6256 -1.5287 -0.4543
 1930SOL     OW17251   2.113   0.912   3.625 -0.0874  0.2914  0.2631
 1930SOL    HW117252   2.019   0.914   3.606  0.6331 -2.1968 -3.6975
 1930SOL    HW217253   2.104   0.965   3.704 -0.5597  1.4224 -0.5459
 1931SOL     OW17254   3.367   1.825  11.723 -0.3768  0.0573 -0.0107
 1931SOL    HW117255   3.371   1.825  11.819 -3.0793  1.1352  0.0864
 1931SOL    HW217256   3.273   1.840  11.716 -0.7495 -1.4102  1.7113
 1932SOL     OW17257   0.083   3.006  14.328 -0.4441  0.3522 -0.1037
 1932SOL    HW117258   0.040   2.986  14.410  1.8196  1.4486  1.3581
 1932SOL    HW217259   0.149   3.072  14.349 -0.1741  0.4352 -1.2132
 1933SOL     OW17260   1.610   1.993  12.244 -0.1791  0.2271 -0.7956
 1933SOL    HW117261   1.579   1.982  12.154 -1.0164 -1.8025 -0.2792
 1933SOL    HW217262   1.619   2.088  12.251 -2.1927  0.2687  1.2684
 1934SOL     OW17263   0.065   2.211   4.391  0.0218 -0.0872 -0.2824
 1934SOL    HW117264   0.072   2.118   4.370 -1.8265 -0.3125  0.0327
 1934SOL    HW217265   4.720   2.230   4.328  0.3154  0.6497 -0.3804
 1935SOL     OW17266   4.329   2.014   1.665 -0.1603 -1.0458 -0.0261
 1935SOL    HW117267   4.260   1.949   1.650 -0.3943 -0.3490 -1.9063
 1935SOL    HW217268   4.280   2.088   1.700 -0.4962 -1.4959  0.4584
 1936SOL     OW17269   0.753   0.296   9.714 -0.2382 -0.0065 -0.2210
 1936SOL    HW117270   0.666   0.257   9.712 -0.3340  0.2436 -1.0031
 1936SOL    HW217271   0.812   0.225   9.689  0.1767  0.5710 -0.8863
 1937SOL     OW17272   4.344   3.885  10.090 -0.6123  0.1474 -0.5961
 1937SOL    HW117273   4.375   3.932  10.012 -2.7877  0.6829 -1.1411
 1937SOL    HW217274   4.306   3.808  10.047 -1.2708  0.8510 -1.3035
 1938SOL     OW17275   4.066   4.509   5.568  0.5217 -0.5504 -0.5313
 1938SOL    HW117276   4.118   4.531   5.491  2.6985 -0.6193  0.9357
 1938SOL    HW217277   3.992   4.570   5.558  0.2263 -0.5963  1.2189
 1939SOL     OW17278   0.935   0.592   9.206 -0.2761 -0.4029  0.0895
 1939SOL    HW117279   0.870   0.589   9.276 -0.3751  1.5256  0.1030
 1939SOL    HW217280   0.891   0.659   9.153 -0.6992 -0.5867  0.2154
 1940SOL     OW17281   0.291   0.986   6.489 -0.3095  0.3745 -0.0313
 1940SOL    HW117282   0.217   0.949   6.537  0.4813 -0.9005  0.1959
 1940SOL    HW217283   0.256   1.047   6.424  1.6183  2.0587  0.5175
 1941SOL     OW17284   0.782   0.139   0.113 -0.7304 -0.4374 -0.5848
 1941SOL    HW117285   0.686   0.145   0.110 -0.8528 -0.6489  2.5389
 1941SOL    HW217286   0.804   0.216   0.061  1.8779 -1.0910 -0.4226
 1942SOL     OW17287   2.966   1.057   7.415  0.9827 -0.5503 -0.0619
 1942SOL    HW117288   2.925   1.139   7.388  1.3806 -0.5246 -0.5853
 1942SOL    HW217289   2.978   1.079   7.507  0.9260  0.1318 -0.2141
 1943SOL     OW17290   4.541   3.288   9.496 -0.2504  0.0961 -0.5615
 1943SOL    HW117291   4.536   3.317   9.587 -1.4282 -1.1705 -0.2156
 1943SOL    HW217292   4.450   3.273   9.471 -0.9578  0.3572  1.8755
 1944SOL     OW17293   4.464   4.362   8.630  0.0429  0.5344  0.0455
 1944SOL    HW117294   4.523   4.304   8.583 -0.2747 -0.2695  0.6263
 1944SOL    HW217295   4.435   4.424   8.563  0.2174  0.8138  0.2308
 1945SOL     OW17296   3.964   0.788  17.141  0.9260 -0.3439  0.4017
 1945SOL    HW117297   3.953   0.773  17.047  2.4978  0.5862  0.0610
 1945SOL    HW217298   3.882   0.748  17.170  0.7760 -1.0254 -0.9311
 1946SOL     OW17299   3.533   0.747   7.940 -0.1724 -0.1265 -0.2250
 1946SOL    HW117300   3.576   0.662   7.923 -0.6217 -0.5908  0.9588
 1946SOL    HW217301   3.608   0.806   7.928  0.6419 -1.0760  0.1280
 1947SOL     OW17302   3.879   3.336   3.154  0.4753  0.6871 -0.0076
 1947SOL    HW117303   3.922   3.335   3.069  1.5393  0.8143  0.5192
 1947SOL    HW217304   3.842   3.424   3.146  0.7405  0.8031  0.0356
 1948SOL     OW17305   2.739   3.079   2.992  0.0169 -0.0811 -0.1958
 1948SOL    HW117306   2.685   3.147   3.031  0.7163 -0.1382  0.8730
 1948SOL    HW217307   2.779   3.130   2.922  0.1888 -2.3080 -1.7040
 1949SOL     OW17308   1.937   4.379   2.168  0.1670  0.1892 -0.4770
 1949SOL    HW117309   1.978   4.457   2.131 -1.8897  1.9516  0.9461
 1949SOL    HW217310   1.988   4.317   2.117 -0.5125 -0.2139 -0.6705
 1950SOL     OW17311   2.836   4.267   8.495 -0.1100  0.1769  0.3366
 1950SOL    HW117312   2.782   4.306   8.427 -2.9559 -2.0130  1.3083
 1950SOL    HW217313   2.815   4.321   8.572  0.2523  1.7388 -0.6650
 1951SOL     OW17314   0.718   3.067   8.404 -0.2134  0.0723 -0.5514
 1951SOL    HW117315   0.754   3.106   8.484  1.6690 -0.4942 -1.1086
 1951SOL    HW217316   0.747   2.976   8.405 -0.7399 -0.0495  2.0308
 1952SOL     OW17317   3.945   1.664   4.428 -0.1457 -0.1310  0.5863
 1952SOL    HW117318   4.040   1.663   4.441 -0.0557  0.5307  0.0152
 1952SOL    HW217319   3.926   1.577   4.395 -0.4330  0.2303 -0.2095
 1953SOL     OW17320   3.649   0.356   8.622 -0.4727  0.4357 -0.2749
 1953SOL    HW117321   3.591   0.375   8.696  0.5165 -0.1564  0.6547
 1953SOL    HW217322   3.732   0.330   8.663 -0.7519 -1.6393 -0.9953
 1954SOL     OW17323   2.517   0.435   7.861  0.1547  0.0804  0.4980
 1954SOL    HW117324   2.559   0.350   7.872 -0.1387 -0.4704 -2.8472
 1954SOL    HW217325   2.440   0.426   7.917 -0.4064  0.9551 -0.1374
 1955SOL     OW17326   1.090   0.799   3.844 -0.5616  0.1575  1.0621
 1955SOL    HW117327   1.068   0.842   3.927  1.2295 -1.1321  2.2397
 1955SOL    HW217328   1.014   0.743   3.829 -1.1277  1.6497 -1.5018
 1956SOL     OW17329   1.759   4.107   6.729 -1.1437 -0.0837  0.0118
 1956SOL    HW117330   1.714   4.161   6.663 -1.1836  0.5763  0.5753
 1956SOL    HW217331   1.683   4.054   6.752 -1.2464  1.2898  2.8753
 1957SOL     OW17332   1.350   3.413   5.901 -0.6482 -0.0991 -0.0128
 1957SOL    HW117333   1.298   3.477   5.853  0.3087  0.7062  0.0246
 1957SOL    HW217334   1.302   3.334   5.876 -0.9576  0.7859 -2.2653
 1958SOL     OW17335   2.543   2.548   3.012 -0.1713  0.0039  0.2614
 1958SOL    HW117336   2.596   2.626   2.992 -1.6077  0.8609 -0.1558
 1958SOL    HW217337   2.480   2.545   2.940  1.5984 -0.6283 -1.2584
 1959SOL     OW17338   0.663   0.823   2.977  0.2423 -0.0093  0.0468
 1959SOL    HW117339   0.616   0.743   2.955  0.3236  0.1184 -0.5938
 1959SOL    HW217340   0.675   0.823   3.072  0.7353  0.4137 -0.0148
 1960SOL     OW17341   2.513   0.761   2.121  0.3639 -0.1157  0.3556
 1960SOL    HW117342   2.513   0.777   2.027 -0.8487  1.9129  0.6911
 1960SOL    HW217343   2.582   0.696   2.132  0.4146  0.3877  2.9388
 1961SOL     OW17344   3.187   3.268  14.716 -0.2874 -0.2169 -0.2543
 1961SOL    HW117345   3.267   3.223  14.691  0.4983  0.2122  1.4742
 1961SOL    HW217346   3.214   3.357  14.739  0.9137 -0.4142 -0.9228
 1962SOL     OW17347   3.955   3.752  11.377 -0.7211 -0.3776 -0.0441
 1962SOL    HW117348   3.893   3.717  11.314 -0.6045 -1.7717  0.6216
 1962SOL    HW217349   4.022   3.781  11.316 -0.5378 -1.1518 -0.2096
 1963SOL     OW17350   1.670   3.019   9.536  0.0687 -0.1663  0.1310
 1963SOL    HW117351   1.709   2.935   9.514 -0.0563  1.0387 -4.6505
 1963SOL    HW217352   1.746   3.076   9.545 -0.9064  1.4005 -1.6464
 1964SOL     OW17353   2.521   0.397   5.523  0.6770  0.2498 -0.1111
 1964SOL    HW117354   2.613   0.401   5.549  0.9779  1.7673 -1.3703
 1964SOL    HW217355   2.524   0.428   5.433 -1.4133 -3.5083 -1.4406
 1965SOL     OW17356   0.699   4.209   4.621 -0.1802  0.0205  0.1812
 1965SOL    HW117357   0.685   4.118   4.595 -1.1464  0.1317  0.3327
 1965SOL    HW217358   0.761   4.236   4.553 -0.6991  1.2075  0.1846
 1966SOL     OW17359   0.806   0.831   4.220 -0.2681 -0.1207 -0.0376
 1966SOL    HW117360   0.861   0.849   4.143  0.0449 -0.8573  0.0183
 1966SOL    HW217361   0.728   0.807   4.171 -0.0962  0.1909 -0.4640
 1967SOL     OW17362   0.976   4.567   5.714 -0.4259 -0.0057  0.2613
 1967SOL    HW117363   0.943   4.538   5.799 -0.9795 -0.0266  0.0449
 1967SOL    HW217364   1.033   4.497   5.683 -0.6614  0.7603 -1.9181
 1968SOL     OW17365   4.706   0.354  16.877 -0.1888 -0.1670 -0.1668
 1968SOL    HW117366   4.669   0.410  16.945  1.6106 -0.1830  0.8239
 1968SOL    HW217367   0.018   0.424  16.823  2.7905 -2.2206 -0.7860
 1969SOL     OW17368   0.697   2.022   5.092 -0.4051  0.3444 -0.0643
 1969SOL    HW117369   0.709   2.001   4.999  2.3237  1.3091  0.0821
 1969SOL    HW217370   0.631   2.091   5.082  1.0356  1.8513  0.9124
 1970SOL     OW17371   3.554   2.261   8.848 -0.0052 -0.2679 -0.0797
 1970SOL    HW117372   3.601   2.344   8.861  3.0563 -1.8029 -1.3987
 1970SOL    HW217373   3.544   2.267   8.753 -1.1365 -2.4066 -0.0973
 1971SOL     OW17374   1.560   0.448   0.730 -0.1207 -0.3239  0.1247
 1971SOL    HW117375   1.539   0.427   0.639  0.3368 -0.2043 -0.0062
 1971SOL    HW217376   1.617   0.374   0.750  0.0611 -0.5247 -1.1613
 1972SOL     OW17377   0.930   4.053   5.158 -0.1659 -0.3665  0.5227
 1972SOL    HW117378   0.862   4.083   5.098  0.2553 -2.5909 -1.0784
 1972SOL    HW217379   0.894   3.966   5.173 -1.5476  0.0488 -0.4158
 1973SOL     OW17380   2.575   4.525   9.123 -0.4718  0.3827  0.5929
 1973SOL    HW117381   2.578   4.454   9.186  0.6157 -2.0972 -2.2726
 1973SOL    HW217382   2.584   4.601   9.181 -3.3826 -0.6092  2.3469
 1974SOL     OW17383   0.981   3.057   6.993  0.3551 -0.5147 -0.2247
 1974SOL    HW117384   0.943   2.986   7.045  0.3424 -0.0123  0.4460
 1974SOL    HW217385   1.018   3.104   7.067  0.7277  2.8053 -2.5448
 1975SOL     OW17386   3.540   1.368   3.018  0.0889  0.5663 -0.2558
 1975SOL    HW117387   3.513   1.367   2.926 -0.0309  0.8471 -0.2233
 1975SOL    HW217388   3.458   1.343   3.060 -0.3748  0.1647 -1.4063
 1976SOL     OW17389   4.078   2.190   3.083  0.4693  0.9289 -0.3449
 1976SOL    HW117390   4.006   2.221   3.028 -0.8935 -1.9653 -0.1916
 1976SOL    HW217391   4.134   2.266   3.099 -0.2256  1.3917 -0.0954
 1977SOL     OW17392   0.861   2.766   3.376 -0.0788 -0.1754  0.5777
 1977SOL    HW117393   0.785   2.824   3.380 -0.4835 -0.5412 -1.7685
 1977SOL    HW217394   0.808   2.693   3.344  1.3250 -1.5671  1.4926
 1978SOL     OW17395   2.637   2.510  14.446  0.5654  0.0557 -0.2575
 1978SOL    HW117396   2.665   2.588  14.398  0.4593  0.6859  0.7103
 1978SOL    HW217397   2.651   2.530  14.539 -4.1461  0.1735  0.4191
 1979SOL     OW17398   0.034   2.587   5.196  0.8491 -0.9018  0.0283
 1979SOL    HW117399   0.062   2.555   5.282  0.9961 -0.8833 -0.0130
 1979SOL    HW217400   4.680   2.534   5.187  1.3755 -1.6405 -0.2303
 1980SOL     OW17401   1.194   2.080  10.139 -0.0973 -0.3145 -0.6024
 1980SOL    HW117402   1.248   2.085  10.218 -0.8902  3.2278 -0.2509
 1980SOL    HW217403   1.262   2.103  10.075  0.5637 -1.0897 -0.1706
 1981SOL     OW17404   4.134   2.195   9.794 -0.2464 -0.4424  0.1712
 1981SOL    HW117405   4.137   2.284   9.829  0.4472  0.8090 -3.1222
 1981SOL    HW217406   4.044   2.169   9.810 -0.5937  0.4002 -0.4383
 1982SOL     OW17407   1.704   3.452   4.408  0.3285  0.4369  0.5741
 1982SOL    HW117408   1.756   3.373   4.403  0.4478  0.3140  3.6225
 1982SOL    HW217409   1.716   3.479   4.499 -0.1042 -2.9015  1.6182
 1983SOL     OW17410   3.323   0.531   4.665 -0.2499  0.2660  0.2193
 1983SOL    HW117411   3.377   0.606   4.692  0.5627 -1.0401  2.1634
 1983SOL    HW217412   3.280   0.519   4.750  1.2282  1.6945  1.1555
 1984SOL     OW17413   2.298   3.375   2.895  0.0725 -0.0600  0.4377
 1984SOL    HW117414   2.247   3.381   2.815  0.0172 -3.7417  0.2021
 1984SOL    HW217415   2.297   3.282   2.915  0.6639  0.5511  3.3364
 1985SOL     OW17416   2.994   0.361   6.475  0.5763 -0.2837  0.4353
 1985SOL    HW117417   3.079   0.369   6.517  0.8870  0.1144 -0.2816
 1985SOL    HW217418   2.985   0.266   6.483 -0.9419 -0.1618  0.2981
 1986SOL     OW17419   4.554   4.239  12.485  0.3072  0.3242  0.2725
 1986SOL    HW117420   4.580   4.330  12.497 -2.0020  0.8302  1.2214
 1986SOL    HW217421   4.463   4.256  12.462  0.7685 -1.0514 -2.6379
 1987SOL     OW17422   4.719   0.253   5.699  0.1181  0.0316 -0.4176
 1987SOL    HW117423   0.049   0.280   5.626 -0.0734  3.6964  0.8063
 1987SOL    HW217424   0.061   0.228   5.762  0.5975  3.4657  0.4316
 1988SOL     OW17425   0.772   0.676  16.944  0.8557  0.3834 -0.3617
 1988SOL    HW117426   0.834   0.726  16.997  0.2772  0.8724 -0.1407
 1988SOL    HW217427   0.834   0.625  16.892 -0.1199  0.5992 -1.7082
 1989SOL     OW17428   3.822   0.638   7.282  0.3554  0.3570 -0.1227
 1989SOL    HW117429   3.751   0.624   7.220  0.6732 -0.3153 -0.3340
 1989SOL    HW217430   3.806   0.729   7.307 -0.0301  0.0970  0.5871
 1990SOL     OW17431   4.414   4.607   5.659 -0.0320  0.3868  0.7785
 1990SOL    HW117432   4.402   4.558   5.578 -0.2105  0.1893  0.9230
 1990SOL    HW217433   4.325   4.640   5.672  0.0498  0.5448  0.9328
 1991SOL     OW17434   0.012   2.437   2.133 -0.5271  0.1911  0.0329
 1991SOL    HW117435   4.643   2.431   2.117 -0.3968  0.6993 -0.8806
 1991SOL    HW217436   0.051   2.403   2.053  0.1550 -0.9759  0.8447
 1992SOL     OW17437   0.436   0.522   3.667 -0.6775 -0.6927  0.1029
 1992SOL    HW117438   0.462   0.523   3.759 -0.7774 -1.4968  0.1393
 1992SOL    HW217439   0.349   0.484   3.675 -0.3901 -1.2375  0.6517
 1993SOL     OW17440   0.368   0.483  11.179  0.8260  0.2122 -0.2308
 1993SOL    HW117441   0.448   0.532  11.199  1.6818 -0.7081 -1.3933
 1993SOL    HW217442   0.324   0.504  11.261 -1.1660  1.8204 -1.7141
 1994SOL     OW17443   0.805   0.006   4.788 -0.1225 -0.3768  0.2155
 1994SOL    HW117444   0.779   4.642   4.767  2.0901 -0.8981 -0.3613
 1994SOL    HW217445   0.901   4.722   4.794 -0.3055 -1.0566  2.1139
 1995SOL     OW17446   0.397   1.261   2.933  0.3869 -0.0221 -0.2193
 1995SOL    HW117447   0.409   1.262   2.838  1.5725  0.5875 -0.0693
 1995SOL    HW217448   0.305   1.236   2.941 -0.4978  2.1964 -3.2631
 1996SOL     OW17449   0.592   3.804   7.936 -0.0649 -0.2680 -0.1764
 1996SOL    HW117450   0.571   3.751   8.013  2.7356  0.4610  1.0984
 1996SOL    HW217451   0.652   3.752   7.882  0.0844  0.2536 -0.5193
 1997SOL     OW17452   3.369   0.506   9.555 -0.0785 -0.1074  0.2026
 1997SOL    HW117453   3.383   0.584   9.610  2.1593  0.5553 -1.3271
 1997SOL    HW217454   3.412   0.441   9.610  1.3778  0.8446  0.1904
 1998SOL     OW17455   0.045   1.646   2.819  0.8693  0.2660  0.2658
 1998SOL    HW117456   4.712   1.654   2.895 -0.7979 -0.1820 -0.9584
 1998SOL    HW217457   0.134   1.654   2.853  1.3072 -1.1804 -0.5155
 1999SOL     OW17458   1.486   3.619   5.067  0.7148 -0.0317 -0.2613
 1999SOL    HW117459   1.399   3.648   5.095  1.5076  1.8535  0.2678
 1999SOL    HW217460   1.511   3.695   5.014  1.7722 -1.7862 -2.3133
 2000SOL     OW17461   2.427   4.597   4.446  0.5280  0.3583  0.1892
 2000SOL    HW117462   2.475   4.543   4.383 -2.4510  0.5758 -2.2518
 2000SOL    HW217463   2.362   4.533   4.473 -0.2240  0.7748 -0.6440
 2001SOL     OW17464   3.806   2.100   9.001  0.0830  0.0324 -0.4714
 2001SOL    HW117465   3.805   2.005   8.991 -1.8151  0.0453 -0.3667
 2001SOL    HW217466   3.901   2.115   9.008 -0.1345  0.7759  1.0910
 2002SOL     OW17467   0.097   4.067   8.838  0.6031  0.2296  0.2444
 2002SOL    HW117468   0.037   4.142   8.827 -0.3096 -0.5099  0.1517
 2002SOL    HW217469   0.065   4.038   8.923 -1.2897  0.1101 -0.5063
 2003SOL     OW17470   1.895   2.670  12.530  0.0517  0.0024 -0.6354
 2003SOL    HW117471   1.988   2.672  12.551  0.0906 -0.6924 -0.7602
 2003SOL    HW217472   1.859   2.630  12.609  0.5253 -1.0833 -0.9645
 2004SOL     OW17473   0.948   2.660   9.519  0.0256  0.1668 -0.1908
 2004SOL    HW117474   0.927   2.591   9.456 -0.0689 -0.9621  1.0811
 2004SOL    HW217475   1.024   2.695   9.472  0.1360  0.5998  0.3142
 2005SOL     OW17476   4.075   2.519   5.901  0.4311 -0.0777 -0.2698
 2005SOL    HW117477   4.033   2.595   5.941 -0.3770 -0.2583 -0.7694
 2005SOL    HW217478   4.047   2.444   5.953  1.2376  1.3552  2.2068
 2006SOL     OW17479   4.419   3.297  11.990  0.1331 -0.1923 -0.1735
 2006SOL    HW117480   4.396   3.236  12.060 -2.6343 -0.3541 -1.2541
 2006SOL    HW217481   4.498   3.262  11.948  0.3023  0.3359 -0.2944
 2007SOL     OW17482   0.845   0.422  14.390 -0.1948  1.0470  0.9912
 2007SOL    HW117483   0.836   0.412  14.295  0.4857  2.1163  0.8212
 2007SOL    HW217484   0.791   0.497  14.411  0.1213  1.5308  0.0765
 2008SOL     OW17485   4.498   1.283   6.866 -0.6413 -0.2285  0.0065
 2008SOL    HW117486   4.514   1.374   6.890  0.0521 -0.9020  2.1380
 2008SOL    HW217487   4.415   1.267   6.911 -0.3515 -2.3307 -0.2019
 2009SOL     OW17488   2.423   0.331  14.029  0.8500  0.1650  0.2140
 2009SOL    HW117489   2.444   0.238  14.014  2.3751  0.8492 -1.8310
 2009SOL    HW217490   2.516   0.353  14.026  1.1115 -0.9760 -0.2216
 2010SOL     OW17491   3.802   0.581   5.002  0.4614  0.2309  0.2954
 2010SOL    HW117492   3.809   0.501   4.949 -0.3830 -0.3775  1.1031
 2010SOL    HW217493   3.741   0.550   5.068  2.4047  0.0996  2.0389
 2011SOL     OW17494   0.316   2.967   4.883 -0.6527  0.1858 -0.2193
 2011SOL    HW117495   0.232   2.948   4.924 -0.6111  2.0954  0.7600
 2011SOL    HW217496   0.373   2.906   4.930 -1.3355  0.0719  0.4508
 2012SOL     OW17497   3.224   1.616   8.806 -0.1985 -0.0739 -0.1010
 2012SOL    HW117498   3.151   1.558   8.783  0.2131 -1.5533  2.4336
 2012SOL    HW217499   3.207   1.697   8.757  0.2541  0.3231  0.4056
 2013SOL     OW17500   0.946   4.270   1.229 -0.3516  0.4275  0.3974
 2013SOL    HW117501   0.902   4.248   1.147 -2.6721 -0.8361  1.9954
 2013SOL    HW217502   0.913   4.200   1.285 -0.7371 -0.3973 -0.8543
 2014SOL     OW17503   3.815   3.540  12.692  1.2925  0.8213 -0.0469
 2014SOL    HW117504   3.812   3.506  12.602 -0.6754  2.7590 -0.6953
 2014SOL    HW217505   3.893   3.493  12.723  1.0463  0.6448  0.3039
 2015SOL     OW17506   1.213   0.008   6.183 -0.0104  1.3330  0.2645
 2015SOL    HW117507   1.207   0.098   6.213  0.7113  1.5768 -0.3310
 2015SOL    HW217508   1.122   4.710   6.162  0.6093 -1.3767  0.5053
 2016SOL     OW17509   3.322   3.015   2.543  0.6052  0.2497 -0.2906
 2016SOL    HW117510   3.400   3.032   2.597  0.6764 -0.3311 -0.2104
 2016SOL    HW217511   3.289   3.099   2.510 -1.4722 -1.0652 -1.5173
 2017SOL     OW17512   0.237   1.205   9.224 -0.4081  0.0544  0.0834
 2017SOL    HW117513   0.216   1.191   9.132  0.0346 -1.8201  0.2753
 2017SOL    HW217514   0.254   1.119   9.262  1.5796  1.4592  2.4379
 2018SOL     OW17515   0.623   2.832  10.985 -0.2342  0.8871  0.2269
 2018SOL    HW117516   0.713   2.803  11.001 -0.6770 -0.8500 -0.4242
 2018SOL    HW217517   0.599   2.784  10.906 -0.2733 -0.8453  1.2931
 2019SOL     OW17518   0.835   4.396   1.816  0.1250  0.0024  0.1433
 2019SOL    HW117519   0.847   4.430   1.905 -0.4603  0.8475 -0.1052
 2019SOL    HW217520   0.742   4.373   1.819  0.3368 -0.9504 -0.5358
 2020SOL     OW17521   4.301   0.724  15.769 -0.2414 -0.1091 -0.3570
 2020SOL    HW117522   4.269   0.794  15.826  1.6932 -0.8517  1.6412
 2020SOL    HW217523   4.319   0.782  15.695 -1.5641 -0.0891 -0.6601
 2021SOL     OW17524   1.949   1.625   1.708  0.2893 -0.6080 -0.2723
 2021SOL    HW117525   1.866   1.589   1.677 -0.4514  0.1477  0.8691
 2021SOL    HW217526   1.990   1.541   1.727 -0.7107 -0.6293  1.7508
 2022SOL     OW17527   3.096   1.526  12.717  0.0764  0.8117 -0.4565
 2022SOL    HW117528   3.101   1.622  12.721  0.9378  0.7186  0.7523
 2022SOL    HW217529   3.129   1.493  12.801  1.9357  0.7786 -1.1980
 2023SOL     OW17530   2.932   0.989   1.324  0.3538  0.2440 -0.1406
 2023SOL    HW117531   2.886   0.905   1.322 -1.7043  1.3849  0.2541
 2023SOL    HW217532   2.856   1.044   1.309  1.3919  1.7450  0.1148
 2024SOL     OW17533   2.213   2.232   4.515 -0.1758  0.1719  0.3226
 2024SOL    HW117534   2.213   2.262   4.606 -0.8058  2.9713 -0.6090
 2024SOL    HW217535   2.307   2.250   4.507  0.0653 -0.9510  0.5396
 2025SOL     OW17536   3.185   4.645   4.449 -0.0618  0.1638  0.1208
 2025SOL    HW117537   3.258   4.629   4.389  0.3439 -0.8785  0.8846
 2025SOL    HW217538   3.115   4.599   4.403 -1.0170  1.9343 -0.1634
 2026SOL     OW17539   0.904   1.962   1.420 -0.7032 -0.4214 -0.6411
 2026SOL    HW117540   0.869   2.049   1.403 -2.6218 -0.4744  2.9356
 2026SOL    HW217541   0.823   1.911   1.421 -1.2067  0.3677 -0.7981
 2027SOL     OW17542   1.867   2.088   8.781 -0.5102  0.1264 -0.0940
 2027SOL    HW117543   1.912   2.170   8.762  0.9928 -0.3628  1.3336
 2027SOL    HW217544   1.847   2.054   8.694 -2.1564  0.7890  0.0109
 2028SOL     OW17545   0.859   1.931   3.813 -0.2489  0.0087  0.0223
 2028SOL    HW117546   0.854   2.024   3.835 -0.5220 -0.5757  2.3457
 2028SOL    HW217547   0.950   1.935   3.781 -0.6241 -1.8193 -1.3124
 2029SOL     OW17548   2.919   3.558   5.940 -0.1006 -0.1213  0.2091
 2029SOL    HW117549   2.900   3.495   6.009 -2.8367 -0.1320 -0.5543
 2029SOL    HW217550   2.906   3.639   5.991 -0.6544  0.5881 -1.0647
 2030SOL     OW17551   2.261   3.657   8.685  0.0902 -0.0514  0.7356
 2030SOL    HW117552   2.168   3.677   8.686 -0.4273 -2.4020 -0.4312
 2030SOL    HW217553   2.300   3.727   8.738  0.2046  1.6490 -1.6027
 2031SOL     OW17554   4.031   3.861  17.368  0.2444  0.0329  0.0627
 2031SOL    HW117555   4.116   3.875  17.409  0.7056 -1.7074 -0.3185
 2031SOL    HW217556   4.041   3.886  17.277 -2.1773 -1.5494 -0.6470
 2032SOL     OW17557   3.990   2.488   4.333  0.5436  0.3944 -0.0616
 2032SOL    HW117558   4.048   2.418   4.362  0.7319  1.1295  1.3411
 2032SOL    HW217559   3.998   2.463   4.241 -0.1758  1.4748 -0.4155
 2033SOL     OW17560   2.925   2.458  12.523 -0.1480 -0.4847  0.4191
 2033SOL    HW117561   2.981   2.380  12.526  2.2402  1.2554  1.2834
 2033SOL    HW217562   2.981   2.501  12.459 -0.0404 -0.2829  0.6480
 2034SOL     OW17563   0.686   4.412   5.623  0.4440 -0.3941 -0.4704
 2034SOL    HW117564   0.640   4.331   5.600 -1.6569  1.1129 -1.5930
 2034SOL    HW217565   0.731   4.369   5.696 -0.8181 -1.2546 -0.2022
 2035SOL     OW17566   4.443   4.349   3.542  0.1898  0.0018  0.0795
 2035SOL    HW117567   4.420   4.259   3.566 -0.1955 -0.0702 -0.5602
 2035SOL    HW217568   4.536   4.354   3.561  0.4300 -0.2428 -1.0489
 2036SOL     OW17569   1.896   3.343   6.249 -0.5460  0.3593  0.2382
 2036SOL    HW117570   1.909   3.264   6.197  0.3101  0.6419  0.0192
 2036SOL    HW217571   1.806   3.353   6.219 -1.6055 -1.5032  2.8469
 2037SOL     OW17572   3.107   2.713  17.689  0.6497 -0.0251  0.1968
 2037SOL    HW117573   3.160   2.787  17.660  1.1556 -0.1275  0.8487
 2037SOL    HW217574   3.066   2.745   0.067  2.0356  1.7594  0.1857
 2038SOL     OW17575   2.526   0.164  13.550  0.1002  0.2472  0.5096
 2038SOL    HW117576   2.611   0.129  13.522 -0.9929 -2.8399  1.0081
 2038SOL    HW217577   2.484   0.087  13.590  0.9458 -0.3731  0.2058
 2039SOL     OW17578   1.202   1.156  14.173 -0.0882 -0.2264 -0.1547
 2039SOL    HW117579   1.164   1.079  14.216  3.1095 -1.1417  1.0449
 2039SOL    HW217580   1.191   1.222  14.241  0.3276  1.8759 -2.1226
 2040SOL     OW17581   2.052   4.038  15.020  0.6468 -0.1740  0.3514
 2040SOL    HW117582   2.140   4.005  15.038  0.2805 -1.4397 -0.1759
 2040SOL    HW217583   2.080   4.099  14.952 -0.3626 -1.9116 -1.5914
 2041SOL     OW17584   2.696   4.045   4.674 -0.1259 -0.3661  0.1307
 2041SOL    HW117585   2.668   4.003   4.755  0.8252  0.4466  0.8878
 2041SOL    HW217586   2.661   4.133   4.692 -0.1301 -0.8357  2.3623
 2042SOL     OW17587   1.314   0.134  16.762  0.3374 -0.5811 -0.4378
 2042SOL    HW117588   1.398   0.124  16.717  0.9640  0.6873  0.4345
 2042SOL    HW217589   1.286   0.045  16.782 -0.0249 -1.0343 -2.9695
 2043SOL     OW17590   0.170   4.374   0.510 -0.4664 -0.3255  0.1864
 2043SOL    HW117591   0.151   4.303   0.449 -2.0172  0.5213 -0.3053
 2043SOL    HW217592   0.080   4.396   0.536  0.0878  1.9310  0.2121
 2044SOL     OW17593   2.444   1.915   6.319 -0.6947 -0.3166 -0.4659
 2044SOL    HW117594   2.455   1.878   6.407 -0.3367 -1.6210 -1.0488
 2044SOL    HW217595   2.359   1.879   6.294 -1.2606  1.3704 -0.9245
 2045SOL     OW17596   1.298   3.022   2.033  0.3730 -0.0270 -0.6918
 2045SOL    HW117597   1.229   3.077   2.070  0.4961  0.0558 -0.5881
 2045SOL    HW217598   1.251   2.978   1.962 -1.0576 -1.3777  1.0929
 2046SOL     OW17599   0.256   1.209   8.213  0.6491  0.3863  0.0093
 2046SOL    HW117600   0.262   1.113   8.218 -0.6023  0.2355 -1.3497
 2046SOL    HW217601   0.347   1.237   8.221  0.4410  0.9096  0.5877
 2047SOL     OW17602   1.733   2.410   9.403  0.8701 -0.3490  0.1664
 2047SOL    HW117603   1.689   2.338   9.449  3.4283  0.1638  3.3887
 2047SOL    HW217604   1.648   2.446   9.375  1.5513  1.9076  1.0144
 2048SOL     OW17605   1.362   3.758   4.763  0.0742 -0.1199 -0.5449
 2048SOL    HW117606   1.409   3.795   4.838 -0.9002  3.3921 -1.6904
 2048SOL    HW217607   1.363   3.829   4.699  0.8737  0.9410  0.6607
 2049SOL     OW17608   1.556   1.307  17.670  0.4060  0.9007 -0.7083
 2049SOL    HW117609   1.649   1.305  17.645  0.8367  2.3870  0.7686
 2049SOL    HW217610   1.557   1.387   0.021  3.8510  1.6774 -1.9295
 2050SOL     OW17611   3.516   2.511   7.369  0.0299  0.6913 -0.4156
 2050SOL    HW117612   3.516   2.456   7.447 -0.9657  1.5451  0.1946
 2050SOL    HW217613   3.563   2.452   7.311  0.2717  0.4860 -0.0107
 2051SOL     OW17614   3.474   1.004   3.913 -1.1344  0.1232 -0.2385
 2051SOL    HW117615   3.528   0.989   3.836  0.7025 -0.1078  1.0983
 2051SOL    HW217616   3.510   0.942   3.976  0.8111  0.3570 -1.1394
 2052SOL     OW17617   4.413   1.220   3.317  0.3827 -0.5543 -0.0111
 2052SOL    HW117618   4.509   1.226   3.308  0.6221 -3.1753  0.6591
 2052SOL    HW217619   4.401   1.215   3.411 -1.6737  0.9024 -0.2152
 2053SOL     OW17620   0.490   0.566   1.433  0.1176 -0.0341 -0.2205
 2053SOL    HW117621   0.519   0.596   1.346 -0.7551  1.2160 -0.0695
 2053SOL    HW217622   0.535   0.635   1.482  1.1462 -1.7436  1.2544
 2054SOL     OW17623   0.865   3.868   9.108  0.7011 -0.3791  0.1634
 2054SOL    HW117624   0.923   3.847   9.182 -0.7215  0.2205  1.4507
 2054SOL    HW217625   0.899   3.813   9.038 -1.6984  0.4929 -1.6921
 2055SOL     OW17626   3.328   0.480   3.971  0.0845  0.9851 -0.1203
 2055SOL    HW117627   3.323   0.575   3.986 -2.1432  1.1470 -2.0533
 2055SOL    HW217628   3.236   0.456   3.978  0.7832 -2.1295 -1.6087
 2056SOL     OW17629   0.123   0.917  11.223  0.3446  0.3885 -0.4605
 2056SOL    HW117630   0.164   0.849  11.275 -0.6709  0.9872  1.1249
 2056SOL    HW217631   0.093   0.864  11.149 -1.2317  0.4039  0.1801
 2057SOL     OW17632   1.768   3.937   1.592 -0.1570  0.0525 -0.1047
 2057SOL    HW117633   1.749   3.890   1.673  3.3004 -1.3195 -0.0720
 2057SOL    HW217634   1.718   4.018   1.604 -0.5708  0.0811 -2.0140
 2058SOL     OW17635   1.734   2.525   7.772 -0.3434 -0.1967 -0.0324
 2058SOL    HW117636   1.699   2.555   7.856 -0.2296 -0.1977  0.0160
 2058SOL    HW217637   1.658   2.477   7.741 -0.2577  0.4257 -1.1794
 2059SOL     OW17638   4.269   4.320  16.800  0.0228 -0.4802 -0.6243
 2059SOL    HW117639   4.181   4.342  16.769 -0.7698 -1.3329  0.9855
 2059SOL    HW217640   4.304   4.408  16.817  1.2077 -1.1378  0.2991
 2060SOL     OW17641   0.902   4.007   6.486  0.0506  1.0065  0.4773
 2060SOL    HW117642   0.831   4.069   6.469  0.4527  1.1200 -0.8627
 2060SOL    HW217643   0.936   3.998   6.396 -1.3366  1.1103 -0.0543
 2061SOL     OW17644   2.311   3.132   8.415  0.1893 -0.0652  0.7823
 2061SOL    HW117645   2.388   3.096   8.372 -0.7888 -1.2589  0.0300
 2061SOL    HW217646   2.320   3.225   8.393 -0.3393 -0.6328 -1.8581
 2062SOL     OW17647   0.750   2.445   3.675 -0.3630 -0.1642 -0.4894
 2062SOL    HW117648   0.830   2.494   3.656 -0.0370  0.8400  3.3170
 2062SOL    HW217649   0.772   2.355   3.652 -1.0770 -0.6086  0.5948
 2063SOL     OW17650   1.001   4.607   3.579 -0.2126  0.1071 -0.0145
 2063SOL    HW117651   0.942   4.681   3.596 -1.0511 -0.7708  0.8982
 2063SOL    HW217652   0.964   4.583   3.494  2.0062  1.8418 -1.4708
 2064SOL     OW17653   1.042   2.978   3.811 -0.6481 -0.3488 -0.8743
 2064SOL    HW117654   1.131   2.944   3.819 -0.1893  1.1583  0.5049
 2064SOL    HW217655   1.001   2.927   3.741 -1.8284 -3.4332  2.0515
 2065SOL     OW17656   0.420   0.430  14.071 -0.0814 -0.0275 -0.5016
 2065SOL    HW117657   0.464   0.357  14.115 -1.7429 -0.6360  0.1599
 2065SOL    HW217658   0.434   0.503  14.132  1.2808 -0.6045 -0.1272
 2066SOL     OW17659   4.485   1.662   2.721 -0.3026 -0.1049  0.3853
 2066SOL    HW117660   4.419   1.726   2.747  0.4609  1.6514 -2.0476
 2066SOL    HW217661   4.438   1.584   2.750  1.3413 -1.1555  0.2055
 2067SOL     OW17662   2.006   1.204   8.104 -0.3607  0.3477 -0.3994
 2067SOL    HW117663   1.947   1.192   8.178  2.3086  1.0306  1.8433
 2067SOL    HW217664   2.089   1.218   8.150 -0.9139  1.5311  0.2389
 2068SOL     OW17665   2.028   1.621   3.790  0.2775  0.6118 -0.5146
 2068SOL    HW117666   2.052   1.589   3.703 -0.3790 -1.1012 -0.0491
 2068SOL    HW217667   1.936   1.595   3.788  0.6573 -0.7576  0.1379
 2069SOL     OW17668   4.688   1.619   7.456 -0.3939  0.1701  0.9243
 2069SOL    HW117669   4.689   1.564   7.378 -0.0675  0.4945  0.6987
 2069SOL    HW217670   0.027   1.688   7.436 -0.7841  0.0264 -0.8241
 2070SOL     OW17671   1.114   3.594  10.548 -1.1452 -0.8351 -0.3648
 2070SOL    HW117672   1.123   3.515  10.600  0.2753 -0.8533 -0.6345
 2070SOL    HW217673   1.041   3.581  10.487 -1.2340 -2.5178  0.1015
 2071SOL     OW17674   2.183   1.992   5.920 -0.4915 -0.1516 -0.0332
 2071SOL    HW117675   2.125   1.994   5.996 -0.0062 -1.5533  0.3696
 2071SOL    HW217676   2.169   1.907   5.879 -1.4766 -0.3270  0.6567
 2072SOL     OW17677   1.625   0.351  14.271 -0.4011 -0.4824 -0.0681
 2072SOL    HW117678   1.600   0.267  14.310 -0.1333 -1.0410 -1.1206
 2072SOL    HW217679   1.626   0.401  14.353 -0.3435  0.6863 -0.7950
 2073SOL     OW17680   2.243   1.276   4.619 -0.2357 -0.4254 -0.3717
 2073SOL    HW117681   2.159   1.263   4.576 -1.7411  0.7275  2.2946
 2073SOL    HW217682   2.291   1.198   4.589  1.2646 -0.4743  2.1515
 2074SOL     OW17683   1.469   3.228   5.638  0.2814 -0.1792  0.6335
 2074SOL    HW117684   1.412   3.216   5.714  1.4250 -1.6828  1.2475
 2074SOL    HW217685   1.515   3.146   5.655 -1.5097 -0.8182  2.4181
 2075SOL     OW17686   2.859   2.790   8.831  0.4047 -0.1978 -0.5414
 2075SOL    HW117687   2.838   2.715   8.776  2.4711  0.0789 -1.6886
 2075SOL    HW217688   2.866   2.869   8.777  1.0088 -1.1453 -1.8092
 2076SOL     OW17689   0.141   2.952   8.356 -0.7229  0.6660  0.6499
 2076SOL    HW117690   0.227   2.976   8.389 -0.3416  3.1485 -2.1013
 2076SOL    HW217691   0.118   2.902   8.434  2.3317 -2.0201 -0.1714
 2077SOL     OW17692   3.146   3.004  13.317 -0.3270 -0.7203 -0.3376
 2077SOL    HW117693   3.213   3.030  13.379 -1.1961  1.4551 -0.3001
 2077SOL    HW217694   3.184   3.031  13.233  0.1626 -1.1115 -0.2370
 2078SOL     OW17695   1.655   4.600   5.301  0.0867 -0.4079  0.7219
 2078SOL    HW117696   1.643   4.674   5.359 -0.1729 -0.6132  0.9323
 2078SOL    HW217697   1.564   4.571   5.288  0.1321  0.3459 -1.3106
 2079SOL     OW17698   0.183   3.901   7.587  0.4557 -0.6946 -0.1130
 2079SOL    HW117699   0.133   3.863   7.515 -0.6759 -0.0671  0.3214
 2079SOL    HW217700   0.264   3.853   7.574  1.4208  0.6197  1.0670
 2080SOL     OW17701   4.475   3.025   7.381  0.6643  0.4082  0.1849
 2080SOL    HW117702   4.389   3.062   7.401  0.9297  1.4978 -0.7213
 2080SOL    HW217703   4.489   2.979   7.464  1.5605 -1.1066 -0.8052
 2081SOL     OW17704   1.592   0.750   6.135 -0.6575  1.3132  0.5453
 2081SOL    HW117705   1.645   0.700   6.073  0.2956  0.9788  1.6325
 2081SOL    HW217706   1.509   0.754   6.088 -0.0258  1.9761 -0.5006
 2082SOL     OW17707   4.281   1.138   8.276 -0.6399  0.0586 -0.4899
 2082SOL    HW117708   4.335   1.144   8.355 -0.5841 -3.3552 -0.2410
 2082SOL    HW217709   4.227   1.216   8.278  0.2503  0.6649 -0.0809
 2083SOL     OW17710   1.625   1.581   6.990 -0.1972 -0.4355 -0.0732
 2083SOL    HW117711   1.535   1.556   6.970 -0.2552  0.8249 -1.3370
 2083SOL    HW217712   1.615   1.674   7.012  1.8094 -0.3717  0.6192
 2084SOL     OW17713   1.093   0.951   7.349  0.1694 -0.8819  0.0878
 2084SOL    HW117714   1.171   0.916   7.306  1.9029  1.7242  1.1090
 2084SOL    HW217715   1.132   1.007   7.416  0.1381  0.5052 -1.0630
 2085SOL     OW17716   1.022   3.188   4.406 -0.0850 -0.3805  0.0559
 2085SOL    HW117717   1.107   3.224   4.383  0.5567 -1.0701  1.3732
 2085SOL    HW217718   0.958   3.257   4.388 -0.5191 -0.2593  2.0393
 2086SOL     OW17719   2.769   1.370   5.832 -0.2445 -0.3462 -0.0882
 2086SOL    HW117720   2.863   1.356   5.825 -0.1321 -0.6291  2.1540
 2086SOL    HW217721   2.761   1.365   5.927  0.9410  1.0546  0.0946
 2087SOL     OW17722   2.918   3.311   6.119  0.0402 -0.8255 -0.2710
 2087SOL    HW117723   2.984   3.254   6.081  0.6891 -0.7784  0.7908
 2087SOL    HW217724   2.840   3.258   6.101 -1.0854  0.4386  0.8732
 2088SOL     OW17725   3.502   1.612   4.246  0.0045  0.1090 -0.2331
 2088SOL    HW117726   3.507   1.708   4.245  0.5050  0.0911  0.2076
 2088SOL    HW217727   3.450   1.595   4.168 -0.6867 -1.6768  0.6266
 2089SOL     OW17728   2.131   0.286   1.111 -0.1552 -0.4370 -0.3686
 2089SOL    HW117729   2.051   0.274   1.162 -0.8000  1.5198 -0.9327
 2089SOL    HW217730   2.200   0.270   1.175  1.1535  2.4361 -1.1094
 2090SOL     OW17731   3.574   0.076   2.902 -0.1432 -0.6882 -0.5229
 2090SOL    HW117732   3.516   0.003   2.923  3.8924 -2.5785  3.7497
 2090SOL    HW217733   3.567   0.071   2.806 -1.6355 -0.0377 -0.4488
 2091SOL     OW17734   0.165   0.893   4.741  0.1385  0.0791 -0.3636
 2091SOL    HW117735   0.091   0.938   4.782 -0.3795 -0.9849 -0.1295
 2091SOL    HW217736   0.213   0.970   4.710 -0.5706  0.6000 -0.1681
 2092SOL     OW17737   1.749   2.179   4.330 -0.1251 -0.5126 -0.2465
 2092SOL    HW117738   1.837   2.161   4.296 -0.3483 -3.4166  0.6951
 2092SOL    HW217739   1.733   2.116   4.400 -3.5854 -0.7123 -1.1969
 2093SOL     OW17740   2.072   4.361   6.802  0.4447  0.2278  0.5352
 2093SOL    HW117741   2.092   4.431   6.864 -2.1535 -0.8291  2.5516
 2093SOL    HW217742   2.037   4.405   6.725  0.6619  0.9805  0.8644
 2094SOL     OW17743   3.661   4.675   7.700 -0.1007  0.8429 -0.3338
 2094SOL    HW117744   3.608   4.686   7.779  0.4224  0.2900  0.0912
 2094SOL    HW217745   3.592   4.683   7.634 -0.6167  0.3627  0.1470
 2095SOL     OW17746   1.693   3.785   1.802  0.5286 -0.2605  0.4994
 2095SOL    HW117747   1.605   3.817   1.785  1.0260  2.3233  2.7818
 2095SOL    HW217748   1.720   3.847   1.870 -1.1821 -0.0242  0.9556
 2096SOL     OW17749   0.128   2.054   8.764  0.0396  0.0997 -0.8516
 2096SOL    HW117750   0.134   1.973   8.715 -1.1679  0.0824 -0.9845
 2096SOL    HW217751   0.033   2.053   8.778  0.1993  1.7557  0.4246
 2097SOL     OW17752   0.991   0.890   5.417 -0.5267 -0.5114 -0.0022
 2097SOL    HW117753   0.911   0.841   5.396  0.1863 -1.8959  0.5805
 2097SOL    HW217754   0.979   0.984   5.430  1.4166 -0.1901 -0.6044
 2098SOL     OW17755   1.962   0.669   0.112 -0.2458 -0.5706  0.4045
 2098SOL    HW117756   1.958   0.722   0.192  1.1873  1.7146 -1.0350
 2098SOL    HW217757   2.053   0.686   0.088  0.0644 -1.9183  0.6281
 2099SOL     OW17758   3.998   0.396   8.320 -0.3534 -0.2370 -0.1823
 2099SOL    HW117759   4.036   0.481   8.298 -1.1211  0.0015 -0.6005
 2099SOL    HW217760   3.909   0.430   8.328 -0.1965 -0.1222  0.9390
 2100SOL     OW17761   0.119   0.284  13.381  0.4374 -0.1925 -0.1146
 2100SOL    HW117762   0.110   0.377  13.359  0.0882 -0.3778 -0.7895
 2100SOL    HW217763   0.045   0.272  13.440 -0.9644 -1.8893 -2.1788
 2101SOL     OW17764   0.883   2.055   8.449 -0.0675  1.0284 -0.4958
 2101SOL    HW117765   0.864   2.142   8.485 -2.6436  0.6833 -1.0359
 2101SOL    HW217766   0.977   2.061   8.433 -0.0569  0.8056 -0.5176
 2102SOL     OW17767   3.724   2.131   4.658  0.4430  0.2316  0.3298
 2102SOL    HW117768   3.808   2.092   4.634 -0.4804 -1.6815  0.1450
 2102SOL    HW217769   3.714   2.202   4.594  0.1618 -2.7280 -2.9373
 2103SOL     OW17770   3.016   2.016  13.737 -0.4296  0.0883 -0.5765
 2103SOL    HW117771   3.049   1.931  13.766 -0.4054  0.0709 -0.6576
 2103SOL    HW217772   3.096   2.067  13.749 -0.0727 -0.9403  1.3832
 2104SOL     OW17773   0.290   3.778   2.488 -0.0297 -0.0340 -0.5114
 2104SOL    HW117774   0.374   3.753   2.525 -0.2853 -0.3975 -0.1732
 2104SOL    HW217775   0.244   3.697   2.512 -0.9280  0.1498 -1.6460
 2105SOL     OW17776   2.632   3.345  10.395 -0.5286  0.0711 -0.2971
 2105SOL    HW117777   2.596   3.389  10.472 -0.8097 -1.6546  0.5689
 2105SOL    HW217778   2.576   3.374  10.324 -0.1205  0.9616 -0.2643
 2106SOL     OW17779   1.822   1.989  17.070  0.1819  0.2264 -0.1160
 2106SOL    HW117780   1.787   2.051  17.006  0.7560 -0.8816 -1.4763
 2106SOL    HW217781   1.812   1.906  17.024 -0.1441 -0.5148  1.2917
 2107SOL     OW17782   2.493   3.748   6.476 -0.0121 -0.6110  0.2901
 2107SOL    HW117783   2.449   3.663   6.481  0.5897 -0.9040  0.5976
 2107SOL    HW217784   2.469   3.790   6.393 -0.3623 -2.6228 -0.6369
 2108SOL     OW17785   2.336   3.365   3.335 -0.1662 -0.7094  0.4738
 2108SOL    HW117786   2.357   3.274   3.316 -0.6638 -0.5857 -0.6235
 2108SOL    HW217787   2.416   3.411   3.307  0.6685  0.3058  4.3807
 2109SOL     OW17788   2.890   1.719  16.695 -0.1021  0.3061 -0.5703
 2109SOL    HW117789   2.916   1.646  16.751  3.5326  3.5892  2.0146
 2109SOL    HW217790   2.882   1.666  16.616 -0.5172 -1.4875  0.6794
 2110SOL     OW17791   1.183   3.361   4.020 -0.0731 -0.6702  0.6976
 2110SOL    HW117792   1.094   3.375   3.988  1.2558  0.0145 -2.6245
 2110SOL    HW217793   1.167   3.268   4.032  1.7854 -1.1561 -0.7150
 2111SOL     OW17794   2.133   3.855   7.421 -0.2957 -0.0400 -0.1856
 2111SOL    HW117795   2.204   3.832   7.481 -1.0132 -0.0745  0.6560
 2111SOL    HW217796   2.077   3.907   7.479  1.3752  0.6623  0.8009
 2112SOL     OW17797   0.289   2.746   6.638  0.2441  0.1392 -0.1249
 2112SOL    HW117798   0.196   2.745   6.661  0.2829 -1.2634 -0.0416
 2112SOL    HW217799   0.297   2.697   6.556 -1.2659 -0.8968  0.3407
 2113SOL     OW17800   2.243   3.099   7.968  0.3490  0.1664  0.3918
 2113SOL    HW117801   2.233   3.008   7.995 -0.6228  0.5592  1.3573
 2113SOL    HW217802   2.293   3.147   8.034  0.3698  0.4483  0.1767
 2114SOL     OW17803   3.794   4.051   3.988 -0.1508 -0.2013 -0.3640
 2114SOL    HW117804   3.840   3.971   3.963  0.5482 -0.9702  3.2483
 2114SOL    HW217805   3.707   4.018   3.968  0.5048 -1.6473 -0.8065
 2115SOL     OW17806   2.947   3.638   6.620 -0.5942 -0.2899 -0.2502
 2115SOL    HW117807   3.003   3.714   6.602  0.5141 -0.2242  3.5101
 2115SOL    HW217808   2.988   3.569   6.567 -0.3050  0.7491 -1.3796
 2116SOL     OW17809   3.150   0.495   3.433 -0.2880  0.5143 -0.6246
 2116SOL    HW117810   3.145   0.415   3.485  2.5125  3.4588  4.1285
 2116SOL    HW217811   3.065   0.536   3.451 -0.7062 -0.0748 -1.2324
 2117SOL     OW17812   4.418   4.415   3.984 -0.2673  0.1504 -0.0115
 2117SOL    HW117813   4.380   4.370   3.908 -0.2846  0.4959 -0.2048
 2117SOL    HW217814   4.490   4.460   3.940  1.2524 -0.2809  2.0061
 2118SOL     OW17815   3.553   0.147   8.026  0.5264 -0.3289 -0.4600
 2118SOL    HW117816   3.607   0.158   7.948  0.1944 -2.9156 -1.0641
 2118SOL    HW217817   3.561   0.052   8.018  2.3786 -0.3476  1.4322
 2119SOL     OW17818   2.751   4.190  14.614  0.5211 -0.0075 -0.0976
 2119SOL    HW117819   2.721   4.204  14.704 -0.6282  3.0079 -0.9671
 2119SOL    HW217820   2.830   4.244  14.610 -0.9881  2.0482 -2.2541
 2120SOL     OW17821   0.616   1.131  10.464  0.6339 -0.0699  0.5329
 2120SOL    HW117822   0.695   1.114  10.514  0.2009  1.8218  1.8505
 2120SOL    HW217823   0.554   1.098  10.530  1.3717 -0.7014  0.9143
 2121SOL     OW17824   0.020   1.899   4.897 -0.0716 -0.3069 -0.3707
 2121SOL    HW117825   0.047   1.991   4.887 -1.3956 -0.2100 -2.9420
 2121SOL    HW217826   0.035   1.873   4.806  0.4353  1.3900 -0.7837
 2122SOL     OW17827   2.723   3.734   7.294 -0.5360 -0.1663 -0.3947
 2122SOL    HW117828   2.698   3.814   7.246  0.1204  0.2463 -0.0516
 2122SOL    HW217829   2.779   3.697   7.226 -0.6796 -1.7703  0.3790
 2123SOL     OW17830   0.439   4.349   3.037 -0.4750 -0.5013 -0.7594
 2123SOL    HW117831   0.360   4.296   3.044 -2.0875  2.0096 -0.2428
 2123SOL    HW217832   0.517   4.294   3.026 -0.4482 -0.5921 -0.1043
 2124SOL     OW17833   3.633   2.839   7.456 -0.2352  0.1265  0.4487
 2124SOL    HW117834   3.556   2.880   7.416 -0.2445  2.3756  2.7688
 2124SOL    HW217835   3.626   2.885   7.540 -2.5617 -0.7391  0.7273
 2125SOL     OW17836   0.316   1.259   4.828  0.4381  0.3598  0.3503
 2125SOL    HW117837   0.291   1.207   4.752  0.4675  0.2375  0.4246
 2125SOL    HW217838   0.411   1.258   4.817  0.2314  0.5785 -1.3672
 2126SOL     OW17839   2.147   1.694   5.576  0.6310  0.2776  0.5651
 2126SOL    HW117840   2.212   1.764   5.586 -0.9491  1.9709 -1.1204
 2126SOL    HW217841   2.084   1.739   5.520  1.0838  0.9920  0.6188
 2127SOL     OW17842   4.061   0.988   0.510  0.3125  0.0863 -0.0723
 2127SOL    HW117843   4.032   1.045   0.582  0.8861  1.1710 -0.6945
 2127SOL    HW217844   4.127   1.051   0.484 -0.1695 -1.0534 -3.9980
 2128SOL     OW17845   3.779   2.855   7.736 -0.2904 -0.0185  0.0453
 2128SOL    HW117846   3.748   2.767   7.713 -2.7029  0.7447  0.3403
 2128SOL    HW217847   3.872   2.840   7.719 -0.0098  1.7798  0.0341
 2129SOL     OW17848   3.722   0.206   7.830 -0.0015  0.6672 -0.1929
 2129SOL    HW117849   3.756   0.287   7.792 -0.5491  0.5549 -0.9429
 2129SOL    HW217850   3.715   0.151   7.751 -0.3732  0.8848 -0.3118
 2130SOL     OW17851   4.396   3.488  11.201 -0.5220  0.2115 -0.2100
 2130SOL    HW117852   4.316   3.497  11.149 -2.2455 -1.9708  2.0609
 2130SOL    HW217853   4.450   3.550  11.151  0.1196  0.5119  0.8712
 2131SOL     OW17854   3.141   3.716   8.815 -0.1945 -0.2958 -0.0395
 2131SOL    HW117855   3.138   3.778   8.887  0.1685  0.7011 -0.8795
 2131SOL    HW217856   3.067   3.745   8.761  1.2308 -1.0625 -2.4189
 2132SOL     OW17857   4.200   2.509  16.129 -0.5785  0.7180  0.0374
 2132SOL    HW117858   4.285   2.465  16.129 -0.7376  0.3683 -2.5084
 2132SOL    HW217859   4.151   2.433  16.097  0.6863 -0.8088  1.7532
 2133SOL     OW17860   3.218   2.737   2.339 -0.2314 -0.1887 -0.1176
 2133SOL    HW117861   3.307   2.769   2.329 -0.0294 -0.9513 -0.7771
 2133SOL    HW217862   3.235   2.647   2.367 -0.6375 -0.1986  0.0944
 2134SOL     OW17863   3.826   0.826  14.634  0.0324 -0.2044 -0.3153
 2134SOL    HW117864   3.780   0.840  14.551  1.9533  0.8606 -1.2131
 2134SOL    HW217865   3.920   0.836  14.616  0.5009  1.0341  2.7543
 2135SOL     OW17866   3.937   1.126   5.101 -0.2293  0.4350  0.0239
 2135SOL    HW117867   3.975   1.117   5.188  2.3694 -0.1552 -1.1598
 2135SOL    HW217868   3.896   1.040   5.091 -1.5694  1.3235 -2.1038
 2136SOL     OW17869   0.596   4.183   7.788  0.1383  0.0217  0.1172
 2136SOL    HW117870   0.524   4.244   7.769 -0.6029 -1.0968 -0.6562
 2136SOL    HW217871   0.643   4.227   7.859 -0.8065  0.9559  0.1775
 2137SOL     OW17872   2.106   0.370   1.543  0.4922  0.0740  0.0732
 2137SOL    HW117873   2.018   0.373   1.505  0.4371  3.2439  0.4515
 2137SOL    HW217874   2.096   0.319   1.623  1.8739  0.8180  0.7139
 2138SOL     OW17875   4.486   2.221   5.983 -0.1790  0.1150 -0.3441
 2138SOL    HW117876   4.424   2.292   5.964 -0.7328 -0.0845  0.7439
 2138SOL    HW217877   4.512   2.193   5.895  3.0160 -1.6686  1.1811
 2139SOL     OW17878   2.138   0.049  10.687  0.4726  0.4012 -0.3014
 2139SOL    HW117879   2.224   0.025  10.655  0.2880 -2.9876  1.7255
 2139SOL    HW217880   2.141   4.725  10.770  1.6510 -0.4503 -0.8527
 2140SOL     OW17881   1.644   1.786   1.998  0.1708 -0.1493  0.2222
 2140SOL    HW117882   1.711   1.718   1.990 -0.0900 -0.1147 -2.1115
 2140SOL    HW217883   1.560   1.752   1.968  0.1565 -0.1083  0.2154
 2141SOL     OW17884   1.931   1.898   1.074  0.1048 -0.0414  0.4361
 2141SOL    HW117885   1.874   1.888   1.150  0.1705 -0.9322  0.3722
 2141SOL    HW217886   1.896   1.975   1.030 -0.5591 -1.0362 -0.8034
 2142SOL     OW17887   2.576   1.748   8.272  0.6645  0.1217 -0.5293
 2142SOL    HW117888   2.616   1.721   8.354 -1.9955  1.4463  1.1781
 2142SOL    HW217889   2.484   1.730   8.289  0.6373  1.8020  0.9950
 2143SOL     OW17890   3.728   2.958   6.855 -0.2471  0.4333 -0.4591
 2143SOL    HW117891   3.736   2.981   6.947  0.8895 -2.9352  0.2969
 2143SOL    HW217892   3.637   2.929   6.852 -0.5222  1.1203  1.3542
 2144SOL     OW17893   1.948   2.278   3.710 -0.4831 -0.1722  0.1753
 2144SOL    HW117894   1.895   2.224   3.769  0.0990  0.1742  1.0231
 2144SOL    HW217895   1.938   2.363   3.753  1.8648  0.8461 -1.2864
 2145SOL     OW17896   0.582   1.910  16.206 -0.7629 -0.1442  0.4798
 2145SOL    HW117897   0.556   1.903  16.114 -0.6579  2.6860  0.2347
 2145SOL    HW217898   0.591   2.006  16.205  0.9012 -0.3205 -2.2262
 2146SOL     OW17899   1.462   3.664   7.976 -0.3153 -0.4372  0.3150
 2146SOL    HW117900   1.475   3.744   8.027 -0.4447 -0.8008  0.9219
 2146SOL    HW217901   1.527   3.686   7.910 -1.9871  1.3612 -0.7222
 2147SOL     OW17902   2.674   1.907   7.720  0.0784 -0.2867 -0.3449
 2147SOL    HW117903   2.652   1.912   7.627 -1.2424  1.6629  0.0642
 2147SOL    HW217904   2.765   1.935   7.731  0.1021 -0.4241 -0.1894
 2148SOL     OW17905   3.933   4.139   8.701 -0.0513  0.6577 -0.3286
 2148SOL    HW117906   3.903   4.219   8.743  0.0795 -1.0944  3.1693
 2148SOL    HW217907   4.008   4.118   8.758  0.8935 -1.1795 -2.2564
 2149SOL     OW17908   2.013   0.095   4.128  0.0227  0.0472  0.5951
 2149SOL    HW117909   1.933   0.080   4.079  0.9908 -2.2653 -0.2761
 2149SOL    HW217910   2.059   0.011   4.121  0.2671  0.0229  2.3034
 2150SOL     OW17911   0.019   2.760  15.186  0.4554 -0.1141 -0.7304
 2150SOL    HW117912   0.023   2.847  15.146  0.4543  1.8915  3.6053
 2150SOL    HW217913   0.111   2.734  15.181 -0.3471 -2.6381 -2.6243
 2151SOL     OW17914   1.841   2.544   8.447 -0.2517 -0.1915  0.4239
 2151SOL    HW117915   1.834   2.603   8.523 -0.4469 -0.8122  0.8810
 2151SOL    HW217916   1.764   2.490   8.461 -1.0964  0.2403 -2.6230
 2152SOL     OW17917   2.737   4.058   7.255  0.8583  0.7357  0.0472
 2152SOL    HW117918   2.807   4.055   7.190  1.9384  0.1719  1.2370
 2152SOL    HW217919   2.786   4.020   7.327  0.7970  0.7266  0.0841
 2153SOL     OW17920   3.048   4.208   7.759  0.4902 -0.3159 -0.0445
 2153SOL    HW117921   3.000   4.135   7.798  1.5547 -0.6884  0.5431
 2153SOL    HW217922   3.094   4.242   7.835  1.3832  0.2014 -0.8137
 2154SOL     OW17923   0.561   0.185  11.547  0.3291  0.3758 -0.0042
 2154SOL    HW117924   0.582   0.100  11.586 -1.4493 -0.3010 -0.5214
 2154SOL    HW217925   0.557   0.246  11.621 -2.3995  1.1680 -0.8181
 2155SOL     OW17926   0.245   3.500   2.992  0.7880  1.0087  0.2051
 2155SOL    HW117927   0.193   3.544   3.060 -0.1438 -0.6125  0.5525
 2155SOL    HW217928   0.179   3.496   2.923  1.1223 -0.3701 -0.0414
 2156SOL     OW17929   2.851   3.680  14.431 -0.1258 -0.3272  0.4324
 2156SOL    HW117930   2.938   3.684  14.391 -2.0267 -0.8120 -3.7736
 2156SOL    HW217931   2.815   3.761  14.398 -0.7696 -0.3812  1.0041
 2157SOL     OW17932   0.088   4.525   5.976  0.2464  0.1743 -0.0889
 2157SOL    HW117933   4.720   4.528   5.955 -0.2039  2.0709  2.0639
 2157SOL    HW217934   0.112   4.443   5.933  3.1016  1.7043 -1.4421
 2158SOL     OW17935   2.721   0.852   6.660 -0.1783 -0.4182 -0.1562
 2158SOL    HW117936   2.804   0.868   6.704 -0.6349 -2.0605  1.3136
 2158SOL    HW217937   2.757   0.829   6.574 -0.1384  0.3799 -0.3535
 2159SOL     OW17938   3.494   0.269   5.311  0.1578 -1.0328  0.4594
 2159SOL    HW117939   3.525   0.179   5.315 -0.9106 -1.4204  0.0999
 2159SOL    HW217940   3.459   0.279   5.399  0.8005 -1.3235  0.7431
 2160SOL     OW17941   1.367   4.163   2.949 -0.3282 -0.2297  0.2354
 2160SOL    HW117942   1.354   4.106   2.873 -0.6234  0.4895 -0.2498
 2160SOL    HW217943   1.382   4.098   3.018 -1.0247 -0.3881  0.2385
 2161SOL     OW17944   4.575   4.656   4.352 -0.5743  0.5335  0.3937
 2161SOL    HW117945   4.543   4.695   4.271  0.1927 -0.2402 -0.2877
 2161SOL    HW217946   4.545   4.565   4.342  1.0029  0.1403 -0.9205
 2162SOL     OW17947   2.586   0.129   5.060 -0.1536  0.4282 -0.1135
 2162SOL    HW117948   2.584   0.197   5.127 -0.0922  0.9489 -0.6433
 2162SOL    HW217949   2.500   0.143   5.022  0.0100  0.9929 -0.2707
 2163SOL     OW17950   3.396   4.440   5.579 -0.4882 -0.3074 -0.1067
 2163SOL    HW117951   3.410   4.516   5.635  1.0254  0.7608 -1.9191
 2163SOL    HW217952   3.332   4.476   5.518  2.6915  3.0578 -1.4520
 2164SOL     OW17953   3.277   1.274   8.734 -0.2788  0.2597  0.9516
 2164SOL    HW117954   3.361   1.311   8.764 -0.2204  1.8038 -1.1354
 2164SOL    HW217955   3.297   1.183   8.757 -0.3517 -0.0517 -0.2353
 2165SOL     OW17956   0.962   1.660   6.445  0.3611 -0.0611 -0.9475
 2165SOL    HW117957   1.019   1.603   6.393  0.0573 -0.9392 -0.3194
 2165SOL    HW217958   0.879   1.658   6.397 -0.3403 -1.8423  0.3088
 2166SOL     OW17959   0.456   3.927   3.490  0.0718  0.3455 -0.2788
 2166SOL    HW117960   0.486   3.969   3.571 -1.5039 -1.4674  1.2386
 2166SOL    HW217961   0.509   3.847   3.487 -3.3294 -1.9711  1.5317
 2167SOL     OW17962   2.781   4.421   3.443  0.4319  0.2007  0.3866
 2167SOL    HW117963   2.858   4.475   3.423 -0.7174  1.1040 -1.5766
 2167SOL    HW217964   2.823   4.342   3.476 -0.8997 -1.1599 -1.1590
 2168SOL     OW17965   3.143   1.104  13.309 -0.0776  1.0751  0.9382
 2168SOL    HW117966   3.231   1.131  13.284  0.2651 -1.0964 -0.1390
 2168SOL    HW217967   3.139   1.029  13.251 -1.3720  0.3914  1.8993
 2169SOL     OW17968   4.528   2.725   5.398  0.0844  0.0009 -0.4761
 2169SOL    HW117969   4.602   2.756   5.346 -0.1046 -0.3649 -0.9588
 2169SOL    HW217970   4.504   2.648   5.347  0.8354 -0.9270  0.5870
 2170SOL     OW17971   3.729   1.998   5.352  0.0277  0.5246  0.1127
 2170SOL    HW117972   3.639   1.990   5.320  0.1135 -2.1221  0.5076
 2170SOL    HW217973   3.722   2.028   5.443 -1.8606 -2.0562  0.8244
 2171SOL     OW17974   0.635   1.920   8.417 -0.0146  0.3906  0.3672
 2171SOL    HW117975   0.724   1.948   8.437 -0.3373  1.0797  0.8463
 2171SOL    HW217976   0.616   1.841   8.468  0.4836  1.8859  2.8885
 2172SOL     OW17977   2.754   0.423   9.119 -0.0945 -0.0975  0.0509
 2172SOL    HW117978   2.766   0.445   9.026 -1.5636  0.5623  0.0138
 2172SOL    HW217979   2.691   0.351   9.124  0.4113 -0.5823 -0.5663
 2173SOL     OW17980   2.102   1.862   8.163  0.2219 -0.3456  0.4737
 2173SOL    HW117981   2.037   1.810   8.116  2.2636 -2.1821 -0.2996
 2173SOL    HW217982   2.064   1.886   8.247  1.0684  1.6864  0.2654
 2174SOL     OW17983   1.827   2.143   5.965  0.0761  0.0257  0.5661
 2174SOL    HW117984   1.779   2.220   5.932  1.2267  0.6820  0.4116
 2174SOL    HW217985   1.855   2.097   5.886  2.0756  1.2021  0.5916
 2175SOL     OW17986   4.392   1.571   3.334  0.1706  0.1399 -0.1559
 2175SOL    HW117987   4.330   1.555   3.263 -0.0801  1.8775 -0.3450
 2175SOL    HW217988   4.393   1.482   3.368  0.3106 -0.2901 -1.2625
 2176SOL     OW17989   1.776   0.136  10.994  0.2059 -0.3684  0.0859
 2176SOL    HW117990   1.741   0.211  10.946 -0.7813 -1.1988 -0.4898
 2176SOL    HW217991   1.817   0.176  11.071 -0.5704  0.1589  0.2302
 2177SOL     OW17992   2.805   4.408  15.291  0.2892  0.4470 -0.1612
 2177SOL    HW117993   2.745   4.353  15.242 -0.7201  0.6420  0.8678
 2177SOL    HW217994   2.879   4.408  15.229  2.4626  1.1647  2.4130
 2178SOL     OW17995   1.995   3.140  14.269 -0.2160  0.0084  0.6218
 2178SOL    HW117996   2.043   3.084  14.208  0.3959  0.7760  0.4112
 2178SOL    HW217997   2.053   3.214  14.283  0.0526  0.2028 -1.5657
 2179SOL     OW17998   4.648   0.055   2.028 -0.2738  0.1648  0.2950
 2179SOL    HW117999   4.632   0.134   1.976  1.3847  0.7990  0.7486
 2179SOL    HW218000   0.010   0.033   1.997  0.0345  1.7001  0.0909
 2180SOL     OW18001   2.139   4.638   1.646  0.4333 -0.1752 -0.0634
 2180SOL    HW118002   2.224   4.594   1.657  0.7775  0.2327 -1.0974
 2180SOL    HW218003   2.085   4.564   1.676  0.8442 -0.0556  0.9846
 2181SOL     OW18004   2.414   1.659   4.520  0.1813  0.3496  0.0864
 2181SOL    HW118005   2.395   1.749   4.547 -0.1159  1.0164 -2.3561
 2181SOL    HW218006   2.506   1.670   4.495  0.5488 -0.6933  1.0182
 2182SOL     OW18007   0.222   0.684   3.904  0.4426  0.2916 -0.3472
 2182SOL    HW118008   0.309   0.722   3.895  0.6795  0.3670  2.1044
 2182SOL    HW218009   0.228   0.682   4.000 -1.1533  1.0897 -0.2237
 2183SOL     OW18010   4.274   3.837   4.590  0.0943 -0.2766 -0.3599
 2183SOL    HW118011   4.321   3.913   4.624 -0.6268 -0.1134  0.2538
 2183SOL    HW218012   4.296   3.839   4.497  2.4553  0.6533  0.2154
 2184SOL     OW18013   4.294   2.280   6.925 -0.3236  0.0647  0.1058
 2184SOL    HW118014   4.370   2.242   6.968  1.1494  2.6404 -0.2706
 2184SOL    HW218015   4.329   2.315   6.843  0.2173 -1.5753 -0.3688
 2185SOL     OW18016   4.208   2.265   7.336 -0.9035  0.4132  0.3132
 2185SOL    HW118017   4.278   2.306   7.284 -2.0993  2.6480  0.4638
 2185SOL    HW218018   4.205   2.303   7.424  1.7632  0.2017  0.4943
 2186SOL     OW18019   1.868   1.474   7.003 -0.5617 -0.6484 -0.3566
 2186SOL    HW118020   1.781   1.513   7.008 -0.2748 -0.1197  0.5852
 2186SOL    HW218021   1.923   1.518   7.068 -1.5149  0.4185 -0.2790
 2187SOL     OW18022   4.159   1.247  11.966 -0.0186  0.2625  0.1730
 2187SOL    HW118023   4.198   1.207  12.044  0.6790 -2.1753 -1.4315
 2187SOL    HW218024   4.235   1.249  11.907  0.5300 -0.3356  0.8637
 2188SOL     OW18025   3.547   4.626  15.084 -0.0377 -0.3038  0.2165
 2188SOL    HW118026   3.516   4.556  15.026 -1.1838  0.7309 -0.4072
 2188SOL    HW218027   3.520   4.588  15.168 -0.4193  1.5287  0.9229
 2189SOL     OW18028   2.839   0.313   3.446 -0.0817 -0.1752  0.1105
 2189SOL    HW118029   2.909   0.300   3.509 -0.5921 -2.2972  0.2294
 2189SOL    HW218030   2.774   0.302   3.515  0.7944 -0.2898  0.9080
 2190SOL     OW18031   1.538   2.409  16.677 -0.0945 -0.7298  0.8826
 2190SOL    HW118032   1.462   2.401  16.735 -1.7819  1.1451 -1.0752
 2190SOL    HW218033   1.561   2.500  16.697 -0.0669 -1.0903  2.4461
 2191SOL     OW18034   4.402   0.169   5.959 -0.2763  0.0857 -0.0857
 2191SOL    HW118035   4.436   0.248   5.917  2.6005 -0.1210  1.8464
 2191SOL    HW218036   4.405   0.108   5.885 -0.8116  0.6078 -0.5377
 2192SOL     OW18037   1.262   2.293   8.108 -0.1524  0.1556 -0.6128
 2192SOL    HW118038   1.245   2.306   8.014 -1.2174 -1.2865 -0.6227
 2192SOL    HW218039   1.357   2.296   8.098 -0.3870  2.9446 -2.0635
 2193SOL     OW18040   3.377   4.628   3.413  0.1853  0.4781 -0.4598
 2193SOL    HW118041   3.394   4.643   3.506 -1.1180  2.2376 -0.5132
 2193SOL    HW218042   3.457   4.645   3.364  1.3823 -1.5428  0.8006
 2194SOL     OW18043   1.847   0.295   6.115  0.3037  0.0174  0.2110
 2194SOL    HW118044   1.926   0.242   6.101 -1.6154 -2.8902  0.3614
 2194SOL    HW218045   1.781   0.229   6.137  1.1932 -0.6067  1.0001
 2195SOL     OW18046   3.563   3.129   3.509  0.7666  0.3880 -0.4361
 2195SOL    HW118047   3.531   3.185   3.439 -2.0504 -1.9404 -1.0417
 2195SOL    HW218048   3.632   3.083   3.461  1.8400 -0.3775  1.8378
 2196SOL     OW18049   1.535   0.919   8.344  0.3105 -0.9948  0.3074
 2196SOL    HW118050   1.606   0.964   8.299 -1.1121 -0.2254 -1.2032
 2196SOL    HW218051   1.470   0.988   8.358 -0.1590 -1.3689 -0.0329
 2197SOL     OW18052   1.279   4.020   4.702 -0.0355 -0.5006  0.1678
 2197SOL    HW118053   1.248   4.110   4.691  1.6193  0.0640  0.1113
 2197SOL    HW218054   1.354   4.025   4.760 -0.3304 -1.2968  0.6231
 2198SOL     OW18055   1.651   0.619   5.245  0.5278 -0.4535  0.0144
 2198SOL    HW118056   1.685   0.595   5.160 -0.6284  1.5481 -1.0198
 2198SOL    HW218057   1.687   0.546   5.295  0.5619 -1.4599 -1.5090
 2199SOL     OW18058   4.368   3.331   8.534 -0.1707  0.1836 -0.2442
 2199SOL    HW118059   4.373   3.294   8.622 -2.2314 -2.5407 -1.2920
 2199SOL    HW218060   4.430   3.404   8.532 -1.3136  1.1523 -0.3972
 2200SOL     OW18061   0.931   2.495   8.713 -0.4398  0.1258  0.1266
 2200SOL    HW118062   0.841   2.503   8.744 -1.4691  1.0328 -3.0882
 2200SOL    HW218063   0.961   2.582   8.739 -0.8153  0.8554 -1.8573
 2201SOL     OW18064   3.527   2.240  10.222  0.0318 -0.5910  0.6277
 2201SOL    HW118065   3.461   2.207  10.161 -0.3080 -1.7524  1.6346
 2201SOL    HW218066   3.582   2.162  10.232  1.7216  0.5248 -0.0327
 2202SOL     OW18067   2.285   3.315  14.251  0.3026 -0.7451 -0.5463
 2202SOL    HW118068   2.243   3.397  14.278  0.3109 -0.5814 -1.0380
 2202SOL    HW218069   2.337   3.339  14.175  0.0867 -0.6683 -0.6684
 2203SOL     OW18070   0.129   0.887  11.698  0.2561  0.0023  0.2966
 2203SOL    HW118071   0.066   0.819  11.723 -0.3444  0.3270 -0.3481
 2203SOL    HW218072   0.128   0.945  11.775 -0.2268  2.6357 -1.6928
 2204SOL     OW18073   4.370   0.347   6.317 -0.1193 -0.3893  0.1568
 2204SOL    HW118074   4.311   0.319   6.247  1.3815 -0.0738 -1.2417
 2204SOL    HW218075   4.444   0.288   6.302  1.7520  2.5389 -2.1182
 2205SOL     OW18076   2.827   0.847   2.934  0.4613  0.5050  0.6107
 2205SOL    HW118077   2.846   0.783   3.002 -0.3066  1.2625  1.5511
 2205SOL    HW218078   2.768   0.909   2.977  1.3133  2.4321 -1.0209
 2206SOL     OW18079   3.881   2.546   6.221 -0.1761  0.1297 -0.3097
 2206SOL    HW118080   3.878   2.597   6.302  2.1900  0.9496 -0.7331
 2206SOL    HW218081   3.900   2.457   6.252 -0.8204 -0.3909 -1.4428
 2207SOL     OW18082   2.503   3.245  10.036  0.6026 -0.0746 -0.4034
 2207SOL    HW118083   2.428   3.210  10.084 -2.0793  2.2171 -2.9260
 2207SOL    HW218084   2.561   3.169  10.038 -0.6804 -1.0678 -1.7315
 2208SOL     OW18085   3.903   2.984   9.036  0.6345 -0.1415 -0.4478
 2208SOL    HW118086   3.914   3.079   9.030 -0.3041 -0.1017 -1.5145
 2208SOL    HW218087   3.930   2.971   9.127 -1.1792 -1.4623 -0.0926
 2209SOL     OW18088   1.030   0.526   6.292 -0.3048  0.7190 -0.5313
 2209SOL    HW118089   1.124   0.525   6.273  0.0334 -1.0900  1.1768
 2209SOL    HW218090   1.022   0.444   6.341  0.7542  0.9737  0.0655
 2210SOL     OW18091   4.425   0.542  16.902 -0.1751 -0.2524 -0.1918
 2210SOL    HW118092   4.397   0.473  16.841 -0.7691  0.5019 -0.7715
 2210SOL    HW218093   4.426   0.497  16.987 -2.6830 -0.6363 -0.3509
 2211SOL     OW18094   1.239   0.671  12.330  0.0058  0.1870  0.3946
 2211SOL    HW118095   1.175   0.634  12.269  0.0754  0.7211 -0.0095
 2211SOL    HW218096   1.296   0.720  12.270 -0.6976  0.0968 -0.3531
 2212SOL     OW18097   4.554   3.930  13.555  0.2101  0.3376  0.2155
 2212SOL    HW118098   4.477   3.976  13.523  2.1486  1.4373 -2.8624
 2212SOL    HW218099   4.509   3.914  13.638  2.1660 -2.1575  0.8075
 2213SOL     OW18100   3.318   0.850   2.562 -0.5063  0.1647 -0.3944
 2213SOL    HW118101   3.279   0.926   2.604 -1.6705 -2.0059  2.4675
 2213SOL    HW218102   3.267   0.852   2.481 -2.3991  3.0177  0.8910
 2214SOL     OW18103   2.042   4.107   6.579  0.0217 -0.0571 -0.3507
 2214SOL    HW118104   2.052   4.057   6.660  1.4856 -1.1817 -1.2328
 2214SOL    HW218105   1.949   4.125   6.573  0.2710  0.4597 -2.4884
 2215SOL     OW18106   3.937   3.289   4.118  0.3743  0.4819  0.3288
 2215SOL    HW118107   3.999   3.291   4.046  2.9902  2.0499  2.6016
 2215SOL    HW218108   4.001   3.333   4.175  0.3865 -0.7694  1.2790
 2216SOL     OW18109   3.816   0.335   9.084  0.0252  0.1524  0.2799
 2216SOL    HW118110   3.881   0.266   9.096 -0.8297 -0.3305  2.1067
 2216SOL    HW218111   3.755   0.317   9.155 -2.3620 -0.9805 -2.0764
 2217SOL     OW18112   3.905   1.881   9.944  0.0904  0.0341  0.4742
 2217SOL    HW118113   3.999   1.892   9.931  0.4625 -0.8285  2.4658
 2217SOL    HW218114   3.911   1.794   9.984 -2.4649 -1.4214 -2.3058
 2218SOL     OW18115   3.043   0.890   9.232  0.2694 -0.2000  0.8417
 2218SOL    HW118116   3.011   0.971   9.193 -0.4877 -1.3399 -0.9339
 2218SOL    HW218117   2.976   0.871   9.297  1.7650 -0.6807  2.2330
 2219SOL     OW18118   0.195   3.674  11.752  0.6386 -0.0832 -1.2471
 2219SOL    HW118119   0.260   3.742  11.734 -0.2871  0.8752 -0.9563
 2219SOL    HW218120   0.235   3.612  11.812  0.7787  0.7325 -0.5085
 2220SOL     OW18121   1.463   2.145  17.594 -0.4108 -0.5005  0.3510
 2220SOL    HW118122   1.460   2.193  17.511  0.7327 -1.0844 -0.0166
 2220SOL    HW218123   1.374   2.171  17.621 -1.3381 -3.1995 -0.1096
 2221SOL     OW18124   0.148   3.873  16.226  0.2107  0.6436  0.1265
 2221SOL    HW118125   0.090   3.820  16.280  0.4635  0.9162  0.6692
 2221SOL    HW218126   0.234   3.833  16.241 -1.4069 -2.6866  0.5547
 2222SOL     OW18127   4.399   4.699   1.536  0.0390  0.0189 -0.9061
 2222SOL    HW118128   4.333   4.642   1.497 -0.4560 -0.0137 -0.0172
 2222SOL    HW218129   4.459   4.703   1.461  2.0679 -0.1468  0.7049
 2223SOL     OW18130   2.756   1.760   8.059 -0.8745 -0.3334  0.0231
 2223SOL    HW118131   2.740   1.853   8.042  1.6459 -0.1678 -1.4593
 2223SOL    HW218132   2.696   1.741   8.131  0.4390  1.4034  1.5905
 2224SOL     OW18133   0.998   3.692   6.484 -0.3592  0.3802  0.3214
 2224SOL    HW118134   1.038   3.605   6.492  3.0470  1.8146 -0.9874
 2224SOL    HW218135   0.919   3.666   6.436 -0.6311  1.1433  0.3660
 2225SOL     OW18136   0.063   2.834   8.145  0.0194 -0.0318 -0.1071
 2225SOL    HW118137   0.097   2.886   8.217  0.7853 -1.1089  0.3159
 2225SOL    HW218138   0.025   2.772   8.207 -0.4898  1.2899  0.9013
 2226SOL     OW18139   4.411   4.667   6.755 -0.2936  0.6441 -0.6314
 2226SOL    HW118140   4.439   4.624   6.836  1.1714 -0.0381 -1.5167
 2226SOL    HW218141   4.449   0.029   6.762  1.0378 -0.1476  2.1171
 2227SOL     OW18142   3.977   1.288   8.137  0.7789  0.0020  0.0417
 2227SOL    HW118143   3.958   1.340   8.215  1.7207  0.5979 -0.1282
 2227SOL    HW218144   4.032   1.350   8.088  1.7965 -0.2652  0.8406
 2228SOL     OW18145   2.876   3.662   9.509  0.1532  0.0692  0.1798
 2228SOL    HW118146   2.795   3.634   9.551  1.5980 -0.9494  2.3000
 2228SOL    HW218147   2.884   3.616   9.425  1.0005 -0.1385  0.3786
 2229SOL     OW18148   3.454   3.898  11.474 -0.0898  0.5579 -0.1322
 2229SOL    HW118149   3.494   3.922  11.558  1.3175  1.9459 -1.1727
 2229SOL    HW218150   3.495   3.814  11.455  1.2055  0.6672  2.1372
 2230SOL     OW18151   2.905   3.819   0.009 -0.0039 -0.2860  0.0790
 2230SOL    HW118152   2.959   3.760   0.062  0.4326 -1.0226 -1.1802
 2230SOL    HW218153   2.958   3.896   0.031 -1.4895  1.4388 -2.3961
 2231SOL     OW18154   3.765   2.550   0.051  0.2335  0.6077 -0.2885
 2231SOL    HW118155   3.767   2.629   0.105  1.8521  0.1560  0.3086
 2231SOL    HW218156   3.820   2.593  17.687  0.5992  0.8505  0.1732
 2232SOL     OW18157   4.092   2.650   3.576 -0.3209  0.3001 -0.5360
 2232SOL    HW118158   4.160   2.650   3.509  0.3474 -2.8179  0.1183
 2232SOL    HW218159   4.109   2.564   3.615  0.2143  1.2944  1.4530
 2233SOL     OW18160   0.807   1.641   4.175 -0.4627 -0.7051  0.2726
 2233SOL    HW118161   0.885   1.685   4.141  0.0717 -1.3242  0.7264
 2233SOL    HW218162   0.820   1.552   4.142 -0.9579 -0.6781  0.0028
 2234SOL     OW18163   3.212   1.762   7.563  0.4628 -0.1560  0.1539
 2234SOL    HW118164   3.140   1.735   7.620  1.5232  1.3765  2.2472
 2234SOL    HW218165   3.280   1.799   7.620  1.1710 -0.9058 -0.2083
 2235SOL     OW18166   3.849   1.008   3.082 -0.0513  0.4340  0.0155
 2235SOL    HW118167   3.759   0.991   3.055  0.1108 -0.1476 -0.1613
 2235SOL    HW218168   3.840   1.099   3.111  0.4082 -0.4924  2.9998
 2236SOL     OW18169   4.637   1.921   2.954 -0.2027  0.1483  0.0243
 2236SOL    HW118170   4.654   1.906   2.861  1.3643 -1.4767  0.5776
 2236SOL    HW218171   4.722   1.905   2.995 -0.3056 -0.6201 -0.0659
 2237SOL     OW18172   4.564   3.715   7.127  0.1088 -0.2525 -0.8933
 2237SOL    HW118173   4.525   3.656   7.063 -0.5898 -2.0184  1.1735
 2237SOL    HW218174   4.522   3.692   7.209  0.0313 -0.6260 -1.0372
 2238SOL     OW18175   4.669   3.002   5.592 -0.1685  0.0599  0.2543
 2238SOL    HW118176   0.013   2.937   5.584  0.7520  1.2051 -1.1232
 2238SOL    HW218177   4.694   3.044   5.675  2.1050 -2.7531  1.0076
 2239SOL     OW18178   1.026   0.927   9.711  0.0720 -0.0909 -0.2816
 2239SOL    HW118179   0.991   1.008   9.674  1.5086 -0.9575 -3.6053
 2239SOL    HW218180   0.956   0.867   9.684  0.6609 -0.7833 -0.2745
 2240SOL     OW18181   0.895   3.777   1.310 -0.2486  0.1916 -0.5457
 2240SOL    HW118182   0.882   3.869   1.330 -0.7504  0.4037 -1.8945
 2240SOL    HW218183   0.827   3.736   1.364  0.3902 -0.4936 -0.2573
 2241SOL     OW18184   2.219   0.698   0.060 -0.2705 -0.1390 -0.2764
 2241SOL    HW118185   2.243   0.609   0.034  2.8749  0.4383  0.6472
 2241SOL    HW218186   2.294   0.720   0.115 -1.3154  1.5343  0.4648
 2242SOL     OW18187   1.778   0.991  13.791 -0.1569 -0.7988 -0.5687
 2242SOL    HW118188   1.801   1.020  13.879 -0.1548 -1.8962 -0.2151
 2242SOL    HW218189   1.852   0.943  13.753  0.5574 -1.2044  1.3605
 2243SOL     OW18190   2.814   4.520  11.357 -0.1329 -0.1394 -0.1868
 2243SOL    HW118191   2.867   4.460  11.411 -0.5989  0.7810  1.2944
 2243SOL    HW218192   2.840   4.494  11.269 -2.2004  0.1377 -0.8672
 2244SOL     OW18193   2.074   1.689  16.084 -0.3855  0.1915 -0.6189
 2244SOL    HW118194   2.065   1.781  16.057  2.6905  0.4069 -0.9845
 2244SOL    HW218195   2.123   1.697  16.165 -1.4629 -1.7644  0.2166
 2245SOL     OW18196   3.331   0.575   5.293 -0.1830 -0.1449  0.1761
 2245SOL    HW118197   3.391   0.648   5.276 -0.3435  0.2686  1.3623
 2245SOL    HW218198   3.322   0.573   5.388 -2.4204  0.6825 -0.0095
 2246SOL     OW18199   0.997   0.833   4.727 -0.2332 -0.0670 -0.4005
 2246SOL    HW118200   1.019   0.762   4.788  0.9744  0.1145 -0.6278
 2246SOL    HW218201   1.020   0.790   4.645  1.9613 -0.7927  0.6046
 2247SOL     OW18202   3.398   0.678   5.880 -0.5509  0.6388 -0.1834
 2247SOL    HW118203   3.337   0.716   5.943 -2.1263  2.4084 -2.7833
 2247SOL    HW218204   3.370   0.706   5.793  2.8902  1.0362 -1.1793
 2248SOL     OW18205   3.582   4.616   7.974  0.2690 -0.2562 -0.4753
 2248SOL    HW118206   3.670   4.591   8.000 -0.5480 -0.7313  1.8494
 2248SOL    HW218207   3.529   4.550   8.018  1.5323 -0.3149  0.9520
 2249SOL     OW18208   2.738   2.015   5.098  0.0603 -0.3826  0.5983
 2249SOL    HW118209   2.780   2.098   5.121  0.5051  0.3029 -2.6143
 2249SOL    HW218210   2.655   2.039   5.056  0.9779  0.2666 -0.8420
 2250SOL     OW18211   1.899   2.263   5.407 -0.2411 -0.2015 -0.0800
 2250SOL    HW118212   1.891   2.262   5.311  3.2720 -0.5296 -0.3673
 2250SOL    HW218213   1.979   2.310   5.430 -1.0905  1.9424 -1.5369
 2251SOL     OW18214   2.898   3.696   1.479  0.2360 -0.3487  0.4116
 2251SOL    HW118215   2.880   3.765   1.542  0.7385  0.2872 -0.1438
 2251SOL    HW218216   2.926   3.751   1.405  0.7500 -1.0898  0.0522
 2252SOL     OW18217   1.112   1.320   1.314  0.0449  0.6143  0.0604
 2252SOL    HW118218   1.062   1.367   1.247  0.1432 -0.1396 -0.5356
 2252SOL    HW218219   1.093   1.230   1.290 -1.2349  1.2194 -1.1660
 2253SOL     OW18220   2.545   4.273   6.194 -0.3110  0.2025  0.2159
 2253SOL    HW118221   2.575   4.274   6.285  0.8633 -1.0360 -0.1569
 2253SOL    HW218222   2.630   4.267   6.152 -0.2531  1.8719  0.0963
 2254SOL     OW18223   0.020   4.538  14.769  0.1121 -0.0196  0.3049
 2254SOL    HW118224   4.686   4.483  14.822  1.8784 -1.2162  1.0643
 2254SOL    HW218225   0.047   4.604  14.833 -2.9523  1.2440  0.2825
 2255SOL     OW18226   1.419   3.968   1.585 -0.1079 -0.0742  0.1370
 2255SOL    HW118227   1.493   4.026   1.574  2.4835 -3.5716 -0.9128
 2255SOL    HW218228   1.406   3.966   1.680 -1.3089  0.6545 -0.0108
 2256SOL     OW18229   0.633   0.825   0.629  0.6028  0.2346  0.1050
 2256SOL    HW118230   0.616   0.904   0.577 -1.8192 -0.3026  0.1108
 2256SOL    HW218231   0.717   0.801   0.589  0.1848  0.7323 -1.0687
 2257SOL     OW18232   0.731   3.976   0.795  0.1000 -0.6939 -0.1849
 2257SOL    HW118233   0.640   3.948   0.789 -0.1551  0.2240 -0.5667
 2257SOL    HW218234   0.753   3.980   0.702  0.9589  0.4566  0.0592
 2258SOL     OW18235   1.885   3.740   1.045  0.4077  0.6258  0.0550
 2258SOL    HW118236   1.814   3.717   1.104 -0.2445  2.1975 -0.1411
 2258SOL    HW218237   1.944   3.665   1.056  1.1802  0.7900 -3.0204
 2259SOL     OW18238   1.318   2.405   9.991  0.0166  0.8380  0.4914
 2259SOL    HW118239   1.347   2.328  10.039 -2.0305 -0.0724  0.2592
 2259SOL    HW218240   1.402   2.443   9.966  1.0726 -1.4648  0.5968
 2260SOL     OW18241   3.491   3.641   0.430 -0.0508 -0.2084 -0.2072
 2260SOL    HW118242   3.533   3.728   0.427  0.1695 -0.2902  0.5379
 2260SOL    HW218243   3.535   3.604   0.353 -1.9965 -0.3514 -1.2388
 2261SOL     OW18244   3.695   2.445   6.068  0.0070 -0.1548 -0.3795
 2261SOL    HW118245   3.776   2.441   6.118 -1.2010  1.6967  1.7328
 2261SOL    HW218246   3.633   2.385   6.111  0.3577  0.3316  0.7793
 2262SOL     OW18247   0.427   1.169  10.188  0.4470 -0.9872 -0.2488
 2262SOL    HW118248   0.449   1.262  10.186 -0.6663 -0.6750  1.0788
 2262SOL    HW218249   0.505   1.134  10.146  0.2733 -0.9612 -0.5934
 2263SOL     OW18250   1.144   4.554   5.403  0.0251 -0.1200  0.4944
 2263SOL    HW118251   1.138   4.522   5.493 -2.2606  2.2173  1.1786
 2263SOL    HW218252   1.052   4.557   5.377  0.6216 -0.1174 -1.6363
 2264SOL     OW18253   2.378   1.368   6.403 -0.7855  1.1182  0.0113
 2264SOL    HW118254   2.451   1.429   6.402  0.0460  0.1358  3.2300
 2264SOL    HW218255   2.354   1.370   6.495  0.3450 -0.0621  0.3280
 2265SOL     OW18256   4.340   3.266   2.629 -0.0732 -0.3515 -0.4811
 2265SOL    HW118257   4.320   3.181   2.591  1.1508 -0.3283 -1.1812
 2265SOL    HW218258   4.392   3.307   2.560  0.1860  1.3383  0.7217
 2266SOL     OW18259   2.513   3.110   5.800 -0.1633  0.2049  0.6143
 2266SOL    HW118260   2.569   3.034   5.816  1.5826  1.1007 -1.1834
 2266SOL    HW218261   2.435   3.059   5.779 -0.7632  1.4054 -0.0557
 2267SOL     OW18262   2.773   4.617   8.451  0.4492  0.4440 -0.1505
 2267SOL    HW118263   2.829   4.637   8.377  0.2051 -0.8029 -0.6717
 2267SOL    HW218264   2.824   4.646   8.527 -0.9780  0.9201  0.6269
 2268SOL     OW18265   0.108   1.987   7.052  0.1981  0.4767  0.3358
 2268SOL    HW118266   0.098   2.083   7.050 -1.0283  0.3351 -0.4019
 2268SOL    HW218267   0.061   1.957   6.974  1.8271 -2.9577  0.6680
 2269SOL     OW18268   3.381   3.371  14.369 -0.6307  0.5454  0.1657
 2269SOL    HW118269   3.367   3.410  14.283 -2.0386  1.8603  0.9807
 2269SOL    HW218270   3.294   3.333  14.385 -0.6940  0.4211 -0.4701
 2270SOL     OW18271   1.766   1.637   2.396  0.1808  0.4816 -0.2891
 2270SOL    HW118272   1.711   1.710   2.368 -0.7443 -0.0981 -0.0057
 2270SOL    HW218273   1.773   1.580   2.320 -1.3228 -1.1435  0.7987
 2271SOL     OW18274   4.327   1.913  13.385 -0.5366 -0.0017 -0.5004
 2271SOL    HW118275   4.377   1.845  13.431  1.4942  0.9352 -1.3466
 2271SOL    HW218276   4.372   1.992  13.414  0.1994 -0.8651  0.7044
 2272SOL     OW18277   0.994   4.503   7.980  0.2102  0.0806 -0.0306
 2272SOL    HW118278   1.040   4.421   7.999 -1.5391 -0.8627  0.1137
 2272SOL    HW218279   1.060   4.563   7.945 -0.7400  0.8941 -0.4329
 2273SOL     OW18280   3.936   1.853  16.212  0.1582  0.2819  0.3687
 2273SOL    HW118281   3.842   1.848  16.228  0.0830 -1.7505 -0.6182
 2273SOL    HW218282   3.943   1.948  16.202 -0.9103  0.2822 -0.4073
 2274SOL     OW18283   2.430   3.599   5.282 -0.2101 -0.1689  0.1592
 2274SOL    HW118284   2.393   3.525   5.331 -0.2764 -0.1322  0.1645
 2274SOL    HW218285   2.463   3.654   5.353  2.0928 -0.3999 -0.7223
 2275SOL     OW18286   1.970   1.263   7.716  0.5705  0.7022 -0.5427
 2275SOL    HW118287   1.934   1.185   7.675  1.0455  0.6360 -0.8343
 2275SOL    HW218288   1.960   1.324   7.642 -0.1876 -0.6324 -1.5378
 2276SOL     OW18289   1.553   0.022   7.457  0.4937 -0.3052  0.0480
 2276SOL    HW118290   1.640   4.716   7.482  2.1675  4.1487 -0.1902
 2276SOL    HW218291   1.521   0.065   7.537  0.6923 -0.9054  0.4441
 2277SOL     OW18292   4.242   1.746   5.906  0.2133  0.0026 -0.4553
 2277SOL    HW118293   4.155   1.731   5.867  0.4331 -0.1243 -0.9023
 2277SOL    HW218294   4.267   1.660   5.939  2.2702  1.4419  1.6716
 2278SOL     OW18295   1.982   4.429  13.608 -0.5697  0.1623 -0.3703
 2278SOL    HW118296   2.059   4.448  13.555 -0.2600  0.6631  0.2521
 2278SOL    HW218297   1.915   4.440  13.540 -1.3636 -0.1326  0.3578
 2279SOL     OW18298   2.387   2.991   8.664 -0.4351 -0.1584  0.1482
 2279SOL    HW118299   2.405   2.901   8.638  1.2104 -0.1734  1.3741
 2279SOL    HW218300   2.335   3.019   8.588 -3.3158  1.1917  2.5891
 2280SOL     OW18301   2.222   1.983   5.016 -0.2050 -0.1524 -0.9462
 2280SOL    HW118302   2.193   2.036   5.089  0.4402  0.4962 -1.1602
 2280SOL    HW218303   2.153   1.989   4.950 -1.2770 -2.0561  0.0012
 2281SOL     OW18304   4.277   2.143   4.199  0.5281 -0.1454 -0.0065
 2281SOL    HW118305   4.231   2.224   4.217  1.8941  0.4897  0.6862
 2281SOL    HW218306   4.364   2.171   4.172  1.0789  0.0750  1.9540
 2282SOL     OW18307   1.066   2.844   6.867  0.4374 -0.4642  0.8397
 2282SOL    HW118308   1.038   2.931   6.896 -5.2575 -2.0147 -0.0017
 2282SOL    HW218309   1.153   2.852   6.906  0.8489 -0.0034 -0.1676
 2283SOL     OW18310   2.729   4.657  13.776 -0.1704  0.3501  0.3783
 2283SOL    HW118311   2.700   4.575  13.737 -1.2231  0.3951  1.0867
 2283SOL    HW218312   2.738   4.633  13.868 -1.9303 -0.9911  0.1912
 2284SOL     OW18313   2.983   1.655   7.966 -0.1268 -0.6080  0.2773
 2284SOL    HW118314   2.909   1.700   8.006 -1.5765 -2.0204 -0.7791
 2284SOL    HW218315   3.000   1.580   8.022  2.1380 -1.6691 -1.8321
 2285SOL     OW18316   0.336   3.868   9.008  0.2169  0.0389  0.2391
 2285SOL    HW118317   0.302   3.952   9.040 -0.0603 -0.2966  0.8290
 2285SOL    HW218318   0.429   3.870   9.032  0.6454 -3.6419 -1.1664
 2286SOL     OW18319   1.924   2.049   2.300 -0.3517  0.2341 -0.1727
 2286SOL    HW118320   1.920   2.062   2.395 -3.0098 -1.9181  0.0421
 2286SOL    HW218321   1.969   1.965   2.292  2.9206  1.9135  0.5923
 2287SOL     OW18322   0.037   1.804   6.761 -0.4691  0.4025 -0.2821
 2287SOL    HW118323   0.031   1.708   6.756 -2.0242  0.6282 -2.9227
 2287SOL    HW218324   4.700   1.824   6.831  0.7880  0.2680  0.8568
 2288SOL     OW18325   2.391   2.174   9.073 -0.2678  0.1122  0.0038
 2288SOL    HW118326   2.357   2.102   9.020  2.7982  1.0046 -3.1195
 2288SOL    HW218327   2.308   2.222   9.078 -0.6217 -0.5300  0.2471
 2289SOL     OW18328   4.284   1.473  15.064  0.0979 -0.6225 -0.0751
 2289SOL    HW118329   4.219   1.521  15.115 -1.9312  0.0280 -3.2783
 2289SOL    HW218330   4.348   1.543  15.050 -0.6271  0.9488  4.2887
 2290SOL     OW18331   2.013   1.134   6.922 -0.1609 -0.4882  0.0209
 2290SOL    HW118332   2.046   1.053   6.883 -0.5895 -0.6525 -0.0004
 2290SOL    HW218333   2.087   1.191   6.903 -0.9770  1.4351  2.5325
 2291SOL     OW18334   0.041   1.358  15.250  0.4410  0.4678  0.3151
 2291SOL    HW118335   0.070   1.270  15.227 -1.5453 -0.2676  0.6481
 2291SOL    HW218336   0.035   1.350  15.345 -0.8443  1.0310  0.2744
 2292SOL     OW18337   1.540   3.987   6.905 -0.2453  0.3244 -0.2046
 2292SOL    HW118338   1.569   3.897   6.891 -1.9147  0.0712 -1.9140
 2292SOL    HW218339   1.447   3.982   6.886 -0.3395 -1.3611  0.7451
 2293SOL     OW18340   4.043   2.668   4.634  0.0547  0.2927 -0.1707
 2293SOL    HW118341   3.971   2.606   4.620  0.8083 -0.2327 -1.7308
 2293SOL    HW218342   4.003   2.721   4.702 -2.0848  2.0143 -2.7872
 2294SOL     OW18343   0.919   4.482   6.247  0.0356 -0.1242 -0.5522
 2294SOL    HW118344   0.840   4.529   6.271 -1.0242 -1.8235 -0.7429
 2294SOL    HW218345   0.980   4.501   6.319 -0.5543  0.9659 -0.3420
 2295SOL     OW18346   0.253   2.598  12.645  0.1620 -0.5915 -0.1435
 2295SOL    HW118347   0.269   2.670  12.584 -2.5150 -0.4633 -0.6893
 2295SOL    HW218348   0.172   2.569  12.604  0.9078 -2.3031 -0.3754
 2296SOL     OW18349   2.478   2.481  16.637  0.1441 -0.1354 -0.1857
 2296SOL    HW118350   2.479   2.500  16.731 -0.3794 -2.2783  0.2522
 2296SOL    HW218351   2.387   2.455  16.622 -0.4254  1.5708  0.3883
 2297SOL     OW18352   0.993   1.382   1.047 -0.2071  0.4371 -0.2037
 2297SOL    HW118353   1.075   1.359   1.002 -2.2513 -2.0487 -2.6477
 2297SOL    HW218354   0.935   1.309   1.026  0.3138  0.4028 -1.5604
 2298SOL     OW18355   1.314   3.287   7.982  0.4423  0.2086 -0.3334
 2298SOL    HW118356   1.354   3.273   8.067 -0.2502  0.1296 -0.0195
 2298SOL    HW218357   1.279   3.376   7.986  0.2557  0.2293 -2.3620
 2299SOL     OW18358   2.173   2.603  13.170 -0.1390 -0.0157 -0.5796
 2299SOL    HW118359   2.135   2.589  13.083 -1.3906 -0.7618  0.1005
 2299SOL    HW218360   2.133   2.531  13.218  2.4370  0.7186  2.6049
 2300SOL     OW18361   3.151   3.177   5.997 -0.4294 -0.5236  0.4226
 2300SOL    HW118362   3.135   3.205   5.906 -0.1328 -1.9224 -0.0544
 2300SOL    HW218363   3.240   3.142   5.997 -1.0368 -2.0514  0.9566
 2301SOL     OW18364   4.020   1.653  10.953 -0.1948  0.1441  0.2895
 2301SOL    HW118365   4.046   1.584  10.892 -0.8542 -0.3622  0.5820
 2301SOL    HW218366   3.981   1.605  11.026 -1.6284  0.8880 -0.0066
 2302SOL     OW18367   4.326   4.626   7.735 -0.0823 -0.0954 -0.0755
 2302SOL    HW118368   4.342   4.707   7.784  2.8711 -1.1060  0.6610
 2302SOL    HW218369   4.393   4.567   7.769  1.8375  2.4406  0.5176
 2303SOL     OW18370   1.589   4.282  15.596 -0.3003 -0.1778  0.2406
 2303SOL    HW118371   1.655   4.347  15.571 -0.1174 -0.5363 -0.1930
 2303SOL    HW218372   1.586   4.222  15.522 -0.2763 -0.2857  0.3280
 2304SOL     OW18373   0.455   0.509   2.797  0.0786  0.4227 -0.0972
 2304SOL    HW118374   0.448   0.570   2.724 -2.4353  0.3707  0.0654
 2304SOL    HW218375   0.363   0.502   2.823  0.0671  2.1521  0.3274
 2305SOL     OW18376   2.420   2.556   9.254  0.0545 -0.3947 -0.1431
 2305SOL    HW118377   2.339   2.506   9.249  0.9984 -2.1194  2.1899
 2305SOL    HW218378   2.384   2.644   9.272 -0.9259 -0.5093 -1.5005
 2306SOL     OW18379   0.599   1.075   5.208  0.4286 -0.0624 -0.3780
 2306SOL    HW118380   0.597   1.099   5.116 -1.0201 -2.1583 -0.8916
 2306SOL    HW218381   0.626   1.153   5.257  0.1901  0.5811 -1.2797
 2307SOL     OW18382   4.064   4.235   8.175  0.2473 -0.0700  0.4749
 2307SOL    HW118383   3.990   4.262   8.230  1.4228 -0.7798  2.3747
 2307SOL    HW218384   4.123   4.190   8.236  2.4026  2.5329  0.2931
 2308SOL     OW18385   2.701   4.249  11.186  0.6283  0.0629  0.2109
 2308SOL    HW118386   2.643   4.269  11.112 -0.6249  0.7501  1.3957
 2308SOL    HW218387   2.728   4.340  11.202 -0.9559  0.4346  0.7159
 2309SOL     OW18388   4.421   0.363  15.888 -0.8047 -0.4529 -0.1979
 2309SOL    HW118389   4.489   0.327  15.945 -0.5769 -0.0150 -0.1891
 2309SOL    HW218390   4.353   0.297  15.897  0.2983 -1.3776  1.3780
 2310SOL     OW18391   1.516   3.070  12.057 -0.6876  0.0313  0.5016
 2310SOL    HW118392   1.539   3.017  11.981  0.6226  2.4366 -0.7776
 2310SOL    HW218393   1.470   3.143  12.018  1.1748  0.0540 -1.6676
 2311SOL     OW18394   4.722   2.635  15.799 -0.1264  0.2181  0.2809
 2311SOL    HW118395   4.640   2.680  15.779 -0.4463 -1.1563 -1.4967
 2311SOL    HW218396   0.061   2.690  15.755  1.3779 -0.0819  2.1011
 2312SOL     OW18397   3.898   1.326   9.306  0.0687  0.4153 -0.4420
 2312SOL    HW118398   3.891   1.233   9.288 -1.1717  0.4151  0.0440
 2312SOL    HW218399   3.921   1.329   9.398  0.8664  0.6798 -0.6500
 2313SOL     OW18400   0.296   1.614  10.188  0.1825 -0.1602 -0.4177
 2313SOL    HW118401   0.379   1.568  10.180 -1.0949 -2.2770 -1.2692
 2313SOL    HW218402   0.252   1.563  10.256  1.2578  0.9329  1.0997
 2314SOL     OW18403   3.482   0.055  11.067  0.8281  0.7395  0.2114
 2314SOL    HW118404   3.400   0.012  11.091  1.8926 -1.4716 -0.1428
 2314SOL    HW218405   3.454   0.118  11.000 -1.1920 -1.3296 -0.8896
 2315SOL     OW18406   3.244   2.761   5.893 -0.0962  0.2646 -0.2609
 2315SOL    HW118407   3.232   2.707   5.815 -2.6614 -0.5836  0.7109
 2315SOL    HW218408   3.306   2.709   5.943 -2.2215  0.1508  2.2803
 2316SOL     OW18409   0.555   2.771   2.351 -0.3515 -0.4739 -0.4218
 2316SOL    HW118410   0.509   2.740   2.273 -2.9808  0.9156  0.5931
 2316SOL    HW218411   0.569   2.691   2.403 -0.2696 -0.1780  0.0147
 2317SOL     OW18412   0.564   0.566   3.048  0.6362 -0.3128  0.5768
 2317SOL    HW118413   0.546   0.516   2.969  0.6357  0.6903 -0.0489
 2317SOL    HW218414   0.649   0.529   3.074  0.2583 -0.4270  1.6379
 2318SOL     OW18415   0.216   3.305   3.903 -0.3036 -0.4141 -0.2035
 2318SOL    HW118416   0.285   3.350   3.854 -1.2296  0.9544 -0.2655
 2318SOL    HW218417   0.235   3.315   3.996 -2.1188  0.5267  0.0803
 2319SOL     OW18418   2.383   2.114   8.486 -0.1414  0.5986 -0.1028
 2319SOL    HW118419   2.334   2.086   8.563  2.3893  1.0961  1.6864
 2319SOL    HW218420   2.333   2.188   8.451 -0.8510  0.1553 -0.0126
 2320SOL     OW18421   1.473   0.949  14.013  0.4166  0.1762 -0.2097
 2320SOL    HW118422   1.474   0.967  13.919 -2.5287  2.8520  0.2834
 2320SOL    HW218423   1.526   0.870  14.024 -1.2493 -1.1791 -1.9996
 2321SOL     OW18424   0.828   0.142   4.548  0.1581  0.4439  0.2402
 2321SOL    HW118425   0.806   0.085   4.622 -1.0833 -1.2505 -1.4297
 2321SOL    HW218426   0.880   0.212   4.588 -0.9782  0.3822  1.8426
 2322SOL     OW18427   2.217   0.039   0.149 -0.3542 -0.2354  0.7817
 2322SOL    HW118428   2.220   4.700   0.220  2.5913  0.7472  1.5490
 2322SOL    HW218429   2.256   0.122   0.176  0.3920  0.3292 -1.9655
 2323SOL     OW18430   1.911   2.716  15.785 -1.0394 -0.2580  0.0294
 2323SOL    HW118431   1.841   2.669  15.741 -0.2242 -0.6011 -0.9088
 2323SOL    HW218432   1.856   2.759  15.849 -0.1695  0.2016  0.4762
 2324SOL     OW18433   3.004   0.162   7.445 -0.4335 -0.6874 -0.2309
 2324SOL    HW118434   3.077   0.181   7.504 -1.4222 -1.8352  1.3713
 2324SOL    HW218435   3.045   0.114   7.373 -2.3083  0.1279 -1.8628
 2325SOL     OW18436   1.710   0.163  12.046  0.2354 -0.5847 -0.0115
 2325SOL    HW118437   1.722   0.112  12.126 -1.7168 -1.3247 -0.1942
 2325SOL    HW218438   1.750   0.095  11.991 -0.5958  0.2130 -1.5815
 2326SOL     OW18439   3.277   2.098  15.568  0.1562  0.9765  0.0921
 2326SOL    HW118440   3.206   2.154  15.538 -0.2774  1.0031  1.1594
 2326SOL    HW218441   3.351   2.159  15.571  0.2023  0.7799  3.1931
 2327SOL     OW18442   2.983   2.453   7.763 -0.1856 -0.1529 -0.6091
 2327SOL    HW118443   2.928   2.513   7.712 -0.2282  1.7380  1.6780
 2327SOL    HW218444   3.008   2.385   7.700 -1.3288 -1.5003  0.3718
 2328SOL     OW18445   3.368   1.150  16.667 -0.1063  0.0698 -0.7920
 2328SOL    HW118446   3.292   1.207  16.666  0.0557  0.2802 -1.1923
 2328SOL    HW218447   3.392   1.171  16.577 -0.8025  1.9670 -0.5257
 2329SOL     OW18448   2.383   2.054   1.418  0.3663 -0.6539 -0.3849
 2329SOL    HW118449   2.319   2.102   1.471 -0.1095 -0.5025 -1.0994
 2329SOL    HW218450   2.332   2.023   1.343  0.9497  0.6936 -1.3378
 2330SOL     OW18451   3.221   4.701   5.434 -0.1676  0.3406 -0.0071
 2330SOL    HW118452   3.149   4.658   5.481  2.1700 -3.0325  0.4951
 2330SOL    HW218453   3.248   4.629   5.377 -1.3045 -0.7654  0.8374
 2331SOL     OW18454   2.553   1.158  12.005  0.0616 -0.4768 -0.1812
 2331SOL    HW118455   2.623   1.213  11.968  0.2363  0.1509  1.0683
 2331SOL    HW218456   2.545   1.094  11.935 -1.2737  0.1395 -0.5853
 2332SOL     OW18457   4.641   2.422   1.518  0.0796 -0.0123  0.3035
 2332SOL    HW118458   4.589   2.408   1.597 -0.1400  0.5787  0.2588
 2332SOL    HW218459   4.574   2.440   1.452  0.4175  1.1756  0.2973
 2333SOL     OW18460   1.950   2.684   3.584 -0.3185  0.5006 -0.2254
 2333SOL    HW118461   2.035   2.720   3.557 -0.3913  1.0381  0.2706
 2333SOL    HW218462   1.975   2.597   3.551  1.5312  1.8933 -2.5417
 2334SOL     OW18463   2.208   4.248   5.493  0.1659 -0.0858 -0.0108
 2334SOL    HW118464   2.212   4.256   5.588  3.4824 -2.6940  0.0770
 2334SOL    HW218465   2.149   4.176   5.472 -1.7222  2.0249 -1.9765
 2335SOL     OW18466   1.000   1.357   9.463 -0.0569  0.5443  0.2360
 2335SOL    HW118467   1.083   1.359   9.415 -0.3813  2.4632 -0.2700
 2335SOL    HW218468   0.962   1.432   9.417  0.8001 -0.2317 -1.7094
 2336SOL     OW18469   2.666   2.700  16.246  0.0214  0.4336 -0.2832
 2336SOL    HW118470   2.739   2.714  16.186  1.4483  1.2153  1.6374
 2336SOL    HW218471   2.653   2.790  16.276  0.5451  0.4700 -0.1661
 2337SOL     OW18472   3.414   3.370  16.638 -0.4090 -0.4456  0.3447
 2337SOL    HW118473   3.421   3.363  16.543 -1.5207 -0.9805  0.3023
 2337SOL    HW218474   3.452   3.284  16.659  0.9408  0.0056 -0.2718
 2338SOL     OW18475   1.388   3.399   9.410  0.1492 -0.2965 -0.1517
 2338SOL    HW118476   1.454   3.465   9.432 -1.1279  1.2632 -1.0304
 2338SOL    HW218477   1.435   3.316   9.401  1.1810  0.0248  2.2719
 2339SOL     OW18478   0.947   1.117   0.556 -0.1164  0.0663  0.6824
 2339SOL    HW118479   0.866   1.136   0.508  0.8591  1.8793 -0.2210
 2339SOL    HW218480   0.985   1.196   0.593  1.4497 -0.5116  0.3097
 2340SOL     OW18481   2.537   1.116   7.034 -0.1635  0.1284  0.0237
 2340SOL    HW118482   2.523   1.193   6.979  3.0314  1.6160  1.2744
 2340SOL    HW218483   2.627   1.129   7.065 -0.5359  0.7547  0.8315
 2341SOL     OW18484   2.067   2.956   6.609  0.3092 -0.3111 -0.6322
 2341SOL    HW118485   2.098   3.045   6.627  0.2253 -0.1220 -1.4012
 2341SOL    HW218486   2.123   2.909   6.671 -0.6028 -0.4902  0.0501
 2342SOL     OW18487   3.142   2.559   9.324  0.1389 -0.1895 -0.5166
 2342SOL    HW118488   3.237   2.544   9.321 -0.1776 -2.1175 -1.2765
 2342SOL    HW218489   3.140   2.591   9.414  0.2467 -0.0658 -0.5586
 2343SOL     OW18490   2.193   1.390  14.233 -0.3563 -0.0567 -0.1876
 2343SOL    HW118491   2.232   1.432  14.155  1.0418 -0.0166  0.5327
 2343SOL    HW218492   2.211   1.458  14.298 -1.4998 -0.2371  0.3055
 2344SOL     OW18493   0.624   2.321   8.795 -0.2025 -0.7722 -0.5051
 2344SOL    HW118494   0.635   2.414   8.817  1.6757 -1.0870 -0.0740
 2344SOL    HW218495   0.529   2.318   8.791 -0.2272 -0.0886 -0.4995
 2345SOL     OW18496   1.482   2.151  10.045  0.6238 -0.0385  0.6221
 2345SOL    HW118497   1.493   2.061  10.078  1.9855 -0.2134 -0.3042
 2345SOL    HW218498   1.563   2.157   9.994 -0.5156  1.4831 -0.9809
 2346SOL     OW18499   1.272   4.496   3.589  0.3022 -0.3852 -0.1177
 2346SOL    HW118500   1.185   4.497   3.631  0.8885  0.1464  1.0934
 2346SOL    HW218501   1.250   4.499   3.496  1.3015  1.2322 -0.2980
 2347SOL     OW18502   0.270   1.353   4.185 -0.0102  0.2395  0.1086
 2347SOL    HW118503   0.278   1.442   4.220 -0.1955  0.2083  0.2296
 2347SOL    HW218504   0.190   1.354   4.132  1.9540 -0.8421 -2.8507
 2348SOL     OW18505   3.922   2.427   5.119  0.1828  0.4893  0.4246
 2348SOL    HW118506   3.849   2.400   5.064  1.5539 -0.1360 -1.1065
 2348SOL    HW218507   3.939   2.340   5.155 -1.5425  0.0061  0.0420
 2349SOL     OW18508   4.523   4.630   4.922  0.1178 -0.1102 -0.5945
 2349SOL    HW118509   4.548   4.578   4.998 -2.0619 -0.4849 -0.1398
 2349SOL    HW218510   4.447   4.667   4.967  1.1902  0.1758  0.9802
 2350SOL     OW18511   1.770   1.730  13.752  0.0734  0.2879 -0.0343
 2350SOL    HW118512   1.749   1.808  13.803 -1.0445 -2.7120  4.0789
 2350SOL    HW218513   1.690   1.677  13.756  1.0932 -1.1384  1.7638
 2351SOL     OW18514   4.163   1.026   3.219 -0.4428 -0.4559  0.4924
 2351SOL    HW118515   4.217   1.003   3.294 -1.0942 -3.0192  0.1651
 2351SOL    HW218516   4.073   1.016   3.252 -1.8902 -0.3508 -3.3455
 2352SOL     OW18517   2.665   2.735   0.245  0.3219 -0.5636  0.2095
 2352SOL    HW118518   2.688   2.774   0.161 -0.0789 -1.0311 -0.1083
 2352SOL    HW218519   2.729   2.769   0.308  3.0300  0.3192 -3.0463
 2353SOL     OW18520   2.372   0.679  14.009  0.2322 -0.9560 -0.2429
 2353SOL    HW118521   2.381   0.613  13.940 -2.0895 -1.6628  0.1220
 2353SOL    HW218522   2.278   0.698  14.002  1.2037  2.7371 -3.3732
 2354SOL     OW18523   0.977   2.229  16.256 -0.4840  0.1315  0.4669
 2354SOL    HW118524   1.037   2.198  16.189  0.0734  0.3252  0.8717
 2354SOL    HW218525   1.024   2.186  16.328  0.3767  0.6857  0.2407
 2355SOL     OW18526   1.602   1.244  11.216  0.1833  0.0008  0.4426
 2355SOL    HW118527   1.615   1.167  11.161 -1.0832  0.8925 -1.1124
 2355SOL    HW218528   1.507   1.250  11.225 -0.0632 -0.9929 -1.4929
 2356SOL     OW18529   1.164   2.283  17.163 -0.0820  0.0440 -0.3000
 2356SOL    HW118530   1.242   2.306  17.112  0.3700 -2.7323 -0.8889
 2356SOL    HW218531   1.116   2.236  17.095  0.5640 -0.2874 -0.5307
 2357SOL     OW18532   2.670   2.483   3.748 -0.7841  0.4235  0.6282
 2357SOL    HW118533   2.595   2.475   3.808 -1.4669  0.2856 -0.2390
 2357SOL    HW218534   2.623   2.472   3.665 -0.5070  0.1274  0.5122
 2358SOL     OW18535   1.583   2.600   2.656 -0.1459  0.5186 -1.0404
 2358SOL    HW118536   1.616   2.608   2.745  0.7281 -0.2489 -1.2976
 2358SOL    HW218537   1.632   2.524   2.626  0.9844  1.1481 -0.8012
 2359SOL     OW18538   2.228   0.820  14.731  0.5064  0.0443  0.1201
 2359SOL    HW118539   2.159   0.849  14.672 -0.3905 -0.3234  0.9866
 2359SOL    HW218540   2.302   0.855  14.682  0.5274  0.3350  0.3579
 2360SOL     OW18541   2.025   0.901  15.782 -0.5389 -0.0414 -0.1005
 2360SOL    HW118542   2.084   0.831  15.808 -0.5262  0.0355  0.0828
 2360SOL    HW218543   2.038   0.969  15.849 -2.1916 -0.3748  0.5511
 2361SOL     OW18544   3.464   2.430   7.007 -0.5271  0.1990  0.8484
 2361SOL    HW118545   3.496   2.517   6.983  0.0790 -0.1724  0.2996
 2361SOL    HW218546   3.521   2.405   7.080 -0.3710 -0.4414  0.5074
 2362SOL     OW18547   1.031   1.807   6.939  0.3308 -0.1245 -0.3747
 2362SOL    HW118548   0.987   1.765   6.865 -0.1969  1.2561 -0.8438
 2362SOL    HW218549   0.967   1.798   7.009 -0.6373 -0.0281 -1.2393
 2363SOL     OW18550   3.058   2.053   8.487  0.4266 -0.5471 -0.3874
 2363SOL    HW118551   3.144   2.040   8.527 -0.1683 -1.2309  0.6700
 2363SOL    HW218552   3.079   2.108   8.412 -1.9238  0.2348 -0.4935
 2364SOL     OW18553   3.416   4.677   5.148 -0.0916 -0.3726  0.0980
 2364SOL    HW118554   3.491   4.652   5.093  0.7531 -0.2101  1.1789
 2364SOL    HW218555   3.350   4.615   5.117  0.2079 -0.1928 -0.9010
 2365SOL     OW18556   2.588   0.851   4.180 -0.0628 -0.1294  0.0613
 2365SOL    HW118557   2.649   0.792   4.136 -1.4986 -0.4896 -1.3936
 2365SOL    HW218558   2.571   0.921   4.118  1.5214  0.3413  0.1433
 2366SOL     OW18559   2.540   4.112  12.781  0.2209  0.0837 -0.7413
 2366SOL    HW118560   2.616   4.115  12.840  0.2092 -1.2872 -0.6472
 2366SOL    HW218561   2.480   4.170  12.829  2.2358  1.4248  0.1685
 2367SOL     OW18562   2.003   4.706   2.829  0.0404 -0.1194 -0.1986
 2367SOL    HW118563   2.022   0.052   2.891  2.1170 -1.9173  1.2293
 2367SOL    HW218564   2.085   4.657   2.825 -1.2731 -2.3311  0.1695
 2368SOL     OW18565   0.181   4.183   5.665 -0.1361  0.3783 -0.1831
 2368SOL    HW118566   0.275   4.166   5.657  0.0931  1.8917 -0.8439
 2368SOL    HW218567   0.173   4.264   5.615  1.0251  0.1358 -0.7593
 2369SOL     OW18568   4.323   3.296  13.390  0.4547 -0.1677 -0.4169
 2369SOL    HW118569   4.231   3.316  13.373 -0.1958 -3.5867 -0.9466
 2369SOL    HW218570   4.353   3.249  13.311  0.1451 -2.0858  0.6113
 2370SOL     OW18571   0.755   3.743  12.694  0.3165 -0.9095 -0.0585
 2370SOL    HW118572   0.768   3.726  12.601  0.0285  1.0262 -0.4478
 2370SOL    HW218573   0.707   3.826  12.697 -1.5669 -1.9226 -2.1932
 2371SOL     OW18574   2.605   3.688   5.488 -0.0139 -0.1596 -0.3206
 2371SOL    HW118575   2.665   3.695   5.562  1.3019 -0.3833 -1.3645
 2371SOL    HW218576   2.594   3.780   5.466 -1.8361 -0.3333 -0.0749
 2372SOL     OW18577   4.397   3.771   3.233 -0.4071  0.5308  0.6362
 2372SOL    HW118578   4.333   3.702   3.214  1.0209 -0.2691 -1.2503
 2372SOL    HW218579   4.476   3.719   3.250 -0.5849 -0.5918 -1.9146
 2373SOL     OW18580   2.139   0.820   1.567  0.4451 -0.2671  0.0637
 2373SOL    HW118581   2.125   0.820   1.662 -2.5081 -1.2407 -0.3611
 2373SOL    HW218582   2.216   0.764   1.559  1.2925  1.1792 -1.9328
 2374SOL     OW18583   0.419   1.711   4.513  0.3633  0.2292  0.0125
 2374SOL    HW118584   0.507   1.694   4.479  1.2943  0.6430  2.2689
 2374SOL    HW218585   0.426   1.794   4.559 -2.4118 -0.1045  1.0679
 2375SOL     OW18586   2.042   2.146   4.300  0.6469 -0.8484 -0.0515
 2375SOL    HW118587   2.106   2.181   4.362 -0.6398  0.1696  0.7094
 2375SOL    HW218588   2.061   2.053   4.294  0.0364 -1.0271  0.7511
 2376SOL     OW18589   1.301   3.413  10.751  0.2992 -0.3281 -0.4325
 2376SOL    HW118590   1.329   3.438  10.839 -1.8146  1.1961 -0.1785
 2376SOL    HW218591   1.208   3.397  10.766  0.8546 -2.9317  0.1670
 2377SOL     OW18592   4.316   2.096   4.535  0.2911 -0.8766  0.3548
 2377SOL    HW118593   4.264   2.017   4.525 -0.3036 -0.6585  1.7489
 2377SOL    HW218594   4.404   2.072   4.506  0.5697  1.5967 -0.8781
 2378SOL     OW18595   0.714   0.155   3.890  0.2902 -0.0606 -0.0479
 2378SOL    HW118596   0.773   0.209   3.943 -1.3081  0.6793  0.9785
 2378SOL    HW218597   0.717   0.084   3.954  0.1684  0.7937  0.8947
 2379SOL     OW18598   1.650   2.625   5.773  0.2497 -0.0115  0.3425
 2379SOL    HW118599   1.591   2.569   5.723 -1.0357  1.1529  0.5705
 2379SOL    HW218600   1.607   2.626   5.858 -1.0661  0.7179 -0.3485
 2380SOL     OW18601   0.060   0.399   7.586  0.5112 -0.1431 -0.4111
 2380SOL    HW118602   4.724   0.379   7.516  0.4318 -2.2729  0.2574
 2380SOL    HW218603   0.148   0.391   7.549  0.9677 -1.9009  1.0248
 2381SOL     OW18604   1.017   2.417   2.889  0.8184  0.1574  0.0466
 2381SOL    HW118605   1.046   2.365   2.964  0.9186 -1.3594 -1.0542
 2381SOL    HW218606   1.022   2.509   2.916  1.6100 -0.1448  0.9388
 2382SOL     OW18607   2.250   4.028   4.624 -0.1646 -0.3856  0.0682
 2382SOL    HW118608   2.198   3.974   4.683  0.0865  1.2115  1.7878
 2382SOL    HW218609   2.331   3.978   4.615 -0.5609 -1.3163  1.7171
 2383SOL     OW18610   3.313   3.697   8.427  0.3125 -0.6133  0.2823
 2383SOL    HW118611   3.246   3.758   8.397  1.2714  0.7091  0.7976
 2383SOL    HW218612   3.280   3.650   8.504 -4.2152  0.7277 -0.8418
 2384SOL     OW18613   4.553   0.357   1.492 -0.6266  0.5393 -0.1837
 2384SOL    HW118614   4.606   0.292   1.446  1.5628  1.8934  0.4568
 2384SOL    HW218615   4.536   0.429   1.431 -1.5870  0.5460  0.0953
 2385SOL     OW18616   0.843   1.500  10.581 -0.1983 -0.2300  0.1745
 2385SOL    HW118617   0.823   1.517  10.489  1.1501 -0.8642 -0.2453
 2385SOL    HW218618   0.911   1.435  10.565 -1.4034 -1.3620 -0.3539
 2386SOL     OW18619   0.393   0.663  13.253  0.0277 -0.4940  0.3772
 2386SOL    HW118620   0.452   0.737  13.235 -3.9033  2.4048 -0.6937
 2386SOL    HW218621   0.308   0.698  13.277  0.2045  1.0330 -1.2184
 2387SOL     OW18622   2.576   4.607   4.795  0.2299  0.0726 -0.5045
 2387SOL    HW118623   2.482   4.613   4.778  0.3817  0.4058 -1.2286
 2387SOL    HW218624   2.611   4.604   4.706 -0.2879  0.6609 -0.7259
 2388SOL     OW18625   3.616   2.646   7.011 -0.0014  0.1349  0.3630
 2388SOL    HW118626   3.639   2.709   7.079 -0.6878  0.1289  0.6017
 2388SOL    HW218627   3.702   2.639   6.969 -0.4353 -1.5686 -0.2356
 2389SOL     OW18628   0.348   1.215   7.426 -0.2025 -0.0400  0.4183
 2389SOL    HW118629   0.259   1.203   7.457 -0.5759 -0.1300 -0.6828
 2389SOL    HW218630   0.383   1.129   7.450  0.3159  0.0530  0.0022
 2390SOL     OW18631   1.695   2.054   3.356 -0.8022  0.1967  0.5884
 2390SOL    HW118632   1.636   1.982   3.340 -1.5778  1.2340 -1.1364
 2390SOL    HW218633   1.777   2.005   3.360 -2.0728 -2.0924 -2.6219
 2391SOL     OW18634   2.474   0.917   5.323  0.0564  0.1035 -0.6455
 2391SOL    HW118635   2.441   0.943   5.410  1.7133 -0.2287  0.0699
 2391SOL    HW218636   2.438   0.830   5.306 -1.9970  0.7767  0.1547
 2392SOL     OW18637   3.547   0.282  13.625  0.0468  0.1419 -0.0197
 2392SOL    HW118638   3.636   0.283  13.661  0.3316  0.6252 -0.7422
 2392SOL    HW218639   3.565   0.297  13.532  0.7726 -0.7362 -0.0241
 2393SOL     OW18640   0.171   3.519   8.158  0.0794  0.1352 -0.6153
 2393SOL    HW118641   0.203   3.432   8.181 -0.1672  0.8469  2.4239
 2393SOL    HW218642   0.091   3.525   8.210  0.1682  0.2213 -0.4887
 2394SOL     OW18643   4.718   4.294   3.273 -0.4202  0.3208  0.2804
 2394SOL    HW118644   4.647   4.338   3.227 -1.8424  1.8031  3.8577
 2394SOL    HW218645   0.057   4.362   3.292  0.5332 -0.6742  0.6360
 2395SOL     OW18646   1.129   1.970   3.380  0.3790  0.2030 -0.2217
 2395SOL    HW118647   1.065   1.915   3.336 -0.7920  0.8391  0.6791
 2395SOL    HW218648   1.192   1.976   3.308 -0.5984  2.6290 -0.8760
 2396SOL     OW18649   1.682   4.459   5.949  0.0281  0.2368  0.3198
 2396SOL    HW118650   1.742   4.534   5.944  0.8735 -0.2435  3.2073
 2396SOL    HW218651   1.649   4.465   6.039 -0.2734 -1.1187  0.2863
 2397SOL     OW18652   2.538   2.273   4.559 -0.1187 -0.1856 -0.0254
 2397SOL    HW118653   2.621   2.235   4.530  1.0638  1.8689  0.6442
 2397SOL    HW218654   2.541   2.283   4.654  1.2936 -1.6568  0.0830
 2398SOL     OW18655   4.685   2.427   5.636  0.0153 -0.4581 -0.4048
 2398SOL    HW118656   4.697   2.496   5.571  0.0955 -1.5793 -1.5942
 2398SOL    HW218657   4.592   2.407   5.624  0.3511 -2.1462 -0.2738
 2399SOL     OW18658   0.327   1.508   1.165  0.1740  0.3567  0.7593
 2399SOL    HW118659   0.363   1.597   1.174  1.7085 -0.3853  2.0755
 2399SOL    HW218660   0.367   1.485   1.249 -0.0919 -1.1354  0.4742
 2400SOL     OW18661   1.828   3.427  14.906 -0.3485 -0.2120 -0.4183
 2400SOL    HW118662   1.755   3.488  14.913 -0.4984 -0.2033 -2.0851
 2400SOL    HW218663   1.846   3.407  14.998 -1.2682  1.3512  0.1099
 2401SOL     OW18664   3.708   3.518   3.440 -0.1424 -0.2335 -0.6903
 2401SOL    HW118665   3.695   3.610   3.418 -0.9271 -0.0244  0.6042
 2401SOL    HW218666   3.803   3.520   3.448 -0.1276 -2.1390 -0.3200
 2402SOL     OW18667   4.012   0.569   7.531  0.1128  0.2999 -0.2281
 2402SOL    HW118668   4.085   0.511   7.509  2.2562  2.5379  0.9670
 2402SOL    HW218669   3.966   0.579   7.448  0.0343 -1.6784 -0.4230
 2403SOL     OW18670   0.676   1.023  17.223 -0.5425  1.0109  0.1543
 2403SOL    HW118671   0.771   1.030  17.207 -0.5844  0.9316 -0.1161
 2403SOL    HW218672   0.676   1.022  17.319 -1.5250  0.8435  0.1474
 2404SOL     OW18673   3.208   1.452   6.657 -0.3636  0.0614  0.1976
 2404SOL    HW118674   3.153   1.513   6.608  0.6597  1.4186  0.7452
 2404SOL    HW218675   3.248   1.397   6.589  1.7845  2.4266 -0.4484
 2405SOL     OW18676   4.670   2.857  11.206  0.1574 -0.1021  0.8457
 2405SOL    HW118677   4.716   2.829  11.285 -0.4252 -2.3712  0.3547
 2405SOL    HW218678   4.711   2.795  11.147 -0.8337 -1.2530  1.3654
 2406SOL     OW18679   3.580   2.090   3.998 -0.1749 -0.1745  0.7200
 2406SOL    HW118680   3.672   2.114   4.002 -0.3227  0.4009  0.7383
 2406SOL    HW218681   3.536   2.155   3.943  0.2882 -0.7696 -0.3572
 2407SOL     OW18682   0.842   1.161   8.176 -0.5952 -0.3694  0.0733
 2407SOL    HW118683   0.812   1.251   8.184  3.4226  1.0883 -1.0507
 2407SOL    HW218684   0.776   1.122   8.234 -0.0215  0.5204  1.3249
 2408SOL     OW18685   0.624   0.549   7.198 -0.6399  0.4707  1.0243
 2408SOL    HW118686   0.586   0.527   7.113  2.8286  0.3751 -0.4973
 2408SOL    HW218687   0.634   0.459   7.230  1.9140 -0.4036 -2.3230
 2409SOL     OW18688   0.240   2.930   2.384  0.0428 -0.4090  0.3319
 2409SOL    HW118689   0.244   2.900   2.293 -1.3127 -0.8026  0.3999
 2409SOL    HW218690   0.148   2.911   2.399  0.0877 -2.1164 -1.5449
 2410SOL     OW18691   2.953   4.565   4.157 -0.0681 -0.0063 -0.1825
 2410SOL    HW118692   2.987   4.507   4.225 -0.5087 -0.5119 -0.3927
 2410SOL    HW218693   2.868   4.525   4.139 -1.8525  3.6344  0.1283
 2411SOL     OW18694   1.905   2.891   7.835 -0.1233 -0.1147 -0.5935
 2411SOL    HW118695   1.890   2.841   7.754  1.3386  0.4883 -1.2561
 2411SOL    HW218696   1.814   2.903   7.860 -0.4685  0.0838 -1.9038
 2412SOL     OW18697   3.876   4.583   8.623  0.0349  1.3963  0.3709
 2412SOL    HW118698   3.791   4.589   8.581  0.2403  1.6469 -0.0119
 2412SOL    HW218699   3.859   4.522   8.695  0.8678 -1.4429 -1.8362
 2413SOL     OW18700   2.742   1.458   5.180 -0.0357  0.3258  0.7592
 2413SOL    HW118701   2.801   1.415   5.242 -1.3693 -0.4382  1.4999
 2413SOL    HW218702   2.710   1.381   5.134  3.1661  0.2007 -1.2268
 2414SOL     OW18703   2.136   2.636   8.306  1.0554  0.1505  0.0933
 2414SOL    HW118704   2.058   2.603   8.262 -0.4888  2.7315  0.8780
 2414SOL    HW218705   2.116   2.616   8.398 -1.1715  2.1480  0.0482
 2415SOL     OW18706   2.388   0.583   3.851 -0.1301  0.6725 -0.3337
 2415SOL    HW118707   2.398   0.558   3.943 -0.8795 -1.1733 -0.7594
 2415SOL    HW218708   2.362   0.498   3.816  1.2679 -0.2120  0.7610
 2416SOL     OW18709   4.570   3.009   1.637 -0.5891 -0.0230 -0.1304
 2416SOL    HW118710   4.592   3.065   1.711 -0.5764  0.2322 -0.3249
 2416SOL    HW218711   4.482   3.046   1.625 -1.3299 -1.8946 -0.5540
 2417SOL     OW18712   3.445   4.281   6.587 -0.3014 -0.2719  0.0631
 2417SOL    HW118713   3.417   4.364   6.550  0.4111  1.3376  3.1362
 2417SOL    HW218714   3.508   4.255   6.519  0.0375 -0.9299  0.6252
 2418SOL     OW18715   1.585   0.152   5.984 -0.5686  0.1046  0.2235
 2418SOL    HW118716   1.553   0.220   6.043 -0.4916  0.8982 -0.6540
 2418SOL    HW218717   1.621   0.091   6.049 -1.1795  1.5061  1.8599
 2419SOL     OW18718   4.340   1.052   8.777  0.3166 -0.5880  0.6616
 2419SOL    HW118719   4.319   0.960   8.792 -0.1964 -0.6456 -0.3900
 2419SOL    HW218720   4.391   1.077   8.853  1.8942  0.8545 -0.8487
 2420SOL     OW18721   0.784   4.370   1.444  0.3441  0.2517  0.3541
 2420SOL    HW118722   0.838   4.406   1.373 -1.5592  1.0651 -0.6768
 2420SOL    HW218723   0.864   4.342   1.489 -0.2767 -0.6795  0.8625
 2421SOL     OW18724   1.901   1.303   4.807  0.0707  0.7981 -0.4397
 2421SOL    HW118725   1.893   1.397   4.825 -0.9221  0.6802 -0.2934
 2421SOL    HW218726   1.819   1.292   4.759  0.0683  0.3323 -0.3265
 2422SOL     OW18727   3.654   0.927   1.532  0.1732  0.2499 -0.6293
 2422SOL    HW118728   3.649   0.915   1.437  0.9337 -0.5875 -0.5640
 2422SOL    HW218729   3.562   0.941   1.555  0.0584 -1.2378 -0.1994
 2423SOL     OW18730   1.281   1.963  16.285  0.0293  0.0332  0.4458
 2423SOL    HW118731   1.203   1.908  16.291  0.4714 -0.8827 -2.2760
 2423SOL    HW218732   1.305   1.939  16.196  1.3026  1.8407  0.2984
 2424SOL     OW18733   4.387   3.265   5.185 -0.0604  0.0030 -0.0638
 2424SOL    HW118734   4.344   3.348   5.206 -1.2185  0.0195 -2.5718
 2424SOL    HW218735   4.371   3.209   5.261  0.0018  0.5093  0.3260
 2425SOL     OW18736   3.264   4.401   7.517 -0.1259 -0.3179  0.1211
 2425SOL    HW118737   3.259   4.306   7.510  0.9879 -0.3373 -0.3876
 2425SOL    HW218738   3.312   4.416   7.598 -1.9221  1.0556  0.9308
 2426SOL     OW18739   1.571   1.157   3.016  0.1672  0.0003  0.2808
 2426SOL    HW118740   1.629   1.229   3.038 -2.0230  1.4868  1.2700
 2426SOL    HW218741   1.498   1.210   2.983 -2.3508 -3.1774  0.7170
 2427SOL     OW18742   2.099   0.585   3.003 -1.0086 -0.1822 -0.1720
 2427SOL    HW118743   2.043   0.567   3.079  1.6260 -0.1924  1.7419
 2427SOL    HW218744   2.055   0.528   2.940  0.6063  0.0943 -1.5467
 2428SOL     OW18745   1.012   0.125   0.783 -0.2778 -0.1409  0.0396
 2428SOL    HW118746   0.962   0.062   0.732 -0.4068  1.1676 -1.4419
 2428SOL    HW218747   0.970   0.107   0.868 -0.0567  0.3741  0.2596
 2429SOL     OW18748   0.223   3.328  11.007  0.4339  0.5859 -0.5513
 2429SOL    HW118749   0.189   3.239  11.020  2.9052 -0.2691  0.0318
 2429SOL    HW218750   0.287   3.318  10.936  1.8650  1.0357  0.7016
 2430SOL     OW18751   3.993   1.598   3.265  0.3158 -0.1693  0.6935
 2430SOL    HW118752   4.070   1.648   3.238 -0.2386  0.6128  0.5514
 2430SOL    HW218753   3.945   1.656   3.324 -1.3893 -0.5780 -0.3035
 2431SOL     OW18754   1.974   1.271  14.178 -0.4962 -0.4180  0.1054
 2431SOL    HW118755   1.960   1.215  14.255  0.8607  0.0494  0.6963
 2431SOL    HW218756   2.059   1.314  14.194  1.5054 -3.0607 -3.6825
 2432SOL     OW18757   1.116   3.815  10.409  0.2396 -0.2304 -0.0794
 2432SOL    HW118758   1.024   3.825  10.384 -0.1181 -0.1659  1.2426
 2432SOL    HW218759   1.108   3.745  10.473  1.5573 -1.0099 -0.7694
 2433SOL     OW18760   1.636   4.083   1.154  0.2321 -0.0102  0.4879
 2433SOL    HW118761   1.561   4.026   1.140 -0.3858  0.9004  0.1083
 2433SOL    HW218762   1.680   4.034   1.224  0.3779 -1.7211 -0.8008
 2434SOL     OW18763   4.491   2.826  14.803 -0.0367  0.1695 -0.2062
 2434SOL    HW118764   4.568   2.843  14.857  1.2645 -3.1891 -0.9910
 2434SOL    HW218765   4.466   2.757  14.865 -2.7188 -0.1124 -1.6121
 2435SOL     OW18766   2.877   4.198   4.905  0.5610 -0.2347 -0.2070
 2435SOL    HW118767   2.878   4.130   4.973  0.6513  0.0817  0.1064
 2435SOL    HW218768   2.788   4.182   4.873 -0.6123  1.8932  2.0526
 2436SOL     OW18769   0.252   4.064   0.127  0.8541  0.0262  0.0745
 2436SOL    HW118770   0.171   4.095   0.168  1.3933  2.5316 -0.7832
 2436SOL    HW218771   0.253   3.979   0.172  1.5464  0.1102  0.2085
 2437SOL     OW18772   1.946   3.038   4.079 -0.2369  0.3446  0.0758
 2437SOL    HW118773   1.878   3.022   4.013  1.7082 -0.8740 -1.6468
 2437SOL    HW218774   1.929   2.976   4.150 -0.5128 -1.1389 -1.2765
 2438SOL     OW18775   2.207   2.739  13.790  0.4847 -0.2276 -0.3121
 2438SOL    HW118776   2.235   2.756  13.880  2.4938 -1.1552 -0.7586
 2438SOL    HW218777   2.115   2.759  13.807  1.3249  1.8877  1.6548
 2439SOL     OW18778   2.047   2.862   2.165  0.5160  0.3668 -0.1776
 2439SOL    HW118779   2.071   2.924   2.096 -0.2262 -0.7836 -1.4689
 2439SOL    HW218780   2.114   2.798   2.145  0.6930  0.1899  1.0017
 2440SOL     OW18781   3.548   0.676   9.268 -0.3609 -0.0753 -0.0415
 2440SOL    HW118782   3.483   0.745   9.281 -1.1273 -0.4916 -1.6086
 2440SOL    HW218783   3.509   0.601   9.223 -0.8408  1.1692 -1.6888
 2441SOL     OW18784   3.461   3.135  12.902 -0.2263  0.5342  0.1989
 2441SOL    HW118785   3.535   3.081  12.930 -1.0660 -0.3365  0.7134
 2441SOL    HW218786   3.503   3.219  12.882 -0.0440 -0.1363 -2.2190
 2442SOL     OW18787   2.246   2.376  15.247  0.2151  0.1264  0.2070
 2442SOL    HW118788   2.229   2.455  15.195 -0.1488 -1.3929 -2.0059
 2442SOL    HW218789   2.334   2.357  15.215 -0.3035 -2.1815  0.1558
 2443SOL     OW18790   3.783   1.569  11.133  0.0600  0.0438  0.4165
 2443SOL    HW118791   3.783   1.526  11.048 -1.4651  0.4982  0.1795
 2443SOL    HW218792   3.715   1.518  11.177  0.4095 -0.3791  0.4665
 2444SOL     OW18793   4.208   4.277   6.061  0.0821  0.1584  0.1771
 2444SOL    HW118794   4.136   4.298   6.002  1.6922  0.7707 -1.5634
 2444SOL    HW218795   4.247   4.364   6.060  1.3615 -0.4132 -0.1593
 2445SOL     OW18796   2.518   4.090   9.530 -0.6623 -0.9492 -0.1254
 2445SOL    HW118797   2.435   4.060   9.493 -0.7186  1.1087 -1.7121
 2445SOL    HW218798   2.505   4.174   9.575 -0.4206 -0.6663 -0.5776
 2446SOL     OW18799   4.301   2.781   7.769 -0.5438 -0.0988  0.8714
 2446SOL    HW118800   4.282   2.687   7.775  2.7155 -0.7057  1.5662
 2446SOL    HW218801   4.297   2.810   7.860 -0.6159 -1.1869  1.2147
 2447SOL     OW18802   3.459   4.352   6.085  0.6510 -0.1486  0.0800
 2447SOL    HW118803   3.527   4.287   6.070  0.5712  0.0341 -1.1022
 2447SOL    HW218804   3.499   4.425   6.132  1.6063 -1.2971  1.0315
 2448SOL     OW18805   0.187   2.492   6.119  0.2964  0.3284  0.2188
 2448SOL    HW118806   0.143   2.419   6.076  0.5440 -0.0810  0.6600
 2448SOL    HW218807   0.216   2.454   6.202 -1.2470  1.3152  1.2192
 2449SOL     OW18808   2.745   0.013   7.382 -0.2486  0.2219 -0.4635
 2449SOL    HW118809   2.747   4.644   7.401  1.9660 -0.0487 -2.0955
 2449SOL    HW218810   2.837   0.035   7.397  0.2992 -1.3056 -1.6424
 2450SOL     OW18811   3.048   2.215   5.687  0.3034  0.0702 -0.2295
 2450SOL    HW118812   3.005   2.277   5.746 -1.9844 -2.3220  0.5764
 2450SOL    HW218813   3.124   2.272   5.672  0.9433 -0.5016  0.7996
 2451SOL     OW18814   0.932   3.911   3.691 -0.2292 -0.2554 -0.0050
 2451SOL    HW118815   0.874   3.892   3.617 -0.6890  1.0399  0.0300
 2451SOL    HW218816   1.015   3.920   3.645 -0.7988  1.1724 -0.7444
 2452SOL     OW18817   4.457   2.642   4.459 -0.6730  0.3169  0.1375
 2452SOL    HW118818   4.467   2.622   4.366 -0.7158 -1.7684  0.5690
 2452SOL    HW218819   4.384   2.702   4.450 -3.0174 -2.6571 -0.7130
 2453SOL     OW18820   3.654   3.179   7.427  0.3666  0.3585  0.1579
 2453SOL    HW118821   3.743   3.151   7.405  0.3237  2.1258 -2.2499
 2453SOL    HW218822   3.596   3.111   7.393 -0.5158  0.5328  1.2852
 2454SOL     OW18823   3.739   0.342   3.573  0.0052  0.0449  0.4440
 2454SOL    HW118824   3.800   0.268   3.572 -1.5672 -1.2322 -1.4605
 2454SOL    HW218825   3.700   0.332   3.660 -0.1911  0.0869  0.3592
 2455SOL     OW18826   2.317   1.966   4.331 -0.3445 -0.1515  0.0752
 2455SOL    HW118827   2.374   1.905   4.378 -1.4579 -2.3278 -1.3922
 2455SOL    HW218828   2.374   1.980   4.256 -0.7953 -0.4868 -0.3374
 2456SOL     OW18829   1.102   2.980  12.746  0.0841 -0.5981  0.2554
 2456SOL    HW118830   1.053   2.996  12.827 -0.1582  3.2590 -0.6660
 2456SOL    HW218831   1.098   3.069  12.712 -2.5826 -1.5793 -1.9808
 2457SOL     OW18832   2.025   0.713   7.901 -0.4401 -0.1920  0.7125
 2457SOL    HW118833   2.049   0.804   7.888  0.9491 -0.4769  1.3451
 2457SOL    HW218834   1.943   0.706   7.850 -1.1422  0.1459  1.8109
 2458SOL     OW18835   1.106   0.322   5.378 -0.3253 -0.1738  0.2478
 2458SOL    HW118836   1.028   0.363   5.342  0.3003 -0.4372 -1.3789
 2458SOL    HW218837   1.174   0.388   5.389  0.3953 -0.9627  0.5908
 2459SOL     OW18838   3.062   3.056  14.830 -0.1020  0.7184  0.0028
 2459SOL    HW118839   3.092   3.136  14.786  0.0443  0.2477 -0.7529
 2459SOL    HW218840   2.988   3.028  14.775  1.1423 -1.9762 -0.2632
 2460SOL     OW18841   1.232   2.660   4.253  0.1399 -0.5646  0.4513
 2460SOL    HW118842   1.180   2.592   4.209 -2.1746  0.1843  2.0404
 2460SOL    HW218843   1.162   2.718   4.283 -0.3424 -1.5171  1.1847
 2461SOL     OW18844   2.055   0.610  17.269  0.4209  0.1583  0.2904
 2461SOL    HW118845   1.992   0.592  17.339  2.6069  0.2100  2.2558
 2461SOL    HW218846   2.104   0.682  17.310  3.9680 -2.1109  0.0152
 2462SOL     OW18847   2.983   4.090   9.681 -0.4769  0.8083 -0.2331
 2462SOL    HW118848   2.940   4.013   9.717 -2.6106  2.3627  0.5450
 2462SOL    HW218849   2.995   4.068   9.589 -1.7648  0.0218 -0.1987
 2463SOL     OW18850   2.462   1.492  12.158  0.4627  0.2189 -0.0026
 2463SOL    HW118851   2.393   1.557  12.176 -0.0424  0.0806 -1.3863
 2463SOL    HW218852   2.430   1.457  12.075 -0.0543  1.2689 -0.2559
 2464SOL     OW18853   0.813   2.286   8.595  0.1086 -0.0129 -0.8088
 2464SOL    HW118854   0.759   2.256   8.668  1.1268 -0.6397 -0.3117
 2464SOL    HW218855   0.862   2.356   8.637 -0.9801  0.4069 -0.2368
 2465SOL     OW18856   1.172   2.784   8.268  0.7439 -0.0353 -0.0869
 2465SOL    HW118857   1.253   2.767   8.221  1.8583  3.6944  0.5500
 2465SOL    HW218858   1.199   2.754   8.355  0.6230 -0.3725 -0.1624
 2466SOL     OW18859   4.361   2.444   5.885 -0.6466 -1.0496 -0.5965
 2466SOL    HW118860   4.275   2.483   5.876 -0.7393 -1.7993 -2.8078
 2466SOL    HW218861   4.401   2.463   5.801  1.9901 -1.0885  0.6542
 2467SOL     OW18862   0.970   2.862  14.644 -0.4130  0.3037 -0.3196
 2467SOL    HW118863   1.055   2.897  14.620  0.8656 -1.0344  2.3638
 2467SOL    HW218864   0.922   2.932  14.688  0.6699  1.5797 -1.1559
 2468SOL     OW18865   3.440   4.517  15.324 -0.1189 -0.8103 -0.4312
 2468SOL    HW118866   3.353   4.536  15.288  0.4597  1.7949 -0.4316
 2468SOL    HW218867   3.409   4.442  15.375  2.0835 -0.8846  0.7699
 2469SOL     OW18868   3.639   1.878  17.578  0.1690 -0.0708 -0.0137
 2469SOL    HW118869   3.554   1.862  17.536  0.5575  0.8159 -1.1461
 2469SOL    HW218870   3.700   1.837  17.517 -0.5819 -1.1054 -0.0740
 2470SOL     OW18871   2.960   1.975   7.723  0.0369  0.0843 -0.3390
 2470SOL    HW118872   3.025   1.943   7.785 -0.5794  1.5446  1.0798
 2470SOL    HW218873   3.014   1.966   7.644  2.1010 -1.6112  1.3068
 2471SOL     OW18874   3.698   0.049   4.338  0.1046 -0.0266  0.3392
 2471SOL    HW118875   3.722   0.058   4.430  0.4055 -1.2896  0.3862
 2471SOL    HW218876   3.776   0.058   4.283 -1.3678  0.9836 -1.6050
 2472SOL     OW18877   1.073   2.341  15.759 -0.2132 -0.2823  1.0093
 2472SOL    HW118878   1.141   2.386  15.810 -0.5165  0.6430  0.5941
 2472SOL    HW218879   1.126   2.269  15.726  0.3707  0.5359  0.1784
 2473SOL     OW18880   2.092   4.193   2.031  0.0128 -0.0609 -0.3722
 2473SOL    HW118881   2.052   4.154   1.953 -0.3039 -0.5637  0.0439
 2473SOL    HW218882   2.177   4.229   2.009  0.5781 -1.4673 -0.4872
 2474SOL     OW18883   1.376   0.684   4.458 -0.1825  0.1977  0.0637
 2474SOL    HW118884   1.359   0.766   4.505  1.1158  0.3100  0.3287
 2474SOL    HW218885   1.393   0.620   4.526  2.4627  1.6906  0.8086
 2475SOL     OW18886   1.680   0.142   2.843  0.1121  0.7248  0.4144
 2475SOL    HW118887   1.605   0.192   2.809  0.0111 -0.9361 -1.8036
 2475SOL    HW218888   1.663   0.064   2.790 -1.5878  0.4145  1.4321
 2476SOL     OW18889   2.188   4.154   2.775 -0.1065  0.1519  0.5640
 2476SOL    HW118890   2.111   4.097   2.767  0.0705 -0.0047 -0.0714
 2476SOL    HW218891   2.225   4.136   2.688 -2.0253 -1.1343  0.0171
 2477SOL     OW18892   0.306   0.783   6.330 -0.3350 -0.0475 -0.3442
 2477SOL    HW118893   0.311   0.864   6.379 -1.2646  0.7632 -1.5747
 2477SOL    HW218894   0.326   0.802   6.238 -0.4629 -0.6532 -0.4987
 2478SOL     OW18895   4.409   3.514  13.532 -0.2000 -0.2970 -0.3442
 2478SOL    HW118896   4.410   3.436  13.476  1.0138 -1.4218  1.2614
 2478SOL    HW218897   4.499   3.515  13.563  0.1940  2.0660 -1.5770
 2479SOL     OW18898   2.322   2.021   7.475  0.2937  0.7472 -0.9691
 2479SOL    HW118899   2.337   2.112   7.500  0.9584  0.0930  0.9887
 2479SOL    HW218900   2.264   2.031   7.399  0.0072  1.3428 -0.6721
 2480SOL     OW18901   1.010   4.079  15.559 -0.5568  0.1630 -0.3135
 2480SOL    HW118902   1.101   4.084  15.532 -0.2405 -1.3035  0.5359
 2480SOL    HW218903   0.981   4.002  15.510 -2.6000 -0.0626  1.2468
 2481SOL     OW18904   4.156   3.177   8.854  0.2799 -0.6177 -0.5209
 2481SOL    HW118905   4.093   3.231   8.807 -0.2205 -0.2355  0.5774
 2481SOL    HW218906   4.180   3.111   8.789 -1.7861 -0.1563 -1.7442
 2482SOL     OW18907   3.937   1.149   0.197 -0.0831  0.3192 -0.4430
 2482SOL    HW118908   3.942   1.061   0.233  3.8317  1.5078  1.8836
 2482SOL    HW218909   3.866   1.189   0.247 -0.2243  0.7076 -0.9501
 2483SOL     OW18910   0.561   3.714  10.262 -0.0022 -0.3597  0.3797
 2483SOL    HW118911   0.635   3.753  10.214 -0.0878 -1.4146 -0.6224
 2483SOL    HW218912   0.571   3.626  10.226  0.5063  0.7489 -2.2410
 2484SOL     OW18913   2.736   4.656  14.044 -0.2333 -0.4791 -0.3141
 2484SOL    HW118914   2.722   4.582  14.103 -1.7072 -0.1516 -0.2454
 2484SOL    HW218915   2.813   4.697  14.082 -1.0116  0.1349  0.5947
 2485SOL     OW18916   1.108   3.176   6.757 -0.0016 -0.3811 -0.4603
 2485SOL    HW118917   1.119   3.271   6.753 -0.2018 -0.2500  2.1051
 2485SOL    HW218918   1.048   3.163   6.831  0.0171  2.0826 -0.0285
 2486SOL     OW18919   2.300   2.422  14.443  0.7569  0.2723 -0.7925
 2486SOL    HW118920   2.348   2.489  14.395 -0.6960  1.7557 -0.1609
 2486SOL    HW218921   2.338   2.341  14.407 -0.3410 -0.3164 -0.6461
 2487SOL     OW18922   2.975   0.546   3.883  0.4726 -0.0238  0.2692
 2487SOL    HW118923   2.922   0.510   3.813 -0.2532  3.3236 -0.9100
 2487SOL    HW218924   3.019   0.471   3.923 -3.4866 -3.5244 -1.9867
 2488SOL     OW18925   3.443   1.118   8.347 -0.1650 -0.4054 -0.1727
 2488SOL    HW118926   3.486   1.052   8.293  0.2433  0.3287 -0.7432
 2488SOL    HW218927   3.470   1.082   8.432  2.0063  0.8160 -0.3471
 2489SOL     OW18928   2.071   4.351   3.626  0.0872 -0.6643  0.3726
 2489SOL    HW118929   2.107   4.268   3.657 -1.6985 -1.3786  0.5551
 2489SOL    HW218930   2.141   4.410   3.655 -0.4801  0.9787 -1.6737
 2490SOL     OW18931   2.796   1.734   4.423  0.1370 -0.7414 -0.3995
 2490SOL    HW118932   2.823   1.685   4.346 -1.3297 -3.2422  0.6940
 2490SOL    HW218933   2.864   1.802   4.416 -1.7855  1.2025 -0.4056
 2491SOL     OW18934   0.532   0.865   8.506  0.7061  0.1328 -0.1055
 2491SOL    HW118935   0.440   0.856   8.528  0.8862  1.6993  1.2376
 2491SOL    HW218936   0.543   0.840   8.414 -0.3494  0.4407 -0.3130
 2492SOL     OW18937   3.058   1.414  11.896 -0.2590 -0.4095  0.1756
 2492SOL    HW118938   3.150   1.393  11.877  0.1027  1.2153  0.1525
 2492SOL    HW218939   3.080   1.481  11.961  0.2300  2.5401 -3.0001
 2493SOL     OW18940   1.870   4.359  12.659  0.2592 -0.2943  0.7494
 2493SOL    HW118941   1.816   4.334  12.584  0.3164  1.7895  0.0145
 2493SOL    HW218942   1.868   4.274  12.703 -0.1849 -1.8432 -2.2711
 2494SOL     OW18943   1.087   2.465   4.149  1.0868  0.5750  0.4041
 2494SOL    HW118944   0.999   2.428   4.141  1.4305 -0.3463  0.9588
 2494SOL    HW218945   1.103   2.473   4.054  1.7375 -0.5935  0.4192
 2495SOL     OW18946   1.577   4.354   6.957  0.3112 -0.8371 -0.0019
 2495SOL    HW118947   1.577   4.399   7.041  1.7494 -1.5144  0.3591
 2495SOL    HW218948   1.617   4.271   6.984  0.6434  0.1916  2.5996
 2496SOL     OW18949   2.278   1.346   7.197 -0.2567 -0.1474 -0.1080
 2496SOL    HW118950   2.182   1.351   7.205 -0.0371  1.8793  1.2549
 2496SOL    HW218951   2.303   1.374   7.285  0.2763  0.4867 -0.4665
 2497SOL     OW18952   0.820   1.310   6.456  0.1713  0.3944  0.6000
 2497SOL    HW118953   0.771   1.283   6.534  0.2395 -0.1338  0.4638
 2497SOL    HW218954   0.897   1.254   6.468  0.5911  1.0362  0.9350
 2498SOL     OW18955   1.938   2.190   9.747 -1.0684  0.2061  0.8358
 2498SOL    HW118956   1.958   2.115   9.691 -0.2569  0.3634  0.9045
 2498SOL    HW218957   1.964   2.259   9.685 -1.2418 -0.4157  0.0712
 2499SOL     OW18958   4.709   4.064   4.386 -0.5308 -0.0563  0.2396
 2499SOL    HW118959   0.029   4.021   4.459 -1.2939 -0.1837  0.6343
 2499SOL    HW218960   4.717   4.153   4.420 -0.8283 -0.1011  0.4235
 2500SOL     OW18961   3.670   4.688  12.327 -0.2571 -0.3992  0.4882
 2500SOL    HW118962   3.629   4.622  12.271 -1.1225  3.6455 -3.5575
 2500SOL    HW218963   3.731   0.006  12.268 -0.1384  0.7025  1.4174
 2501SOL     OW18964   4.052   2.800  13.538  0.3475  0.6037 -0.0375
 2501SOL    HW118965   4.113   2.831  13.605  1.1987  3.4933 -2.1963
 2501SOL    HW218966   3.980   2.758  13.585  2.2382 -2.8518 -0.2193
 2502SOL     OW18967   0.940   1.699   6.732  0.3775  0.2735 -0.0779
 2502SOL    HW118968   0.878   1.772   6.740  0.5011  0.3065  0.5802
 2502SOL    HW218969   0.963   1.710   6.639  0.2334 -0.3535 -0.1903
 2503SOL     OW18970   3.747   3.475   4.670 -0.3598 -0.2298  0.2535
 2503SOL    HW118971   3.738   3.415   4.596  3.4214  0.0827 -0.4538
 2503SOL    HW218972   3.770   3.560   4.635  0.8462 -1.3819 -1.7326
 2504SOL     OW18973   0.787   2.867   7.759  0.3428 -0.0087  0.3595
 2504SOL    HW118974   0.750   2.954   7.746 -1.1709 -0.6049  0.6587
 2504SOL    HW218975   0.807   2.875   7.853 -2.5833 -0.6675  1.0234
 2505SOL     OW18976   1.600   2.064  10.886  0.2353 -0.4664  0.3257
 2505SOL    HW118977   1.630   2.079  10.976 -0.6391  2.4498  0.1135
 2505SOL    HW218978   1.620   2.148  10.845  0.4678 -0.2709  0.8379
 2506SOL     OW18979   2.733   0.654   5.462 -0.4705 -0.2573 -0.2342
 2506SOL    HW118980   2.825   0.677   5.474 -0.2673 -1.9786  1.3483
 2506SOL    HW218981   2.730   0.613   5.375 -0.6699  2.2903 -1.4566
 2507SOL     OW18982   4.243   1.505   4.056 -0.7480  0.2485 -0.1592
 2507SOL    HW118983   4.250   1.410   4.060 -1.0508  0.2627  0.6748
 2507SOL    HW218984   4.149   1.520   4.042 -0.7747  0.4771  0.2853
 2508SOL     OW18985   0.176   1.914   4.636  0.2018 -0.0191 -0.3809
 2508SOL    HW118986   0.189   1.936   4.543  2.2461 -3.4497 -0.9023
 2508SOL    HW218987   0.176   2.005   4.667 -1.4790  0.3332 -1.4312
 2509SOL     OW18988   2.439   1.645   0.689 -0.2968  0.0613 -0.7499
 2509SOL    HW118989   2.425   1.618   0.598  1.2737 -0.5105 -0.8155
 2509SOL    HW218990   2.374   1.715   0.699 -0.3570  0.1333 -1.6476
 2510SOL     OW18991   3.490   1.175   6.006  0.1290 -0.2515 -0.0785
 2510SOL    HW118992   3.550   1.104   5.983  3.4009  2.5854 -0.2232
 2510SOL    HW218993   3.509   1.230   5.930 -0.8690 -0.1440 -0.2528
 2511SOL     OW18994   4.411   0.878  12.576 -0.4766  0.5886 -0.1291
 2511SOL    HW118995   4.358   0.909  12.502 -1.1651 -0.5600 -0.1095
 2511SOL    HW218996   4.487   0.845  12.528  0.1555 -2.6920  3.1673
 2512SOL     OW18997   0.220   4.697   6.178 -0.4590 -0.3248 -0.1753
 2512SOL    HW118998   0.301   0.000   6.136 -0.1548 -1.3454 -0.2641
 2512SOL    HW218999   0.175   4.642   6.114 -0.3618  0.5852 -1.0203
 2513SOL     OW19000   0.157   3.080   3.739 -0.8611 -0.0987 -0.2588
 2513SOL    HW119001   0.250   3.063   3.753 -0.4098  1.4542 -1.4319
 2513SOL    HW219002   0.156   3.168   3.775  0.7013 -0.4043  0.5402
 2514SOL     OW19003   4.416   3.598  12.926 -0.4740 -0.3668 -0.0485
 2514SOL    HW119004   4.339   3.568  12.975 -2.4292  1.7564 -1.8279
 2514SOL    HW219005   4.373   3.673  12.886  2.1244  1.1662 -0.0018
 2515SOL     OW19006   3.630   0.785   6.232  0.0685 -0.0903  0.3902
 2515SOL    HW119007   3.540   0.754   6.224 -0.4244  0.8500  2.2939
 2515SOL    HW219008   3.653   0.741   6.314  0.2599  0.2051  0.4963
 2516SOL     OW19009   2.009   2.847   3.795  0.3793 -0.2980 -0.5394
 2516SOL    HW119010   1.966   2.793   3.729  0.2035  2.2927 -2.5649
 2516SOL    HW219011   2.007   2.785   3.868  0.4982  0.7196  0.3386
 2517SOL     OW19012   4.391   3.779   7.601 -0.4322 -0.2773  0.0500
 2517SOL    HW119013   4.427   3.826   7.676  0.0468  1.7252 -1.4290
 2517SOL    HW219014   4.357   3.858   7.558  2.7855  1.3712  0.5160
 2518SOL     OW19015   2.058   3.366   4.341  0.2353  0.1654 -0.4047
 2518SOL    HW119016   2.103   3.355   4.257 -1.7221 -0.9857 -1.2853
 2518SOL    HW219017   2.059   3.276   4.371  0.4547  0.2489 -0.1591
 2519SOL     OW19018   0.122   1.176   6.840 -0.2341  0.7743 -0.1633
 2519SOL    HW119019   0.027   1.160   6.843 -0.1323  0.3037  0.5094
 2519SOL    HW219020   0.149   1.101   6.893  1.0603  1.1906 -0.2371
 2520SOL     OW19021   3.138   2.891  17.159 -0.1543 -0.7867 -0.2475
 2520SOL    HW119022   3.054   2.866  17.199 -1.3685 -1.1268 -2.9722
 2520SOL    HW219023   3.118   2.894  17.065 -0.7920  4.4596  0.0068
 2521SOL     OW19024   0.346   0.326   1.415  0.2539  0.1532 -0.4312
 2521SOL    HW119025   0.253   0.347   1.419  0.4175  0.5830  0.9827
 2521SOL    HW219026   0.387   0.412   1.409 -2.1735  1.3348 -0.1805
 2522SOL     OW19027   0.305   0.404  15.671  0.1583  0.1946  0.3367
 2522SOL    HW119028   0.313   0.464  15.745 -1.9746 -0.2335  0.9115
 2522SOL    HW219029   0.267   0.327  15.714  1.2257 -0.5956 -0.1174
 2523SOL     OW19030   0.975   1.023   3.696 -0.0172 -0.4358 -0.1719
 2523SOL    HW119031   1.022   0.943   3.718  1.3797  0.7338  1.0148
 2523SOL    HW219032   0.974   1.079   3.773 -1.8708  0.9815 -1.2020
 2524SOL     OW19033   4.588   2.826   3.289 -0.0856 -0.2594  0.6903
 2524SOL    HW119034   4.616   2.807   3.379  0.3455  1.7503  0.9772
 2524SOL    HW219035   4.494   2.812   3.301 -0.3301 -0.1794 -1.1857
 2525SOL     OW19036   1.143   3.369   4.842  0.0607  0.4176 -0.0039
 2525SOL    HW119037   1.170   3.429   4.772  2.2014  1.3556  1.5936
 2525SOL    HW219038   1.063   3.335   4.804  0.4980 -1.0819  0.4306
 2526SOL     OW19039   1.576   1.860   6.523  0.1226 -0.3926  0.3936
 2526SOL    HW119040   1.597   1.941   6.476  0.0364 -0.3700  0.3932
 2526SOL    HW219041   1.643   1.806   6.481 -0.4246 -1.5385  0.9849
 2527SOL     OW19042   1.089   3.567   2.524 -0.2646  0.2051  0.2274
 2527SOL    HW119043   1.006   3.613   2.525 -0.3215  0.0982  0.6813
 2527SOL    HW219044   1.128   3.603   2.604 -0.4395 -0.1617  0.4807
 2528SOL     OW19045   3.766   0.926   5.072 -0.0193  0.0338 -0.0058
 2528SOL    HW119046   3.699   0.969   5.124  1.0276  1.2883  0.3339
 2528SOL    HW219047   3.712   0.899   4.998  0.9699 -0.4650 -0.5437
 2529SOL     OW19048   2.012   2.256   4.056 -0.7007 -0.5039 -0.6198
 2529SOL    HW119049   2.074   2.326   4.037 -1.4292 -0.1077 -1.5000
 2529SOL    HW219050   2.045   2.214   4.136  0.1554  0.9231 -0.2179
 2530SOL     OW19051   1.871   3.699   0.754 -0.0691 -0.0975  1.1459
 2530SOL    HW119052   1.854   3.730   0.843 -2.1505  0.4348  0.5454
 2530SOL    HW219053   1.866   3.605   0.770  1.0648 -0.3521 -0.0315
 2531SOL     OW19054   4.225   4.500   9.381 -1.1592 -0.0701 -0.3606
 2531SOL    HW119055   4.245   4.408   9.360  1.3958  0.7163 -1.4139
 2531SOL    HW219056   4.281   4.520   9.456 -1.8578 -0.5361  0.2829
 2532SOL     OW19057   2.477   3.702   7.932  0.0597  0.1849 -0.5593
 2532SOL    HW119058   2.482   3.786   7.978  2.5770  0.3318 -1.1080
 2532SOL    HW219059   2.390   3.708   7.892  0.8095  0.5644 -2.1291
 2533SOL     OW19060   2.213   4.014  13.324  0.1319 -0.4318 -0.2033
 2533SOL    HW119061   2.135   4.065  13.306  0.1065  1.1406  4.3084
 2533SOL    HW219062   2.286   4.051  13.274 -0.3473 -0.9312 -1.2688
 2534SOL     OW19063   2.337   1.962   3.482  0.4328 -0.3086 -0.4005
 2534SOL    HW119064   2.253   1.985   3.522  0.7273  2.0562 -1.1442
 2534SOL    HW219065   2.374   1.933   3.565 -0.3948 -2.7189 -0.8563
 2535SOL     OW19066   3.210   3.795   4.512 -0.0826  0.6476  0.3504
 2535SOL    HW119067   3.140   3.773   4.450  1.4371  0.6131 -1.3659
 2535SOL    HW219068   3.238   3.881   4.480 -1.3463  1.6376  1.9081
 2536SOL     OW19069   1.715   2.321   5.803  0.4407 -0.3138  0.5463
 2536SOL    HW119070   1.741   2.306   5.712  0.7890  2.0578  0.2564
 2536SOL    HW219071   1.750   2.410   5.809 -1.7022  0.5090  0.7179
 2537SOL     OW19072   0.036   0.533   8.682  0.6999 -0.3136 -0.2299
 2537SOL    HW119073   0.041   0.531   8.587 -0.9103 -1.3007 -0.2797
 2537SOL    HW219074   0.034   0.438   8.691 -0.4037 -0.3101 -0.4759
 2538SOL     OW19075   2.559   3.364   6.607 -0.0638 -0.1215 -0.3187
 2538SOL    HW119076   2.520   3.416   6.536 -1.0097  0.8545  0.9190
 2538SOL    HW219077   2.489   3.347   6.669  0.2648  1.4614  0.5006
 2539SOL     OW19078   2.210   1.487   1.939 -0.2234  0.0626 -0.0618
 2539SOL    HW119079   2.146   1.434   1.892 -1.4969  1.0477  0.5621
 2539SOL    HW219080   2.286   1.429   1.931 -1.1870 -1.4282  1.5822
 2540SOL     OW19081   0.604   2.932  11.263 -0.0793 -0.4636  0.3090
 2540SOL    HW119082   0.597   2.902  11.172  1.2830 -0.1187  0.0941
 2540SOL    HW219083   0.646   3.016  11.243  0.2750 -1.4232 -3.0122
 2541SOL     OW19084   1.678   1.954   1.782 -0.0395  0.0779 -0.0584
 2541SOL    HW119085   1.751   1.907   1.741 -1.2400 -0.7553 -1.2687
 2541SOL    HW219086   1.674   1.904   1.863 -2.7059  1.1863  0.4889
 2542SOL     OW19087   2.518   3.293   7.812  0.0130  0.3394  0.4739
 2542SOL    HW119088   2.587   3.283   7.877 -0.5004  0.7071  1.0810
 2542SOL    HW219089   2.455   3.340   7.867 -1.6035 -0.5892 -0.5625
 2543SOL     OW19090   1.863   1.284   8.316  0.9171 -0.1497 -0.0878
 2543SOL    HW119091   1.855   1.376   8.341  1.1363  0.4673 -2.2744
 2543SOL    HW219092   1.796   1.242   8.370 -0.7771  0.1271 -1.9556
 2544SOL     OW19093   4.583   0.641   4.792  0.0183  0.7126 -0.1343
 2544SOL    HW119094   4.544   0.555   4.805  0.1274  0.6111 -0.4572
 2544SOL    HW219095   4.626   0.626   4.707 -0.2327 -0.3389 -0.0759
 2545SOL     OW19096   2.754   1.355   7.681 -0.4106  0.1525  1.3849
 2545SOL    HW119097   2.742   1.414   7.607  0.1121  0.2844  1.4037
 2545SOL    HW219098   2.704   1.280   7.650 -1.0500  0.5033  1.5814
 2546SOL     OW19099   0.413   2.938   6.425 -0.4997  0.7339 -0.0428
 2546SOL    HW119100   0.379   3.011   6.477 -0.0932 -0.0065  1.2786
 2546SOL    HW219101   0.350   2.870   6.449  0.5091 -0.5335 -1.0147
 2547SOL     OW19102   0.834   1.152   7.828 -0.0023 -0.0603  0.2894
 2547SOL    HW119103   0.832   1.082   7.894 -0.3806 -1.5200 -1.2657
 2547SOL    HW219104   0.925   1.179   7.832 -0.0161 -0.1198  1.0926
 2548SOL     OW19105   4.345   4.471   8.402  0.2516 -0.0221  0.2963
 2548SOL    HW119106   4.398   4.532   8.351 -0.1014  1.3618  1.6160
 2548SOL    HW219107   4.285   4.529   8.448  1.2187 -0.1726  1.7622
 2549SOL     OW19108   0.006   1.892   2.671 -0.2288 -0.0455  0.6829
 2549SOL    HW119109   0.101   1.877   2.678 -0.4275 -1.2462  0.9425
 2549SOL    HW219110   4.695   1.811   2.708 -1.2528 -0.4451 -1.2436
 2550SOL     OW19111   3.750   3.000   3.347 -0.4181 -0.0286  0.6568
 2550SOL    HW119112   3.777   2.912   3.374 -0.0614  0.8424  3.1667
 2550SOL    HW219113   3.729   2.983   3.256 -2.5320 -0.7007  1.2721
 2551SOL     OW19114   1.656   3.034   1.932 -0.7425  0.8919  0.3098
 2551SOL    HW119115   1.700   2.993   2.006  0.0677 -2.1787 -1.8924
 2551SOL    HW219116   1.670   2.967   1.865  0.8746  1.3738  0.1559
 2552SOL     OW19117   3.734   1.019  16.894 -0.0523  0.4205  0.1178
 2552SOL    HW119118   3.781   0.972  16.826 -0.4016 -0.5583  0.5576
 2552SOL    HW219119   3.803   1.070  16.937 -0.9170  0.0618  1.9311
 2553SOL     OW19120   3.515   0.525   2.321  0.0771 -0.4098 -0.0536
 2553SOL    HW119121   3.520   0.580   2.243 -1.5024 -1.0118 -0.5878
 2553SOL    HW219122   3.452   0.457   2.296  0.7455 -0.9330 -0.2995
 2554SOL     OW19123   0.454   0.673  11.855 -0.0055 -0.3660  0.2456
 2554SOL    HW119124   0.388   0.703  11.917 -0.6587 -0.2830 -0.4837
 2554SOL    HW219125   0.401   0.641  11.782  0.5612 -0.3875 -0.1542
 2555SOL     OW19126   0.252   4.525  15.063 -0.5086  0.6016  1.2097
 2555SOL    HW119127   0.175   4.581  15.067 -1.3327 -0.4560  0.1936
 2555SOL    HW219128   0.320   4.593  15.058 -0.7349  0.7068 -0.7326
 2556SOL     OW19129   1.548   1.892   4.059  0.2794 -0.1835  0.0471
 2556SOL    HW119130   1.562   1.896   4.154  0.0542  0.0528  0.0695
 2556SOL    HW219131   1.600   1.815   4.036  1.6111  0.5282  0.6329
 2557SOL     OW19132   2.517   2.006   2.043  0.3611  0.3102 -0.4704
 2557SOL    HW119133   2.481   2.062   2.111 -1.8512  0.7703 -2.0253
 2557SOL    HW219134   2.494   2.056   1.965  2.3415  2.7050  0.4839
 2558SOL     OW19135   1.367   1.417   0.748  0.3077 -0.4537  1.4387
 2558SOL    HW119136   1.412   1.486   0.796  1.3070 -0.6940  0.8437
 2558SOL    HW219137   1.294   1.462   0.705  1.0048  0.4653  1.2165
 2559SOL     OW19138   0.707   3.631   0.399  0.1667 -0.1391 -0.0931
 2559SOL    HW119139   0.648   3.682   0.344 -0.4485  0.7000  1.3577
 2559SOL    HW219140   0.783   3.688   0.408 -1.3831  2.1268 -1.4756
 2560SOL     OW19141   4.170   0.198   6.872 -0.3256 -0.2824  0.7585
 2560SOL    HW119142   4.087   0.238   6.897 -0.6520 -1.1269  1.0478
 2560SOL    HW219143   4.137   0.126   6.818  1.0933 -1.1302  1.0127
 2561SOL     OW19144   2.906   2.355   3.153  0.4637 -0.0796 -0.0652
 2561SOL    HW119145   2.981   2.399   3.113  1.4787 -3.7148 -2.1951
 2561SOL    HW219146   2.955   2.306   3.219 -0.1853 -2.7124 -1.5675
 2562SOL     OW19147   3.433   1.152   1.935 -0.2011  0.1140 -0.0386
 2562SOL    HW119148   3.404   1.067   1.968 -0.4677  0.7607  1.4022
 2562SOL    HW219149   3.435   1.131   1.842 -0.8406 -0.2868  0.0438
 2563SOL     OW19150   0.458   0.313  10.248  0.6409  1.0242 -0.1158
 2563SOL    HW119151   0.541   0.305  10.203  0.3875 -0.4735 -0.3349
 2563SOL    HW219152   0.468   0.235  10.303  0.7068 -1.1208 -3.1822
 2564SOL     OW19153   0.187   0.513  13.602  0.1330  0.2590 -0.2167
 2564SOL    HW119154   0.182   0.447  13.534 -0.7994  0.8278 -0.7033
 2564SOL    HW219155   0.223   0.461  13.674 -0.0533 -0.9962 -1.0386
 2565SOL     OW19156   2.467   1.374   4.723  0.7877 -0.8296 -0.0963
 2565SOL    HW119157   2.495   1.389   4.633  1.6720 -0.4976  0.2319
 2565SOL    HW219158   2.376   1.347   4.711  0.6889 -1.0327  1.0331
 2566SOL     OW19159   1.324   1.545   0.054  0.2314  0.1628  0.3055
 2566SOL    HW119160   1.409   1.581   0.080 -0.4635  2.2597 -0.3427
 2566SOL    HW219161   1.265   1.579   0.121 -0.8401  0.3063 -0.7222
 2567SOL     OW19162   0.382   4.341  11.465 -0.2615  0.2508  0.0468
 2567SOL    HW119163   0.322   4.268  11.456  1.0015 -0.3529 -3.3168
 2567SOL    HW219164   0.458   4.295  11.429  0.4904  0.9937  0.6675
 2568SOL     OW19165   4.354   1.336  17.398 -0.2330 -0.0254 -0.0805
 2568SOL    HW119166   4.422   1.391  17.438  1.8212 -0.9366 -2.3183
 2568SOL    HW219167   4.308   1.400  17.343  1.1416  0.8954 -0.1533
 2569SOL     OW19168   0.950   1.823   2.801 -0.2375  0.8323  0.5839
 2569SOL    HW119169   0.961   1.917   2.814 -1.8318  0.9393  1.0934
 2569SOL    HW219170   1.012   1.807   2.729  0.9461 -0.6809  1.9408
 2570SOL     OW19171   3.862   2.206   2.921 -0.7095  0.7335  0.0413
 2570SOL    HW119172   3.867   2.111   2.932  1.4425  0.5658 -2.3023
 2570SOL    HW219173   3.870   2.211   2.826 -0.0270 -0.1074  0.0501
 2571SOL     OW19174   0.928   2.582   4.352 -0.3338  0.4829  0.0384
 2571SOL    HW119175   0.977   2.550   4.276 -0.5503 -0.0636  0.1272
 2571SOL    HW219176   0.912   2.496   4.391  0.8146  0.6366  0.8300
 2572SOL     OW19177   4.313   3.301  10.934 -0.6067 -0.2910  0.2357
 2572SOL    HW119178   4.349   3.372  10.882 -1.5551 -0.9804 -1.3632
 2572SOL    HW219179   4.260   3.353  10.994 -0.1096  0.9833 -0.4348
 2573SOL     OW19180   1.720   4.477  17.676 -0.2353 -0.3763  0.4725
 2573SOL    HW119181   1.657   4.436  17.616  2.9077  0.1917 -3.2613
 2573SOL    HW219182   1.661   4.477   0.049 -0.5813  2.0984  0.2202
 2574SOL     OW19183   3.885   2.127   5.153 -0.2477  0.4517 -0.3751
 2574SOL    HW119184   3.829   2.086   5.219 -0.2560  0.0311 -0.6471
 2574SOL    HW219185   3.958   2.066   5.143 -0.0852  1.2253 -3.9065
 2575SOL     OW19186   2.427   1.286   5.789  0.4406 -0.0956 -0.4187
 2575SOL    HW119187   2.439   1.380   5.779 -0.3146  0.3070  2.4342
 2575SOL    HW219188   2.412   1.276   5.883 -1.4989  0.5161 -0.6543
 2576SOL     OW19189   0.044   4.563  10.137  0.1503 -0.2675 -0.1176
 2576SOL    HW119190   4.690   4.552  10.190  2.0071 -1.5432  2.3201
 2576SOL    HW219191   0.111   4.515  10.184 -1.0967 -1.9227 -0.0064
 2577SOL     OW19192   1.634   1.051   3.258 -0.4422 -0.2581 -0.1976
 2577SOL    HW119193   1.668   0.962   3.248 -1.3333 -0.5042 -1.0429
 2577SOL    HW219194   1.596   1.065   3.171  1.8311  2.0287 -0.8152
 2578SOL     OW19195   1.692   0.729   6.637 -0.1988 -0.3419  0.0768
 2578SOL    HW119196   1.684   0.695   6.548  4.0233 -1.2127  0.0257
 2578SOL    HW219197   1.766   0.790   6.632 -1.2087  1.1792  3.3464
 2579SOL     OW19198   2.292   3.099   4.674  0.1179  0.4447 -0.3633
 2579SOL    HW119199   2.382   3.085   4.644  0.2326  0.4478 -0.0145
 2579SOL    HW219200   2.292   3.180   4.725 -0.0110 -0.0135  0.3659
 2580SOL     OW19201   3.113   3.007   3.989 -0.7817 -0.2369  0.3072
 2580SOL    HW119202   3.174   2.933   3.999 -0.5026  0.1595  1.4848
 2580SOL    HW219203   3.078   2.999   3.900  1.9405 -3.5717 -0.4824
 2581SOL     OW19204   3.620   1.061   9.189  0.2415  0.0300  0.5493
 2581SOL    HW119205   3.672   1.047   9.268  1.5354 -1.3925 -0.5253
 2581SOL    HW219206   3.684   1.034   9.122  1.9332  3.1280  0.9296
 2582SOL     OW19207   1.524   1.580   4.459 -0.0781 -0.1504  0.1766
 2582SOL    HW119208   1.485   1.633   4.528 -0.3410 -0.3699  0.1972
 2582SOL    HW219209   1.453   1.574   4.395  1.5228  0.7700 -1.6722
 2583SOL     OW19210   3.352   0.892   1.588 -0.0249  0.0381 -0.4111
 2583SOL    HW119211   3.323   0.821   1.645  1.7040 -1.6702 -1.6273
 2583SOL    HW219212   3.265   0.907   1.553  0.0079  2.7188  0.6621
 2584SOL     OW19213   2.555   2.116   3.440 -0.0914 -0.5022  0.2810
 2584SOL    HW119214   2.541   2.192   3.497 -2.4066  0.8449 -2.0408
 2584SOL    HW219215   2.470   2.071   3.443  0.6540 -1.8799  0.5920
 2585SOL     OW19216   4.708   2.537   0.584 -0.4500  0.1420  0.1443
 2585SOL    HW119217   4.709   2.461   0.642 -2.8574 -0.5473 -0.7273
 2585SOL    HW219218   4.662   2.503   0.508 -1.9200 -1.0347  1.5773
 2586SOL     OW19219   1.979   2.013   3.942  0.3833  0.3668  0.6207
 2586SOL    HW119220   1.898   2.023   3.892  0.5094  0.9611  0.5373
 2586SOL    HW219221   1.993   2.100   3.979  0.5373 -0.7626  3.1866
 2587SOL     OW19222   0.054   3.477   7.164  0.3489 -0.0348 -0.1523
 2587SOL    HW119223   0.014   3.562   7.181 -0.0053  0.0508 -1.3768
 2587SOL    HW219224   0.058   3.477   7.068 -3.6901 -1.2841 -0.2993
 2588SOL     OW19225   4.632   2.299   3.643  0.1774  0.4061 -0.3039
 2588SOL    HW119226   4.602   2.285   3.553 -2.2871  2.1152  0.2817
 2588SOL    HW219227   4.691   2.373   3.629  1.1024 -0.5591 -1.6087
 2589SOL     OW19228   3.925   3.302   5.304  0.1442 -0.8360  0.2251
 2589SOL    HW119229   3.848   3.308   5.247  1.0161  0.6694 -0.7931
 2589SOL    HW219230   3.963   3.215   5.287  0.1254 -1.0423  1.2279
 2590SOL     OW19231   3.037   1.248   4.990  0.0042 -0.3079 -0.4917
 2590SOL    HW119232   2.985   1.306   4.933 -0.1183  0.0454 -0.0226
 2590SOL    HW219233   3.063   1.321   5.046 -1.5544  0.1401 -0.3490
 2591SOL     OW19234   3.433   0.149   1.620 -0.3459 -0.4614  0.5538
 2591SOL    HW119235   3.524   0.179   1.626 -1.1155  2.2521 -1.2680
 2591SOL    HW219236   3.445   0.066   1.573  0.8941  0.4658 -0.7803
 2592SOL     OW19237   4.444   1.954   1.303  0.3405 -0.1544 -0.2111
 2592SOL    HW119238   4.429   1.879   1.361  1.3701 -0.6826 -0.6100
 2592SOL    HW219239   4.366   1.954   1.249 -0.0871  0.3958  0.4089
 2593SOL     OW19240   3.742   4.223  11.602 -0.0990 -0.4564 -0.2667
 2593SOL    HW119241   3.793   4.217  11.522  0.5089  0.4705  0.0393
 2593SOL    HW219242   3.792   4.165  11.660 -1.9066 -0.7774  0.9840
 2594SOL     OW19243   4.639   3.018  11.478  0.6223 -0.2130  0.2699
 2594SOL    HW119244   4.707   2.989  11.417  0.7393  0.0717  0.2668
 2594SOL    HW219245   4.589   3.083  11.430  0.5258 -0.7781 -0.3977
 2595SOL     OW19246   2.283   3.659   4.712  0.3547  0.3300  0.5913
 2595SOL    HW119247   2.330   3.742   4.698  0.0298  0.5045  0.5458
 2595SOL    HW219248   2.359   3.601   4.722  0.9174  0.9178 -0.2178
 2596SOL     OW19249   0.363   0.033   4.550  0.0370 -0.2089 -0.0484
 2596SOL    HW119250   0.277   0.007   4.519  0.2070  0.6739 -1.2504
 2596SOL    HW219251   0.360   4.709   4.632 -0.3621 -1.5081 -0.8435
 2597SOL     OW19252   1.223   4.197   4.343  0.0669 -0.7364 -0.8641
 2597SOL    HW119253   1.205   4.192   4.249 -0.0055 -1.3184 -0.8207
 2597SOL    HW219254   1.208   4.106   4.369  1.0680 -0.0045  2.2926
 2598SOL     OW19255   0.866   1.188   4.182  0.1114  0.7582 -0.4780
 2598SOL    HW119256   0.851   1.267   4.131  0.6164  0.7910 -0.5750
 2598SOL    HW219257   0.807   1.206   4.255 -1.0858 -1.6598 -0.8542
 2599SOL     OW19258   2.640   3.779   8.716  0.1788 -0.4700  0.2419
 2599SOL    HW119259   2.624   3.771   8.622 -0.2929  2.8763  0.0653
 2599SOL    HW219260   2.556   3.808   8.753  0.7670  0.3886  0.8773
 2600SOL     OW19261   2.811   2.318   9.231  0.1865  0.4392  0.0653
 2600SOL    HW119262   2.824   2.331   9.325 -0.5208  1.5483  0.0073
 2600SOL    HW219263   2.832   2.407   9.202  0.0326 -0.0517 -1.5410
 2601SOL     OW19264   4.666   4.198   8.530 -0.1505  0.1015  0.5319
 2601SOL    HW119265   4.594   4.137   8.547  0.4620  0.2548  3.7317
 2601SOL    HW219266   0.014   4.141   8.552 -0.6924 -1.7365 -2.3814
 2602SOL     OW19267   3.214   4.090   9.040  0.3736 -0.7156 -0.2537
 2602SOL    HW119268   3.274   4.019   9.061  1.0118 -0.0452  0.1765
 2602SOL    HW219269   3.258   4.122   8.962  0.5771 -0.9748 -0.2415
 2603SOL     OW19270   0.926   1.325   3.125  0.5507  0.6975 -0.1147
 2603SOL    HW119271   0.914   1.412   3.087 -0.2845 -0.0048 -1.4538
 2603SOL    HW219272   0.876   1.275   3.061 -1.1373 -0.4783  2.1075
 2604SOL     OW19273   1.772   3.649   3.169 -0.0862 -0.0293 -0.4057
 2604SOL    HW119274   1.719   3.728   3.174  0.1765  0.1288 -0.1171
 2604SOL    HW219275   1.788   3.641   3.075  0.7812 -1.9127 -0.1064
 2605SOL     OW19276   1.261   1.936   6.715  0.2919  0.5469 -0.1299
 2605SOL    HW119277   1.345   1.959   6.754  1.2234 -3.1487  0.1011
 2605SOL    HW219278   1.227   1.875   6.781  0.1385 -0.4770 -1.1459
 2606SOL     OW19279   3.247   1.378  12.179 -0.4812 -0.3479  0.4766
 2606SOL    HW119280   3.335   1.401  12.149 -0.8324 -1.6422 -1.5913
 2606SOL    HW219281   3.241   1.287  12.150 -0.7897 -0.7721  1.8529
 2607SOL     OW19282   2.959   3.509   7.469  0.1393 -0.2273 -0.1790
 2607SOL    HW119283   2.871   3.489   7.437  0.1234 -3.8892  2.2055
 2607SOL    HW219284   3.013   3.497   7.391 -2.6540  0.7938 -2.2573
 2608SOL     OW19285   2.934   0.079   4.626  0.2430  0.4349 -0.1015
 2608SOL    HW119286   2.938   0.159   4.572  1.1804  0.5454  0.1244
 2608SOL    HW219287   3.009   0.096   4.683 -0.1130 -0.9925  0.7696
 2609SOL     OW19288   3.924   1.063   2.611 -0.0993 -0.1986 -0.9497
 2609SOL    HW119289   3.964   1.077   2.525  0.4370 -2.7999 -1.1388
 2609SOL    HW219290   3.832   1.043   2.594 -0.2242 -1.2836  1.0270
 2610SOL     OW19291   1.875   3.765   8.188  0.6772  0.4558  0.1583
 2610SOL    HW119292   1.808   3.780   8.121 -0.0400 -0.8615  0.5859
 2610SOL    HW219293   1.870   3.670   8.193  3.4937  0.3676  1.0751
 2611SOL     OW19294   1.156   1.965  15.467 -0.1764  0.3416  0.1288
 2611SOL    HW119295   1.236   1.913  15.465 -1.8828 -2.1608 -3.2795
 2611SOL    HW219296   1.095   1.916  15.411  0.6678 -1.5811  0.8904
 2612SOL     OW19297   1.621   3.188   2.830  0.8297  0.5205  0.4984
 2612SOL    HW119298   1.558   3.260   2.832  0.2511  0.0125  0.1708
 2612SOL    HW219299   1.674   3.219   2.756  1.5258  1.7849  1.5024
 2613SOL     OW19300   1.950   3.183  17.303  0.4272 -0.1220  0.5905
 2613SOL    HW119301   1.899   3.110  17.268  1.2586 -0.1413 -0.6122
 2613SOL    HW219302   1.893   3.255  17.278  0.1984 -0.8160 -0.9175
 2614SOL     OW19303   0.580   3.199   0.033 -0.5798  0.3088 -0.9006
 2614SOL    HW119304   0.655   3.141   0.020 -0.5387 -0.3794  2.2285
 2614SOL    HW219305   0.598   3.229   0.122 -1.1556  1.1060 -1.0548
 2615SOL     OW19306   1.517   1.221   0.418  0.0764  0.8483 -0.1913
 2615SOL    HW119307   1.421   1.220   0.417  0.0674  1.3427  0.7179
 2615SOL    HW219308   1.520   1.211   0.513  0.5467 -0.5800 -0.3467
 2616SOL     OW19309   2.933   0.883   6.797 -0.1270  0.6903  0.2265
 2616SOL    HW119310   3.012   0.928   6.766 -0.2859  0.4687 -0.5021
 2616SOL    HW219311   2.960   0.852   6.883 -0.1171  2.2896  0.7948
 2617SOL     OW19312   2.909   2.136   6.767  0.7950  0.1754  0.1010
 2617SOL    HW119313   2.860   2.204   6.813 -1.0437 -0.9777 -0.1321
 2617SOL    HW219314   2.910   2.172   6.678 -0.8091  1.9774  0.8150
 2618SOL     OW19315   0.922   3.608   1.659 -0.3453  0.0961  0.5111
 2618SOL    HW119316   0.843   3.652   1.626  0.1021  0.5573  0.0641
 2618SOL    HW219317   0.910   3.585   1.751  1.6590 -1.4388  0.3786
 2619SOL     OW19318   2.458   0.574   7.386  0.3095  0.2126  0.0172
 2619SOL    HW119319   2.548   0.589   7.358 -0.5141  1.6864 -1.8160
 2619SOL    HW219320   2.478   0.513   7.457 -1.3188 -2.3584 -1.7456
 2620SOL     OW19321   3.757   2.327   1.812 -0.1741  0.3061  0.7018
 2620SOL    HW119322   3.712   2.399   1.857  0.7375  2.2331 -1.4758
 2620SOL    HW219323   3.726   2.255   1.867 -0.7986  1.7482  2.2468
 2621SOL     OW19324   3.276   0.728   2.252 -0.6443 -0.0797 -0.9568
 2621SOL    HW119325   3.369   0.708   2.255 -1.1015 -1.6527  2.3357
 2621SOL    HW219326   3.253   0.732   2.160  2.0843  2.5327 -1.5284
 2622SOL     OW19327   2.073   2.023   2.810  0.3938 -0.3761 -0.5027
 2622SOL    HW119328   2.084   1.966   2.734 -0.6688 -0.0609 -0.8942
 2622SOL    HW219329   2.157   2.068   2.820 -0.2146  0.5840  0.3704
 2623SOL     OW19330   2.047   0.205   6.638  0.3098  0.2248 -0.3880
 2623SOL    HW119331   2.085   0.285   6.601  0.6187 -0.8984 -2.5161
 2623SOL    HW219332   2.096   0.139   6.588  0.5663 -0.2236  0.4608
 2624SOL     OW19333   1.508   4.274   1.865  0.4466  0.4057 -0.1435
 2624SOL    HW119334   1.454   4.327   1.923  0.1579  0.6959 -0.6770
 2624SOL    HW219335   1.589   4.325   1.862 -0.7694  2.3569  0.3858
 2625SOL     OW19336   1.098   0.800   2.367  0.4218 -0.5121 -0.3236
 2625SOL    HW119337   1.067   0.805   2.458  1.4085 -1.3730  0.0678
 2625SOL    HW219338   1.042   0.736   2.324  1.4858 -0.6703 -1.4810
 2626SOL     OW19339   1.079   2.559   6.271  0.2483 -0.2951  0.7067
 2626SOL    HW119340   1.097   2.523   6.184  2.4133  2.0913  0.1675
 2626SOL    HW219341   0.998   2.607   6.255 -0.0000 -1.0231 -0.2279
 2627SOL     OW19342   3.144   3.627  13.811  0.3037 -0.8302  0.0386
 2627SOL    HW119343   3.161   3.542  13.769 -0.3780 -1.7944  1.7157
 2627SOL    HW219344   3.205   3.622  13.885  1.9618  0.5337 -1.2524
 2628SOL     OW19345   0.497   1.194   6.354 -0.2379  0.1728 -0.3947
 2628SOL    HW119346   0.464   1.118   6.402 -1.1346  2.4467  2.4980
 2628SOL    HW219347   0.466   1.271   6.401 -1.8277  0.5593 -2.0828
 2629SOL     OW19348   3.674   3.761  12.990 -0.1537 -0.4908 -0.4557
 2629SOL    HW119349   3.711   3.765  12.901  0.5642  0.1081 -0.1342
 2629SOL    HW219350   3.580   3.752  12.973 -0.7095  0.9678  1.9072
 2630SOL     OW19351   2.625   1.032   2.131 -0.7368  0.7750  0.1471
 2630SOL    HW119352   2.629   0.937   2.134 -2.0175  0.6775 -1.0919
 2630SOL    HW219353   2.533   1.041   2.156 -0.6226 -0.4832  1.0251
 2631SOL     OW19354   2.398   0.206   8.918 -0.4399 -0.1135  0.5240
 2631SOL    HW119355   2.362   0.121   8.894  1.6678 -0.6880 -0.6273
 2631SOL    HW219356   2.338   0.237   8.986  1.4682 -0.3255  2.3303
 2632SOL     OW19357   0.939   2.882   6.454 -0.1803  0.4903 -0.0309
 2632SOL    HW119358   0.903   2.827   6.384  0.3071  0.0805  0.0428
 2632SOL    HW219359   0.862   2.894   6.511  1.0772  0.8342  1.5803
 2633SOL     OW19360   1.332   0.883   4.664 -0.0420  0.4050  0.2475
 2633SOL    HW119361   1.258   0.941   4.649  1.1082  1.2375 -2.2527
 2633SOL    HW219362   1.386   0.944   4.715  0.3021 -1.3332  1.9642
 2634SOL     OW19363   0.114   1.163   7.565  0.0443 -0.0303 -0.1427
 2634SOL    HW119364   0.062   1.243   7.566 -1.7886 -1.2328 -0.4907
 2634SOL    HW219365   0.071   1.107   7.500 -1.3430 -0.4081  1.1143
 2635SOL     OW19366   0.049   2.213   1.612  0.2149  0.2016  0.0605
 2635SOL    HW119367   4.721   2.136   1.592  0.2919  0.5564 -1.4732
 2635SOL    HW219368   0.008   2.283   1.561  1.6197  0.4773 -0.6765
 2636SOL     OW19369   4.351   3.240   0.322  0.3316 -0.4276  0.5437
 2636SOL    HW119370   4.421   3.225   0.386  2.4226  2.8533 -0.9474
 2636SOL    HW219371   4.376   3.326   0.287 -1.3770  1.0460  2.9557
 2637SOL     OW19372   2.689   4.150  11.897 -0.2372  0.0504 -0.3420
 2637SOL    HW119373   2.703   4.061  11.867  1.6137  1.0014 -2.2790
 2637SOL    HW219374   2.602   4.159  11.938 -0.2515 -0.3667 -0.2811
 2638SOL     OW19375   0.832   2.811   4.469  0.3830  0.4135 -0.0969
 2638SOL    HW119376   0.807   2.833   4.379  0.1459  2.4317  0.4684
 2638SOL    HW219377   0.891   2.741   4.442 -1.1245  0.1713 -2.7132
 2639SOL     OW19378   4.201   0.548  11.167  0.1711  0.3495  0.4462
 2639SOL    HW119379   4.295   0.547  11.186  0.2539 -3.5350 -0.1652
 2639SOL    HW219380   4.175   0.605  11.239 -1.8477  0.8909 -0.7216
 2640SOL     OW19381   4.533   1.413   4.966  0.0642  0.4173  0.2700
 2640SOL    HW119382   4.569   1.488   5.013  1.0069 -0.6245  1.2125
 2640SOL    HW219383   4.441   1.441   4.964  0.7310  2.6608  0.7166
 2641SOL     OW19384   0.352   2.675   8.396  0.0946 -0.0148 -0.4143
 2641SOL    HW119385   0.313   2.588   8.384 -0.1544 -0.0536  0.6966
 2641SOL    HW219386   0.290   2.710   8.459  2.0475  2.3233  0.1954
 2642SOL     OW19387   0.257   2.866  13.489 -0.0896 -0.0411  0.1807
 2642SOL    HW119388   0.173   2.908  13.506  0.4167  1.0482 -0.0142
 2642SOL    HW219389   0.236   2.778  13.458 -2.1762 -0.0385  1.5564
 2643SOL     OW19390   3.579   2.004  10.356 -0.2124 -0.4846  0.0794
 2643SOL    HW119391   3.510   1.961  10.305 -0.5712 -1.6058  1.5295
 2643SOL    HW219392   3.530   2.015  10.437 -0.7389  1.0697 -0.4505
 2644SOL     OW19393   4.111   3.453  11.092 -0.3317  0.3599 -0.5444
 2644SOL    HW119394   4.054   3.409  11.156  0.0527 -0.5044 -0.7933
 2644SOL    HW219395   4.053   3.505  11.038  1.5233  1.6797 -1.2630
 2645SOL     OW19396   0.430   4.104   3.964  0.1693 -0.2765  0.1481
 2645SOL    HW119397   0.467   4.058   4.040 -1.0756  0.1127  0.9923
 2645SOL    HW219398   0.361   4.157   4.003 -1.3950 -0.4806 -2.3834
 2646SOL     OW19399   3.092   1.251   3.763  0.1489 -0.6311 -0.0524
 2646SOL    HW119400   3.113   1.164   3.798 -0.2481 -0.6320  0.1823
 2646SOL    HW219401   3.066   1.237   3.672  0.7670 -2.4713  0.0520
 2647SOL     OW19402   4.141   3.279   5.572 -0.0348  0.1505 -0.3357
 2647SOL    HW119403   4.129   3.238   5.486 -2.2762 -1.5124  0.7796
 2647SOL    HW219404   4.189   3.207   5.612 -0.7054 -0.9005 -1.4244
 2648SOL     OW19405   0.327   2.783   3.558  0.3152 -0.1043 -0.5641
 2648SOL    HW119406   0.393   2.795   3.626  1.2816 -1.5934 -1.2516
 2648SOL    HW219407   0.362   2.702   3.523  1.7280  0.2410  0.0510
 2649SOL     OW19408   3.323   1.226   4.024  0.3691  0.5762  0.2255
 2649SOL    HW119409   3.329   1.284   3.948  0.8313 -0.3404 -0.4441
 2649SOL    HW219410   3.400   1.170   4.012  0.0735  0.4763 -1.1839
 2650SOL     OW19411   3.281   3.698   6.450  0.7217  0.4940  0.0769
 2650SOL    HW119412   3.318   3.665   6.532  0.4565  1.0442  0.4145
 2650SOL    HW219413   3.359   3.747   6.426 -0.2137  0.4690 -3.0375
 2651SOL     OW19414   3.473   0.441   1.982  0.5059 -0.2827 -0.1553
 2651SOL    HW119415   3.550   0.440   2.038  0.6313 -1.6952 -0.3579
 2651SOL    HW219416   3.512   0.388   1.913  0.6401 -0.3202 -0.0502
 2652SOL     OW19417   2.490   1.805   6.573  0.0911 -0.5786  0.4026
 2652SOL    HW119418   2.525   1.858   6.645  1.3378  0.0399 -0.6673
 2652SOL    HW219419   2.396   1.807   6.594  0.5581  3.5614  1.9842
 2653SOL     OW19420   1.126   1.290  11.662 -0.2741  0.6841  0.1004
 2653SOL    HW119421   1.034   1.267  11.667 -0.6855  2.2278 -0.4758
 2653SOL    HW219422   1.156   1.303  11.572 -0.7551  0.9724 -0.0183
 2654SOL     OW19423   4.035   0.051   5.925 -0.0163 -0.3180 -0.3710
 2654SOL    HW119424   3.979   4.724   5.983  1.1932 -0.3655  0.7595
 2654SOL    HW219425   4.012   0.140   5.952 -1.5312 -1.2960  1.5965
 2655SOL     OW19426   3.632   3.126   2.429  0.3414 -0.9345  0.2193
 2655SOL    HW119427   3.582   3.168   2.359  0.6793  0.7662  1.0030
 2655SOL    HW219428   3.684   3.202   2.458 -1.6231  0.5672 -0.2292
 2656SOL     OW19429   2.587   1.563   6.474  0.6887  0.2908 -0.5054
 2656SOL    HW119430   2.538   1.643   6.490 -0.8122 -0.7007 -0.0711
 2656SOL    HW219431   2.606   1.543   6.566 -3.1888  1.1992  0.5019
 2657SOL     OW19432   2.954   1.551   8.250  0.3858  0.1455  0.1589
 2657SOL    HW119433   2.956   1.519   8.340  0.3260  0.9791  0.4526
 2657SOL    HW219434   2.976   1.643   8.258 -2.7846  0.5993  3.5766
 2658SOL     OW19435   2.946   3.085   8.242  0.1758  0.2885 -0.1930
 2658SOL    HW119436   3.017   3.042   8.291  0.8385 -0.9567 -2.2593
 2658SOL    HW219437   2.867   3.066   8.293  1.2532 -1.8244  0.7124
 2659SOL     OW19438   4.482   2.453  13.836  0.4256  0.8551  0.1973
 2659SOL    HW119439   4.450   2.506  13.910  1.7754 -2.1602  2.9511
 2659SOL    HW219440   4.574   2.458  13.863 -0.1867 -0.0052  2.4600
 2660SOL     OW19441   1.571   4.526   9.198  0.3200  0.3243 -0.2888
 2660SOL    HW119442   1.478   4.503   9.209  0.9747 -1.3488  1.7638
 2660SOL    HW219443   1.611   4.452   9.153 -1.4134  0.6040 -2.2960
 2661SOL     OW19444   0.535   0.918   0.940  0.7774 -0.2555 -0.2258
 2661SOL    HW119445   0.601   0.964   0.888  0.9284  0.2321  0.3996
 2661SOL    HW219446   0.529   0.955   1.028 -0.1665  0.4306 -0.5679
 2662SOL     OW19447   1.123   3.582   1.308  0.1685 -0.1148  0.3859
 2662SOL    HW119448   1.055   3.529   1.349  0.0533 -0.2502  0.0209
 2662SOL    HW219449   1.201   3.567   1.361 -0.6802 -1.0456  1.3660
 2663SOL     OW19450   0.169   4.431   5.545 -0.0961 -0.4005  0.0727
 2663SOL    HW119451   0.120   4.512   5.530  1.6268  0.6401 -0.0179
 2663SOL    HW219452   0.247   4.468   5.588 -0.3553 -0.4052  0.5468
 2664SOL     OW19453   0.974   3.242  10.570  0.5293  0.1985 -0.5577
 2664SOL    HW119454   1.056   3.239  10.522  1.1093  0.9095  0.3883
 2664SOL    HW219455   1.007   3.274  10.654  0.1766  0.2923 -0.4552
 2665SOL     OW19456   1.398   3.612  16.237 -0.1283  0.0683  0.1588
 2665SOL    HW119457   1.467   3.570  16.186  1.0822 -0.6153  2.3767
 2665SOL    HW219458   1.311   3.583  16.209  0.7269 -0.3246 -2.0340
 2666SOL     OW19459   1.499   0.989  10.206  0.1910  0.4451 -0.3577
 2666SOL    HW119460   1.524   0.911  10.255  1.7821  2.1401  1.5268
 2666SOL    HW219461   1.584   1.026  10.182  0.2804  0.3805 -0.1366
 2667SOL     OW19462   0.274   0.566  11.421 -0.1872 -0.2360 -0.3845
 2667SOL    HW119463   0.330   0.559  11.498 -1.0190  0.2605  0.2699
 2667SOL    HW219464   0.241   0.655  11.437 -0.7929 -0.8219  1.7083
 2668SOL     OW19465   4.685   1.074  10.800 -0.1906  0.2533 -0.5219
 2668SOL    HW119466   0.016   1.089  10.876 -0.5550  0.1183 -0.2250
 2668SOL    HW219467   4.721   0.993  10.763  1.3705 -0.0997  1.8086
 2669SOL     OW19468   3.218   0.493  14.272  0.5604 -0.2750  0.0442
 2669SOL    HW119469   3.241   0.457  14.187 -0.4257 -1.3324  0.2261
 2669SOL    HW219470   3.199   0.410  14.316  0.7283  0.2163  1.0343
 2670SOL     OW19471   0.872   0.916  14.560  0.3832 -0.5362  0.4023
 2670SOL    HW119472   0.845   1.007  14.575 -0.9113 -0.7224 -0.8044
 2670SOL    HW219473   0.807   0.891  14.495 -0.3172  0.5822  0.6610
 2671SOL     OW19474   1.331   1.468  10.128 -0.1372  0.5505  0.1262
 2671SOL    HW119475   1.397   1.528  10.094 -1.5224  1.9373 -0.1058
 2671SOL    HW219476   1.306   1.436  10.042 -1.6692 -1.6268  1.3775
 2672SOL     OW19477   1.498   3.784   2.140 -0.1484  0.1072 -0.3900
 2672SOL    HW119478   1.559   3.820   2.205 -1.1797  0.2668  0.4818
 2672SOL    HW219479   1.551   3.712   2.107 -0.6776 -0.0590 -0.8643
 2673SOL     OW19480   4.115   0.967   9.257  0.0161  0.4062  1.3264
 2673SOL    HW119481   4.024   0.965   9.228  0.5691  1.2539 -0.4037
 2673SOL    HW219482   4.096   0.977   9.350  1.4034 -0.8589  1.7616
 2674SOL     OW19483   4.426   1.028  12.805 -0.4178  0.5061  0.1005
 2674SOL    HW119484   4.454   1.108  12.761  3.0062 -1.1401 -0.6961
 2674SOL    HW219485   4.440   0.969  12.731  2.5223  1.1193  0.1644
 2675SOL     OW19486   0.711   1.895   6.700 -0.2756  0.0430  0.2400
 2675SOL    HW119487   0.621   1.921   6.680  0.0970  0.8293 -0.3936
 2675SOL    HW219488   0.743   1.981   6.726 -1.6559  0.3176  1.0594
 2676SOL     OW19489   1.215   1.066   2.475  0.3007 -0.7638  0.7984
 2676SOL    HW119490   1.306   1.072   2.446  0.6979 -2.1698  1.7364
 2676SOL    HW219491   1.191   0.990   2.423 -0.2111 -0.8700  1.1920
 2677SOL     OW19492   1.815   3.214   4.492  0.6308  0.0656 -0.3829
 2677SOL    HW119493   1.747   3.147   4.476 -0.7641  1.0389  1.4600
 2677SOL    HW219494   1.891   3.173   4.451  0.0838 -0.5359 -0.8048
 2678SOL     OW19495   0.162   1.008  11.942 -0.4825  0.6940 -0.0407
 2678SOL    HW119496   0.145   1.102  11.936 -0.0530  0.6055 -2.3601
 2678SOL    HW219497   0.250   1.004  11.980 -0.1797 -0.1053 -0.8192
 2679SOL     OW19498   1.059   0.888  12.538  0.6483 -0.1625 -0.1810
 2679SOL    HW119499   1.038   0.931  12.621 -2.0419 -1.1927 -0.3346
 2679SOL    HW219500   0.986   0.915  12.483  0.5123  0.8471  0.5090
 2680SOL     OW19501   2.907   3.440   4.301  0.5905  0.2610 -0.4694
 2680SOL    HW119502   2.828   3.491   4.323  0.4312  0.4162 -1.3759
 2680SOL    HW219503   2.881   3.349   4.317  1.3326 -0.0579 -1.1016
 2681SOL     OW19504   0.748   3.767  15.733  0.3050  0.3507  0.5027
 2681SOL    HW119505   0.672   3.796  15.682  1.0726  2.3322  0.4637
 2681SOL    HW219506   0.713   3.795  15.817 -0.6153 -2.1319  0.9324
 2682SOL     OW19507   0.196   0.452   8.457  0.0389 -0.0262 -0.1685
 2682SOL    HW119508   0.244   0.501   8.524 -0.6671 -0.7101  0.8571
 2682SOL    HW219509   0.250   0.475   8.382 -0.4898  1.0457 -0.2253
 2683SOL     OW19510   1.236   1.863   8.189  0.0662 -0.2703 -0.7264
 2683SOL    HW119511   1.165   1.926   8.180 -0.1616 -0.5314 -0.7466
 2683SOL    HW219512   1.200   1.787   8.144  1.3414 -1.9941  1.1691
 2684SOL     OW19513   0.635   1.643   6.592 -0.6091  0.2688  0.1057
 2684SOL    HW119514   0.694   1.717   6.588  0.5586 -0.8056 -2.6900
 2684SOL    HW219515   0.647   1.617   6.684  2.0570  0.8915 -0.0825
 2685SOL     OW19516   3.290   0.176   5.144  0.1798  0.2911  0.0269
 2685SOL    HW119517   3.321   0.087   5.131  1.1198  0.2356  2.5515
 2685SOL    HW219518   3.366   0.219   5.185  0.2282 -0.7094  0.9909
 2686SOL     OW19519   0.283   2.201   2.565  0.2654 -0.1589  0.1102
 2686SOL    HW119520   0.263   2.258   2.491  0.6116  0.4380  0.4824
 2686SOL    HW219521   0.306   2.120   2.519  2.4580  1.1395 -1.0463
 2687SOL     OW19522   3.655   3.061  14.160 -0.6839 -0.3805 -0.7653
 2687SOL    HW119523   3.715   3.122  14.118 -0.7034 -0.0537 -0.3129
 2687SOL    HW219524   3.625   3.005  14.088  1.1955 -1.0793 -0.9961
 2688SOL     OW19525   4.426   0.744   4.442 -0.5681 -0.0426 -0.2847
 2688SOL    HW119526   4.411   0.776   4.531  0.8634 -1.9952  0.6774
 2688SOL    HW219527   4.442   0.651   4.458  0.7602  0.1773 -0.2846
 2689SOL     OW19528   2.307   0.368   8.022 -0.2776 -0.7264 -0.6533
 2689SOL    HW119529   2.328   0.289   8.072  3.7496 -0.7457 -2.4028
 2689SOL    HW219530   2.233   0.402   8.072 -0.5731 -3.5743  0.7844
 2690SOL     OW19531   1.431   0.494   4.645 -0.0474  0.2662 -0.0892
 2690SOL    HW119532   1.454   0.401   4.641 -2.9100 -0.3318 -2.4049
 2690SOL    HW219533   1.427   0.507   4.739  0.7140 -0.6811  0.0790
 2691SOL     OW19534   2.140   1.642  11.109  0.2066 -0.5754 -0.8784
 2691SOL    HW119535   2.102   1.663  11.024  2.7470 -0.1706 -1.9330
 2691SOL    HW219536   2.232   1.669  11.099  0.6049 -1.4449  0.4994
 2692SOL     OW19537   0.640   3.869   1.796 -0.0725 -0.1325  0.3349
 2692SOL    HW119538   0.609   3.878   1.886  1.5355  2.1564  0.6556
 2692SOL    HW219539   0.729   3.832   1.802 -1.0332 -2.1804  2.0542
 2693SOL     OW19540   1.172   0.963   8.231  0.2090 -0.1747 -0.2559
 2693SOL    HW119541   1.149   0.940   8.321 -0.6684  0.0979 -0.4206
 2693SOL    HW219542   1.150   1.056   8.226  0.5106 -0.1072 -0.3246
 2694SOL     OW19543   1.017   2.454   5.389 -0.0672 -0.5991 -0.4900
 2694SOL    HW119544   0.974   2.540   5.395 -2.1062 -1.8121  1.9101
 2694SOL    HW219545   1.033   2.433   5.481 -0.2587 -1.9432 -0.7632
 2695SOL     OW19546   0.955   3.692   7.570 -0.4467  0.3888 -0.2338
 2695SOL    HW119547   0.963   3.604   7.607 -0.6161  0.0616 -0.9609
 2695SOL    HW219548   1.034   3.735   7.603  0.3962  0.0698 -1.8246
 2696SOL     OW19549   0.172   0.271  16.167  0.2301 -0.0820  0.3592
 2696SOL    HW119550   0.160   0.326  16.244  0.8200  1.1128 -0.3963
 2696SOL    HW219551   0.266   0.264  16.153  0.6429  0.1673  3.0960
 2697SOL     OW19552   1.549   3.412  16.631  0.6464 -0.1450  0.1844
 2697SOL    HW119553   1.580   3.456  16.551 -1.3576  0.8565 -0.0440
 2697SOL    HW219554   1.601   3.462  16.694 -2.0912  1.5713  1.0552
 2698SOL     OW19555   0.245   3.165   9.084 -0.0021  0.5524 -0.5063
 2698SOL    HW119556   0.181   3.188   9.017 -1.2106  0.0661  0.4769
 2698SOL    HW219557   0.200   3.204   9.159 -1.1415 -2.0470  0.1610
 2699SOL     OW19558   2.082   0.193   7.426  0.1028 -0.5420 -0.1238
 2699SOL    HW119559   2.108   0.245   7.350  0.0041  0.0134  0.2188
 2699SOL    HW219560   2.067   0.110   7.381 -1.3860  0.2840 -1.1513
 2700SOL     OW19561   3.142   3.452   4.751  0.8115 -0.4636 -0.0181
 2700SOL    HW119562   3.132   3.446   4.656  1.6716  3.0557 -0.3426
 2700SOL    HW219563   3.108   3.542   4.755 -0.7194 -1.0581  0.2031
 2701SOL     OW19564   1.192   1.572   9.716  0.0587 -0.1731  0.2628
 2701SOL    HW119565   1.254   1.509   9.753 -0.4643  0.6978  2.6264
 2701SOL    HW219566   1.153   1.610   9.795 -0.6177  3.3377 -1.7972
 2702SOL     OW19567   1.470   4.295  14.736 -0.4163 -0.6921  0.0396
 2702SOL    HW119568   1.423   4.215  14.758  1.4361 -2.2558 -1.7474
 2702SOL    HW219569   1.424   4.359  14.790  2.0273  0.5795  0.6102
 2703SOL     OW19570   3.245   2.945   4.591  0.8220 -0.5498  0.1555
 2703SOL    HW119571   3.203   2.862   4.568  1.4985 -0.2267 -2.2341
 2703SOL    HW219572   3.165   2.997   4.594  1.3430  0.1661  1.3642
 2704SOL     OW19573   0.711   3.326   5.277 -0.0763  0.2538  0.6449
 2704SOL    HW119574   0.763   3.319   5.197 -0.4565  1.0794  0.3169
 2704SOL    HW219575   0.630   3.281   5.253 -0.6034  1.2157  0.5980
 2705SOL     OW19576   4.457   0.490   5.580 -0.5921  0.4799 -0.1238
 2705SOL    HW119577   4.509   0.569   5.563  0.0094 -0.0837 -0.8918
 2705SOL    HW219578   4.474   0.446   5.497 -1.1747  2.5493 -1.3552
 2706SOL     OW19579   1.260   4.272  13.375 -0.2588  0.1760  0.6015
 2706SOL    HW119580   1.295   4.186  13.352 -0.2594  1.0049 -2.5482
 2706SOL    HW219581   1.199   4.270  13.301  0.1403  0.9538  0.2529
 2707SOL     OW19582   2.776   0.936   3.575 -0.1239  0.1688  0.6212
 2707SOL    HW119583   2.783   0.843   3.598 -2.3553  0.0955  1.0172
 2707SOL    HW219584   2.779   0.973   3.663  2.1511  0.0596  0.5928
 2708SOL     OW19585   1.624   3.678   5.429  0.1758  0.1600  0.3346
 2708SOL    HW119586   1.631   3.583   5.430 -0.3000  0.1206 -0.0711
 2708SOL    HW219587   1.673   3.708   5.352 -0.7975 -0.7271 -0.6322
 2709SOL     OW19588   3.916   4.281  16.415  0.6864  0.0258 -0.4942
 2709SOL    HW119589   3.884   4.307  16.328  0.9365  2.0389  0.0031
 2709SOL    HW219590   4.010   4.301  16.408  0.3909  0.9891 -1.7607
 2710SOL     OW19591   0.231   4.297   9.584  0.0531 -0.9936 -0.0534
 2710SOL    HW119592   0.142   4.276   9.553  0.2549  0.5338 -1.6597
 2710SOL    HW219593   0.227   4.389   9.556  1.1292 -0.7761  0.5265
 2711SOL     OW19594   2.531   0.086   8.158  0.2246 -0.6559  0.0951
 2711SOL    HW119595   2.447   0.102   8.202  0.0730  1.3025 -0.8932
 2711SOL    HW219596   2.591   0.111   8.229  0.6007 -1.9103  0.2269
 2712SOL     OW19597   1.400   0.189   9.527 -0.1253  0.3614 -0.4599
 2712SOL    HW119598   1.459   0.128   9.571 -0.9814 -0.9658 -1.1560
 2712SOL    HW219599   1.417   0.274   9.567  1.6405 -1.3583  2.4386
 2713SOL     OW19600   2.560   1.660   5.139 -0.0678 -0.0529 -0.7628
 2713SOL    HW119601   2.505   1.604   5.194  4.0013 -2.8297  0.4467
 2713SOL    HW219602   2.638   1.604   5.142 -0.0499  0.0163  0.1257
 2714SOL     OW19603   0.961   0.075   7.127 -0.4673 -0.3481 -0.1714
 2714SOL    HW119604   1.056   0.068   7.136 -0.2046  2.1929 -0.8219
 2714SOL    HW219605   0.949   4.719   7.077  0.1266 -0.2216 -0.5161
 2715SOL     OW19606   2.657   3.812   3.889  0.1810  0.2336  0.0253
 2715SOL    HW119607   2.709   3.858   3.955  0.2550 -1.3163  1.0471
 2715SOL    HW219608   2.726   3.766   3.841 -0.1282  0.9340 -1.1002
 2716SOL     OW19609   3.519   1.463   7.720  0.2810  0.6350  0.0500
 2716SOL    HW119610   3.576   1.390   7.746 -0.0740  0.2491 -0.2461
 2716SOL    HW219611   3.432   1.435   7.747  0.4484 -1.6156 -1.7009
 2717SOL     OW19612   3.594   3.434  17.604  0.0282 -0.0827 -0.4230
 2717SOL    HW119613   3.656   3.450  17.532 -0.2203 -0.6080 -0.7561
 2717SOL    HW219614   3.560   3.346  17.585  2.4162 -0.3818 -3.2368
 2718SOL     OW19615   1.366   1.723  15.075 -0.1419 -1.1044 -0.3025
 2718SOL    HW119616   1.379   1.675  14.994 -2.1967 -0.2915 -1.1211
 2718SOL    HW219617   1.272   1.741  15.071  0.0499  0.1628  0.7195
 2719SOL     OW19618   2.354   4.668   6.548 -0.0729 -0.1811 -0.0388
 2719SOL    HW119619   2.444   4.672   6.515 -0.6572 -1.6692 -1.8692
 2719SOL    HW219620   2.381   4.693   6.636  1.4837  1.1634 -0.8826
 2720SOL     OW19621   0.301   1.524   2.900  0.5041 -0.0180 -0.1672
 2720SOL    HW119622   0.320   1.554   2.989 -2.5584 -0.7598  0.7346
 2720SOL    HW219623   0.270   1.435   2.917  2.4700 -0.8588 -0.9041
 2721SOL     OW19624   0.556   1.942   1.025  0.4078  0.3204 -0.2606
 2721SOL    HW119625   0.573   1.946   1.119 -1.1732 -0.0856  0.0377
 2721SOL    HW219626   0.537   2.036   1.019  1.6699  0.7402  2.1919
 2722SOL     OW19627   2.237   4.722   8.929 -0.5902  0.2396 -0.2567
 2722SOL    HW119628   2.151   0.014   8.890 -1.2328 -2.2490  0.1102
 2722SOL    HW219629   2.211   4.685   9.013 -0.9077  2.0844  0.4589
 2723SOL     OW19630   1.648   2.476  11.042  0.2188 -0.0472 -0.2260
 2723SOL    HW119631   1.659   2.536  10.968 -0.6264  0.9059  0.4255
 2723SOL    HW219632   1.556   2.495  11.060  0.3750  0.8464 -0.3784
 2724SOL     OW19633   3.088   3.944   6.125  0.0919 -0.4021  0.3210
 2724SOL    HW119634   3.083   3.964   6.219  0.2437  0.9117  0.0465
 2724SOL    HW219635   3.167   3.890   6.116  1.3130  1.4651 -0.2649
 2725SOL     OW19636   4.352   3.573  11.458  0.2785 -0.8701  0.0737
 2725SOL    HW119637   4.424   3.628  11.490 -0.6638  1.3310 -1.6538
 2725SOL    HW219638   4.370   3.548  11.367 -2.0601  2.1790 -1.2021
 2726SOL     OW19639   2.070   2.870   5.713  0.5258  0.1885 -0.0629
 2726SOL    HW119640   1.986   2.868   5.758  1.2028 -0.7203  1.1630
 2726SOL    HW219641   2.053   2.793   5.659  0.6985 -0.9991  1.5881
 2727SOL     OW19642   3.782   3.784  17.538  0.4131  0.1503  0.1802
 2727SOL    HW119643   3.713   3.732  17.498  0.0564  0.3466  0.5299
 2727SOL    HW219644   3.859   3.757  17.488 -1.8875  0.3107 -3.3689
 2728SOL     OW19645   0.512   0.466   5.019 -0.1909 -0.9847 -0.4697
 2728SOL    HW119646   0.537   0.377   5.043  1.5615 -0.0559  1.1279
 2728SOL    HW219647   0.576   0.480   4.949  0.4396  0.9524  0.4942
 2729SOL     OW19648   3.087   1.879  10.781 -0.0003 -0.1488 -0.0368
 2729SOL    HW119649   3.146   1.876  10.705  0.2667  3.4769  0.0083
 2729SOL    HW219650   3.101   1.791  10.816  0.9671  0.0296  0.0275
 2730SOL     OW19651   2.542   1.558   3.448  0.1986  0.7172 -0.6568
 2730SOL    HW119652   2.564   1.485   3.506  0.3403 -0.2673 -1.9447
 2730SOL    HW219653   2.480   1.517   3.389  0.9874 -0.2697 -0.8013
 2731SOL     OW19654   0.072   4.303  15.966 -0.1461  0.4997 -0.1504
 2731SOL    HW119655   4.712   4.320  16.006 -0.6903 -1.0627 -0.6407
 2731SOL    HW219656   0.088   4.210  15.984 -0.7911  0.2218 -0.9789
 2732SOL     OW19657   1.519   2.064   1.597  0.1524  0.0757 -0.0851
 2732SOL    HW119658   1.577   2.028   1.664 -0.6511 -0.0871  0.5194
 2732SOL    HW219659   1.554   2.015   1.522  0.2536 -0.4603  0.3140
 2733SOL     OW19660   1.718   4.337  15.277  0.0075  0.1826  0.0007
 2733SOL    HW119661   1.788   4.288  15.235  0.6485  1.8761 -0.9136
 2733SOL    HW219662   1.755   4.369  15.359  0.4849  0.8724 -0.4857
 2734SOL     OW19663   2.971   0.215  12.333  0.8023  0.0999  0.2171
 2734SOL    HW119664   3.052   0.221  12.384 -0.3407  2.1963  1.7953
 2734SOL    HW219665   2.952   0.126  12.361 -0.7452 -0.0704 -1.3415
 2735SOL     OW19666   1.695   0.032  12.294  0.0425  0.6435 -0.3659
 2735SOL    HW119667   1.632   0.093  12.332  1.2868  1.3325  0.6148
 2735SOL    HW219668   1.769   0.034  12.356 -0.7252  0.1106  0.5636
 2736SOL     OW19669   3.420   1.246  13.283  0.0774  0.6770 -0.2187
 2736SOL    HW119670   3.489   1.266  13.347  1.2032 -0.5783 -1.0407
 2736SOL    HW219671   3.433   1.331  13.242  1.4499  0.1341 -0.9280
 2737SOL     OW19672   1.834   2.336   3.267  0.1276 -0.1624  0.5255
 2737SOL    HW119673   1.827   2.359   3.174  1.3255 -0.7103  0.2948
 2737SOL    HW219674   1.793   2.249   3.271 -1.0392  0.4233  1.0072
 2738SOL     OW19675   1.829   3.625  17.188  0.3369 -0.0553 -0.0356
 2738SOL    HW119676   1.771   3.690  17.229  0.3781 -0.6186  0.9179
 2738SOL    HW219677   1.776   3.546  17.200  4.0561 -2.1127  2.7126
 2739SOL     OW19678   0.796   0.526   6.893 -0.4062  0.1390  0.4415
 2739SOL    HW119679   0.779   0.443   6.848  1.4289 -0.6514  1.2140
 2739SOL    HW219680   0.712   0.546   6.934 -0.9611  1.5011 -1.3246
 2740SOL     OW19681   0.433   0.196  15.515  0.6735  0.2245 -0.2067
 2740SOL    HW119682   0.392   0.256  15.577  0.6403  0.3690 -0.3677
 2740SOL    HW219683   0.452   0.115  15.562 -0.6992 -0.2493 -0.4640
 2741SOL     OW19684   0.910   2.641  12.129 -0.7115  0.2017 -0.0796
 2741SOL    HW119685   0.935   2.734  12.127 -0.8394  0.2052 -1.5063
 2741SOL    HW219686   0.923   2.609  12.040 -0.1969  0.2566 -0.0215
 2742SOL     OW19687   0.242   0.453   5.042 -0.3875  0.1676  0.1089
 2742SOL    HW119688   0.337   0.456   5.033 -0.4517 -1.6209 -1.2679
 2742SOL    HW219689   0.219   0.538   5.004  1.9180  0.9099  0.3630
 2743SOL     OW19690   1.455   3.031   7.957  0.3377  0.6050 -1.4115
 2743SOL    HW119691   1.487   3.051   8.045 -1.1243 -0.3946 -0.6556
 2743SOL    HW219692   1.403   3.106   7.929  0.8069  2.1256  1.7426
 2744SOL     OW19693   3.070   3.873   9.492 -0.5279 -0.0991 -0.5777
 2744SOL    HW119694   3.133   3.829   9.549 -0.8462  1.3781  0.9140
 2744SOL    HW219695   3.001   3.807   9.500 -0.4656 -0.4412 -2.8210
 2745SOL     OW19696   2.728   2.707  14.317 -0.3786  0.2614 -0.7330
 2745SOL    HW119697   2.800   2.769  14.328  0.0708 -0.7047  1.7063
 2745SOL    HW219698   2.729   2.706  14.222 -1.1688  1.5215 -0.7544
 2746SOL     OW19699   2.779   1.293  12.941 -0.3388  0.3568  0.2832
 2746SOL    HW119700   2.687   1.295  12.913 -0.3786  2.3684  0.5976
 2746SOL    HW219701   2.806   1.384  12.948  0.3302  0.3043 -1.6356
 2747SOL     OW19702   4.718   0.705   2.585 -0.8472 -0.7571  0.4251
 2747SOL    HW119703   0.017   0.785   2.539 -0.4999 -0.4064  1.2209
 2747SOL    HW219704   0.003   0.740   2.673 -4.7266 -1.7152  1.2258
 2748SOL     OW19705   2.026   1.546   3.534 -0.1762 -0.0543 -0.7645
 2748SOL    HW119706   2.031   1.457   3.498  0.6136 -0.6413  0.7789
 2748SOL    HW219707   2.004   1.604   3.462 -1.3917 -0.0202 -0.3742
 2749SOL     OW19708   1.487   2.647  12.649 -0.0690 -0.0591  0.2099
 2749SOL    HW119709   1.478   2.741  12.638  1.4372  0.2065  1.2166
 2749SOL    HW219710   1.580   2.635  12.670 -0.6046  0.2776  2.8094
 2750SOL     OW19711   1.648   2.913   7.825  0.2763  0.1096  0.3851
 2750SOL    HW119712   1.590   2.844   7.792 -0.1405 -0.2722  1.9154
 2750SOL    HW219713   1.598   2.937   7.903  1.5758 -0.5536  1.4159
 2751SOL     OW19714   1.193   0.880  14.060 -0.7350 -0.3359  0.3540
 2751SOL    HW119715   1.228   0.792  14.075 -1.9844 -1.0336 -0.8460
 2751SOL    HW219716   1.264   0.933  14.095  0.9340 -1.6196 -1.1315
 2752SOL     OW19717   3.319   0.451   8.261 -0.5266  0.4406  0.4103
 2752SOL    HW119718   3.343   0.407   8.343  1.5249  1.1200  0.1729
 2752SOL    HW219719   3.382   0.522   8.252  0.1552 -0.2175  0.0008
 2753SOL     OW19720   3.725   3.476   1.136 -0.6918 -0.3187  0.4475
 2753SOL    HW119721   3.659   3.493   1.204 -0.0344  0.5434  0.8659
 2753SOL    HW219722   3.771   3.410   1.188 -0.0451 -0.4817 -0.3364
 2754SOL     OW19723   4.363   1.202   6.253 -0.4451  0.4433 -0.1731
 2754SOL    HW119724   4.275   1.217   6.287  0.9103  2.1609  2.5923
 2754SOL    HW219725   4.367   1.241   6.166  0.0959  3.3077  1.1492
 2755SOL     OW19726   4.104   4.631   8.107 -0.0434 -0.1361  0.4038
 2755SOL    HW119727   4.090   4.696   8.038 -0.2842  1.2737  1.7689
 2755SOL    HW219728   4.147   4.558   8.062  1.8428  0.5288  1.1010
 2756SOL     OW19729   0.252   2.659   5.020 -0.1205 -0.2775  0.7865
 2756SOL    HW119730   0.342   2.676   5.046  0.3094  1.2070 -1.7160
 2756SOL    HW219731   0.213   2.646   5.107  1.9576  0.4250  1.8258
 2757SOL     OW19732   0.088   0.180  15.788 -0.3857  0.2298 -0.0335
 2757SOL    HW119733   0.143   0.108  15.819 -1.9479 -2.6676 -3.9062
 2757SOL    HW219734   0.031   0.184  15.864 -0.8648  1.5296 -0.4671
 2758SOL     OW19735   2.873   0.271  17.689 -0.1710 -0.9756 -0.0119
 2758SOL    HW119736   2.857   0.277  17.594  0.6340 -0.8910 -0.1406
 2758SOL    HW219737   2.860   0.356   0.030  2.0027 -0.9934  0.6827
 2759SOL     OW19738   2.950   3.657   8.582  0.5359  0.4189  0.4598
 2759SOL    HW119739   2.952   3.594   8.509 -0.1759  1.9543 -0.8982
 2759SOL    HW219740   2.941   3.587   8.646 -0.2076  0.6182  0.5706
 2760SOL     OW19741   2.837   3.967  10.054  0.1468 -0.1673  0.5039
 2760SOL    HW119742   2.768   3.996   9.995  0.5825 -0.4572 -0.1479
 2760SOL    HW219743   2.803   3.882  10.083  0.5889  0.2234  2.1993
 2761SOL     OW19744   4.714   3.818   7.391  0.7456  0.0688  0.3515
 2761SOL    HW119745   4.633   3.785   7.352  1.0843 -0.3618  0.0121
 2761SOL    HW219746   0.023   3.730   7.404  1.3701  0.1768 -0.5158
 2762SOL     OW19747   2.617   4.404   8.137  0.3713 -0.5694 -0.0384
 2762SOL    HW119748   2.542   4.461   8.121  1.5120  0.3493 -1.9283
 2762SOL    HW219749   2.619   4.399   8.233  0.0358  3.5091  0.1598
 2763SOL     OW19750   0.364   2.232   6.496 -0.2097 -0.6730  0.1113
 2763SOL    HW119751   0.404   2.209   6.580  0.7650 -0.8719 -0.4057
 2763SOL    HW219752   0.452   2.250   6.462  0.7643 -1.7143  2.0632
 2764SOL     OW19753   1.268   1.042  17.187  0.8929 -0.4267 -0.0904
 2764SOL    HW119754   1.214   0.985  17.131  0.7586 -0.0716 -0.3180
 2764SOL    HW219755   1.212   1.119  17.194  0.4558 -0.7452 -0.0668
 2765SOL     OW19756   2.824   4.205  15.057 -0.3038 -0.1762 -0.5064
 2765SOL    HW119757   2.757   4.169  15.000  0.2295  0.4908 -1.5562
 2765SOL    HW219758   2.850   4.284  15.009 -1.6474  0.4890 -0.1522
 2766SOL     OW19759   0.599   2.498   6.789 -0.6707  0.2625 -0.3954
 2766SOL    HW119760   0.675   2.466   6.741 -2.1300 -1.0655 -1.7890
 2766SOL    HW219761   0.635   2.578   6.829  1.5166 -1.0275  0.2054
 2767SOL     OW19762   2.153   4.376  14.130  0.0266  0.3046 -0.5944
 2767SOL    HW119763   2.134   4.349  14.040  0.7040 -0.1964 -0.5811
 2767SOL    HW219764   2.064   4.400  14.158  0.1686 -1.6421  1.5155
 2768SOL     OW19765   2.213   2.770  12.903  0.4779  0.3828 -0.5278
 2768SOL    HW119766   2.162   2.800  12.827  0.2770  2.1792  0.3232
 2768SOL    HW219767   2.296   2.735  12.872  1.5050  2.4926 -0.1227
 2769SOL     OW19768   1.556   2.753   3.504 -0.0127 -0.1289  0.6921
 2769SOL    HW119769   1.564   2.669   3.458  0.5453  0.4924 -0.3397
 2769SOL    HW219770   1.588   2.719   3.587 -0.4893 -2.6724 -0.1445
 2770SOL     OW19771   1.673   0.818   4.723 -0.0893 -0.3287  0.3764
 2770SOL    HW119772   1.719   0.791   4.802  0.4379  0.6606  0.4028
 2770SOL    HW219773   1.585   0.796   4.753 -1.0555  0.6942 -1.6961
 2771SOL     OW19774   0.163   1.003   3.123 -0.0255  0.5128  0.5579
 2771SOL    HW119775   0.244   1.006   3.073 -0.4052  0.4839 -0.0607
 2771SOL    HW219776   0.091   1.017   3.061  1.2937 -0.2723 -1.1370
 2772SOL     OW19777   0.693   4.676   0.836  0.5277 -0.3018 -0.1956
 2772SOL    HW119778   0.602   4.676   0.805 -0.4656 -0.7793  2.6802
 2772SOL    HW219779   0.723   0.006   0.764 -2.5855 -0.0580 -1.2981
 2773SOL     OW19780   3.144   0.624   9.464  0.1003 -0.4047 -0.0234
 2773SOL    HW119781   3.070   0.590   9.514  0.1898  1.8284  1.6420
 2773SOL    HW219782   3.222   0.582   9.500  0.3591 -0.5410 -0.7487
 2774SOL     OW19783   1.542   2.294   2.365 -1.0759 -0.1504  0.1321
 2774SOL    HW119784   1.620   2.266   2.317 -1.2493  0.5346 -0.5454
 2774SOL    HW219785   1.581   2.342   2.438 -0.0323  0.7931 -1.0663
 2775SOL     OW19786   3.997   0.155   3.855 -0.1112  0.6404  0.0866
 2775SOL    HW119787   4.034   0.209   3.785  3.2889 -2.1030 -0.2654
 2775SOL    HW219788   4.001   0.067   3.819 -2.7521  0.8886 -0.8015
 2776SOL     OW19789   4.304   1.392   2.106 -0.3299 -0.3535  0.2586
 2776SOL    HW119790   4.245   1.389   2.031 -2.9000 -2.5895  2.3290
 2776SOL    HW219791   4.342   1.305   2.092  2.2496  0.9577 -0.8200
 2777SOL     OW19792   4.284   2.341  12.722  0.2076  0.1408  0.1433
 2777SOL    HW119793   4.208   2.385  12.758 -0.0913 -0.9301  0.7894
 2777SOL    HW219794   4.312   2.423  12.680  1.5970 -0.5697 -0.3271
 2778SOL     OW19795   1.723   2.041   1.247  0.3256  0.2495  0.1567
 2778SOL    HW119796   1.766   2.126   1.252  0.2483  0.3264 -0.4637
 2778SOL    HW219797   1.661   2.050   1.174  0.4418  0.9325  0.1456
 2779SOL     OW19798   0.551   2.170   8.101  0.2729  0.5051 -0.8308
 2779SOL    HW119799   0.481   2.184   8.037 -1.1998 -2.8332  0.0513
 2779SOL    HW219800   0.516   2.226   8.171  2.4290  0.6669  0.1114
 2780SOL     OW19801   0.559   1.978   7.281 -0.0073  0.0414  0.4505
 2780SOL    HW119802   0.621   2.047   7.258  0.0572  0.6590  2.4800
 2780SOL    HW219803   0.491   1.975   7.214 -1.2857 -0.2697  1.7534
 2781SOL     OW19804   0.866   1.323   2.767  0.4303  0.2004  0.0204
 2781SOL    HW119805   0.907   1.273   2.696  2.1677 -0.1310  1.2518
 2781SOL    HW219806   0.934   1.374   2.812 -0.2156 -0.0827  1.3257
 2782SOL     OW19807   4.203   0.947  16.628 -0.2245  0.2118  0.0833
 2782SOL    HW119808   4.296   0.936  16.651  0.2059 -1.8237 -2.5794
 2782SOL    HW219809   4.172   0.877  16.685  0.1707  0.7614  0.9620
 2783SOL     OW19810   1.549   4.480   7.198  0.4665  0.2781 -0.6455
 2783SOL    HW119811   1.620   4.456   7.258  1.1732 -1.8509 -2.3328
 2783SOL    HW219812   1.508   4.541   7.259  1.5629  1.4668 -1.1199
 2784SOL     OW19813   2.897   3.355  12.711  0.5205 -0.4421 -0.0181
 2784SOL    HW119814   2.943   3.424  12.758 -0.9943  0.2151  0.4905
 2784SOL    HW219815   2.830   3.336  12.776 -0.0443 -0.5243 -0.6232
 2785SOL     OW19816   2.603   3.216   5.456  0.3053 -0.4268 -0.1346
 2785SOL    HW119817   2.570   3.257   5.537 -1.3992 -0.9454 -0.5621
 2785SOL    HW219818   2.666   3.278   5.421  1.7285 -0.9056  1.5697
 2786SOL     OW19819   2.275   1.790   7.243 -0.3116  0.2254  0.2004
 2786SOL    HW119820   2.314   1.726   7.302  1.4761  0.4599 -0.7305
 2786SOL    HW219821   2.194   1.744   7.220 -1.3802  1.1887  1.9944
 2787SOL     OW19822   2.192   0.648   8.436 -0.1794  0.2234 -0.0294
 2787SOL    HW119823   2.254   0.637   8.364 -1.7015 -0.2051 -1.2581
 2787SOL    HW219824   2.149   0.563   8.436 -0.5108  0.3904 -0.6176
 2788SOL     OW19825   0.113   3.189  14.806 -0.0111 -0.7869  0.3596
 2788SOL    HW119826   0.140   3.258  14.867 -1.4149 -0.4684  0.6189
 2788SOL    HW219827   0.018   3.189  14.801 -0.0065  0.1642  0.2942
 2789SOL     OW19828   2.198   1.067  17.185 -0.2452 -0.3520 -0.4114
 2789SOL    HW119829   2.200   1.112  17.270  2.1192  0.6398 -1.0059
 2789SOL    HW219830   2.113   1.023  17.189 -0.7693  0.6639 -0.4101
 2790SOL     OW19831   2.677   0.792   5.859 -0.4120 -0.5202 -0.4703
 2790SOL    HW119832   2.606   0.853   5.878 -1.0847 -2.2013  2.3142
 2790SOL    HW219833   2.631   0.708   5.851 -0.3094 -0.5330 -0.9313
 2791SOL     OW19834   4.673   3.439   6.014 -0.1481 -0.2620  0.1800
 2791SOL    HW119835   4.588   3.407   6.046  0.1778 -1.4361 -0.1003
 2791SOL    HW219836   4.725   3.359   6.026  1.3734  0.8130  0.7206
 2792SOL     OW19837   2.348   0.582   4.693  0.1721 -0.1427  0.2502
 2792SOL    HW119838   2.399   0.661   4.674 -0.8922  0.4504 -0.1271
 2792SOL    HW219839   2.267   0.632   4.690 -0.5579 -1.1966  2.0402
 2793SOL     OW19840   4.177   2.315   4.448  0.0947 -0.2770  0.0787
 2793SOL    HW119841   4.199   2.356   4.532 -0.0579  0.8055 -0.4160
 2793SOL    HW219842   4.233   2.238   4.443  0.3699  0.0035 -1.0325
 2794SOL     OW19843   0.728   1.418  10.843 -0.9728  0.2915  0.7878
 2794SOL    HW119844   0.749   1.473  10.768  0.1997  1.5890  2.0546
 2794SOL    HW219845   0.674   1.351  10.801 -0.5881  0.4467  0.0423
 2795SOL     OW19846   0.219   4.508   4.336 -0.3102 -0.1592 -0.1229
 2795SOL    HW119847   0.249   4.541   4.252 -0.1130  0.2513  0.1095
 2795SOL    HW219848   0.188   4.585   4.383  1.2940  0.4419 -0.0453
 2796SOL     OW19849   4.156   0.469   7.983 -0.1983 -0.2998  0.2001
 2796SOL    HW119850   4.183   0.463   7.891 -0.8826 -3.2112  0.1875
 2796SOL    HW219851   4.062   0.472   7.964 -0.0435 -0.2829 -0.5515
 2797SOL     OW19852   3.483   1.595  11.869  0.7855  0.3283 -0.0332
 2797SOL    HW119853   3.555   1.595  11.806  1.2126  0.4287  0.4668
 2797SOL    HW219854   3.477   1.681  11.910  1.2625 -0.5169  1.7663
 2798SOL     OW19855   2.942   2.912   6.439  0.3696  0.9079 -0.1620
 2798SOL    HW119856   3.024   2.920   6.488  1.0021  2.0365 -1.3685
 2798SOL    HW219857   2.926   3.002   6.408 -1.1672 -0.4642 -3.3824
 2799SOL     OW19858   3.435   0.167   4.681  0.0817 -0.3376 -0.2316
 2799SOL    HW119859   3.433   0.231   4.609 -0.1490  0.2639  0.3164
 2799SOL    HW219860   3.444   0.222   4.758  0.0954 -3.1506  1.7747
 2800SOL     OW19861   2.545   3.754   5.045  0.0797  0.5557 -0.0890
 2800SOL    HW119862   2.457   3.785   5.021  0.5494  1.2312 -0.9462
 2800SOL    HW219863   2.527   3.697   5.120 -0.9430  1.1342  0.1090
 2801SOL     OW19864   4.643   1.940   3.982  0.3329  0.1721 -0.0389
 2801SOL    HW119865   4.637   2.016   3.924 -1.1102  0.1231  0.0408
 2801SOL    HW219866   4.610   1.875   3.919 -1.5179  1.2851 -0.2368
 2802SOL     OW19867   3.930   0.888   5.477 -0.2389 -0.3865  0.6116
 2802SOL    HW119868   3.850   0.928   5.513 -0.7837 -1.2490  0.3784
 2802SOL    HW219869   3.981   0.915   5.553  0.1634 -1.0644  0.5782
 2803SOL     OW19870   0.941   4.509   5.982  0.0929  0.0921  0.2280
 2803SOL    HW119871   0.974   4.420   5.993 -1.1478 -0.3716  0.1820
 2803SOL    HW219872   0.932   4.528   6.075 -1.0541  1.7703 -0.2269
 2804SOL     OW19873   1.994   0.005   5.416  0.0005 -0.0364 -0.4312
 2804SOL    HW119874   2.080   4.723   5.373  0.5444 -1.1518  0.8722
 2804SOL    HW219875   1.960   4.644   5.393  1.0433 -1.3612  3.0042
 2805SOL     OW19876   0.794   0.680   2.099 -0.0107  1.0182 -0.2558
 2805SOL    HW119877   0.890   0.684   2.100  0.0088  0.7045 -1.0058
 2805SOL    HW219878   0.772   0.725   2.181  1.6810  2.7385 -0.7448
 2806SOL     OW19879   1.818   3.547   4.132  0.5715  0.0339 -0.0917
 2806SOL    HW119880   1.808   3.466   4.081 -1.0129  0.8247 -1.0220
 2806SOL    HW219881   1.798   3.518   4.221 -0.7270  0.6348 -0.1887
 2807SOL     OW19882   2.214   3.102   3.993 -0.5421  0.1425  0.0822
 2807SOL    HW119883   2.208   3.020   3.945  2.7156 -1.0475  1.6876
 2807SOL    HW219884   2.123   3.111   4.022 -0.8398  0.3766 -0.9481
 2808SOL     OW19885   0.954   0.275   6.884  0.1636 -0.5435 -0.0707
 2808SOL    HW119886   1.005   0.208   6.839 -2.4466 -2.4920 -0.1039
 2808SOL    HW219887   1.020   0.344   6.894  0.9416 -1.2448 -0.3909
 2809SOL     OW19888   0.888   0.755  14.106  0.1084 -0.3593  0.6432
 2809SOL    HW119889   0.813   0.708  14.069 -0.3145  1.3648 -0.6695
 2809SOL    HW219890   0.933   0.786  14.028 -1.7267  1.4358  0.2982
 2810SOL     OW19891   0.122   2.622   1.553  0.1528  0.9244  0.1862
 2810SOL    HW119892   0.080   2.552   1.503 -0.3164 -0.6973  2.8503
 2810SOL    HW219893   0.118   2.699   1.497  1.0903  0.6823 -0.2138
 2811SOL     OW19894   2.655   3.310   5.116  0.0590  0.6989 -0.8265
 2811SOL    HW119895   2.632   3.338   5.028 -0.8600  0.5538 -0.6350
 2811SOL    HW219896   2.721   3.244   5.096 -1.5296 -0.5952 -1.8753
 2812SOL     OW19897   3.005   1.026   6.262  0.1110 -0.0947  0.1715
 2812SOL    HW119898   3.077   1.072   6.219 -1.5335  2.0291 -0.3337
 2812SOL    HW219899   3.028   1.040   6.354 -0.8964  2.5317  0.0092
 2813SOL     OW19900   2.748   0.436   3.771 -0.0158 -0.4461 -0.0760
 2813SOL    HW119901   2.726   0.365   3.712 -0.1806  0.9300 -1.6584
 2813SOL    HW219902   2.674   0.437   3.831  0.1451  0.4473  0.1213
 2814SOL     OW19903   0.306   2.238   7.252 -0.3214 -0.5173  0.4246
 2814SOL    HW119904   0.332   2.153   7.216  0.3579 -0.6512  1.2396
 2814SOL    HW219905   0.218   2.240   7.216 -0.9523  1.3467  2.0864
 2815SOL     OW19906   1.218   2.200   0.001  0.3243  0.4230  0.1643
 2815SOL    HW119907   1.184   2.172   0.086  1.0133  1.4016  0.7500
 2815SOL    HW219908   1.139   2.195  17.649  1.1209  0.3124 -0.9914
 2816SOL     OW19909   0.960   2.191  16.964  0.3700  0.0225 -0.1940
 2816SOL    HW119910   0.963   2.101  16.933  2.9982 -0.2184  0.7840
 2816SOL    HW219911   0.871   2.220  16.941 -0.9302 -2.6970  1.4409
 2817SOL     OW19912   0.245   4.141  11.825 -0.3987 -0.1900 -0.0156
 2817SOL    HW119913   0.194   4.141  11.744  1.4327 -0.7035 -1.1758
 2817SOL    HW219914   0.276   4.051  11.815  1.2647  0.4371 -0.3498
 2818SOL     OW19915   4.445   4.357  16.345  0.4325 -0.1673  0.4849
 2818SOL    HW119916   4.452   4.436  16.292  0.5108  0.8276  1.9749
 2818SOL    HW219917   4.523   4.371  16.397  0.4329  0.6414  0.2703
 2819SOL     OW19918   2.092   1.469   8.559  0.3613 -0.1280 -0.0312
 2819SOL    HW119919   2.156   1.505   8.621  1.2375 -1.9502  0.1195
 2819SOL    HW219920   2.009   1.494   8.600 -0.4845  0.5651 -2.1524
 2820SOL     OW19921   0.889   3.292   4.112  0.1029  0.5485 -0.3391
 2820SOL    HW119922   0.946   3.216   4.098  1.7186  1.6756  0.0826
 2820SOL    HW219923   0.802   3.268   4.080  0.0032  2.2675 -1.3647
 2821SOL     OW19924   2.855   1.076   6.999 -0.7961 -0.3644  0.0346
 2821SOL    HW119925   2.871   1.020   6.923  0.9926  0.4765 -0.1947
 2821SOL    HW219926   2.859   1.016   7.073  2.1115 -0.2682 -0.0721
 2822SOL     OW19927   1.221   1.495   7.336 -0.0433  0.8768 -0.6970
 2822SOL    HW119928   1.218   1.590   7.348  1.4054  0.6829  1.2830
 2822SOL    HW219929   1.314   1.485   7.316 -0.1618  0.1322 -0.8732
 2823SOL     OW19930   0.484   3.313   7.954 -0.0371  0.4607  0.1982
 2823SOL    HW119931   0.431   3.237   7.978 -0.5835  1.6602  2.8374
 2823SOL    HW219932   0.570   3.302   7.995 -1.7729 -1.6495  3.2262
 2824SOL     OW19933   1.365   3.293  11.914 -0.4856 -0.2288 -0.3078
 2824SOL    HW119934   1.313   3.267  11.839  1.6906  0.0123 -1.9017
 2824SOL    HW219935   1.298   3.277  11.980 -1.2824 -2.2029 -1.6019
 2825SOL     OW19936   0.468   2.497   2.463 -0.5797  0.0039 -0.2448
 2825SOL    HW119937   0.547   2.506   2.517 -0.3262  1.3881 -0.8338
 2825SOL    HW219938   0.501   2.470   2.377 -1.7930 -2.3255  0.0509
 2826SOL     OW19939   1.390   0.477  10.467  0.2151  0.2440  0.0169
 2826SOL    HW119940   1.344   0.394  10.484 -1.1182  0.6721 -1.4863
 2826SOL    HW219941   1.413   0.511  10.553  0.4427 -0.3537  0.1929
 2827SOL     OW19942   0.718   0.845   4.703 -0.0766 -0.1754  0.1284
 2827SOL    HW119943   0.650   0.848   4.771 -1.2561  0.7548 -1.1017
 2827SOL    HW219944   0.794   0.878   4.752  0.6838 -0.7590 -0.6541
 2828SOL     OW19945   3.112   4.296   8.028 -0.0040 -0.1873 -0.1923
 2828SOL    HW119946   3.033   4.336   8.064  0.8189 -1.1438  2.6646
 2828SOL    HW219947   3.124   4.217   8.081  0.5732  0.2183  0.2819
 2829SOL     OW19948   3.963   2.323   4.771 -0.4270 -0.2323  0.0025
 2829SOL    HW119949   3.964   2.273   4.690  1.3142  1.2428 -0.8707
 2829SOL    HW219950   4.045   2.373   4.772  0.4559 -1.7634  3.3948
 2830SOL     OW19951   1.341   3.549   1.497  0.0481 -0.0677  0.5968
 2830SOL    HW119952   1.276   3.595   1.551 -1.0574  0.7881 -1.4470
 2830SOL    HW219953   1.324   3.461   1.531 -0.6149  0.7117  2.3037
 2831SOL     OW19954   1.337   3.624   5.464  0.0636 -0.1196  0.1082
 2831SOL    HW119955   1.386   3.543   5.449 -0.6114 -0.4539 -0.3085
 2831SOL    HW219956   1.418   3.675   5.462 -1.2318  1.9272  0.6311
 2832SOL     OW19957   1.273   0.029   3.709  0.4552 -0.6790  0.2022
 2832SOL    HW119958   1.268   4.673   3.657  0.1708 -0.9076  0.5882
 2832SOL    HW219959   1.235   0.001   3.792 -0.7736  1.3636  0.3063
 2833SOL     OW19960   2.518   1.562  14.025 -0.0933  0.1790 -0.3045
 2833SOL    HW119961   2.426   1.553  13.998 -0.1622  1.1404 -0.3899
 2833SOL    HW219962   2.546   1.470  14.026  1.4519  0.6559 -0.3803
 2834SOL     OW19963   2.679   1.612   2.477  0.3781  0.1557  0.2619
 2834SOL    HW119964   2.603   1.669   2.474  0.0338 -0.3291 -0.3069
 2834SOL    HW219965   2.667   1.556   2.554  4.0130  1.8819  2.1102
 2835SOL     OW19966   0.704   1.346   4.395  0.2045  0.3393 -0.0070
 2835SOL    HW119967   0.647   1.310   4.328  1.3416  0.8519 -1.2521
 2835SOL    HW219968   0.684   1.440   4.389 -1.2180 -0.0345 -0.8409
 2836SOL     OW19969   2.156   1.563   4.213 -0.8069 -0.4953 -0.1472
 2836SOL    HW119970   2.129   1.547   4.303 -0.9959  1.4918  0.1591
 2836SOL    HW219971   2.138   1.476   4.177 -0.0697 -1.4489  1.8013
 2837SOL     OW19972   0.576   0.170   2.945  0.3122  0.0520  0.0022
 2837SOL    HW119973   0.649   0.198   2.890 -0.4035  0.4249 -0.7567
 2837SOL    HW219974   0.500   0.219   2.914  0.6276 -0.1459 -1.0558
 2838SOL     OW19975   1.450   1.769   8.553  0.0868  0.8204 -0.3378
 2838SOL    HW119976   1.486   1.856   8.568  3.5275 -1.0277  2.3221
 2838SOL    HW219977   1.479   1.735   8.638 -0.6429 -2.5333 -1.4130
 2839SOL     OW19978   3.831   0.846   3.358 -0.5592 -0.1370  0.6184
 2839SOL    HW119979   3.770   0.783   3.318 -0.8950  1.1386 -0.8639
 2839SOL    HW219980   3.840   0.921   3.300 -0.3287 -0.1137  0.6860
 2840SOL     OW19981   2.300   4.250  10.398 -0.2791  0.4576 -0.0167
 2840SOL    HW119982   2.297   4.156  10.417  0.5369  0.8111  1.8236
 2840SOL    HW219983   2.210   4.280  10.417 -0.5506 -1.0715  1.0951
 2841SOL     OW19984   2.466   3.978   8.461  0.5992  0.0568 -0.8593
 2841SOL    HW119985   2.408   4.017   8.526  0.6636  0.2266 -0.9054
 2841SOL    HW219986   2.473   4.047   8.395  0.9685  0.0693 -0.8041
 2842SOL     OW19987   1.570   0.432  14.543 -0.0455  0.0922 -0.1769
 2842SOL    HW119988   1.582   0.473  14.629  0.7071  1.3471 -0.8872
 2842SOL    HW219989   1.489   0.384  14.559 -0.2466 -0.0095 -1.5034
 2843SOL     OW19990   0.162   0.931   4.331 -0.1713  0.2950  0.0989
 2843SOL    HW119991   0.129   0.910   4.419 -1.6747  0.4750 -0.4199
 2843SOL    HW219992   0.120   1.017   4.323 -1.6913 -0.4715 -0.1314
 2844SOL     OW19993   0.743   2.140   3.000 -0.1220  0.1126  0.1679
 2844SOL    HW119994   0.748   2.167   2.908 -0.7979 -0.3648 -0.0116
 2844SOL    HW219995   0.649   2.151   3.013  0.0562 -0.3498  1.8070
 2845SOL     OW19996   1.463   1.014   2.382 -0.0534 -0.1513 -0.0825
 2845SOL    HW119997   1.473   1.047   2.293  1.1170  0.1802  0.1721
 2845SOL    HW219998   1.435   0.924   2.365  2.7083 -1.0564  0.1840
 2846SOL     OW19999   2.204   2.599   4.829 -0.0302  0.0230 -0.2928
 2846SOL    HW120000   2.183   2.629   4.741  0.5385 -1.1547 -0.8199
 2846SOL    HW220001   2.156   2.516   4.827  1.0993 -0.6336 -0.1923
 2847SOL     OW20002   3.574   1.632   3.756  0.1961 -0.1715 -0.7892
 2847SOL    HW120003   3.520   1.649   3.680  0.0816  1.1669 -0.4053
 2847SOL    HW220004   3.613   1.717   3.777 -0.4172  0.3258 -1.7235
 2848SOL     OW20005   2.531   0.698   7.783  0.1413  0.0229  0.0607
 2848SOL    HW120006   2.541   0.605   7.801 -0.9933 -0.3097 -1.0182
 2848SOL    HW220007   2.535   0.721   7.875 -0.4108 -1.1300  0.3722
 2849SOL     OW20008   1.172   2.271  13.397  0.3112 -0.1481 -0.0149
 2849SOL    HW120009   1.095   2.255  13.342 -0.2658  0.9205  0.4791
 2849SOL    HW220010   1.128   2.325  13.462  0.6554  0.3098 -0.1612
 2850SOL     OW20011   3.313   4.551   5.885 -0.2426  0.8758 -0.0515
 2850SOL    HW120012   3.226   4.517   5.865  0.6166 -0.8599 -0.8308
 2850SOL    HW220013   3.345   4.505   5.963  1.5508  1.1174 -0.6267
 2851SOL     OW20014   2.006   1.611   5.809 -0.1720 -0.5635  0.3990
 2851SOL    HW120015   1.944   1.569   5.749 -0.3146  2.1679 -1.3403
 2851SOL    HW220016   2.074   1.639   5.748 -1.3728 -0.1299 -0.7535
 2852SOL     OW20017   0.537   3.556  16.492  0.3634 -0.4885  0.1252
 2852SOL    HW120018   0.525   3.484  16.431 -0.1754 -1.8230  1.7981
 2852SOL    HW220019   0.446   3.570  16.518  1.4611  1.6878  2.7757
 2853SOL     OW20020   4.277   3.395   6.724 -0.3255  1.0262  0.3780
 2853SOL    HW120021   4.215   3.468   6.728 -0.0797  1.2082  0.9375
 2853SOL    HW220022   4.359   3.445   6.730 -0.5773  1.3023  1.7017
 2854SOL     OW20023   3.913   1.339   9.874  0.5467 -0.1795 -0.2571
 2854SOL    HW120024   3.930   1.252   9.911 -0.5329 -0.0457  0.5594
 2854SOL    HW220025   3.868   1.312   9.795  0.6743  1.0847 -0.7613
 2855SOL     OW20026   4.710   1.986   5.555 -0.0521  0.2454  0.7257
 2855SOL    HW120027   0.012   1.902   5.592  1.3032  0.9191  1.2617
 2855SOL    HW220028   0.005   1.966   5.463 -0.0690  2.1491  0.3161
 2856SOL     OW20029   3.818   4.425  16.096  0.2434  0.2301  0.4076
 2856SOL    HW120030   3.800   4.517  16.117 -1.7269 -0.3100  1.1192
 2856SOL    HW220031   3.870   4.434  16.016 -0.3710 -1.3472 -0.1827
 2857SOL     OW20032   3.447   1.851   7.357  0.0282  0.4487  0.6090
 2857SOL    HW120033   3.484   1.939   7.358  1.7150 -0.2606 -0.6598
 2857SOL    HW220034   3.468   1.829   7.448  3.0655 -0.5116 -0.3168
 2858SOL     OW20035   1.530   3.614   2.565  0.0841  0.2262 -0.0551
 2858SOL    HW120036   1.464   3.548   2.541  0.0048  0.5249 -0.6730
 2858SOL    HW220037   1.608   3.602   2.511 -0.0232 -2.2386  0.3762
 2859SOL     OW20038   4.679   2.149   6.301  0.4183 -0.3468 -0.1634
 2859SOL    HW120039   4.634   2.088   6.360 -0.2916  0.1352 -0.2104
 2859SOL    HW220040   0.022   2.089   6.269 -0.3374 -1.3053  0.0536
 2860SOL     OW20041   2.899   0.661   1.947 -0.2044  0.7174  0.1304
 2860SOL    HW120042   2.848   0.716   2.007  0.7908  1.3534  0.3978
 2860SOL    HW220043   2.972   0.637   2.004  0.0266  1.2596  0.0586
 2861SOL     OW20044   2.368   1.636  16.718 -1.5259  0.2985 -0.2545
 2861SOL    HW120045   2.308   1.629  16.792 -2.0747 -0.0478 -0.7332
 2861SOL    HW220046   2.405   1.549  16.727 -1.9904  0.1302  0.0482
 2862SOL     OW20047   4.169   4.524   5.324 -0.0860  0.4404  0.1099
 2862SOL    HW120048   4.158   4.450   5.265  0.3324 -1.1716  2.0666
 2862SOL    HW220049   4.247   4.565   5.285 -0.8978  0.0740 -1.8681
 2863SOL     OW20050   1.224   0.709   0.751 -0.0243  0.3025 -0.1306
 2863SOL    HW120051   1.297   0.662   0.791  0.9011  0.8199 -1.1978
 2863SOL    HW220052   1.268   0.750   0.676  0.6205  0.8037  0.5144
 2864SOL     OW20053   2.138   1.932   0.246 -0.3170  0.3032 -0.5275
 2864SOL    HW120054   2.134   2.021   0.210 -1.7976  1.0185  1.3931
 2864SOL    HW220055   2.064   1.924   0.307 -0.5727 -0.3595 -0.9327
 2865SOL     OW20056   1.790   1.093   0.467 -0.1936  0.0949  0.4105
 2865SOL    HW120057   1.757   1.138   0.545 -0.1631 -0.3442  0.6813
 2865SOL    HW220058   1.713   1.058   0.424 -1.0026  1.5550  0.6739
 2866SOL     OW20059   0.603   0.934   7.270  0.2178  0.4983  0.4301
 2866SOL    HW120060   0.683   0.923   7.321  0.0810  1.3015  0.8224
 2866SOL    HW220061   0.637   0.951   7.182  0.4991 -2.2381  0.0018
 2867SOL     OW20062   4.309   2.243   4.796 -0.7597 -1.1443 -0.4699
 2867SOL    HW120063   4.318   2.191   4.717 -1.4414 -0.5006 -0.9748
 2867SOL    HW220064   4.319   2.332   4.762  2.1683 -0.5204  2.0325
 2868SOL     OW20065   0.646   1.827   2.958  0.3468 -0.0266  0.0822
 2868SOL    HW120066   0.633   1.895   2.892 -2.0723  0.1393  0.7008
 2868SOL    HW220067   0.741   1.832   2.964  0.3665 -2.3664  1.9604
 2869SOL     OW20068   0.166   2.240   9.345  0.5953 -0.5934 -0.5708
 2869SOL    HW120069   0.123   2.326   9.353  0.7105 -0.5253 -0.6760
 2869SOL    HW220070   0.208   2.249   9.260  0.3219 -0.1521 -0.6631
 2870SOL     OW20071   0.920   2.342   8.012  0.5129 -0.0660  0.3103
 2870SOL    HW120072   0.858   2.284   7.968  0.3793  1.7597 -1.8879
 2870SOL    HW220073   0.871   2.424   8.011  1.0110  0.2163 -1.1736
 2871SOL     OW20074   0.341   0.004   7.756  0.2256 -0.0268 -0.1518
 2871SOL    HW120075   0.330   4.634   7.762  0.9395 -0.0308  1.1065
 2871SOL    HW220076   0.278   0.022   7.686 -0.3178  1.8250  0.8118
 2872SOL     OW20077   4.099   1.493   3.749  0.1566  0.2393  0.0236
 2872SOL    HW120078   4.029   1.496   3.814 -0.0663 -0.6489 -0.1885
 2872SOL    HW220079   4.087   1.407   3.709 -0.1608  0.2492  0.1009
 2873SOL     OW20080   2.764   1.593   2.000 -0.4302 -1.3069 -0.2390
 2873SOL    HW120081   2.834   1.569   1.939 -0.6643 -2.0286 -0.2236
 2873SOL    HW220082   2.716   1.513   2.023  0.8112 -2.5882 -2.0796
 2874SOL     OW20083   2.512   0.603  11.673 -0.2602 -0.4764 -0.2875
 2874SOL    HW120084   2.460   0.535  11.716 -1.3269  1.7051  1.9183
 2874SOL    HW220085   2.555   0.546  11.610  1.8179  2.0579 -1.1776
 2875SOL     OW20086   1.909   2.351   9.961  0.2673  0.0575 -0.5800
 2875SOL    HW120087   1.894   2.418   9.895  1.4441 -0.9123 -1.8181
 2875SOL    HW220088   1.925   2.280   9.899 -1.3545  2.3150 -3.6048
 2876SOL     OW20089   3.579   1.944   5.976  0.0795  0.0692 -0.5944
 2876SOL    HW120090   3.485   1.929   5.979  0.1576  0.0341  1.3912
 2876SOL    HW220091   3.596   2.002   6.050 -0.0583 -1.2606  0.4686
 2877SOL     OW20092   0.426   1.919   6.637 -0.4156  0.2100 -0.2808
 2877SOL    HW120093   0.442   1.874   6.554  2.0431  0.3625  0.1164
 2877SOL    HW220094   0.336   1.948   6.621 -0.0769  0.8911 -0.9656
 2878SOL     OW20095   1.950   0.444   4.093 -0.3045  0.7160  0.1599
 2878SOL    HW120096   2.016   0.454   4.024 -2.1129  0.8162 -1.5645
 2878SOL    HW220097   1.989   0.486   4.170 -0.4352  0.6915  0.2388
 2879SOL     OW20098   0.459   1.386   1.377  0.2168  0.0237 -0.3340
 2879SOL    HW120099   0.458   1.293   1.353  0.3134 -0.6601  2.3210
 2879SOL    HW220100   0.480   1.377   1.470 -0.3390 -0.6442 -0.2768
 2880SOL     OW20101   0.068   3.331   2.035 -0.2103  0.4274  0.0774
 2880SOL    HW120102   0.107   3.408   2.076 -1.5525 -0.2388  2.6137
 2880SOL    HW220103   0.135   3.309   1.970  1.4868  2.1526  1.2562
 2881SOL     OW20104   1.984   0.733   8.667  0.3550 -0.1787  0.5537
 2881SOL    HW120105   1.940   0.784   8.600 -0.3739 -0.8225  0.5401
 2881SOL    HW220106   1.910   0.692   8.711  0.8411 -0.5254  1.0500
 2882SOL     OW20107   1.600   4.246   8.608  0.5404 -0.0114 -0.6541
 2882SOL    HW120108   1.574   4.337   8.620 -1.5587 -0.7999  0.9276
 2882SOL    HW220109   1.535   4.221   8.543 -0.1967 -0.0023  0.0783
 2883SOL     OW20110   1.608   4.499   2.999  0.5755 -0.1695  0.1713
 2883SOL    HW120111   1.640   4.501   2.909 -0.3154 -1.5325 -0.1809
 2883SOL    HW220112   1.515   4.478   2.990  0.7515 -0.8462 -0.0158
 2884SOL     OW20113   3.590   0.200   1.850  0.3018  0.4581  0.2850
 2884SOL    HW120114   3.508   0.155   1.872  0.1640 -0.3252 -1.8179
 2884SOL    HW220115   3.656   0.131   1.852  1.3400  1.4121 -1.3927
 2885SOL     OW20116   3.070   1.736   3.072 -0.7414 -1.0104 -0.3342
 2885SOL    HW120117   3.153   1.718   3.029  1.0551  1.0850  2.2477
 2885SOL    HW220118   3.015   1.659   3.061  0.4801 -1.7167 -1.4585
 2886SOL     OW20119   4.367   2.532   3.446  0.3588 -0.2260 -0.0632
 2886SOL    HW120120   4.460   2.530   3.421  0.2222  2.0485 -0.7312
 2886SOL    HW220121   4.348   2.615   3.403 -0.4849  0.0302  0.8035
 2887SOL     OW20122   0.090   0.744   9.172 -0.2668  0.3756  0.4109
 2887SOL    HW120123   0.096   0.653   9.143 -1.0528  0.4977 -0.1089
 2887SOL    HW220124   0.049   0.787   9.097  0.4123 -1.3234 -0.9380
 2888SOL     OW20125   1.501   4.129   7.723  0.3698 -0.0707 -0.1770
 2888SOL    HW120126   1.460   4.076   7.792 -1.5845 -1.4413 -2.3986
 2888SOL    HW220127   1.559   4.067   7.680 -0.7669 -1.9711  1.0130
 2889SOL     OW20128   2.838   0.870   0.531 -0.0721 -0.2302 -0.5972
 2889SOL    HW120129   2.889   0.933   0.583 -1.3060  0.7865 -0.6105
 2889SOL    HW220130   2.761   0.924   0.512  0.6011  0.2870 -1.8039
 2890SOL     OW20131   4.268   2.815   4.508  0.2374 -0.6861  0.8654
 2890SOL    HW120132   4.213   2.814   4.430  3.5780  0.0097 -1.5005
 2890SOL    HW220133   4.201   2.778   4.565 -0.3644  0.6043  0.9909
 2891SOL     OW20134   2.701   2.241   7.188  0.1839  0.1937  1.0831
 2891SOL    HW120135   2.783   2.287   7.172 -0.0062  0.0289 -0.3881
 2891SOL    HW220136   2.646   2.307   7.231  0.0776  0.7457  0.1177
 2892SOL     OW20137   2.927   4.228  12.728 -0.2454  0.1723  0.1912
 2892SOL    HW120138   2.926   4.183  12.812  1.1639 -0.0850  0.0600
 2892SOL    HW220139   2.939   4.317  12.761  0.1514  0.4265 -0.6535
 2893SOL     OW20140   2.205   0.653   4.099 -0.0730  0.4281 -0.2775
 2893SOL    HW120141   2.132   0.630   4.041 -0.7646  0.2375  0.6708
 2893SOL    HW220142   2.250   0.718   4.045  3.0995 -1.1566  0.4505
 2894SOL     OW20143   2.461   1.570   3.825  0.5074 -0.4195 -0.5966
 2894SOL    HW120144   2.461   1.475   3.832  0.0586 -0.3514  0.2923
 2894SOL    HW220145   2.383   1.598   3.873 -0.0366 -0.4922 -1.4215
 2895SOL     OW20146   0.956   0.052   8.104 -0.0451 -0.5273 -0.7070
 2895SOL    HW120147   1.048   0.025   8.103  0.2218  0.3590 -0.1284
 2895SOL    HW220148   0.944   0.079   8.013  3.4802 -1.2415 -1.3829
 2896SOL     OW20149   2.530   4.640  14.990  0.6630 -0.1166  0.0280
 2896SOL    HW120150   2.513   4.656  14.897  1.0277 -0.5813 -0.1215
 2896SOL    HW220151   2.625   4.639  14.975  0.9577  0.5389  1.8424
 2897SOL     OW20152   2.651   0.045   6.368 -0.0325  0.0966  0.4143
 2897SOL    HW120153   2.594   0.110   6.328  0.9322 -0.2596 -1.5524
 2897SOL    HW220154   2.664   0.075   6.457 -0.0600  1.0168  0.1074
 2898SOL     OW20155   1.677   2.303   7.533  0.1754  0.3632 -0.7600
 2898SOL    HW120156   1.731   2.260   7.466 -0.8303  0.8102 -1.8458
 2898SOL    HW220157   1.748   2.363   7.557  0.4437  0.2291 -1.2178
 2899SOL     OW20158   0.519   3.202   8.799 -0.3592 -0.6775 -0.3448
 2899SOL    HW120159   0.449   3.255   8.761  0.2096  0.0610 -0.3623
 2899SOL    HW220160   0.469   3.127   8.832 -1.1079 -0.1494 -0.2768
 2900SOL     OW20161   3.428   4.128   9.539 -0.4590  0.3662  0.1155
 2900SOL    HW120162   3.456   4.038   9.521  0.1009  1.0836 -2.6304
 2900SOL    HW220163   3.502   4.141   9.599 -1.1747  0.9868  0.8573
 2901SOL     OW20164   2.216   1.505   7.848  0.4921  0.2039  0.5912
 2901SOL    HW120165   2.128   1.481   7.876  0.2157 -1.5558 -1.7716
 2901SOL    HW220166   2.234   1.579   7.906 -1.4761  0.1429  1.2852
 2902SOL     OW20167   3.689   4.490   0.754 -0.3058 -0.1737 -0.5196
 2902SOL    HW120168   3.617   4.529   0.803  1.2528  2.0795 -0.0743
 2902SOL    HW220169   3.682   4.513   0.661 -1.1721 -0.3552 -0.5033
 2903SOL     OW20170   0.034   2.816   7.178  0.2653  0.3698  0.4795
 2903SOL    HW120171   0.085   2.855   7.249  0.8163  2.3670 -1.0321
 2903SOL    HW220172   0.107   2.792   7.121  1.4405 -0.2189  2.2034
 2904SOL     OW20173   1.093   2.638   5.145  0.4932  0.1831  0.1728
 2904SOL    HW120174   1.172   2.587   5.166 -0.8814 -2.3383 -0.7576
 2904SOL    HW220175   1.105   2.661   5.053  1.9510 -1.0254  0.0385
 2905SOL     OW20176   0.691   0.421   4.781  0.4841  0.1343  0.6027
 2905SOL    HW120177   0.692   0.463   4.695  2.0344 -0.8372  0.1391
 2905SOL    HW220178   0.785   0.405   4.792  0.6218 -0.7084 -1.8237
 2906SOL     OW20179   1.292   4.725   1.315  0.1726 -0.4552 -0.0283
 2906SOL    HW120180   1.220   4.664   1.329  0.2394 -0.1122  1.7865
 2906SOL    HW220181   1.273   0.027   1.225  0.7644 -0.7045 -0.2305
 2907SOL     OW20182   0.588   3.192   6.842 -0.7452 -0.6793 -0.3409
 2907SOL    HW120183   0.599   3.097   6.843  0.5665 -0.5331 -1.2558
 2907SOL    HW220184   0.667   3.224   6.885 -1.5168 -0.3125  0.7992
 2908SOL     OW20185   3.762   1.763   7.473 -0.3295  0.2050  0.0599
 2908SOL    HW120186   3.691   1.823   7.495 -1.4831 -0.5903 -1.4952
 2908SOL    HW220187   3.825   1.765   7.545  1.9916  4.9215 -2.0806
 2909SOL     OW20188   0.675   1.969   4.486  0.1434  0.2558 -0.2203
 2909SOL    HW120189   0.608   1.969   4.554  1.1628  0.9119  0.7831
 2909SOL    HW220190   0.644   1.905   4.421 -0.5100  0.7089 -0.3626
 2910SOL     OW20191   0.198   3.558   3.330  0.2325  0.7016  0.3412
 2910SOL    HW120192   0.280   3.529   3.289  0.4099  1.2436  0.3183
 2910SOL    HW220193   0.196   3.652   3.315  0.5423  0.6913  0.2290
 2911SOL     OW20194   2.531   3.699   9.338 -0.1956  0.3911  0.4164
 2911SOL    HW120195   2.571   3.727   9.419 -0.9883  1.4857  0.4267
 2911SOL    HW220196   2.441   3.721   9.361 -0.7400 -3.1043  1.7075
 2912SOL     OW20197   1.530   2.949   5.154 -0.2722  0.0282  0.5033
 2912SOL    HW120198   1.571   3.032   5.129  1.7317 -0.3180  2.6310
 2912SOL    HW220199   1.610   2.897   5.142 -0.2891  0.0480  0.3011
 2913SOL     OW20200   3.009   0.283   8.991 -0.3226 -0.3527  0.4491
 2913SOL    HW120201   2.984   0.334   9.067 -0.9449 -1.4088  0.9562
 2913SOL    HW220202   2.934   0.236   8.954  0.2132 -1.2462  0.4914
 2914SOL     OW20203   0.280   1.724   5.586 -0.0270 -0.2663  0.1627
 2914SOL    HW120204   0.271   1.671   5.507 -0.0926  0.8532 -0.5771
 2914SOL    HW220205   0.253   1.660   5.652 -2.1653  0.5642  0.1010
 2915SOL     OW20206   3.292   1.562   6.879 -0.2928  0.0719  0.0300
 2915SOL    HW120207   3.263   1.534   6.792 -0.9506  0.7566  0.0293
 2915SOL    HW220208   3.262   1.653   6.884 -1.9164 -0.4303 -0.3887
 2916SOL     OW20209   1.736   1.973  13.869  0.0250 -0.7570  0.2808
 2916SOL    HW120210   1.651   2.008  13.896  0.9210  1.2138  0.5309
 2916SOL    HW220211   1.798   2.009  13.932  0.2852 -1.3068  0.3427
 2917SOL     OW20212   1.815   2.248   4.936  0.6245 -0.3126  0.2552
 2917SOL    HW120213   1.761   2.179   4.976 -0.0048  0.4804  0.7637
 2917SOL    HW220214   1.775   2.250   4.849 -0.2688  2.5124  0.7543
 2918SOL     OW20215   3.180   2.953   8.314  0.2709 -0.4426  0.4014
 2918SOL    HW120216   3.176   2.951   8.219 -0.7588 -1.0438  0.4648
 2918SOL    HW220217   3.244   3.021   8.336  1.4246 -1.4742  0.2669
 2919SOL     OW20218   1.529   4.164  17.044  0.1139 -0.2012 -0.4428
 2919SOL    HW120219   1.508   4.249  17.004  0.3781 -0.2103 -0.5945
 2919SOL    HW220220   1.536   4.105  16.969  0.4333  1.5611 -1.8138
 2920SOL     OW20221   2.106   2.855  10.487  0.5495  0.5415 -0.6736
 2920SOL    HW120222   2.150   2.811  10.414 -0.8318 -1.7864 -0.1148
 2920SOL    HW220223   2.174   2.913  10.520  0.9773  0.3909 -1.2995
 2921SOL     OW20224   3.127   1.568   2.124  0.0493 -0.3984 -0.4531
 2921SOL    HW120225   3.138   1.576   2.029  0.3458  0.7295 -0.3267
 2921SOL    HW220226   3.185   1.496   2.150  2.0238  1.7389  1.1381
 2922SOL     OW20227   3.535   0.917   5.865  0.0904 -0.1450  0.2461
 2922SOL    HW120228   3.527   0.822   5.866 -1.5118 -0.0123 -0.1906
 2922SOL    HW220229   3.471   0.944   5.799  0.1101  2.7650  1.3958
 2923SOL     OW20230   2.428   2.477   5.021 -0.1147 -0.2454  0.0237
 2923SOL    HW120231   2.492   2.467   5.091 -1.2074 -1.0739  0.8984
 2923SOL    HW220232   2.348   2.464   5.072 -0.3929 -0.6928 -0.5143
 2924SOL     OW20233   3.457   3.887   8.593 -0.4587 -0.1802 -0.1670
 2924SOL    HW120234   3.531   3.894   8.532 -1.5458  1.3926 -1.3249
 2924SOL    HW220235   3.405   3.816   8.555  0.3176 -0.6754 -0.3084
 2925SOL     OW20236   2.808   0.824   2.138  0.1680  0.2368 -0.2327
 2925SOL    HW120237   2.815   0.831   2.233 -1.0600 -1.4948 -0.0068
 2925SOL    HW220238   2.873   0.886   2.106  1.9076 -2.4831 -1.9415
 2926SOL     OW20239   0.318   1.962  15.727 -0.3236 -0.4733  0.1278
 2926SOL    HW120240   0.366   2.044  15.716 -1.0481 -0.1340 -0.5172
 2926SOL    HW220241   0.283   1.943  15.640 -0.3369 -0.7409  0.1920
 2927SOL     OW20242   3.522   2.227   4.825 -0.6314 -0.2743 -0.1820
 2927SOL    HW120243   3.597   2.282   4.849  1.4873 -2.8835 -0.8854
 2927SOL    HW220244   3.569   2.160   4.776  0.5326  1.3782 -1.3331
 2928SOL     OW20245   2.734   0.195   2.778 -0.1767 -0.3305  0.5559
 2928SOL    HW120246   2.776   0.136   2.716  0.9727 -0.1136  1.1369
 2928SOL    HW220247   2.733   0.137   2.854  2.1967 -0.9296  0.1018
 2929SOL     OW20248   0.847   1.790   4.738 -0.0046  0.3510 -0.1297
 2929SOL    HW120249   0.872   1.714   4.686 -0.2113  0.0994  0.1412
 2929SOL    HW220250   0.923   1.787   4.796 -0.1494 -2.7556 -0.1024
 2930SOL     OW20251   1.074   4.098   6.709  0.3138 -0.3893 -0.4427
 2930SOL    HW120252   1.016   4.134   6.775  1.2739  0.2967  0.0141
 2930SOL    HW220253   1.028   4.063   6.632  0.3810  1.1413 -1.1827
 2931SOL     OW20254   1.639   4.315   5.351  0.5370  0.3561  0.2899
 2931SOL    HW120255   1.660   4.409   5.351  0.6979  0.3209 -0.4315
 2931SOL    HW220256   1.547   4.312   5.325  0.6868  0.3027 -0.2229
 2932SOL     OW20257   2.826   1.717   2.890  0.5472 -0.2034 -0.1496
 2932SOL    HW120258   2.785   1.768   2.960 -2.7277 -1.4740 -1.1507
 2932SOL    HW220259   2.863   1.643   2.939 -0.3579  0.5626  1.6879
 2933SOL     OW20260   0.736   4.644   2.965 -0.1602  0.7242  0.3063
 2933SOL    HW120261   0.723   4.683   2.879  1.0942 -0.7622 -0.5563
 2933SOL    HW220262   0.800   4.699   3.009 -0.3012  1.4922 -0.4481
 2934SOL     OW20263   2.567   2.686   7.487 -0.5079  0.0967 -0.3890
 2934SOL    HW120264   2.524   2.770   7.472  2.0334  1.6301  0.9455
 2934SOL    HW220265   2.533   2.632   7.415  1.1963 -0.1840 -0.9823
 2935SOL     OW20266   1.218   2.879   2.627  0.1360 -0.4543 -0.1110
 2935SOL    HW120267   1.258   2.862   2.712  0.4496  0.3576 -0.0939
 2935SOL    HW220268   1.126   2.903   2.634  0.0664 -0.6511 -0.3388
 2936SOL     OW20269   3.080   3.172  16.746 -0.4879 -0.6320  0.3347
 2936SOL    HW120270   3.157   3.210  16.703 -0.2161  0.4298  1.7528
 2936SOL    HW220271   3.064   3.246  16.805  1.3974  0.3855 -0.4325
 2937SOL     OW20272   4.538   0.009   6.259 -0.0941  0.4676  0.4357
 2937SOL    HW120273   4.590   0.067   6.203  1.9623 -1.9552 -0.1280
 2937SOL    HW220274   4.597   4.688   6.318 -1.4319 -1.5566  0.1693
 2938SOL     OW20275   4.009   3.795  13.102  0.6032 -0.3339  0.1351
 2938SOL    HW120276   3.933   3.789  13.160 -0.6789  0.5433 -1.4614
 2938SOL    HW220277   4.080   3.815  13.162 -0.3126  0.2720  1.0178
 2939SOL     OW20278   3.508   3.334   6.779  0.1101  0.1038  0.3064
 2939SOL    HW120279   3.443   3.270   6.808 -0.1674 -0.1815 -0.9608
 2939SOL    HW220280   3.573   3.263   6.784 -0.4809 -0.4273  0.4149
 2940SOL     OW20281   2.256   0.682   1.212  0.2813  0.7098  0.2471
 2940SOL    HW120282   2.244   0.615   1.279  2.6422 -0.5948 -0.6397
 2940SOL    HW220283   2.340   0.720   1.238  0.8156  0.0118 -0.4758
 2941SOL     OW20284   2.348   2.819   4.319  0.1302  0.2565 -0.3629
 2941SOL    HW120285   2.255   2.817   4.343  0.4392 -0.9190  0.7269
 2941SOL    HW220286   2.380   2.779   4.400 -1.6035 -0.1656  0.1069
 2942SOL     OW20287   1.336   0.913   3.768  0.0317  0.3307 -0.5719
 2942SOL    HW120288   1.330   1.006   3.791  0.6484  0.6846 -1.8545
 2942SOL    HW220289   1.255   0.884   3.810  0.4385  0.1307  0.0818
 2943SOL     OW20290   2.160   2.233   6.981  0.0435  0.0573  0.4279
 2943SOL    HW120291   2.094   2.186   6.929  0.7609 -0.5538  0.0742
 2943SOL    HW220292   2.240   2.196   6.945 -0.1097 -2.0061  2.2493
 2944SOL     OW20293   4.585   3.044  16.817 -0.4568  0.0352  0.1600
 2944SOL    HW120294   4.608   3.136  16.819 -1.5888  0.3280 -0.4790
 2944SOL    HW220295   4.508   3.023  16.870  0.6571  0.4888  1.9505
 2945SOL     OW20296   2.145   2.529   4.080  0.0243 -0.1093 -0.3743
 2945SOL    HW120297   2.142   2.528   3.985  2.0538  0.3248 -0.4511
 2945SOL    HW220298   2.214   2.464   4.090 -0.7236 -0.9758 -0.9162
 2946SOL     OW20299   4.689   0.299   3.325 -0.2667  0.2451  0.1102
 2946SOL    HW120300   0.000   0.346   3.400  2.1533 -2.3865  0.5707
 2946SOL    HW220301   4.595   0.314   3.339 -0.4440 -1.5477  0.8568
 2947SOL     OW20302   1.402   0.194   4.717  0.2360  0.6697 -0.4219
 2947SOL    HW120303   1.396   0.101   4.694  1.9131  1.1251 -2.6452
 2947SOL    HW220304   1.480   0.193   4.773  0.3385 -0.6209 -0.5902
 2948SOL     OW20305   3.938   3.793   0.254  0.3007 -0.4162  0.0093
 2948SOL    HW120306   4.009   3.857   0.260 -0.2222  0.1271  0.4403
 2948SOL    HW220307   3.984   3.716   0.286  0.2157  0.2596  1.7689
 2949SOL     OW20308   4.027   1.756   8.262 -0.4642 -0.5091  0.5079
 2949SOL    HW120309   3.954   1.817   8.275 -0.2489 -0.0435 -0.4362
 2949SOL    HW220310   4.066   1.775   8.177 -0.3716  0.5818  0.7892
 2950SOL     OW20311   0.793   1.356   0.473 -0.4958  0.5183 -0.3870
 2950SOL    HW120312   0.750   1.425   0.422 -1.8355 -0.7748 -1.0120
 2950SOL    HW220313   0.876   1.401   0.491  0.7184 -2.2953  0.9995
 2951SOL     OW20314   1.000   2.587   9.182  0.5465  0.6881  0.2604
 2951SOL    HW120315   0.921   2.559   9.228 -1.6413  1.8820 -2.7425
 2951SOL    HW220316   1.063   2.524   9.218 -1.7745 -0.5182  2.2127
 2952SOL     OW20317   1.309   4.355   8.208 -0.0857  0.8327  0.5182
 2952SOL    HW120318   1.385   4.376   8.262  0.0844 -0.3134  0.7258
 2952SOL    HW220319   1.244   4.408   8.254  0.5735 -0.5283  3.0509
 2953SOL     OW20320   2.634   1.072  15.320  0.0150  0.0797  0.4666
 2953SOL    HW120321   2.601   1.019  15.393 -1.6882 -0.0684 -0.4068
 2953SOL    HW220322   2.662   1.149  15.370 -1.6751  0.3274  1.0465
 2954SOL     OW20323   2.633   4.315   7.248 -0.1539 -0.3879  0.2191
 2954SOL    HW120324   2.640   4.223   7.273  0.9460 -0.7068 -1.2205
 2954SOL    HW220325   2.698   4.349   7.309 -1.4937 -0.6664  1.7777
 2955SOL     OW20326   2.985   0.544  13.658  0.1359  0.2535 -0.5105
 2955SOL    HW120327   3.037   0.526  13.736  0.2484 -0.1448 -0.6737
 2955SOL    HW220328   2.949   0.460  13.629  1.0920  0.2938 -1.8405
 2956SOL     OW20329   3.718   4.014   5.395 -0.9270  0.1421  0.3985
 2956SOL    HW120330   3.637   4.064   5.405 -1.7972 -1.1634 -0.0953
 2956SOL    HW220331   3.782   4.082   5.374 -3.4196  2.1255 -0.6747
 2957SOL     OW20332   0.933   3.241   8.907 -0.3759 -0.5265  0.2342
 2957SOL    HW120333   1.024   3.238   8.879 -0.2854 -2.0954  0.6591
 2957SOL    HW220334   0.934   3.209   8.997  0.5340 -0.2019  0.3307
 2958SOL     OW20335   0.360   4.399   3.858 -0.5450  0.6220  0.1349
 2958SOL    HW120336   0.329   4.370   3.944  0.0306  0.2829  0.2331
 2958SOL    HW220337   0.299   4.357   3.798 -0.0441  0.6291 -0.3844
 2959SOL     OW20338   0.222   0.651   9.515 -0.4847 -0.2863 -0.6904
 2959SOL    HW120339   0.228   0.558   9.538  1.1188  0.2020  0.9055
 2959SOL    HW220340   0.137   0.653   9.472 -0.9538  0.4269  0.2844
 2960SOL     OW20341   0.565   4.532   4.021  0.0356  0.4961  0.1285
 2960SOL    HW120342   0.653   4.555   3.990 -0.2004  1.6115  0.2867
 2960SOL    HW220343   0.555   4.457   3.962  0.0818  1.1546 -0.7350
 2961SOL     OW20344   2.989   2.734   4.830  0.4227 -0.4843 -0.2182
 2961SOL    HW120345   3.071   2.744   4.879 -0.1701 -0.7377  0.8204
 2961SOL    HW220346   2.981   2.825   4.802  0.2524 -0.6517 -0.7147
 2962SOL     OW20347   0.279   1.523   7.590 -1.0646  0.0214  0.1399
 2962SOL    HW120348   0.188   1.517   7.560 -1.2316 -2.6876  1.2272
 2962SOL    HW220349   0.300   1.441   7.634 -0.3755  0.7809  1.2258
 2963SOL     OW20350   1.666   3.072   6.024  0.4005 -0.1591  0.2644
 2963SOL    HW120351   1.671   3.160   5.989 -0.5508 -0.6889 -1.1898
 2963SOL    HW220352   1.620   3.080   6.107 -1.0545 -0.9295 -0.4694
 2964SOL     OW20353   0.821   1.475   5.280  0.0848  0.4447 -0.0541
 2964SOL    HW120354   0.866   1.520   5.209 -3.3016  0.4632 -2.1755
 2964SOL    HW220355   0.789   1.552   5.327 -0.1673  0.9014 -0.9744
 2965SOL     OW20356   3.302   2.391   4.700 -0.0252  0.5708  0.0575
 2965SOL    HW120357   3.347   2.310   4.722 -1.9367 -0.9796 -1.8402
 2965SOL    HW220358   3.358   2.459   4.738 -0.8794  0.9308  0.6513
 2966SOL     OW20359   3.059   4.465   5.846  0.1862 -0.1891  0.2440
 2966SOL    HW120360   2.982   4.504   5.804  1.2482  0.6977 -0.8799
 2966SOL    HW220361   3.022   4.401   5.907  0.2960  1.3964  1.9749
 2967SOL     OW20362   0.936   4.572   6.943  0.3570  0.1762 -0.1624
 2967SOL    HW120363   0.914   4.525   6.863 -0.1915  0.5607 -0.2314
 2967SOL    HW220364   0.938   4.500   7.007 -0.0088 -0.9261 -1.3927
 2968SOL     OW20365   0.633   1.917  17.194 -0.3076 -0.3672 -0.2845
 2968SOL    HW120366   0.616   1.830  17.157 -0.8231 -0.0451 -0.8176
 2968SOL    HW220367   0.629   1.965  17.111  1.3718  0.9284  0.3935
 2969SOL     OW20368   3.407   4.051   4.846  0.3552 -0.0582  0.0176
 2969SOL    HW120369   3.371   4.021   4.930  0.2462 -1.4385 -0.5302
 2969SOL    HW220370   3.499   4.032   4.867  0.7235  3.0893  1.1825
 2970SOL     OW20371   2.771   3.253   5.795 -0.2814 -0.2652 -0.3104
 2970SOL    HW120372   2.733   3.302   5.867  0.1237  0.0500 -0.3113
 2970SOL    HW220373   2.696   3.197   5.774 -0.0346 -0.5818 -0.3572
 2971SOL     OW20374   3.613   2.836   5.016  0.1688  0.3608  0.8069
 2971SOL    HW120375   3.687   2.896   5.015  1.4081 -1.1848 -0.7963
 2971SOL    HW220376   3.545   2.893   4.979  0.2353  0.5902  1.0388
 2972SOL     OW20377   0.775   0.470   0.203  0.2062  0.3086 -0.1011
 2972SOL    HW120378   0.681   0.465   0.186 -0.1059  2.2066  1.1244
 2972SOL    HW220379   0.777   0.395   0.263 -1.3551  0.2772 -0.1098
 2973SOL     OW20380   3.732   4.491  16.442  0.3281  0.1705  0.0965
 2973SOL    HW120381   3.752   4.398  16.452  1.4239  0.5272  1.1998
 2973SOL    HW220382   3.646   4.492  16.399  0.7107 -1.8852 -0.6987
 2974SOL     OW20383   3.220   0.849   8.747  0.0345  0.1904  0.3907
 2974SOL    HW120384   3.135   0.820   8.779  0.4937 -2.9469 -1.2730
 2974SOL    HW220385   3.215   0.829   8.653 -0.9738 -5.4752  1.6518
 2975SOL     OW20386   3.081   4.144   7.492 -0.2292  0.7384 -0.3685
 2975SOL    HW120387   3.005   4.086   7.493  2.5814 -2.9439 -0.7686
 2975SOL    HW220388   3.082   4.173   7.583  0.4578  0.1820 -0.1942
 2976SOL     OW20389   2.944   3.347   8.113 -0.2790 -0.1038 -0.4691
 2976SOL    HW120390   2.956   3.262   8.156  3.6177  1.0723  0.7813
 2976SOL    HW220391   3.029   3.364   8.073  0.5881 -1.8737  0.6269
 2977SOL     OW20392   1.833   0.929   5.252  0.1090 -0.2384  0.4884
 2977SOL    HW120393   1.829   0.894   5.341  0.5211 -1.7025 -0.0549
 2977SOL    HW220394   1.886   1.007   5.261 -2.2126  1.0725  2.6657
 2978SOL     OW20395   3.024   4.415   4.361 -0.2762 -0.1972  0.2134
 2978SOL    HW120396   3.103   4.361   4.362  1.0839  1.8390  1.6608
 2978SOL    HW220397   2.973   4.388   4.438  1.7789  1.4336  2.1495
 2979SOL     OW20398   0.395   3.434   2.511 -0.4365 -0.4210  0.4736
 2979SOL    HW120399   0.329   3.471   2.452 -0.4304 -1.3696 -0.1156
 2979SOL    HW220400   0.448   3.510   2.534  1.2208 -1.0333 -1.3335
 2980SOL     OW20401   3.762   0.679   6.424 -0.3099 -0.3760  0.2890
 2980SOL    HW120402   3.742   0.699   6.515  0.9313  0.5312  0.3563
 2980SOL    HW220403   3.837   0.623   6.441  1.6277  1.5812 -1.8201
 2981SOL     OW20404   1.264   4.032   2.684  0.3700  0.1484 -0.7599
 2981SOL    HW120405   1.243   4.099   2.619  0.9957  0.9802 -0.1115
 2981SOL    HW220406   1.190   4.038   2.745  1.5348 -2.4404  0.9102
 2982SOL     OW20407   1.237   3.159   5.821 -0.1596 -0.1803  0.2737
 2982SOL    HW120408   1.161   3.210   5.849 -1.4520 -0.4439 -2.6590
 2982SOL    HW220409   1.221   3.067   5.842  1.5863 -0.1052  1.8798
 2983SOL     OW20410   1.901   1.701   5.000  0.4110  0.0251 -0.0021
 2983SOL    HW120411   1.965   1.633   4.980 -0.0075 -0.1599 -0.6925
 2983SOL    HW220412   1.833   1.643   5.033  0.8016 -0.0548  0.6592
 2984SOL     OW20413   4.167   0.536   2.773  0.7285 -0.0115 -0.0904
 2984SOL    HW120414   4.103   0.465   2.779  0.9529 -0.2720 -0.8331
 2984SOL    HW220415   4.114   0.615   2.784 -0.4990 -1.2448  2.8961
 2985SOL     OW20416   1.997   4.111  16.805 -0.1615 -0.0952 -0.4020
 2985SOL    HW120417   1.937   4.084  16.736 -2.2302  2.2668  0.4641
 2985SOL    HW220418   1.991   4.033  16.860 -1.6006 -0.0681 -0.5296
 2986SOL     OW20419   4.462   4.470   1.183  1.1202  0.1965  0.7938
 2986SOL    HW120420   4.441   4.526   1.109  0.2720 -2.0088 -0.6357
 2986SOL    HW220421   4.460   4.532   1.256 -0.0106  2.4915 -1.2018
 2987SOL     OW20422   0.529   1.967   1.299  0.2049  0.1259  0.5974
 2987SOL    HW120423   0.446   2.006   1.327 -1.0795 -2.5347  0.5168
 2987SOL    HW220424   0.588   2.021   1.351 -2.4461  0.5740  3.1162
 2988SOL     OW20425   2.465   1.299   1.252 -0.4839  0.2316 -0.0911
 2988SOL    HW120426   2.432   1.323   1.338 -0.1604 -0.6129  0.2635
 2988SOL    HW220427   2.400   1.234   1.225  1.0454 -0.6381 -1.6142
 2989SOL     OW20428   0.302   4.698   9.776  0.6228 -0.4958 -0.0857
 2989SOL    HW120429   0.260   0.039   9.831 -0.1692  0.4075 -1.7697
 2989SOL    HW220430   0.264   4.617   9.811 -2.1309  1.5907  1.7292
 2990SOL     OW20431   4.431   2.109   6.679 -0.2100  0.5271  0.2615
 2990SOL    HW120432   4.371   2.037   6.702  1.4045 -1.0180 -0.3406
 2990SOL    HW220433   4.375   2.172   6.633 -3.7364 -2.4913  0.3966
 2991SOL     OW20434   4.719   1.800   5.799 -0.1501 -0.6552  0.2751
 2991SOL    HW120435   4.658   1.809   5.872  0.6741  1.5999  0.6831
 2991SOL    HW220436   0.070   1.762   5.841  0.2150  0.3702  0.5440
 2992SOL     OW20437   4.712   3.084   9.720 -0.1898 -0.1116  0.0240
 2992SOL    HW120438   0.050   3.014   9.731  1.4476  1.2069 -0.9953
 2992SOL    HW220439   4.677   3.078   9.809  1.3661  0.4187  0.6672
 2993SOL     OW20440   2.117   2.385   5.518  0.5874  0.2539 -0.3885
 2993SOL    HW120441   2.142   2.348   5.603  1.8783  1.0388 -0.4156
 2993SOL    HW220442   2.206   2.383   5.483  0.5453 -1.1843 -0.3875
 2994SOL     OW20443   1.784   0.939   2.870  0.7491 -0.1984  0.0242
 2994SOL    HW120444   1.865   0.911   2.827 -0.2401 -1.7060 -0.8506
 2994SOL    HW220445   1.835   0.992   2.932  0.6211 -1.2717  1.0338
 2995SOL     OW20446   2.224   3.266   5.797 -0.3506 -0.3545  0.2831
 2995SOL    HW120447   2.201   3.235   5.884 -0.8737  0.3516  0.3939
 2995SOL    HW220448   2.249   3.181   5.760  0.4938 -0.5178  1.2624
 2996SOL     OW20449   3.352   2.087   2.178  0.0623  0.0403  0.4812
 2996SOL    HW120450   3.438   2.126   2.195 -0.6915  1.2239  1.5992
 2996SOL    HW220451   3.373   1.994   2.190 -0.4256 -0.1456 -0.1303
 2997SOL     OW20452   0.278   3.358  11.526  0.2653 -0.2180  0.1307
 2997SOL    HW120453   0.321   3.312  11.454  0.2063  1.3975 -0.9303
 2997SOL    HW220454   0.346   3.420  11.553 -2.2408  3.1428 -1.3111
 2998SOL     OW20455   3.419   0.969   4.249  0.0387 -0.3646  0.1962
 2998SOL    HW120456   3.459   0.884   4.236 -0.3974 -0.4541 -0.5682
 2998SOL    HW220457   3.411   1.012   4.163 -1.0969 -1.5534 -0.2921
 2999SOL     OW20458   2.763   0.558   4.250  0.0448 -0.3735  0.5975
 2999SOL    HW120459   2.838   0.506   4.277  0.8395  0.0311 -0.8306
 2999SOL    HW220460   2.692   0.525   4.305 -0.0437 -0.0203  0.6937
 3000SOL     OW20461   1.488   0.225   3.058 -0.3769  0.1612  0.7828
 3000SOL    HW120462   1.480   0.219   2.963 -1.4334  1.2594  0.8090
 3000SOL    HW220463   1.397   0.224   3.085 -0.7897 -1.9921 -0.6557
 3001SOL     OW20464   1.106   4.647   0.525 -0.4912 -0.1437 -0.1187
 3001SOL    HW120465   1.201   4.641   0.528 -0.6505 -1.1008  3.0293
 3001SOL    HW220466   1.092   4.707   0.451 -1.6189 -1.4877 -0.9862
 3002SOL     OW20467   1.166   0.797   6.140 -0.4135 -0.5821 -0.1008
 3002SOL    HW120468   1.075   0.784   6.167 -0.2966 -0.2137  0.4716
 3002SOL    HW220469   1.203   0.778   6.226  1.9197 -0.7305 -1.1312
 3003SOL     OW20470   1.970   3.902   4.453 -0.1614  0.0059 -1.0093
 3003SOL    HW120471   1.991   3.813   4.482  1.0032  1.0617  1.3875
 3003SOL    HW220472   1.885   3.899   4.408 -0.3961  1.8077 -0.6704
 3004SOL     OW20473   3.880   3.627   0.959  0.7426 -0.0714 -0.0054
 3004SOL    HW120474   3.811   3.569   0.991 -0.3136  0.3772 -1.4925
 3004SOL    HW220475   3.887   3.672   1.043  1.0218 -1.7644  0.8854
 3005SOL     OW20476   0.812   2.437   6.635 -0.5199 -0.0584  0.4378
 3005SOL    HW120477   0.871   2.370   6.600 -1.2778 -0.8604  0.6947
 3005SOL    HW220478   0.880   2.501   6.655  0.2817 -0.4035 -1.1640
 3006SOL     OW20479   0.026   3.674  12.362 -0.1000  0.3114  0.0214
 3006SOL    HW120480   0.070   3.715  12.436 -1.3324 -0.1665  1.0345
 3006SOL    HW220481   4.670   3.725  12.371 -1.5071 -1.9165  0.0209
 3007SOL     OW20482   2.746   3.015   5.018  0.3102 -0.1612 -0.5152
 3007SOL    HW120483   2.678   3.005   5.084 -1.1575  2.0244 -1.7124
 3007SOL    HW220484   2.817   2.954   5.038  0.9627  1.1903  1.2396
 3008SOL     OW20485   4.219   0.798   2.483  0.2046  0.1135 -0.8080
 3008SOL    HW120486   4.140   0.760   2.522  0.2787 -0.6179 -1.3883
 3008SOL    HW220487   4.254   0.838   2.562 -1.7729 -0.9861  0.6322
 3009SOL     OW20488   2.640   4.094   9.919  0.6344 -0.3251  0.2982
 3009SOL    HW120489   2.577   4.136   9.978  2.1973  0.7397  1.1939
 3009SOL    HW220490   2.693   4.170   9.894 -1.6162  1.2086  0.2187
 3010SOL     OW20491   2.330   0.700  15.671  0.4146 -0.0186 -0.8252
 3010SOL    HW120492   2.423   0.694  15.693 -0.3147 -1.1770  1.9129
 3010SOL    HW220493   2.324   0.691  15.576  2.2239  3.6549 -1.2918
 3011SOL     OW20494   3.291   0.652  17.177 -0.2086  0.0144 -0.1609
 3011SOL    HW120495   3.380   0.630  17.203 -0.5290 -1.9740 -0.7176
 3011SOL    HW220496   3.302   0.737  17.135  1.4670 -0.2630 -0.2771
 3012SOL     OW20497   2.752   3.965   5.723  0.8327 -0.6062 -0.4926
 3012SOL    HW120498   2.783   3.874   5.724 -0.5811 -1.1230 -3.3516
 3012SOL    HW220499   2.801   4.007   5.652  1.1555  0.7309  0.5330
 3013SOL     OW20500   2.266   2.885  10.181 -0.0594 -0.8762 -0.0758
 3013SOL    HW120501   2.225   2.856  10.099 -0.1099  1.9153 -1.0407
 3013SOL    HW220502   2.308   2.804  10.210  1.4143  0.2666  0.9661
 3014SOL     OW20503   0.541   0.602  10.288 -0.4848 -0.1546  0.0021
 3014SOL    HW120504   0.508   0.651  10.362 -0.5477  0.7789 -0.6389
 3014SOL    HW220505   0.481   0.527  10.287 -0.9977  0.2668 -0.4734
 3015SOL     OW20506   0.828   2.451  15.863 -0.2310 -0.8631  0.6217
 3015SOL    HW120507   0.851   2.456  15.956  0.5382 -2.1499  0.4878
 3015SOL    HW220508   0.903   2.403  15.828  0.5079  1.7774 -1.4387
 3016SOL     OW20509   1.930   2.947  14.659 -0.4658  0.4395  0.0191
 3016SOL    HW120510   1.884   2.977  14.580 -0.2581 -0.7658 -0.5574
 3016SOL    HW220511   2.022   2.931  14.635 -0.1321  2.0734  0.1606
 3017SOL     OW20512   4.048   0.826  14.205  0.4112 -0.1968  0.1473
 3017SOL    HW120513   3.958   0.855  14.190  0.2950 -0.5878  0.0771
 3017SOL    HW220514   4.063   0.756  14.141 -0.1013 -0.0436 -0.1339
 3018SOL     OW20515   1.979   1.908   7.121 -0.1048 -0.6647 -0.1651
 3018SOL    HW120516   1.987   1.943   7.033 -1.2909  0.2732  0.0936
 3018SOL    HW220517   1.908   1.967   7.148  1.3719  1.0186 -0.0062
 3019SOL     OW20518   1.099   3.902   0.741 -0.0571 -0.1822 -0.5907
 3019SOL    HW120519   1.106   3.936   0.652  1.4382  0.3870 -0.2618
 3019SOL    HW220520   1.095   3.987   0.786  0.0767  0.2342 -1.3599
 3020SOL     OW20521   0.960   3.143   3.065 -0.2841  0.4106 -0.2314
 3020SOL    HW120522   0.965   3.159   2.971  0.8535 -2.8127 -0.7253
 3020SOL    HW220523   1.053   3.125   3.080  0.2893  1.0182 -3.0850
 3021SOL     OW20524   0.270   2.580   6.422 -0.4172 -0.1320  0.6119
 3021SOL    HW120525   0.226   2.497   6.403  0.5118 -0.3345 -0.6823
 3021SOL    HW220526   0.359   2.546   6.430 -0.7563 -1.6390 -1.9564
 3022SOL     OW20527   4.572   0.242  12.827 -0.4406 -0.0583  0.4187
 3022SOL    HW120528   4.590   0.159  12.870 -1.2396 -0.4543 -0.0100
 3022SOL    HW220529   4.618   0.313  12.872  1.9043 -0.1275 -1.8653
 3023SOL     OW20530   4.132   3.530  13.064 -0.2540  0.1975  0.2092
 3023SOL    HW120531   4.092   3.474  13.131  0.4300  0.8995  1.1989
 3023SOL    HW220532   4.093   3.617  13.071  1.4344  0.8729  1.3343
 3024SOL     OW20533   0.484   1.522  12.302 -0.4083 -0.3801  0.4461
 3024SOL    HW120534   0.521   1.547  12.387  0.2286  1.5008 -0.3841
 3024SOL    HW220535   0.560   1.521  12.245 -2.8145  1.9915 -2.7952
 3025SOL     OW20536   3.965   1.972   6.836 -0.3026 -0.3902  0.3438
 3025SOL    HW120537   3.973   2.046   6.896 -0.1852 -1.9248  2.2255
 3025SOL    HW220538   4.014   2.008   6.762 -2.6310  1.2494 -0.4057
 3026SOL     OW20539   2.161   4.414  13.389  0.0681  0.0057 -0.1922
 3026SOL    HW120540   2.152   4.319  13.392  0.0018  0.0556  1.1874
 3026SOL    HW220541   2.250   4.427  13.355  0.3838  0.0367  0.6392
 3027SOL     OW20542   0.884   1.113   4.487  0.0642  0.5662 -0.1368
 3027SOL    HW120543   0.901   1.020   4.501  0.8162  0.5307 -1.3504
 3027SOL    HW220544   0.789   1.099   4.483  0.4174 -2.2309  1.0815
 3028SOL     OW20545   3.010   1.371   8.870 -0.1725  0.0506  0.5323
 3028SOL    HW120546   3.084   1.318   8.840  0.2709  1.5566 -0.9672
 3028SOL    HW220547   2.962   1.340   8.793  0.5504  0.8279 -0.2299
 3029SOL     OW20548   0.694   3.268  12.101  0.3469  0.3876  0.2667
 3029SOL    HW120549   0.669   3.336  12.038  2.0394  0.7284 -0.0321
 3029SOL    HW220550   0.740   3.206  12.045 -1.7895 -2.1734  1.3280
 3030SOL     OW20551   3.634   1.659  11.489  0.0482  0.3543  0.3674
 3030SOL    HW120552   3.619   1.603  11.413  2.4914 -1.1189  0.9943
 3030SOL    HW220553   3.570   1.627  11.553  0.0944  1.0849  0.7766
 3031SOL     OW20554   0.983   0.628   0.137 -0.3823  0.0411  0.3951
 3031SOL    HW120555   0.936   0.671   0.065 -2.2651 -1.8407  0.4856
 3031SOL    HW220556   0.919   0.562   0.165 -1.1730  0.5723 -0.1343
 3032SOL     OW20557   2.235   4.619   5.328 -0.7043 -0.4189 -0.0049
 3032SOL    HW120558   2.291   4.694   5.312 -2.5438  0.6147 -1.6019
 3032SOL    HW220559   2.239   4.612   5.424 -1.8439 -0.6800  0.0309
 3033SOL     OW20560   0.189   0.157  13.097 -0.3258  0.3409 -0.6817
 3033SOL    HW120561   0.235   0.186  13.019 -0.8885  2.7901 -0.0830
 3033SOL    HW220562   0.153   0.235  13.139  2.0778  1.5499 -0.9005
 3034SOL     OW20563   0.640   1.978  12.092 -0.1185  0.2772 -0.2506
 3034SOL    HW120564   0.552   2.014  12.089 -1.5029 -3.0526  0.0851
 3034SOL    HW220565   0.690   2.048  12.134 -0.3293 -0.3171  0.9936
 3035SOL     OW20566   2.947   0.217  17.044  0.1450  0.0111 -0.4718
 3035SOL    HW120567   2.870   0.224  16.988 -1.4473  0.9032  1.8570
 3035SOL    HW220568   2.996   0.293  17.014  0.6460  0.0879  0.5448
 3036SOL     OW20569   2.664   3.241   8.212  0.2135  0.2692  0.2420
 3036SOL    HW120570   2.753   3.268   8.192  0.0398  0.1723 -0.6756
 3036SOL    HW220571   2.608   3.277   8.143  1.0702 -0.3959 -0.7938
 3037SOL     OW20572   1.350   1.751   1.831  0.0156 -0.4898 -0.7179
 3037SOL    HW120573   1.334   1.757   1.736 -1.0948 -1.4339 -0.5794
 3037SOL    HW220574   1.344   1.845   1.851  1.0196 -0.2755 -1.3743
 3038SOL     OW20575   3.198   3.417   5.404 -0.2401 -0.2401  0.5363
 3038SOL    HW120576   3.116   3.465   5.402  0.2046  0.4879 -0.5017
 3038SOL    HW220577   3.249   3.467   5.340 -1.5497  0.8300  0.3327
 3039SOL     OW20578   1.187   4.531  14.552 -0.3604 -0.1962  0.5075
 3039SOL    HW120579   1.182   4.448  14.599 -0.2766  0.5154  1.7804
 3039SOL    HW220580   1.140   4.498  14.475  0.5716 -0.0096 -0.1459
 3040SOL     OW20581   2.999   3.996   4.273  0.0368 -0.6018 -0.1403
 3040SOL    HW120582   2.928   3.964   4.328  0.8454  1.5106  2.1240
 3040SOL    HW220583   3.014   3.922   4.214 -0.5333 -1.2975  0.5979
 3041SOL     OW20584   0.435   2.791  16.591  0.1216  0.2808 -0.6912
 3041SOL    HW120585   0.351   2.779  16.635 -1.3429  5.4807 -2.0835
 3041SOL    HW220586   0.411   2.866  16.538 -1.5633 -0.5296 -1.0640
 3042SOL     OW20587   2.468   1.337   0.595  0.0382  0.3643 -0.1565
 3042SOL    HW120588   2.410   1.270   0.558 -1.4669  1.9578 -0.6924
 3042SOL    HW220589   2.431   1.419   0.560  0.6795  0.8494  0.3103
 3043SOL     OW20590   3.588   1.329  13.866 -0.1222  0.0198  0.2539
 3043SOL    HW120591   3.497   1.348  13.841 -0.2319 -0.5832  0.1971
 3043SOL    HW220592   3.611   1.414  13.902  1.7925 -0.7659  0.8571
 3044SOL     OW20593   3.753   4.036   3.044  0.5656 -0.2534  0.0887
 3044SOL    HW120594   3.756   4.052   2.949 -1.8205 -2.1078 -0.3136
 3044SOL    HW220595   3.793   3.949   3.045 -0.8049 -0.8932 -1.6056
 3045SOL     OW20596   2.658   3.540   4.471  0.1689 -0.3433 -0.1648
 3045SOL    HW120597   2.564   3.542   4.451  0.4393  2.6417 -1.0996
 3045SOL    HW220598   2.656   3.471   4.537  0.8036 -1.6288 -1.4998
 3046SOL     OW20599   1.256   1.927   0.962  0.6013  0.1091  0.7974
 3046SOL    HW120600   1.175   1.978   0.961 -0.6016 -1.8253 -0.3699
 3046SOL    HW220601   1.244   1.861   1.030 -0.6272 -0.8537 -0.3437
 3047SOL     OW20602   0.758   1.678  14.261  0.3030 -0.1935 -0.3493
 3047SOL    HW120603   0.816   1.602  14.261  2.1986  1.2417  1.6744
 3047SOL    HW220604   0.714   1.669  14.177 -0.3725  2.1841 -0.2505
 3048SOL     OW20605   1.783   2.052   3.752  0.2334  0.4257  0.4094
 3048SOL    HW120606   1.691   2.077   3.761 -0.0691 -0.8965  1.0501
 3048SOL    HW220607   1.775   2.009   3.667 -1.8955 -1.0412  1.3407
 3049SOL     OW20608   1.867   4.599   3.533 -0.3113  0.2248  0.0505
 3049SOL    HW120609   1.809   4.674   3.547  0.0861  1.1108 -3.1394
 3049SOL    HW220610   1.926   4.636   3.599  2.6930  0.3293 -2.7191
 3050SOL     OW20611   3.786   4.131  13.154 -0.1673  0.0307 -0.5977
 3050SOL    HW120612   3.726   4.175  13.093 -2.5739  0.0946  1.7939
 3050SOL    HW220613   3.806   4.202  13.215 -0.3172  0.2092 -0.7542
 3051SOL     OW20614   0.346   0.147   3.556 -0.5157 -0.4162  0.5728
 3051SOL    HW120615   0.396   0.074   3.520 -0.8309  0.0661 -0.8852
 3051SOL    HW220616   0.351   0.213   3.486  0.0858 -1.6388 -0.5356
 3052SOL     OW20617   1.489   1.115   5.631  0.6956  0.0380  0.2555
 3052SOL    HW120618   1.500   1.099   5.537  2.1558 -0.7441  0.5694
 3052SOL    HW220619   1.515   1.206   5.644  0.2342  0.4177 -1.3850
 3053SOL     OW20620   3.744   0.993   6.003 -0.1837 -0.2634 -0.4028
 3053SOL    HW120621   3.718   0.956   6.088 -0.8814 -0.4596 -0.7016
 3053SOL    HW220622   3.680   0.954   5.944 -0.2378  0.7083 -0.9759
 3054SOL     OW20623   0.653   4.101   5.645  0.5313 -0.0078  0.1479
 3054SOL    HW120624   0.682   4.062   5.727  1.8261  1.2272  0.2793
 3054SOL    HW220625   0.739   4.118   5.607 -0.2836  2.3456 -0.6692
 3055SOL     OW20626   3.176   3.300   1.646 -0.0707 -0.2233  0.0393
 3055SOL    HW120627   3.183   3.394   1.629  0.4177 -0.3875 -0.6691
 3055SOL    HW220628   3.203   3.254   1.567 -1.8238  1.4901 -1.5779
 3056SOL     OW20629   0.107   0.869  10.697  0.0853  0.4373  0.2290
 3056SOL    HW120630   0.170   0.797  10.697 -0.0738  0.3253 -1.7495
 3056SOL    HW220631   0.082   0.855  10.606 -0.1729 -1.8282  0.6464
 3057SOL     OW20632   1.211   0.483  11.409  0.7663  0.0698  0.0301
 3057SOL    HW120633   1.178   0.523  11.489 -0.1515  0.0075 -0.3275
 3057SOL    HW220634   1.272   0.548  11.376  1.0332  1.3683  3.0336
 3058SOL     OW20635   1.808   4.002  13.754 -0.2626 -0.0631 -0.6152
 3058SOL    HW120636   1.794   4.083  13.802  0.6817 -0.5045  0.3905
 3058SOL    HW220637   1.891   4.027  13.713  0.3303 -1.4192 -0.2345
 3059SOL     OW20638   2.995   1.430   1.529  0.3508 -0.7229  0.0824
 3059SOL    HW120639   2.912   1.429   1.482  1.1188  1.9993 -1.3558
 3059SOL    HW220640   3.046   1.356   1.495  1.4478  0.4710 -0.8708
 3060SOL     OW20641   1.831   1.369  17.680  0.1440 -0.1741 -0.0770
 3060SOL    HW120642   1.840   1.454   0.022  0.6013  0.3678 -1.1896
 3060SOL    HW220643   1.889   1.315   0.031  2.5224  1.5274 -0.9293
 3061SOL     OW20644   4.699   0.214   2.419  0.2630 -0.0868 -0.2525
 3061SOL    HW120645   4.696   0.276   2.492 -0.2383  0.4136 -0.7060
 3061SOL    HW220646   0.004   0.271   2.349 -2.6221  0.0073 -1.4218
 3062SOL     OW20647   1.222   3.660   6.194  0.2548  0.5829  0.0895
 3062SOL    HW120648   1.184   3.572   6.197  2.3292 -0.3573 -0.9749
 3062SOL    HW220649   1.231   3.684   6.102 -0.5724  2.0343  0.3863
 3063SOL     OW20650   2.747   0.737   7.051  0.2501 -0.1481 -0.4135
 3063SOL    HW120651   2.833   0.696   7.056  1.5455  2.4261 -1.5550
 3063SOL    HW220652   2.757   0.792   7.128  2.0402 -0.2493 -0.5745
 3064SOL     OW20653   0.549   1.727  12.675 -0.3612 -0.2857 -0.6675
 3064SOL    HW120654   0.607   1.667  12.627 -1.2843 -1.0331 -0.8598
 3064SOL    HW220655   0.587   1.811  12.647 -1.4266 -0.8052 -3.7010
 3065SOL     OW20656   2.945   0.593   0.826 -0.2014  0.7459  0.3981
 3065SOL    HW120657   3.004   0.605   0.752 -1.3703  0.1306 -0.6205
 3065SOL    HW220658   2.860   0.628   0.801 -0.6927 -1.0164 -0.3730
 3066SOL     OW20659   3.172   4.015   6.998 -0.2079  0.0533  0.3885
 3066SOL    HW120660   3.257   4.024   6.957 -0.2817  0.9423  0.4340
 3066SOL    HW220661   3.171   3.919   7.005  0.8253 -0.0924 -1.7347
 3067SOL     OW20662   2.283   1.179  16.916  0.1706  0.1588 -0.2799
 3067SOL    HW120663   2.275   1.145  17.005 -0.0040  0.9856  0.0229
 3067SOL    HW220664   2.320   1.265  16.938 -1.1709  0.8809 -0.8378
 3068SOL     OW20665   4.152   1.234   1.608  0.1989  0.1860 -0.3833
 3068SOL    HW120666   4.176   1.200   1.694 -0.6792  1.2805  0.2925
 3068SOL    HW220667   4.139   1.146   1.571  1.3943 -1.5251  3.2000
 3069SOL     OW20668   2.580   1.727  15.351  0.7081 -0.3952 -0.3830
 3069SOL    HW120669   2.623   1.644  15.371  2.3473  1.3262  3.1636
 3069SOL    HW220670   2.488   1.704  15.367  0.5623  2.0980  2.2403
 3070SOL     OW20671   1.740   0.358  11.875  0.2393  0.1589  0.2699
 3070SOL    HW120672   1.728   0.294  11.945  0.3597  1.2194  1.2579
 3070SOL    HW220673   1.809   0.316  11.823 -0.6972 -0.5315 -0.4133
 3071SOL     OW20674   2.108   3.283   5.536 -0.6623 -0.0721 -0.3991
 3071SOL    HW120675   2.021   3.243   5.535 -1.5350  1.8444 -0.3689
 3071SOL    HW220676   2.127   3.285   5.630 -1.0361 -0.1271 -0.3206
 3072SOL     OW20677   0.834   1.320   1.562  0.0817  0.3959  0.0385
 3072SOL    HW120678   0.861   1.374   1.488  0.2738  1.4614  0.8813
 3072SOL    HW220679   0.739   1.335   1.560 -0.4931 -3.4327 -0.7904
 3073SOL     OW20680   3.611   3.733   3.881  0.3394  0.1842  0.2397
 3073SOL    HW120681   3.671   3.806   3.901  2.7098 -1.6358 -0.2114
 3073SOL    HW220682   3.542   3.781   3.835  1.5772  1.4238 -0.3546
 3074SOL     OW20683   1.260   2.125   0.489  0.4656  0.8623  0.1255
 3074SOL    HW120684   1.225   2.122   0.578 -3.4390 -1.4001 -1.5130
 3074SOL    HW220685   1.307   2.042   0.483  0.0335  0.5660  1.0102
 3075SOL     OW20686   1.334   0.668   8.412  0.2129  0.8363 -0.3715
 3075SOL    HW120687   1.259   0.706   8.457  0.0997 -0.5164  0.5593
 3075SOL    HW220688   1.350   0.738   8.349 -0.2623 -1.3233 -2.8941
 3076SOL     OW20689   4.203   1.179  16.137  0.3470 -0.3131 -0.2488
 3076SOL    HW120690   4.148   1.101  16.142  1.3250 -0.9439  0.7450
 3076SOL    HW220691   4.277   1.154  16.192  0.0834 -0.1930  0.1641
 3077SOL     OW20692   1.747   1.001   1.448 -0.0328  0.0167  0.2567
 3077SOL    HW120693   1.680   0.949   1.493  0.1798  0.9098  1.6098
 3077SOL    HW220694   1.793   0.923   1.416  1.7380  0.1306  2.4600
 3078SOL     OW20695   1.125   0.859   1.071  0.1380  0.2118 -0.0608
 3078SOL    HW120696   1.031   0.861   1.058  0.1623 -0.9540 -0.4171
 3078SOL    HW220697   1.150   0.769   1.090 -2.7488 -0.3760  0.7971
 3079SOL     OW20698   1.236   0.872  14.879  0.1638  0.4274 -0.2647
 3079SOL    HW120699   1.319   0.849  14.838  1.4266  2.9694  0.8947
 3079SOL    HW220700   1.266   0.912  14.961  1.7045  0.9414 -1.0894
 3080SOL     OW20701   3.739   0.259  13.075 -0.1039  1.0744 -0.0491
 3080SOL    HW120702   3.785   0.227  13.153 -1.3360 -0.8136 -0.0991
 3080SOL    HW220703   3.804   0.287  13.010 -0.3245  0.2272 -0.6215
 3081SOL     OW20704   4.427   3.319  11.644 -0.0351 -0.2456 -0.1925
 3081SOL    HW120705   4.519   3.293  11.638 -1.3881 -4.8771 -0.6670
 3081SOL    HW220706   4.421   3.379  11.570  0.9018  2.1659  1.6755
 3082SOL     OW20707   1.122   1.614  10.503  0.2379  0.1243 -0.0567
 3082SOL    HW120708   1.162   1.528  10.490 -1.4933 -0.8243  0.8406
 3082SOL    HW220709   1.197   1.660  10.541  0.4007  1.1477 -1.6468
 3083SOL     OW20710   0.106   0.910   2.446  0.1611 -0.5451 -0.3378
 3083SOL    HW120711   0.103   1.001   2.415  0.1271 -0.2482  0.5274
 3083SOL    HW220712   0.119   0.859   2.367  0.3787  1.9542 -1.9233
 3084SOL     OW20713   4.072   0.243   4.558  0.4173  0.4270 -0.3426
 3084SOL    HW120714   4.144   0.241   4.622  0.6642 -0.0564 -0.6314
 3084SOL    HW220715   4.021   0.164   4.573 -0.8285  0.7019 -3.0699
 3085SOL     OW20716   1.789   0.531   5.997  0.2853 -0.0313 -0.6640
 3085SOL    HW120717   1.876   0.566   5.982  0.5167  0.9715  2.9806
 3085SOL    HW220718   1.792   0.450   6.048  1.7010 -0.2556 -1.1155
 3086SOL     OW20719   0.960   1.383   7.987 -0.2922  0.3462  0.0748
 3086SOL    HW120720   0.892   1.430   7.938  0.2912  0.9054 -0.1973
 3086SOL    HW220721   0.923   1.298   8.011  0.6334  0.1461  0.7727
 3087SOL     OW20722   4.174   3.373   8.331 -0.5017 -0.2507 -0.4355
 3087SOL    HW120723   4.104   3.338   8.385 -0.7818  0.8060 -0.1276
 3087SOL    HW220724   4.244   3.366   8.396 -0.2455 -0.6286 -0.7447
 3088SOL     OW20725   3.401   3.108  14.651  0.6136 -0.2578 -0.4473
 3088SOL    HW120726   3.346   3.029  14.649 -0.3558  0.3971  0.2744
 3088SOL    HW220727   3.473   3.083  14.593  1.1166 -0.2153  0.1615
 3089SOL     OW20728   1.132   4.559   7.191 -0.1791 -0.8298  0.6811
 3089SOL    HW120729   1.146   4.467   7.167  0.4814 -0.0694 -1.8778
 3089SOL    HW220730   1.209   4.600   7.153 -1.8567  0.4847 -1.3155
 3090SOL     OW20731   0.687   0.792  10.434  0.4650 -0.1779 -1.1679
 3090SOL    HW120732   0.703   0.869  10.487 -0.3680 -1.1623  0.5332
 3090SOL    HW220733   0.620   0.748  10.486  1.8544 -0.9401 -0.0188
 3091SOL     OW20734   0.776   4.438  17.684  0.5279 -0.0612 -0.4408
 3091SOL    HW120735   0.786   4.352  17.643 -4.2793 -0.8058 -0.0577
 3091SOL    HW220736   0.739   4.487  17.610 -0.9546  1.4944  1.3316
 3092SOL     OW20737   2.956   1.199  16.728  0.1868  0.0526  0.2151
 3092SOL    HW120738   2.870   1.239  16.714  0.4772  0.0395 -1.5262
 3092SOL    HW220739   3.017   1.270  16.707 -0.1575 -0.4751 -2.5252
 3093SOL     OW20740   3.709   0.608  10.377  0.7126 -0.2090  0.1316
 3093SOL    HW120741   3.632   0.580  10.327  1.3584 -1.7483 -0.0213
 3093SOL    HW220742   3.728   0.697  10.348 -0.0412 -0.3782 -0.9064
 3094SOL     OW20743   2.659   2.339  12.486 -0.1156  0.2600 -0.3424
 3094SOL    HW120744   2.753   2.359  12.479 -0.7584  3.0117 -1.0071
 3094SOL    HW220745   2.623   2.381  12.408 -0.0670  0.3811 -0.3000
 3095SOL     OW20746   1.630   4.088  15.156  0.2366  0.1628 -0.1452
 3095SOL    HW120747   1.696   4.019  15.161  0.0782  0.0766  0.9646
 3095SOL    HW220748   1.644   4.117  15.246 -0.1721  0.6583 -0.2431
 3096SOL     OW20749   2.331   1.607   0.450  0.4018  0.0005 -0.3122
 3096SOL    HW120750   2.250   1.567   0.419  0.7125  0.3725 -1.6146
 3096SOL    HW220751   2.329   1.674   0.382  1.1625  0.1783 -0.1564
 3097SOL     OW20752   1.025   2.154   5.883  0.4257  0.6659 -0.4215
 3097SOL    HW120753   0.950   2.133   5.827 -0.5124  0.7082  0.8160
 3097SOL    HW220754   1.098   2.109   5.840 -0.2609 -0.0949 -0.8069
 3098SOL     OW20755   3.851   2.315   8.473  0.6209  0.0509  0.7188
 3098SOL    HW120756   3.857   2.377   8.546 -2.0632  0.3138  0.6872
 3098SOL    HW220757   3.792   2.373   8.426  1.5546  1.2039  0.9711
 3099SOL     OW20758   0.781   2.739   9.137  0.4868 -0.3178  0.5635
 3099SOL    HW120759   0.736   2.671   9.086  0.3750 -0.7791  1.2843
 3099SOL    HW220760   0.847   2.766   9.073 -0.1836  1.6198  0.6826
 3100SOL     OW20761   2.418   2.388  17.543  0.4734 -0.5453 -0.2217
 3100SOL    HW120762   2.363   2.447  17.594  1.8906 -0.7931  1.5987
 3100SOL    HW220763   2.456   2.323  17.602 -0.5329 -0.4902  0.4962
 3101SOL     OW20764   0.444   1.069  12.039 -0.7290  0.5781 -0.1117
 3101SOL    HW120765   0.435   1.161  12.018  1.4673  0.6321 -0.7742
 3101SOL    HW220766   0.477   1.075  12.129 -1.5912  0.8768  0.1810
 3102SOL     OW20767   2.839   3.337  11.522  0.0134  0.3149 -0.0499
 3102SOL    HW120768   2.882   3.272  11.579 -0.1498 -1.4064 -1.8850
 3102SOL    HW220769   2.745   3.334  11.537 -0.0199 -2.0695 -0.6738
 3103SOL     OW20770   3.952   4.652   8.322  0.0632 -0.3031  0.0309
 3103SOL    HW120771   4.023   4.647   8.257 -0.2637  0.3790 -0.3777
 3103SOL    HW220772   3.994   4.715   8.380 -0.7648  0.7742 -0.5475
 3104SOL     OW20773   3.193   1.876  12.670  0.3573 -0.0976  0.7389
 3104SOL    HW120774   3.198   1.792  12.625  1.4260  0.2587  0.1951
 3104SOL    HW220775   3.102   1.905  12.673  0.2752 -0.2724 -0.1188
 3105SOL     OW20776   4.352   0.850   6.062  0.4599 -0.2481 -0.6558
 3105SOL    HW120777   4.411   0.775   6.058  2.0221  0.9172  0.3737
 3105SOL    HW220778   4.414   0.920   6.041  0.2240  0.1501 -0.0452
 3106SOL     OW20779   2.280   3.029  14.355  0.2787  0.6937  0.2783
 3106SOL    HW120780   2.364   2.984  14.350  0.6342  1.5302 -1.5420
 3106SOL    HW220781   2.303   3.120  14.333 -2.0294  0.7776 -1.8139
 3107SOL     OW20782   4.185   1.219  12.293 -0.1349  0.3430  0.2823
 3107SOL    HW120783   4.125   1.164  12.343  0.4435 -1.6128 -1.1733
 3107SOL    HW220784   4.269   1.183  12.324 -0.4062  0.0810  0.7124
 3108SOL     OW20785   2.586   0.609  16.242  0.0937 -0.0817 -0.0138
 3108SOL    HW120786   2.677   0.635  16.257 -0.0088  0.0654  0.3590
 3108SOL    HW220787   2.564   0.689  16.194 -0.1611  0.4785  1.0206
 3109SOL     OW20788   0.200   0.186  14.034  0.6515  0.2713  0.2125
 3109SOL    HW120789   0.124   0.198  14.091 -2.2669 -1.8676 -3.1537
 3109SOL    HW220790   0.265   0.184  14.104  2.1884 -2.2340 -1.2988
 3110SOL     OW20791   2.588   1.157   7.537  0.0661 -0.5848 -0.7115
 3110SOL    HW120792   2.579   1.062   7.526  2.5538 -0.7148 -1.5761
 3110SOL    HW220793   2.593   1.176   7.443  0.4570  2.3287 -0.1007
 3111SOL     OW20794   2.469   1.985   5.875  0.1350  0.0674  0.2924
 3111SOL    HW120795   2.446   2.031   5.795 -0.3742 -1.5218 -0.4692
 3111SOL    HW220796   2.389   1.993   5.926 -1.1415  1.6209 -1.9517
 3112SOL     OW20797   0.503   0.263  14.607  0.1258 -0.2258 -0.0215
 3112SOL    HW120798   0.595   0.281  14.587 -0.5586  0.7655 -2.2419
 3112SOL    HW220799   0.454   0.289  14.529  0.2434  1.0222  0.3117
 3113SOL     OW20800   4.426   2.412   9.150 -0.0352 -0.4522  0.2554
 3113SOL    HW120801   4.422   2.426   9.245  0.6297 -0.0965  0.2261
 3113SOL    HW220802   4.373   2.485   9.117 -0.4209 -1.1410 -0.6446
 3114SOL     OW20803   0.545   0.752   1.627  0.1159  0.1227 -0.7632
 3114SOL    HW120804   0.587   0.745   1.713 -0.8117  0.2813 -0.2998
 3114SOL    HW220805   0.520   0.844   1.624  2.3280  0.7437 -0.1469
 3115SOL     OW20806   0.620   0.738   5.633  0.1450 -0.2550  0.8073
 3115SOL    HW120807   0.639   0.830   5.654  0.5629  0.2797 -1.9683
 3115SOL    HW220808   0.663   0.733   5.548 -1.3388 -1.8417  0.1640
 3116SOL     OW20809   1.496   0.816  16.252  0.3145  0.2477 -0.1306
 3116SOL    HW120810   1.473   0.745  16.192  2.2066 -1.3677  1.0382
 3116SOL    HW220811   1.458   0.893  16.209 -0.8493 -0.4539 -0.3567
 3117SOL     OW20812   3.693   2.985   2.129 -0.7660  0.0209 -0.3139
 3117SOL    HW120813   3.757   3.025   2.070 -0.1708 -0.4448  0.0254
 3117SOL    HW220814   3.623   3.049   2.112  0.0245  1.5503  2.2451
 3118SOL     OW20815   0.850   2.273   5.206  0.5824 -0.3987  0.2032
 3118SOL    HW120816   0.895   2.341   5.256  1.1815 -1.2765  0.8458
 3118SOL    HW220817   0.916   2.205   5.191  3.6221  3.1699 -2.4458
 3119SOL     OW20818   0.972   4.229   3.066 -0.3539  0.2063 -0.3622
 3119SOL    HW120819   1.034   4.280   3.013  0.5171 -0.5296 -0.0602
 3119SOL    HW220820   0.906   4.220   2.998 -0.7433 -0.9816  0.1832
 3120SOL     OW20821   1.956   2.295  10.915 -0.2402 -0.4701 -0.2719
 3120SOL    HW120822   1.869   2.262  10.891 -0.9120  1.5913 -0.6367
 3120SOL    HW220823   1.938   2.361  10.982 -0.3681 -0.2561 -0.5192
 3121SOL     OW20824   0.298   3.850   5.253  0.1684 -0.4814  0.1154
 3121SOL    HW120825   0.214   3.804   5.262 -0.6541  0.7945 -1.0404
 3121SOL    HW220826   0.335   3.829   5.339  0.5737 -0.2743 -0.0088
 3122SOL     OW20827   4.597   3.850  17.345 -0.1691 -0.0293 -0.1124
 3122SOL    HW120828   4.624   3.777  17.401  0.8247 -0.1244 -0.7075
 3122SOL    HW220829   4.503   3.834  17.348 -0.3145  0.6772 -0.8719
 3123SOL     OW20830   0.157   1.532   4.874 -0.4628 -0.7736 -0.0160
 3123SOL    HW120831   0.119   1.571   4.795 -0.5857  0.1071  0.4740
 3123SOL    HW220832   0.219   1.464   4.849  1.8540  0.4995  2.2794
 3124SOL     OW20833   2.852   4.686   5.660 -0.2236  0.0516  0.2157
 3124SOL    HW120834   2.813   4.603   5.634 -3.1800  1.8791 -1.1111
 3124SOL    HW220835   2.879   4.723   5.576  1.2055  0.7715  0.9874
 3125SOL     OW20836   3.039   3.559   8.245 -0.0614  0.2928  0.4231
 3125SOL    HW120837   3.089   3.477   8.247 -0.0326  0.2955 -0.1316
 3125SOL    HW220838   2.960   3.540   8.195  2.0166 -0.3509 -2.5978
 3126SOL     OW20839   0.585   2.612   4.779  0.7196  0.2550 -0.0139
 3126SOL    HW120840   0.552   2.698   4.805 -1.1772 -0.3792 -0.2788
 3126SOL    HW220841   0.558   2.621   4.688  1.4912  2.5141 -0.0107
 3127SOL     OW20842   3.411   1.912  10.741 -0.2528  0.3037 -0.3143
 3127SOL    HW120843   3.502   1.889  10.722  0.0907  0.7327  0.8451
 3127SOL    HW220844   3.411   1.958  10.825 -0.5692  1.9001 -1.1903
 3128SOL     OW20845   2.895   0.332   0.846 -0.3486 -0.0940 -0.0602
 3128SOL    HW120846   2.904   0.420   0.885  0.7204 -0.1306 -0.2209
 3128SOL    HW220847   2.973   0.334   0.791  0.4130  0.6404  1.0459
 3129SOL     OW20848   4.089   4.427   6.716  0.0242 -0.5948  0.1504
 3129SOL    HW120849   4.084   4.506   6.662 -2.4388 -0.8253  0.0360
 3129SOL    HW220850   4.064   4.471   6.796 -1.1875  1.0903 -1.1586
 3130SOL     OW20851   1.197   1.786   7.381  0.7512  0.4158 -0.3164
 3130SOL    HW120852   1.110   1.826   7.387  0.5738  0.1502 -1.1248
 3130SOL    HW220853   1.231   1.847   7.447  1.6742 -0.3597 -0.0776
 3131SOL     OW20854   0.933   0.911  10.286  0.2530 -0.3326 -0.0149
 3131SOL    HW120855   0.939   0.955  10.371  0.4216  0.3667 -0.3850
 3131SOL    HW220856   0.868   0.842  10.274 -1.3908  0.7780  2.5036
 3132SOL     OW20857   1.653   3.548  10.475 -0.0762  0.0784 -0.1694
 3132SOL    HW120858   1.661   3.570  10.382  1.2517 -0.5552 -0.2027
 3132SOL    HW220859   1.576   3.596  10.505 -0.6652 -0.4828 -0.7902
 3133SOL     OW20860   0.484   2.985   0.227  0.1623  0.2448  0.1454
 3133SOL    HW120861   0.413   2.922   0.213 -0.1314  1.0420 -1.8439
 3133SOL    HW220862   0.455   3.050   0.162 -0.2178  0.5396  0.6031
 3134SOL     OW20863   1.974   1.687   6.069 -0.1848  0.2448  0.4975
 3134SOL    HW120864   1.984   1.665   5.977 -0.5135  1.3364  0.2031
 3134SOL    HW220865   1.879   1.690   6.065 -0.2773 -1.1042  1.5714
 3135SOL     OW20866   0.619   4.172   8.574 -0.3218 -0.3954 -0.0266
 3135SOL    HW120867   0.600   4.132   8.659  1.9457  0.0385  0.6750
 3135SOL    HW220868   0.568   4.253   8.579  0.5351  0.0177  2.3287
 3136SOL     OW20869   2.818   3.385  12.304 -0.4786 -0.0408  0.2212
 3136SOL    HW120870   2.908   3.403  12.331 -1.2335  0.8909  2.1394
 3136SOL    HW220871   2.832   3.398  12.211 -1.1059 -0.5315  0.0582
 3137SOL     OW20872   0.326   1.623   3.148  0.3632 -0.0276  0.4384
 3137SOL    HW120873   0.257   1.662   3.201 -1.3033  0.1441 -1.8472
 3137SOL    HW220874   0.406   1.642   3.198  1.4703 -1.9560 -0.5744
 3138SOL     OW20875   0.071   0.378   6.700  0.0592 -0.6382  1.0079
 3138SOL    HW120876   0.054   0.375   6.606  0.9461 -2.3994  0.8878
 3138SOL    HW220877   0.165   0.366   6.688  0.2024  0.3113  1.2075
 3139SOL     OW20878   0.373   3.217   6.494  0.3404 -0.1256 -0.3990
 3139SOL    HW120879   0.363   3.207   6.589  2.1945  0.6761 -0.1224
 3139SOL    HW220880   0.395   3.310   6.486  0.2452  0.1414  2.2950
 3140SOL     OW20881   2.029   4.359   5.750 -0.1606  0.1172 -0.3001
 3140SOL    HW120882   2.098   4.294   5.761 -0.9686 -0.5947  0.5307
 3140SOL    HW220883   1.955   4.317   5.793  0.7033 -0.2647  0.7851
 3141SOL     OW20884   1.647   0.733   4.077 -0.4715  0.2137  0.1549
 3141SOL    HW120885   1.580   0.669   4.054 -0.7236  0.7093 -0.5146
 3141SOL    HW220886   1.661   0.779   3.994  3.6318 -0.1921  0.6378
 3142SOL     OW20887   4.256   1.896  15.479  0.5432  0.3900  0.0170
 3142SOL    HW120888   4.308   1.952  15.422 -2.1051  4.2970  1.4038
 3142SOL    HW220889   4.320   1.827  15.499 -0.5654 -1.0618 -1.4799
 3143SOL     OW20890   2.399   4.121   5.343  0.0223  0.1313  0.7491
 3143SOL    HW120891   2.336   4.171   5.394  0.9020 -0.0322  1.9883
 3143SOL    HW220892   2.403   4.171   5.262  0.6733 -2.2845 -0.7220
 3144SOL     OW20893   4.010   0.549   5.649  0.2946  0.5224 -0.2716
 3144SOL    HW120894   4.077   0.617   5.647  1.1629 -0.2718  1.6271
 3144SOL    HW220895   3.984   0.558   5.558  1.3328 -1.8860 -0.7967
 3145SOL     OW20896   0.501   0.513  15.059  0.3737  0.0191 -0.0531
 3145SOL    HW120897   0.472   0.437  15.110  0.1861 -1.1201 -1.8667
 3145SOL    HW220898   0.587   0.532  15.095  0.9781 -1.5003 -0.6832
 3146SOL     OW20899   0.020   3.549   5.302 -0.0067  0.4535  0.1510
 3146SOL    HW120900   4.724   3.560   5.209 -1.5958  0.5775  0.5292
 3146SOL    HW220901   4.655   3.561   5.334  0.2648  1.4529  0.5528
 3147SOL     OW20902   3.075   0.608   1.054 -0.1647  0.3754  0.6046
 3147SOL    HW120903   3.012   0.610   0.982 -0.1620 -2.4401  0.5260
 3147SOL    HW220904   3.041   0.540   1.113 -0.7455  0.3016  0.1846
 3148SOL     OW20905   1.177   1.175   3.577  0.6219 -0.4972  0.0061
 3148SOL    HW120906   1.148   1.172   3.486  1.8009  0.1171 -0.3818
 3148SOL    HW220907   1.100   1.132   3.615 -0.6957  1.3961 -0.5203
 3149SOL     OW20908   0.944   2.087  15.795 -0.3050  0.7999 -0.2618
 3149SOL    HW120909   1.033   2.119  15.778 -1.0634  1.3510 -3.2747
 3149SOL    HW220910   0.962   2.061  15.885 -1.4791  2.1776  0.3667
 3150SOL     OW20911   3.736   2.368   4.921 -0.2315  0.3565  0.7574
 3150SOL    HW120912   3.732   2.459   4.893 -0.4822  0.1333  0.0776
 3150SOL    HW220913   3.799   2.334   4.858  1.5773  1.9658  1.7228
 3151SOL     OW20914   2.008   2.730   4.985  0.3657  0.3355 -0.3040
 3151SOL    HW120915   2.072   2.662   4.961 -0.2973  0.3969 -2.2527
 3151SOL    HW220916   2.031   2.796   4.919  1.8750 -1.0938 -1.2254
 3152SOL     OW20917   0.856   2.774   6.219  0.2374 -0.0850 -0.1767
 3152SOL    HW120918   0.770   2.753   6.255 -0.1864  1.5845 -0.1922
 3152SOL    HW220919   0.848   2.730   6.134 -1.6668 -1.7208  0.8471
 3153SOL     OW20920   0.278   0.249  12.843  0.9364 -0.4664 -0.2647
 3153SOL    HW120921   0.355   0.193  12.839  0.0866 -1.8161  2.4775
 3153SOL    HW220922   0.230   0.238  12.761  1.5496 -0.0367 -0.6832
 3154SOL     OW20923   1.568   4.599   0.901 -0.5074  0.2147  0.0520
 3154SOL    HW120924   1.590   4.633   0.988  1.8392  0.7271 -0.7495
 3154SOL    HW220925   1.497   4.547   0.939  0.9181 -0.8804  1.2575
 3155SOL     OW20926   2.683   0.070   1.875  0.4758  0.4556  0.1739
 3155SOL    HW120927   2.767   0.115   1.866  0.4188  0.0918 -2.4118
 3155SOL    HW220928   2.687   0.026   1.959  2.3280 -0.0114 -0.1678
 3156SOL     OW20929   1.542   0.759  17.362  0.6986  0.2715 -0.1394
 3156SOL    HW120930   1.462   0.809  17.381 -0.9916 -2.7939  0.7010
 3156SOL    HW220931   1.555   0.766  17.267  1.8375  0.5761  0.0288
 3157SOL     OW20932   4.031   0.794   0.262 -0.1714 -0.6208  0.0330
 3157SOL    HW120933   4.047   0.700   0.254 -0.8423 -0.6892 -0.5101
 3157SOL    HW220934   4.002   0.803   0.353 -0.7753 -1.9987 -0.0077
 3158SOL     OW20935   4.063   0.813   4.722 -0.2186 -0.1098 -0.3462
 3158SOL    HW120936   4.050   0.810   4.817  2.7283 -2.6352 -0.0284
 3158SOL    HW220937   4.159   0.816   4.723 -0.2252  0.9443 -2.7664
 3159SOL     OW20938   4.075   0.209  16.243 -0.1161  0.3728 -0.2186
 3159SOL    HW120939   4.084   0.151  16.319 -2.2877 -1.2840 -1.2338
 3159SOL    HW220940   4.084   0.144  16.173  0.4332 -0.1651  0.3465
 3160SOL     OW20941   2.118   4.059   7.897 -0.2838  0.1941 -0.2416
 3160SOL    HW120942   2.141   4.011   7.977  1.0617  0.2040 -0.6122
 3160SOL    HW220943   2.153   4.146   7.914  0.1878  0.2130 -1.3325
 3161SOL     OW20944   4.561   4.482   5.919 -0.1976  0.1352 -0.1859
 3161SOL    HW120945   4.508   4.527   5.853 -1.8159  1.2985  1.9006
 3161SOL    HW220946   4.488   4.470   5.979 -0.1667 -1.5611 -0.4927
 3162SOL     OW20947   1.121   2.682   3.366  0.0895 -0.1500 -0.0584
 3162SOL    HW120948   1.097   2.591   3.386 -0.5113  0.4244  1.8089
 3162SOL    HW220949   1.038   2.729   3.361  1.0333  1.4833 -0.2969
 3163SOL     OW20950   3.562   1.268   4.640 -0.5031  0.5790  0.4004
 3163SOL    HW120951   3.509   1.321   4.580  0.7943  2.2519  0.7334
 3163SOL    HW220952   3.612   1.213   4.580 -0.2875 -0.0391  1.1572
 3164SOL     OW20953   3.750   4.440   3.164  0.1319 -0.0507  0.8245
 3164SOL    HW120954   3.707   4.421   3.081 -0.8865 -0.3010  1.4063
 3164SOL    HW220955   3.733   4.357   3.208  0.6091 -0.2724  0.5865
 3165SOL     OW20956   2.843   4.561   0.606 -0.0273  0.4810 -0.4918
 3165SOL    HW120957   2.840   4.593   0.515 -0.6624  0.5454 -0.4510
 3165SOL    HW220958   2.928   4.594   0.634 -0.3006 -0.0251  0.9438
 3166SOL     OW20959   3.361   2.561  14.502 -0.7049  0.2351 -0.1566
 3166SOL    HW120960   3.370   2.536  14.410  1.2424 -0.9269  0.3489
 3166SOL    HW220961   3.452   2.544  14.528 -1.4041 -1.2078  1.3264
 3167SOL     OW20962   2.690   1.924   6.180 -0.0366 -0.1215 -0.1483
 3167SOL    HW120963   2.750   1.918   6.255 -0.1898  2.1708  0.1382
 3167SOL    HW220964   2.609   1.923   6.230  0.2855  0.4321  0.3858
 3168SOL     OW20965   0.249   2.405   9.763 -0.0366 -0.4323 -0.2887
 3168SOL    HW120966   0.219   2.443   9.680 -2.5861 -0.8173  0.4613
 3168SOL    HW220967   0.228   2.312   9.749  0.6979 -0.6919  0.3192
 3169SOL     OW20968   2.646   0.591  17.657  0.0044  0.2237 -0.0054
 3169SOL    HW120969   2.680   0.651   0.022 -1.1964  2.1726 -1.1661
 3169SOL    HW220970   2.668   0.631  17.573 -0.6889 -1.1823 -0.8627
 3170SOL     OW20971   2.853   0.495   7.709  0.0392 -0.2867  0.0993
 3170SOL    HW120972   2.772   0.491   7.760 -0.5924  1.9896 -0.7559
 3170SOL    HW220973   2.912   0.457   7.774 -0.0880  0.3790  0.6019
 3171SOL     OW20974   0.658   3.225   7.418  0.3672  0.5168 -0.2666
 3171SOL    HW120975   0.633   3.138   7.451 -0.5494  0.7404 -0.3736
 3171SOL    HW220976   0.591   3.270   7.470  1.9301 -1.2456  3.3168
 3172SOL     OW20977   4.711   3.141   4.513  0.2454  0.0757 -0.8009
 3172SOL    HW120978   0.010   3.146   4.420 -1.3263 -0.1734 -1.2077
 3172SOL    HW220979   0.069   3.104   4.544  2.0348  2.2862 -2.9294
 3173SOL     OW20980   0.610   4.062   1.588  0.0255  0.0171  0.2570
 3173SOL    HW120981   0.606   4.008   1.667 -2.4471  0.7347  0.5896
 3173SOL    HW220982   0.518   4.059   1.561 -0.0568 -1.8267  0.7133
 3174SOL     OW20983   1.772   0.519   7.537  0.0953  0.1607 -0.3300
 3174SOL    HW120984   1.866   0.522   7.516  0.3761  1.5632  1.1126
 3174SOL    HW220985   1.734   0.512   7.449  0.4090  0.7412 -0.5111
 3175SOL     OW20986   3.341   1.906   6.260 -0.4708  0.3099  0.0095
 3175SOL    HW120987   3.260   1.881   6.306 -0.2113 -2.6460 -1.1199
 3175SOL    HW220988   3.331   1.886   6.167  0.5805  1.5476 -0.3573
 3176SOL     OW20989   1.922   0.797   5.553 -0.2974  0.2436 -0.0412
 3176SOL    HW120990   1.972   0.877   5.572 -0.0732 -0.0445  0.5790
 3176SOL    HW220991   1.980   0.727   5.583 -4.4842 -2.8437  0.7800
 3177SOL     OW20992   1.970   3.749   8.952 -0.4103 -0.1646 -0.0286
 3177SOL    HW120993   2.002   3.756   9.042  1.3886  0.9257 -0.7578
 3177SOL    HW220994   1.930   3.835   8.939 -0.2472 -0.1220 -0.2308
 3178SOL     OW20995   0.371   1.871   5.303 -0.1259 -0.7294 -0.5275
 3178SOL    HW120996   0.351   1.785   5.338  1.0648 -1.8599 -2.6253
 3178SOL    HW220997   0.460   1.856   5.269 -0.0635 -0.6019 -0.4245
 3179SOL     OW20998   3.138   4.695   8.831 -0.3199 -0.5240  0.2807
 3179SOL    HW120999   3.143   4.723   8.922 -0.3408 -1.3206  0.5276
 3179SOL    HW221000   3.222   0.009   8.810 -0.0591 -0.5166  1.3331
 3180SOL     OW21001   4.667   2.205   2.879 -0.6617 -0.5432  0.0562
 3180SOL    HW121002   4.717   2.125   2.858 -0.1995 -0.4592  0.8363
 3180SOL    HW221003   4.671   2.259   2.800  3.0068 -0.5291  0.2486
 3181SOL     OW21004   2.883   1.374  12.632  0.1276 -0.5325 -0.4831
 3181SOL    HW121005   2.945   1.350  12.564  0.7248  1.2650 -0.5575
 3181SOL    HW221006   2.941   1.392  12.706 -2.3198  3.2447  0.4808
 3182SOL     OW21007   1.584   3.484  16.116  0.0150 -0.7824  0.3049
 3182SOL    HW121008   1.547   3.450  16.034  0.8582  2.6273 -1.5045
 3182SOL    HW221009   1.652   3.546  16.090  0.1092 -0.3466  1.5883
 3183SOL     OW21010   4.611   1.752   3.760 -0.1649 -0.8330 -0.2132
 3183SOL    HW121011   4.632   1.677   3.705 -0.3354 -0.8290 -0.2838
 3183SOL    HW221012   4.649   1.815   3.698 -0.1680 -0.3681  0.2534
 3184SOL     OW21013   2.690   4.617   5.351 -0.2199  0.1102 -0.0985
 3184SOL    HW121014   2.640   4.559   5.408 -3.3161  2.5076 -0.4124
 3184SOL    HW221015   2.660   4.589   5.264  0.2041 -1.4712  0.2535
 3185SOL     OW21016   1.022   1.216   3.875 -0.2684 -0.3074  0.2874
 3185SOL    HW121017   1.025   1.272   3.798  1.5292 -0.9340 -0.0954
 3185SOL    HW221018   1.070   1.259   3.946 -2.3223  0.9221  0.9450
 3186SOL     OW21019   1.092   3.122   4.036  0.6504  0.1972  0.2495
 3186SOL    HW121020   1.059   3.074   3.960  0.8631  1.9677 -0.9479
 3186SOL    HW221021   1.156   3.061   4.072  0.4897 -1.9763 -3.2186
 3187SOL     OW21022   3.152   3.971  17.686  0.0153  0.6384  0.8495
 3187SOL    HW121023   3.145   4.064  17.664  0.0695  0.1199 -1.3504
 3187SOL    HW221024   3.213   3.939  17.619 -0.1809 -0.8173  1.3758
 3188SOL     OW21025   3.567   0.698  15.527  0.4036 -0.0701  0.6331
 3188SOL    HW121026   3.551   0.789  15.552 -0.9763 -0.2155  0.2568
 3188SOL    HW221027   3.638   0.670  15.584  0.2258 -0.9469  0.4243
 3189SOL     OW21028   0.650   2.648   3.822 -0.2985  0.4972 -0.1436
 3189SOL    HW121029   0.682   2.578   3.765  1.5066 -0.0725  1.5833
 3189SOL    HW221030   0.579   2.605   3.870 -0.8372  1.1778 -0.3221
 3190SOL     OW21031   4.360   2.393   4.124  0.1739  0.1850 -0.1673
 3190SOL    HW121032   4.287   2.406   4.064 -0.9215  2.5416  1.6678
 3190SOL    HW221033   4.397   2.478   4.145 -0.2823  0.6637 -1.3330
 3191SOL     OW21034   1.023   2.587   6.697  0.0499 -0.1795  0.7524
 3191SOL    HW121035   0.982   2.664   6.736 -2.2514 -0.5770 -0.8669
 3191SOL    HW221036   1.057   2.545   6.776 -0.7642  0.1631  1.2789
 3192SOL     OW21037   1.560   1.865   1.386  0.4792 -0.2386 -0.0420
 3192SOL    HW121038   1.621   1.928   1.348  0.4570  0.2739  0.7740
 3192SOL    HW221039   1.610   1.785   1.366 -1.2946 -1.5716  0.8016
 3193SOL     OW21040   0.134   3.178  11.281  0.7755 -0.1961 -0.0511
 3193SOL    HW121041   0.076   3.128  11.224 -0.2658 -0.8204  1.5354
 3193SOL    HW221042   0.215   3.173  11.230  0.3296  2.4223 -0.9882
 3194SOL     OW21043   0.648   4.272  12.559  0.5459 -0.3889  0.3489
 3194SOL    HW121044   0.726   4.246  12.509  0.2799  0.0240 -0.2774
 3194SOL    HW221045   0.681   4.344  12.613  0.8648 -0.1664 -0.1513
 3195SOL     OW21046   3.904   0.001   5.533 -0.8873 -0.0481  0.5149
 3195SOL    HW121047   3.849   0.017   5.457 -0.0920  0.5368  0.0656
 3195SOL    HW221048   3.934   0.092   5.539 -1.8146  0.5222 -3.3741
 3196SOL     OW21049   0.016   3.979   5.722  0.0614  0.1560 -0.3622
 3196SOL    HW121050   4.667   4.031   5.752  0.1511  0.4753 -0.6909
 3196SOL    HW221051   0.079   4.052   5.720  0.2921  0.0357  2.5312
 3197SOL     OW21052   3.125   3.095  15.088 -0.4395 -0.0064 -0.1623
 3197SOL    HW121053   3.105   3.089  14.995 -2.6631  1.5926  0.2102
 3197SOL    HW221054   3.100   3.003  15.099  1.0851 -0.6210 -1.9038
 3198SOL     OW21055   4.690   2.880   2.398  0.0710 -0.3952  0.8403
 3198SOL    HW121056   4.631   2.955   2.391 -0.9594 -1.3580 -0.7677
 3198SOL    HW221057   4.631   2.811   2.428  0.5784 -0.5262  1.5322
 3199SOL     OW21058   3.055   4.361   5.049  0.1614  0.3618 -0.3047
 3199SOL    HW121059   3.002   4.308   4.989  2.8831 -1.6037 -0.9496
 3199SOL    HW221060   3.139   4.348   5.005  0.4105  1.5394 -0.1861
 3200SOL     OW21061   0.983   4.466   6.685 -0.4771 -0.1997 -0.4178
 3200SOL    HW121062   1.071   4.463   6.724 -0.8313  0.2497  0.4222
 3200SOL    HW221063   1.002   4.511   6.603 -2.2802  0.9351 -0.2066
 3201SOL     OW21064   1.596   1.843   7.712 -0.5929 -0.0343  0.1232
 3201SOL    HW121065   1.539   1.767   7.707 -2.5452  1.4685 -0.7794
 3201SOL    HW221066   1.558   1.895   7.783  0.0300  0.0011  0.4269
 3202SOL     OW21067   1.771   0.437  14.066  0.7923  0.5270 -0.1874
 3202SOL    HW121068   1.770   0.352  14.022  0.8075 -0.1419  1.1193
 3202SOL    HW221069   1.719   0.407  14.141  0.9481  0.2459 -0.1905
 3203SOL     OW21070   1.145   2.477   7.881 -0.3309  0.7588  0.1471
 3203SOL    HW121071   1.091   2.517   7.949 -1.0448  0.1973 -0.0899
 3203SOL    HW221072   1.098   2.396   7.859  1.3778  0.0378 -0.9042
 3204SOL     OW21073   1.052   4.277   4.990  0.1885  0.0545  0.0152
 3204SOL    HW121074   0.991   4.307   5.058  1.4620 -0.0933  1.2212
 3204SOL    HW221075   0.987   4.221   4.947  0.5685  0.0658 -0.5660
 3205SOL     OW21076   2.950   4.037   0.536  0.1382  0.0752  0.6338
 3205SOL    HW121077   2.897   4.005   0.463 -2.2714  0.9403  2.0008
 3205SOL    HW221078   2.918   3.989   0.613 -0.1497 -0.0940  0.4079
 3206SOL     OW21079   4.218   2.162  12.372 -0.0069 -0.2563 -0.3520
 3206SOL    HW121080   4.278   2.091  12.394  0.4214  0.0190 -0.6431
 3206SOL    HW221081   4.182   2.133  12.289 -2.9942  1.1446  0.4367
 3207SOL     OW21082   2.214   3.079  17.351 -0.0104 -0.7560  0.2765
 3207SOL    HW121083   2.243   3.151  17.295 -0.1041 -1.6502 -0.9274
 3207SOL    HW221084   2.120   3.094  17.360  0.2216 -0.1464  1.6135
 3208SOL     OW21085   3.567   0.194   3.270 -0.2141  0.4087 -0.1549
 3208SOL    HW121086   3.660   0.218   3.277 -0.2628  0.5549 -0.0098
 3208SOL    HW221087   3.570   0.099   3.257 -0.9223  0.4090 -0.3221
 3209SOL     OW21088   4.013   2.719  11.040  0.1350  0.2157 -0.1679
 3209SOL    HW121089   3.994   2.803  11.080  0.4163 -0.0532  0.5205
 3209SOL    HW221090   4.076   2.745  10.972  0.3414 -1.1231 -0.4991
 3210SOL     OW21091   4.601   3.470  16.535  0.5473  0.1893 -0.1902
 3210SOL    HW121092   4.653   3.442  16.460  0.3833  1.2259 -0.6978
 3210SOL    HW221093   4.668   3.457  16.602  1.5059  0.1016 -1.1593
 3211SOL     OW21094   0.491   3.532   4.201 -0.0423  0.3389 -0.6857
 3211SOL    HW121095   0.475   3.622   4.229  1.5810  0.5484 -0.4321
 3211SOL    HW221096   0.576   3.538   4.156  0.3055  0.1801 -0.0595
 3212SOL     OW21097   4.433   0.791  14.706 -0.3787  0.2421 -0.2531
 3212SOL    HW121098   4.398   0.868  14.750 -0.6855  0.4355 -0.8427
 3212SOL    HW221099   4.499   0.821  14.644  2.3100 -1.2998  1.8226
 3213SOL     OW21100   3.769   4.464   1.898 -0.1866  0.3085  0.0115
 3213SOL    HW121101   3.709   4.404   1.854  1.0999 -0.9684  0.0055
 3213SOL    HW221102   3.820   4.393   1.934 -1.1518 -0.9599 -1.1270
 3214SOL     OW21103   4.392   1.299  11.827 -0.0738 -0.2218 -0.3324
 3214SOL    HW121104   4.343   1.294  11.745  0.6763 -2.3408 -0.6630
 3214SOL    HW221105   4.474   1.257  11.800 -0.2534 -1.3685  0.8837
 3215SOL     OW21106   2.376   1.262   7.851 -0.0934 -0.4181  0.0593
 3215SOL    HW121107   2.325   1.341   7.867 -1.4091 -1.2931  0.1242
 3215SOL    HW221108   2.468   1.289   7.857 -0.1192 -0.0226 -1.2827
 3216SOL     OW21109   4.260   2.264   7.931  0.2975 -0.1336  0.4278
 3216SOL    HW121110   4.282   2.245   7.840 -0.6678 -0.6503  0.2932
 3216SOL    HW221111   4.272   2.359   7.934  1.7587 -0.2364 -2.2782
 3217SOL     OW21112   2.788   3.952   0.322 -0.5140  0.0469  0.4996
 3217SOL    HW121113   2.692   3.954   0.313 -0.3156  0.3773 -1.6436
 3217SOL    HW221114   2.801   3.925   0.231  0.9148 -2.3923  1.4375
 3218SOL     OW21115   2.568   0.444   4.479 -0.3167  0.6189 -0.0356
 3218SOL    HW121116   2.511   0.515   4.505 -1.9860  0.1314 -2.3184
 3218SOL    HW221117   2.498   0.380   4.462  1.5598 -1.2471 -0.8531
 3219SOL     OW21118   2.153   3.279  17.155 -0.4508  0.2604 -0.1470
 3219SOL    HW121119   2.108   3.359  17.130 -1.4629 -0.8247 -1.8023
 3219SOL    HW221120   2.082   3.234  17.202 -0.8698  1.1476  0.0595
 3220SOL     OW21121   2.992   1.111   4.036  0.5099 -0.7207  0.0104
 3220SOL    HW121122   3.065   1.160   3.999 -0.0512 -0.4354 -0.7054
 3220SOL    HW221123   3.044   1.040   4.074  0.2334 -1.6143 -1.2763
 3221SOL     OW21124   1.989   3.522   3.769  0.5302 -0.1190 -0.2824
 3221SOL    HW121125   2.066   3.464   3.768  0.8783  0.3469 -1.4442
 3221SOL    HW221126   2.016   3.592   3.709 -0.5632 -0.6660 -1.4169
 3222SOL     OW21127   0.337   1.009   6.942 -0.0115  1.1708  0.4903
 3222SOL    HW121128   0.345   1.063   7.020 -1.6419  1.5281  0.3994
 3222SOL    HW221129   0.306   0.929   6.984  0.7341  0.5717 -0.0657
 3223SOL     OW21130   4.352   0.252   1.628 -1.2687  0.3496  0.3242
 3223SOL    HW121131   4.351   0.161   1.601  0.7179  0.1892  0.7777
 3223SOL    HW221132   4.420   0.296   1.577 -2.3349  0.4758 -1.0089
 3224SOL     OW21133   4.474   0.506   5.119  0.1022 -0.3299 -0.3480
 3224SOL    HW121134   4.444   0.515   5.029  0.9803 -0.3187 -0.6464
 3224SOL    HW221135   4.479   0.594   5.156  1.3525 -0.5024 -0.1049
 3225SOL     OW21136   3.401   3.513   6.604  0.4699  0.0422  0.7239
 3225SOL    HW121137   3.438   3.442   6.656 -1.2276 -2.4407 -1.4683
 3225SOL    HW221138   3.368   3.475   6.523  0.8492 -1.9116  1.5046
 3226SOL     OW21139   0.113   1.249   4.407 -0.3611 -0.1550 -0.1077
 3226SOL    HW121140   0.059   1.326   4.428 -0.1357  0.2171 -0.8943
 3226SOL    HW221141   0.163   1.286   4.334 -0.2432 -0.3264 -0.1128
 3227SOL     OW21142   1.286   0.076   0.741  0.1625  0.3448 -0.1012
 3227SOL    HW121143   1.193   0.094   0.758  0.1242  3.9150 -3.9916
 3227SOL    HW221144   1.273   0.051   0.650  0.7470 -0.9797  0.1881
 3228SOL     OW21145   1.120   4.301  12.014  0.5624 -0.1255 -0.1591
 3228SOL    HW121146   1.090   4.211  11.997  0.6749 -0.0395 -0.8071
 3228SOL    HW221147   1.097   4.302  12.107  1.4942  0.1442  0.0646
 3229SOL     OW21148   1.501   4.487  10.454  0.2063 -0.2516  0.4325
 3229SOL    HW121149   1.475   4.549  10.386 -1.3552  0.8875  2.0827
 3229SOL    HW221150   1.510   4.549  10.526  1.1678  1.6930 -1.3520
 3230SOL     OW21151   0.697   0.291  13.763  0.0370  0.1564 -0.6337
 3230SOL    HW121152   0.622   0.240  13.734  0.3831  0.0846 -1.4066
 3230SOL    HW221153   0.655   0.376  13.775  1.2279  0.8366 -1.3053
 3231SOL     OW21154   1.384   3.410   2.532 -0.6398 -0.5807 -0.0764
 3231SOL    HW121155   1.309   3.430   2.475 -0.1543  0.5763 -0.3252
 3231SOL    HW221156   1.385   3.315   2.537 -0.6506 -0.6151 -0.7289
 3232SOL     OW21157   1.688   2.799  14.881  0.4379  0.2394 -0.0587
 3232SOL    HW121158   1.775   2.763  14.895  0.7515  2.0415  2.8105
 3232SOL    HW221159   1.695   2.894  14.876 -0.5555  0.1884 -2.3164
 3233SOL     OW21160   1.645   2.670   6.317 -0.5739 -0.6699  0.1654
 3233SOL    HW121161   1.696   2.628   6.387 -1.6626 -0.1886  1.2582
 3233SOL    HW221162   1.628   2.756   6.355 -1.7173 -0.3924 -1.0082
 3234SOL     OW21163   2.541   0.837   3.179  0.7952 -0.9856  0.6399
 3234SOL    HW121164   2.520   0.785   3.257 -0.7566  0.3004  1.0661
 3234SOL    HW221165   2.602   0.775   3.137  1.1689 -1.3321  1.6834
 3235SOL     OW21166   1.545   0.951   6.845 -0.4042 -0.0412  0.1241
 3235SOL    HW121167   1.497   0.973   6.925 -1.4265  0.1544 -0.5460
 3235SOL    HW221168   1.575   0.866   6.876  0.3548 -1.0878 -3.4479
 3236SOL     OW21169   3.636   1.386   4.888 -0.3756 -0.2399 -0.0742
 3236SOL    HW121170   3.608   1.372   4.797 -1.8522 -2.2393  0.7099
 3236SOL    HW221171   3.712   1.328   4.892 -0.5666 -0.3230  2.1910
 3237SOL     OW21172   2.577   4.021   2.954 -0.0373  0.1194  0.1866
 3237SOL    HW121173   2.566   3.952   2.888  1.4883  1.0821 -1.0970
 3237SOL    HW221174   2.644   3.973   3.003 -1.2864 -3.8663 -2.0370
 3238SOL     OW21175   3.810   0.901   7.342 -0.0357 -0.2677 -0.4846
 3238SOL    HW121176   3.890   0.952   7.347 -1.1034  1.2546  1.1887
 3238SOL    HW221177   3.757   0.939   7.412 -2.9264 -0.4058 -2.5674
 3239SOL     OW21178   1.332   0.438  13.599  0.3381 -0.7120  0.9005
 3239SOL    HW121179   1.387   0.438  13.678  2.6646 -1.2566 -0.7319
 3239SOL    HW221180   1.357   0.527  13.572  1.6539 -2.3889 -3.3681
 3240SOL     OW21181   3.509   0.892   6.464 -0.1027 -0.5288  0.1171
 3240SOL    HW121182   3.565   0.874   6.541  0.3610  1.3869  0.2271
 3240SOL    HW221183   3.582   0.904   6.402 -0.8735  0.5008 -0.5850
 3241SOL     OW21184   3.086   4.043   5.844 -0.1377 -0.3783 -0.4003
 3241SOL    HW121185   3.067   3.959   5.804  0.5095 -0.9990  0.5994
 3241SOL    HW221186   3.073   4.019   5.936 -0.4054 -1.5210 -0.7378
 3242SOL     OW21187   4.109   3.997  11.073 -0.5000 -0.2533 -0.4425
 3242SOL    HW121188   4.149   3.961  11.152  2.3485  3.2489 -0.2989
 3242SOL    HW221189   4.155   3.951  11.002  0.5972  1.2587 -0.7137
 3243SOL     OW21190   4.158   3.767   2.625 -0.7572  0.2264  0.4105
 3243SOL    HW121191   4.098   3.833   2.589 -0.9379 -0.4656 -0.5911
 3243SOL    HW221192   4.191   3.817   2.699 -2.1087  0.6055  0.7524
 3244SOL     OW21193   1.995   0.409   3.516  0.3821  0.0930 -0.1038
 3244SOL    HW121194   1.928   0.403   3.447  1.9100 -0.6818 -1.5101
 3244SOL    HW221195   1.962   0.344   3.578  2.4146  0.2242  1.0703
 3245SOL     OW21196   1.907   0.810   3.886  0.6128 -0.2263  0.1772
 3245SOL    HW121197   1.813   0.818   3.905  0.1363  0.4245 -2.5144
 3245SOL    HW221198   1.926   0.902   3.869 -0.9266  0.2778  1.1157
 3246SOL     OW21199   3.029   4.515   5.477 -0.5388  0.2611  0.1734
 3246SOL    HW121200   2.967   4.485   5.544 -0.3160 -0.4163  0.0813
 3246SOL    HW221201   3.024   4.438   5.420 -1.9083  1.3504 -1.1864
 3247SOL     OW21202   0.502   4.486  13.484  0.4125  0.5596 -0.2341
 3247SOL    HW121203   0.483   4.414  13.543 -0.6642 -0.7515 -2.1707
 3247SOL    HW221204   0.415   4.507  13.450 -0.4706 -1.7328  0.5747
 3248SOL     OW21205   4.602   2.068   2.142  0.0319  0.5606  0.2774
 3248SOL    HW121206   4.641   1.992   2.184 -1.4865  0.7467  2.0661
 3248SOL    HW221207   4.614   2.049   2.049 -1.5587  3.6974 -0.5670
 3249SOL     OW21208   0.840   0.792   9.056 -0.1115 -0.0344  0.0598
 3249SOL    HW121209   0.909   0.858   9.047  0.6038 -0.7654  0.2282
 3249SOL    HW221210   0.786   0.845   9.116  0.8496 -0.7786  1.5772
 3250SOL     OW21211   3.394   1.900   1.298 -0.4688  0.5091 -0.0580
 3250SOL    HW121212   3.341   1.832   1.256 -0.2936  0.9824 -1.0642
 3250SOL    HW221213   3.327   1.957   1.334 -0.7507 -0.1675  0.4778
 3251SOL     OW21214   1.025   2.338   5.643  0.4045 -0.2678 -0.4920
 3251SOL    HW121215   0.935   2.325   5.673  0.7107 -0.4640  0.3186
 3251SOL    HW221216   1.086   2.309   5.710 -1.3322  0.9903  1.6285
 3252SOL     OW21217   2.899   2.950   4.213 -1.0243 -0.4239  0.0585
 3252SOL    HW121218   2.974   2.992   4.171 -1.1539  1.8873  2.1497
 3252SOL    HW221219   2.944   2.895   4.277 -0.0102 -0.2374 -0.4908
 3253SOL     OW21220   2.038   1.858   4.270  0.2775 -0.1001  0.1964
 3253SOL    HW121221   2.031   1.783   4.210  0.2196  0.8362 -0.9612
 3253SOL    HW221222   2.134   1.864   4.268  0.4318 -2.0731  1.1225
 3254SOL     OW21223   2.204   3.721   6.863 -0.0266 -0.0836  0.5565
 3254SOL    HW121224   2.282   3.746   6.911  0.5785 -0.2717 -0.3399
 3254SOL    HW221225   2.168   3.659   6.927 -0.0238  0.6767  1.2983
 3255SOL     OW21226   0.385   4.593  11.551  0.1482  0.8617 -0.3015
 3255SOL    HW121227   0.475   4.604  11.582  0.4644 -1.5385 -0.3956
 3255SOL    HW221228   0.388   4.510  11.504 -0.9060  0.7878 -0.2234
 3256SOL     OW21229   4.301   1.444   2.410 -0.2125 -0.1223 -0.5709
 3256SOL    HW121230   4.255   1.439   2.327 -0.3140 -2.3290 -0.3904
 3256SOL    HW221231   4.342   1.357   2.410 -0.2874 -0.1666  0.9699
 3257SOL     OW21232   3.248   1.269   4.815  0.5798  0.3836 -0.3053
 3257SOL    HW121233   3.280   1.345   4.864  1.8129 -0.3059 -0.0566
 3257SOL    HW221234   3.186   1.233   4.879 -0.2183  0.5518 -0.9821
 3258SOL     OW21235   3.140   2.730   0.741 -0.1618  0.7100  0.3944
 3258SOL    HW121236   3.094   2.782   0.674  0.3756  0.3511 -0.2606
 3258SOL    HW221237   3.071   2.670   0.767  0.9511 -1.4249 -1.5430
 3259SOL     OW21238   3.984   2.095   7.344  0.3487 -0.2089 -0.4549
 3259SOL    HW121239   4.066   2.142   7.330  0.1787  0.1934 -0.1038
 3259SOL    HW221240   3.970   2.138   7.428  0.7356  0.5974 -0.7982
 3260SOL     OW21241   1.916   2.665  14.945  0.3471 -0.1872 -0.1498
 3260SOL    HW121242   1.915   2.608  15.023  0.3564  0.7407  0.5268
 3260SOL    HW221243   2.009   2.669  14.921  0.5852  1.9571  1.1534
 3261SOL     OW21244   1.483   4.391   9.831 -0.3284 -0.0307  0.5195
 3261SOL    HW121245   1.449   4.402   9.742 -0.3782 -1.0668  0.4072
 3261SOL    HW221246   1.535   4.469   9.851 -0.4123  0.6298 -1.7611
 3262SOL     OW21247   1.265   3.235  13.885 -0.3618 -0.5005 -0.4348
 3262SOL    HW121248   1.205   3.272  13.950  0.0191  1.8100 -1.4119
 3262SOL    HW221249   1.349   3.246  13.929 -2.1488  4.1277  1.8695
 3263SOL     OW21250   0.646   0.247   5.133  0.2143  0.2830  0.1675
 3263SOL    HW121251   0.668   0.156   5.112 -1.2823 -0.2085  0.6790
 3263SOL    HW221252   0.656   0.249   5.228 -3.5865 -0.9402  0.5909
 3264SOL     OW21253   2.070   4.567  13.039 -0.0644 -0.1553 -0.2722
 3264SOL    HW121254   2.056   4.613  13.122 -0.2937  0.5462 -0.6973
 3264SOL    HW221255   2.057   4.473  13.052 -0.9268 -0.3548 -2.6615
 3265SOL     OW21256   2.482   0.985  11.444 -0.2468  0.4786  0.6007
 3265SOL    HW121257   2.471   0.890  11.450  0.7363  0.3834  0.9098
 3265SOL    HW221258   2.394   1.017  11.427 -1.1653 -0.7696  2.9143
 3266SOL     OW21259   3.639   4.101   2.480  0.2011  0.8575 -0.0171
 3266SOL    HW121260   3.583   4.091   2.403  1.2946  1.8360 -0.9371
 3266SOL    HW221261   3.726   4.076   2.451 -1.2173 -2.4252 -1.5324
 3267SOL     OW21262   1.983   1.828   5.385  0.1150  0.3991  0.3282
 3267SOL    HW121263   1.916   1.893   5.367 -0.2672 -0.3575 -1.0318
 3267SOL    HW221264   2.067   1.865   5.357 -0.3789  0.5723 -0.9368
 3268SOL     OW21265   0.279   3.604  16.601  0.5326  0.3641 -0.1381
 3268SOL    HW121266   0.231   3.531  16.639  0.5953  0.4514  0.1029
 3268SOL    HW221267   0.274   3.676  16.664  1.8122  0.2653  0.0667
 3269SOL     OW21268   2.623   3.332   4.640  0.5445  0.0386  0.3747
 3269SOL    HW121269   2.569   3.295   4.570  0.7054 -1.5399  1.0650
 3269SOL    HW221270   2.665   3.253   4.676  0.5818 -0.9428 -1.8608
 3270SOL     OW21271   1.562   1.628   0.195  0.3367 -0.1337 -0.1094
 3270SOL    HW121272   1.637   1.636   0.136  0.5909  1.4637  0.4165
 3270SOL    HW221273   1.612   1.629   0.277  2.7498 -1.5149 -1.5896
 3271SOL     OW21274   3.172   2.687   4.570 -0.9493  0.2563 -0.0919
 3271SOL    HW121275   3.169   2.651   4.659 -2.4323  0.9510  0.1345
 3271SOL    HW221276   3.240   2.631   4.534 -0.1664  1.3962 -0.4026
 3272SOL     OW21277   3.071   1.342  15.641  0.2564 -0.4286  0.7060
 3272SOL    HW121278   3.159   1.345  15.602  0.0916 -1.9906  0.2293
 3272SOL    HW221279   3.018   1.359  15.564  1.7250  0.3809 -0.1422
 3273SOL     OW21280   1.190   2.022  14.777  0.3044 -0.0139  0.1258
 3273SOL    HW121281   1.165   2.114  14.768  0.9541  0.1932  0.4634
 3273SOL    HW221282   1.237   2.002  14.697  0.0791 -1.1607  0.2766
 3274SOL     OW21283   0.180   0.438   3.810  0.0449 -0.2002 -0.4653
 3274SOL    HW121284   0.177   0.528   3.843  0.2910 -0.8022  1.1926
 3274SOL    HW221285   0.171   0.384   3.888  0.6425  1.1026  0.4951
 3275SOL     OW21286   0.022   0.445   3.566  0.4006  0.4673  0.2464
 3275SOL    HW121287   4.664   0.479   3.599 -0.4551 -0.6813 -0.7030
 3275SOL    HW221288   0.084   0.465   3.636 -0.1810 -0.4061  1.0243
 3276SOL     OW21289   3.507   2.846   8.970  0.0361  0.0046 -0.1459
 3276SOL    HW121290   3.440   2.785   8.938  0.5245 -1.5931  1.8771
 3276SOL    HW221291   3.457   2.883   9.043  0.3936 -1.5791  0.8963
 3277SOL     OW21292   0.517   3.696   1.247  0.0823 -0.0142 -0.6687
 3277SOL    HW121293   0.477   3.609   1.254 -2.8643  1.3512 -0.8131
 3277SOL    HW221294   0.575   3.696   1.170 -0.1811 -0.6809 -0.8687
 3278SOL     OW21295   1.359   2.218   6.661  0.4111  0.3037 -0.0739
 3278SOL    HW121296   1.336   2.288   6.722 -0.0506  0.4261 -0.3923
 3278SOL    HW221297   1.277   2.219   6.613  0.7213  1.6178 -0.5825
 3279SOL     OW21298   2.559   1.851   1.614  0.5047  0.4045 -0.6430
 3279SOL    HW121299   2.538   1.818   1.701  0.5189  1.0057 -0.4204
 3279SOL    HW221300   2.483   1.902   1.584 -0.6292  0.4406  2.3316
 3280SOL     OW21301   2.123   3.666   7.225 -0.5943 -0.6235  0.1009
 3280SOL    HW121302   2.143   3.716   7.304  2.5335 -1.1914 -0.3110
 3280SOL    HW221303   2.095   3.738   7.169  2.1111  1.7650  1.8697
 3281SOL     OW21304   2.097   3.764   9.186 -0.4720 -0.4005  0.0768
 3281SOL    HW121305   2.159   3.834   9.204  2.3524 -2.6497 -0.9110
 3281SOL    HW221306   2.046   3.762   9.267 -0.5063 -1.7603  0.0157
 3282SOL     OW21307   4.028   0.529   6.414  0.0090  0.0645  0.1440
 3282SOL    HW121308   4.070   0.445   6.433  1.4824  0.5829 -0.8178
 3282SOL    HW221309   4.073   0.550   6.333 -1.9098 -0.6209 -1.0911
 3283SOL     OW21310   1.947   4.384   5.451 -0.0917 -0.0838  0.3502
 3283SOL    HW121311   1.896   4.386   5.533 -0.7245 -0.1237 -0.0462
 3283SOL    HW221312   2.020   4.324   5.464 -0.3540 -0.3867  0.4397
 3284SOL     OW21313   3.978   4.574   4.392  0.4547  0.2061 -0.0333
 3284SOL    HW121314   3.885   4.564   4.414  0.1092  3.1819 -0.1099
 3284SOL    HW221315   4.020   4.612   4.468 -0.1292 -0.6263  0.7055
 3285SOL     OW21316   2.241   2.692   2.477 -0.4880  0.4381  0.3132
 3285SOL    HW121317   2.324   2.720   2.439 -1.0449  2.0194  0.2658
 3285SOL    HW221318   2.243   2.597   2.465 -1.8134  0.5168 -0.5425
 3286SOL     OW21319   0.074   0.356   5.218  0.4996 -0.8319 -0.0098
 3286SOL    HW121320   0.127   0.410   5.160  1.0257 -0.0460  1.2010
 3286SOL    HW221321   0.042   0.287   5.160  1.8854 -0.9411 -0.6245
 3287SOL     OW21322   4.290   0.632  12.714 -0.0586  0.0196  0.2482
 3287SOL    HW121323   4.336   0.699  12.663  1.1751 -1.7779 -0.9954
 3287SOL    HW221324   4.211   0.682  12.735  0.1469  0.6487 -0.4767
 3288SOL     OW21325   0.299   2.727   7.278 -0.9176 -0.2644 -0.5069
 3288SOL    HW121326   0.321   2.728   7.185 -0.3138 -0.5950 -0.3643
 3288SOL    HW221327   0.386   2.737   7.315 -0.4632  2.0556 -2.2340
 3289SOL     OW21328   3.595   3.496   4.036  0.3561 -0.3335 -0.1906
 3289SOL    HW121329   3.597   3.561   3.967 -0.7832 -1.9917 -1.7768
 3289SOL    HW221330   3.506   3.460   4.036 -0.2574  1.2172  0.1613
 3290SOL     OW21331   0.602   3.864   9.042 -0.1386  0.3345  0.0390
 3290SOL    HW121332   0.690   3.883   9.073  0.3788  0.4381 -1.4675
 3290SOL    HW221333   0.605   3.769   9.055 -1.9148  0.3350  0.4993
 3291SOL     OW21334   3.423   0.106   2.346 -0.2658  0.1351  0.2912
 3291SOL    HW121335   3.485   0.173   2.317  0.7064 -0.7627  0.2894
 3291SOL    HW221336   3.463   0.030   2.304 -0.4897  1.3495 -2.1109
 3292SOL     OW21337   1.495   3.192   9.660  0.3526  0.0357 -0.2461
 3292SOL    HW121338   1.416   3.148   9.630 -0.3149  0.5198  0.8002
 3292SOL    HW221339   1.567   3.146   9.617  1.9729  0.7112  1.7678
 3293SOL     OW21340   0.815   1.823  15.856 -0.1301 -1.1018 -0.1309
 3293SOL    HW121341   0.812   1.850  15.948 -2.1477 -1.6126 -0.0491
 3293SOL    HW221342   0.834   1.904  15.808  2.4728 -0.6802  1.6216
 3294SOL     OW21343   1.199   0.399   8.341  0.2307 -0.7108 -0.1282
 3294SOL    HW121344   1.196   0.357   8.427 -1.2768  0.9091  0.6050
 3294SOL    HW221345   1.239   0.483   8.361 -0.3940 -0.2229 -0.9471
 3295SOL     OW21346   1.682   2.876   8.130 -0.4862 -0.3760 -0.3300
 3295SOL    HW121347   1.751   2.827   8.174 -0.4856  0.8266  1.0035
 3295SOL    HW221348   1.689   2.955   8.184  1.3000 -0.1760 -0.8303
 3296SOL     OW21349   3.086   0.248   3.605 -0.2896  0.4147 -0.1836
 3296SOL    HW121350   3.113   0.161   3.575 -0.7177  0.6113 -1.1453
 3296SOL    HW221351   3.043   0.238   3.690 -0.0640  0.5584 -0.0500
 3297SOL     OW21352   0.424   2.204   6.753 -0.1476 -0.5069 -0.1798
 3297SOL    HW121353   0.429   2.141   6.825  1.8448  0.5799  0.6284
 3297SOL    HW221354   0.485   2.273   6.780  0.8502 -0.9769 -1.2448
 3298SOL     OW21355   0.510   3.549   3.590  0.3205  0.2531 -0.3392
 3298SOL    HW121356   0.597   3.590   3.586  0.2504  0.5941  1.3997
 3298SOL    HW221357   0.531   3.476   3.532 -1.0187 -1.6598  1.5923
 3299SOL     OW21358   3.837   0.881  16.681 -0.0799 -0.0909  0.3113
 3299SOL    HW121359   3.929   0.857  16.687  0.2891  1.1240 -0.3915
 3299SOL    HW221360   3.798   0.808  16.633 -1.3108 -0.2396  1.5577
 3300SOL     OW21361   1.656   4.489  11.742 -0.2611 -0.2683 -0.1584
 3300SOL    HW121362   1.624   4.428  11.675  1.2390 -0.2019 -0.9341
 3300SOL    HW221363   1.645   4.574  11.700 -2.3424  0.4282  1.8132
 3301SOL     OW21364   3.743   3.729   7.965 -0.2311 -0.1249  0.4150
 3301SOL    HW121365   3.781   3.810   8.000 -1.9570  1.4010 -1.2295
 3301SOL    HW221366   3.722   3.689   8.049  0.0271 -0.6077  0.2466
 3302SOL     OW21367   2.048   0.842   4.621  0.2473 -0.0679 -0.4499
 3302SOL    HW121368   1.986   0.911   4.597  2.0904  1.5968 -0.3974
 3302SOL    HW221369   2.061   0.803   4.534 -1.3117  0.4430 -0.9147
 3303SOL     OW21370   0.667   4.424   2.694  0.3616  0.0817  0.0849
 3303SOL    HW121371   0.684   4.513   2.724  1.2037 -0.0585  0.0210
 3303SOL    HW221372   0.574   4.421   2.718  0.6705  2.3253  1.5535
 3304SOL     OW21373   2.736   2.820   5.373  0.1618 -0.6195 -0.2726
 3304SOL    HW121374   2.782   2.849   5.452 -0.0523 -0.3074 -0.2633
 3304SOL    HW221375   2.802   2.766   5.330  0.2579 -0.3197 -0.5017
 3305SOL     OW21376   2.814   4.164   4.119  0.1418  0.1213  0.1775
 3305SOL    HW121377   2.890   4.132   4.168 -0.1693 -1.7325 -0.5516
 3305SOL    HW221378   2.743   4.124   4.169  1.0189 -1.4140  0.1909
 3306SOL     OW21379   3.695   0.056   5.912  0.1367  0.0904 -0.0117
 3306SOL    HW121380   3.722   0.121   5.977  1.0503  0.2520 -0.5475
 3306SOL    HW221381   3.755   4.710   5.935  1.6919  2.1214  2.2812
 3307SOL     OW21382   2.417   4.455   2.423  0.0701 -0.0243  0.2537
 3307SOL    HW121383   2.430   4.404   2.503 -3.2965 -3.2450 -1.2250
 3307SOL    HW221384   2.502   4.495   2.403 -0.2977  1.1167  0.9895
 3308SOL     OW21385   3.533   2.481   4.322 -0.2409 -0.0660 -0.4132
 3308SOL    HW121386   3.458   2.448   4.273  0.2083 -0.3043 -0.9507
 3308SOL    HW221387   3.547   2.560   4.269  0.8019 -0.1533 -0.2835
 3309SOL     OW21388   3.913   2.534  17.504 -0.2003 -0.0874 -0.3047
 3309SOL    HW121389   3.939   2.560  17.416 -0.3524 -0.3794 -0.4353
 3309SOL    HW221390   3.863   2.454  17.491 -0.9238  0.1102  1.2428
 3310SOL     OW21391   4.267   0.379  13.889 -0.0198 -0.2963 -0.7282
 3310SOL    HW121392   4.296   0.288  13.895  0.0397 -0.1803  0.6014
 3310SOL    HW221393   4.305   0.413  13.970  1.3069  1.2344 -1.9771
 3311SOL     OW21394   4.637   3.191   6.769  0.4241  0.5002  0.1165
 3311SOL    HW121395   4.628   3.096   6.763  0.5192  0.4885  0.1563
 3311SOL    HW221396   4.686   3.199   6.850  1.4909  0.9554 -0.5705
 3312SOL     OW21397   0.984   0.993   5.767 -0.0166 -0.7264 -0.3279
 3312SOL    HW121398   0.982   0.908   5.812 -1.7246  0.5789  2.0611
 3312SOL    HW221399   1.075   0.999   5.741  0.6323 -2.2314  1.5634
 3313SOL     OW21400   2.897   4.163  12.115 -0.1652  0.7782 -0.3255
 3313SOL    HW121401   2.855   4.216  12.048 -0.1245  0.1326 -0.8504
 3313SOL    HW221402   2.979   4.213  12.113 -0.0743  0.6292 -0.3171
 3314SOL     OW21403   3.634   0.407  11.689 -0.2384 -0.1821 -0.2033
 3314SOL    HW121404   3.654   0.367  11.605 -0.6962 -0.6643 -0.0839
 3314SOL    HW221405   3.704   0.472  11.688 -0.7062  0.3330  0.3304
 3315SOL     OW21406   3.520   0.647   7.185  0.0653  0.3946  0.2983
 3315SOL    HW121407   3.518   0.688   7.271  1.1199  1.6155 -0.2468
 3315SOL    HW221408   3.427   0.645   7.162  0.2938  0.9786 -0.7383
 3316SOL     OW21409   4.354   1.768   9.190 -0.9839 -0.1637  0.7657
 3316SOL    HW121410   4.439   1.768   9.145 -0.6821 -1.5327  1.3363
 3316SOL    HW221411   4.378   1.752   9.281 -1.1574 -1.0157  0.6644
 3317SOL     OW21412   3.665   1.074  10.071 -0.4465  0.0772 -0.5516
 3317SOL    HW121413   3.643   1.153  10.119 -3.4614 -2.2671  1.9553
 3317SOL    HW221414   3.583   1.024  10.075 -2.5859  3.9117  3.0256
 3318SOL     OW21415   1.018   1.922   1.667 -0.0415  0.1535 -0.3920
 3318SOL    HW121416   0.946   1.923   1.603 -0.5966 -0.3936  0.2300
 3318SOL    HW221417   1.088   1.976   1.630 -1.4182  1.3016 -1.3297
 3319SOL     OW21418   0.708   2.243  16.903 -1.1282  0.3996  0.0798
 3319SOL    HW121419   0.647   2.173  16.928  0.5982 -0.2777  2.3059
 3319SOL    HW221420   0.645   2.312  16.880 -2.5479 -0.9986 -0.2240
 3320SOL     OW21421   1.507   4.622   8.331 -0.5996  0.0112  0.3000
 3320SOL    HW121422   1.557   4.703   8.320 -0.1778 -0.3632 -0.5951
 3320SOL    HW221423   1.424   4.642   8.288  0.8789  0.5979 -2.3329
 3321SOL     OW21424   0.889   2.838   8.357 -0.0474 -0.1178 -0.3102
 3321SOL    HW121425   0.981   2.860   8.341 -0.1042 -0.0980 -0.6088
 3321SOL    HW221426   0.883   2.745   8.337 -0.3840 -0.3268  0.7763
 3322SOL     OW21427   2.598   1.932   4.699 -0.6543  0.4137  0.1874
 3322SOL    HW121428   2.640   1.874   4.763  0.1799  0.8210  0.0039
 3322SOL    HW221429   2.537   1.981   4.754 -2.1364 -1.5419  0.2789
 3323SOL     OW21430   4.485   0.871  14.158 -0.6636 -0.1314  0.2003
 3323SOL    HW121431   4.406   0.893  14.109  0.1044 -3.2665 -2.4999
 3323SOL    HW221432   4.456   0.888  14.247 -1.7694  1.6557 -0.5262
 3324SOL     OW21433   3.369   0.629   3.338  0.2116  0.6761 -0.1836
 3324SOL    HW121434   3.406   0.569   3.272 -1.5402  0.1851 -0.7161
 3324SOL    HW221435   3.292   0.581   3.369 -0.8930  3.0878  0.7928
 3325SOL     OW21436   0.627   0.426   6.490 -0.0364 -0.4505 -0.4049
 3325SOL    HW121437   0.586   0.501   6.532 -1.5784 -1.2495 -0.4768
 3325SOL    HW221438   0.676   0.470   6.420 -1.3781  0.5804 -0.6813
 3326SOL     OW21439   0.613   3.112   2.971 -0.1823 -0.3053  0.2097
 3326SOL    HW121440   0.558   3.035   2.966 -2.9703  1.6828  0.3120
 3326SOL    HW221441   0.549   3.182   2.958  0.0384 -0.0970  0.2278
 3327SOL     OW21442   0.041   4.477   8.492  0.3614 -0.2898 -0.1735
 3327SOL    HW121443   0.011   4.386   8.498 -0.8426  0.1697  0.9543
 3327SOL    HW221444   0.034   4.492   8.398 -1.0892  1.5121  0.2139
 3328SOL     OW21445   4.197   4.344   4.535  0.5904  0.6894  0.4119
 3328SOL    HW121446   4.277   4.379   4.573  1.3779  0.5374 -1.1022
 3328SOL    HW221447   4.184   4.391   4.453  1.3664  0.6942  0.2869
 3329SOL     OW21448   3.472   3.079   4.627 -0.7153  0.2385  0.2201
 3329SOL    HW121449   3.401   3.015   4.635 -1.0295  0.6310  0.5755
 3329SOL    HW221450   3.427   3.148   4.578 -0.9141 -1.2669 -1.7395
 3330SOL     OW21451   0.793   3.272   2.661  0.0212  0.1786 -0.4282
 3330SOL    HW121452   0.795   3.282   2.756  1.0984 -0.5312 -0.3745
 3330SOL    HW221453   0.710   3.229   2.643  0.1996 -0.6223  0.7031
 3331SOL     OW21454   3.007   0.698   8.823  0.1012 -0.1613  0.0579
 3331SOL    HW121455   3.030   0.672   8.912  1.8881  1.4631  0.0606
 3331SOL    HW221456   2.922   0.654   8.826 -1.2821  2.6473  1.3323
 3332SOL     OW21457   1.147   1.985   8.473  0.1075 -0.6827 -0.7086
 3332SOL    HW121458   1.137   1.895   8.443 -2.7837 -0.2374 -1.0793
 3332SOL    HW221459   1.228   2.013   8.431  0.5568 -0.0861  0.5358
 3333SOL     OW21460   3.957   1.098   2.225 -0.3272  0.0661  0.2418
 3333SOL    HW121461   3.949   1.129   2.135 -0.4662 -3.8944 -1.1065
 3333SOL    HW221462   3.982   1.177   2.273 -1.0968  0.9676 -0.8693
 3334SOL     OW21463   4.001   4.548  13.719  0.4472 -0.4416  0.0860
 3334SOL    HW121464   3.949   4.486  13.769 -2.4445  1.6468 -0.2882
 3334SOL    HW221465   4.022   4.611  13.788 -1.1562 -0.0446  0.2180
 3335SOL     OW21466   1.425   1.536  14.074 -0.1095 -0.4930  0.0600
 3335SOL    HW121467   1.446   1.553  14.166  1.7377  0.3889 -0.5262
 3335SOL    HW221468   1.430   1.441  14.069 -0.3073 -0.5527  1.0109
 3336SOL     OW21469   2.635   1.322   3.532 -0.3790  0.0236 -0.3557
 3336SOL    HW121470   2.722   1.306   3.495 -0.7900 -1.6968 -0.5780
 3336SOL    HW221471   2.586   1.253   3.488 -0.1681  0.4754 -1.3016
 3337SOL     OW21472   3.869   3.421   8.120  0.1252  0.2473 -0.0686
 3337SOL    HW121473   3.833   3.333   8.135 -0.1299  0.3377 -0.1573
 3337SOL    HW221474   3.853   3.456   8.208  0.1969 -0.3686  0.1903
 3338SOL     OW21475   2.553   1.058   8.048 -0.1278 -0.0067 -0.2244
 3338SOL    HW121476   2.503   1.107   7.983  1.3242  0.9365 -0.6442
 3338SOL    HW221477   2.607   1.126   8.088 -2.3024  0.7973  1.2829
 3339SOL     OW21478   3.475   2.795   2.496 -0.4625 -0.5826 -0.7102
 3339SOL    HW121479   3.420   2.873   2.489 -1.0980 -0.9692 -0.0198
 3339SOL    HW221480   3.548   2.829   2.548 -2.1025  1.4663  0.2739
 3340SOL     OW21481   0.666   0.283   7.262 -0.0730 -0.2606  0.1753
 3340SOL    HW121482   0.702   0.279   7.174 -0.7431  1.7044 -0.1751
 3340SOL    HW221483   0.607   0.208   7.260 -1.8841  1.1324  1.0063
 3341SOL     OW21484   1.872   1.281  13.777  0.8275 -0.2284  0.6694
 3341SOL    HW121485   1.839   1.304  13.863 -0.8737  0.2943 -0.1160
 3341SOL    HW221486   1.807   1.214  13.756  0.5635  0.6793 -1.4419
 3342SOL     OW21487   4.056   1.395   8.601  0.1186 -0.1892 -0.5859
 3342SOL    HW121488   4.097   1.383   8.516 -1.2188  1.1921 -1.4193
 3342SOL    HW221489   4.041   1.490   8.609  0.9437 -0.1855  0.9838
 3343SOL     OW21490   2.229   0.449   6.555 -0.1972 -0.2096  0.7962
 3343SOL    HW121491   2.290   0.434   6.628  1.1898  1.0520 -0.0864
 3343SOL    HW221492   2.226   0.545   6.551 -1.2900 -0.2474  0.7569
 3344SOL     OW21493   1.802   4.348   7.797  0.0080 -0.4901  0.3449
 3344SOL    HW121494   1.813   4.280   7.731  2.6862 -0.3397  0.6683
 3344SOL    HW221495   1.711   4.333   7.824 -0.6554  1.9728 -0.5440
 3345SOL     OW21496   0.486   2.580   3.521 -0.2073 -0.1696 -0.2982
 3345SOL    HW121497   0.552   2.621   3.466 -0.1249  0.2640  0.1254
 3345SOL    HW221498   0.541   2.563   3.598  0.2467  2.2169 -0.0973
 3346SOL     OW21499   2.115   3.889   6.110  0.2180  0.4183 -0.1234
 3346SOL    HW121500   2.050   3.819   6.117 -0.8457  1.5385  1.0803
 3346SOL    HW221501   2.085   3.953   6.174 -0.6526 -0.2971  0.1876
 3347SOL     OW21502   2.240   4.014   3.384 -0.3771  0.0986 -0.4038
 3347SOL    HW121503   2.310   4.057   3.335  1.5765 -0.2419  2.0964
 3347SOL    HW221504   2.168   4.053   3.336 -1.2018  3.0595  3.2384
 3348SOL     OW21505   2.968   3.756   9.061  0.2800 -0.0505 -0.3748
 3348SOL    HW121506   2.958   3.818   9.133  1.8574  1.4198 -1.4219
 3348SOL    HW221507   2.930   3.677   9.097  0.4160 -0.1079 -0.3577
 3349SOL     OW21508   2.914   1.818  12.915 -0.4536 -0.1359  0.5186
 3349SOL    HW121509   2.971   1.874  12.968  2.1424 -0.5550 -1.8840
 3349SOL    HW221510   2.920   1.854  12.827 -1.7293  2.8594  1.6484
 3350SOL     OW21511   4.678   1.144   8.409 -0.1214 -0.0963 -0.2360
 3350SOL    HW121512   4.597   1.123   8.454  1.0089 -0.2151  1.7650
 3350SOL    HW221513   0.013   1.084   8.454  1.6483  0.8160 -1.3671
 3351SOL     OW21514   1.719   3.961   2.220 -0.3917  0.2224  0.1334
 3351SOL    HW121515   1.750   3.901   2.153 -0.4388 -0.9922  1.1860
 3351SOL    HW221516   1.783   3.959   2.291 -0.4786 -1.8992  0.1585
 3352SOL     OW21517   1.828   3.034   3.797  0.0866  0.0935 -0.4475
 3352SOL    HW121518   1.901   2.974   3.781  0.7776  1.1731 -1.3565
 3352SOL    HW221519   1.832   3.084   3.716 -3.8767  0.8183 -0.1714
 3353SOL     OW21520   4.425   1.138   8.524 -0.1536 -0.4994 -0.1054
 3353SOL    HW121521   4.393   1.066   8.579  2.8607 -1.5415  0.2555
 3353SOL    HW221522   4.408   1.206   8.590  0.5284  0.7680 -1.2301
 3354SOL     OW21523   0.092   1.400   5.876 -0.4774 -0.3085  0.0881
 3354SOL    HW121524   0.126   1.364   5.794 -0.2810  0.8123 -0.3231
 3354SOL    HW221525   0.114   1.335   5.944  1.5261 -0.3920 -0.6534
 3355SOL     OW21526   2.066   0.451   0.891 -0.1403 -0.2247 -0.1872
 3355SOL    HW121527   2.080   0.404   0.973 -2.1564  1.2861  1.0144
 3355SOL    HW221528   2.091   0.540   0.914  1.4176 -0.6411 -0.2534
 3356SOL     OW21529   3.773   1.618   2.322  0.0372 -0.7800  0.3910
 3356SOL    HW121530   3.766   1.523   2.330  0.2398 -0.8270 -0.0066
 3356SOL    HW221531   3.867   1.635   2.326 -0.1777  0.1115  1.8526
 3357SOL     OW21532   0.469   3.166   4.830 -0.2051  0.1303  0.2376
 3357SOL    HW121533   0.401   3.106   4.861  0.5795 -0.8718  0.0125
 3357SOL    HW221534   0.422   3.199   4.753 -0.3076  1.5521  0.9168
 3358SOL     OW21535   0.115   1.160  13.860  0.7207  0.1433 -0.4660
 3358SOL    HW121536   0.114   1.109  13.941 -1.5488  0.1298 -0.5059
 3358SOL    HW221537   0.027   1.139  13.829  1.2130  0.3077 -2.0085
 3359SOL     OW21538   2.798   1.583   3.324  0.1813 -0.1426  0.1420
 3359SOL    HW121539   2.755   1.558   3.243  0.2259 -0.9499  0.3618
 3359SOL    HW221540   2.723   1.597   3.381 -1.3191  0.5220 -2.0228
 3360SOL     OW21541   1.923   3.181   3.598 -0.2779 -0.2217  0.0160
 3360SOL    HW121542   1.978   3.253   3.566 -0.3761  0.5498  1.6165
 3360SOL    HW221543   1.944   3.109   3.539  1.2999 -1.2549  1.8561
 3361SOL     OW21544   3.716   2.592   1.892  0.0892  0.1600 -0.0761
 3361SOL    HW121545   3.709   2.654   1.819  0.3358  0.4015  0.1064
 3361SOL    HW221546   3.811   2.585   1.903 -0.3459 -3.1425  1.7552
 3362SOL     OW21547   3.139   2.955  10.713 -0.2465  0.4853 -0.5309
 3362SOL    HW121548   3.227   2.992  10.713 -0.3434  0.7840  2.7852
 3362SOL    HW221549   3.074   3.025  10.707 -0.9817 -0.0973  0.5521
 3363SOL     OW21550   3.280   2.561  17.446  0.2415  0.2337  0.1945
 3363SOL    HW121551   3.215   2.600  17.505 -0.0514 -0.6988  0.4919
 3363SOL    HW221552   3.337   2.636  17.427  0.6066 -0.0695  0.0950
 3364SOL     OW21553   2.970   4.320  10.886 -0.6049  0.2792  0.3320
 3364SOL    HW121554   3.042   4.349  10.941 -1.0909  3.8081 -0.8730
 3364SOL    HW221555   2.994   4.351  10.798  2.3697 -1.7676  0.4288
 3365SOL     OW21556   1.850   2.488   3.832 -0.1377 -0.3445 -0.4008
 3365SOL    HW121557   1.788   2.553   3.799  1.5447  1.8185  0.7200
 3365SOL    HW221558   1.897   2.549   3.887  0.0636  0.4190 -1.4158
 3366SOL     OW21559   2.764   4.100   6.096 -0.4623 -0.6922  0.0850
 3366SOL    HW121560   2.803   4.049   6.167 -0.3807 -0.6333  0.0820
 3366SOL    HW221561   2.727   4.026   6.047 -0.7317 -0.0223 -0.7275
 3367SOL     OW21562   2.964   0.080   6.473  0.0640  0.2657  0.1703
 3367SOL    HW121563   3.060   0.080   6.470 -0.0009  2.9841 -1.3907
 3367SOL    HW221564   2.938   0.084   6.381  2.6693 -1.9456 -0.6917
 3368SOL     OW21565   1.422   3.930   4.058  0.1209 -0.7165 -0.1963
 3368SOL    HW121566   1.392   4.002   4.002 -3.8008  0.1719  3.0500
 3368SOL    HW221567   1.408   3.857   3.997 -2.1831  1.1777 -1.9301
 3369SOL     OW21568   2.316   0.427  16.478  0.2043  0.8353  0.3597
 3369SOL    HW121569   2.300   0.494  16.411 -0.7806  0.5904  0.3458
 3369SOL    HW221570   2.338   0.354  16.421 -0.9882 -0.3145  1.3763
 3370SOL     OW21571   4.210   0.543   5.202  0.0882 -0.1799  0.1248
 3370SOL    HW121572   4.155   0.582   5.271  2.4288  0.4599  1.6433
 3370SOL    HW221573   4.274   0.614   5.194  0.3582 -0.5201 -0.7164
 3371SOL     OW21574   3.709   3.878   8.441 -0.4540 -0.5731  0.3595
 3371SOL    HW121575   3.735   3.867   8.533  1.7963 -0.5882 -0.2789
 3371SOL    HW221576   3.733   3.968   8.419  0.7481 -0.8233  0.6155
 3372SOL     OW21577   2.699   3.026   6.721 -0.3576  0.1915  0.0451
 3372SOL    HW121578   2.754   3.061   6.791 -2.0572  2.2550  0.3270
 3372SOL    HW221579   2.718   3.092   6.654  0.1168 -1.3781 -1.3745
 3373SOL     OW21580   4.014   0.734   7.729 -0.0190 -0.1834 -0.1212
 3373SOL    HW121581   3.965   0.683   7.792 -0.7876  1.0438  0.2723
 3373SOL    HW221582   4.012   0.674   7.654 -2.4752 -1.0660  0.6625
 3374SOL     OW21583   1.695   2.816   5.537 -0.1486  0.4102 -0.3663
 3374SOL    HW121584   1.726   2.746   5.594  0.9217  1.3404  0.1895
 3374SOL    HW221585   1.749   2.797   5.460 -0.0745  0.9818 -0.4608
 3375SOL     OW21586   1.963   3.210  11.177  0.0023 -0.5272 -0.2866
 3375SOL    HW121587   1.934   3.123  11.149 -1.1464  0.0378 -0.8420
 3375SOL    HW221588   1.929   3.260  11.103 -3.6488 -0.7399  1.2167
 3376SOL     OW21589   0.748   3.748   4.298 -0.0416  0.3389  0.2069
 3376SOL    HW121590   0.734   3.774   4.389 -1.0493 -3.4085  1.1313
 3376SOL    HW221591   0.834   3.707   4.301  0.1041  0.5650 -0.9312
 3377SOL     OW21592   0.865   3.677   2.869  0.4726 -0.3335 -0.2044
 3377SOL    HW121593   0.878   3.754   2.814  2.2011  0.5426  1.4081
 3377SOL    HW221594   0.949   3.632   2.866  0.3222 -0.6620  0.3746
 3378SOL     OW21595   2.793   2.897   6.105 -0.0157  0.1468  0.5599
 3378SOL    HW121596   2.775   2.805   6.088  1.8017  0.2287 -1.7361
 3378SOL    HW221597   2.763   2.900   6.196  0.4365 -1.0968  0.7517
 3379SOL     OW21598   1.378   1.164   8.312 -0.3351  0.4555 -0.2352
 3379SOL    HW121599   1.340   1.164   8.400  3.5673 -0.8316  1.4354
 3379SOL    HW221600   1.308   1.207   8.263  0.8386  1.7814 -0.7534
 3380SOL     OW21601   4.622   3.394   7.976  0.1757 -0.2703 -0.3419
 3380SOL    HW121602   4.578   3.321   7.933  0.5559 -0.4365 -0.4497
 3380SOL    HW221603   4.623   3.447   7.896 -1.9022  0.7643  0.3163
 3381SOL     OW21604   4.042   3.752  17.099  0.2937  0.1518  0.2439
 3381SOL    HW121605   4.137   3.763  17.091  0.4483 -2.6264 -1.8464
 3381SOL    HW221606   4.013   3.769  17.010 -3.2303  1.1903  1.5773
 3382SOL     OW21607   1.125   2.766   4.916  0.3015 -0.4839  0.1426
 3382SOL    HW121608   1.087   2.785   4.831 -0.1293 -1.8135  0.0427
 3382SOL    HW221609   1.193   2.833   4.931 -2.1455  1.8387  0.9167
 3383SOL     OW21610   2.134   4.301   4.795  0.0551  0.6317 -0.0398
 3383SOL    HW121611   2.192   4.302   4.872  0.9185  0.0548 -0.6822
 3383SOL    HW221612   2.046   4.321   4.826  0.1058  0.7345  0.0383
 3384SOL     OW21613   2.103   3.116   4.449 -0.7068 -0.3935 -0.2063
 3384SOL    HW121614   2.088   3.023   4.433  2.6982 -1.0619  0.5340
 3384SOL    HW221615   2.166   3.108   4.521  1.3298  1.2055 -1.7995
 3385SOL     OW21616   0.165   2.016   9.509 -0.2125  0.4300 -0.2239
 3385SOL    HW121617   0.257   2.012   9.482 -0.1589  0.5719 -0.0650
 3385SOL    HW221618   0.142   2.100   9.469 -1.7715 -0.4686 -1.2156
 3386SOL     OW21619   0.472   2.544   5.571 -0.0070 -0.3906 -0.1596
 3386SOL    HW121620   0.455   2.501   5.655  1.7153  0.9416  0.8739
 3386SOL    HW221621   0.567   2.542   5.576 -0.0641 -0.8358  0.6878
 3387SOL     OW21622   0.811   3.741   8.122  0.8889 -0.2112 -0.1153
 3387SOL    HW121623   0.777   3.660   8.160  0.5960 -0.2949 -0.5528
 3387SOL    HW221624   0.906   3.744   8.133  1.0197 -2.2758 -0.6406
 3388SOL     OW21625   2.822   2.287   0.854 -0.2670  0.2595  0.4779
 3388SOL    HW121626   2.834   2.232   0.932  1.6333  0.8504  0.6133
 3388SOL    HW221627   2.732   2.318   0.858 -0.6447 -1.1125  2.8125
 3389SOL     OW21628   2.410   3.900   8.804 -0.6796 -0.2086  0.1322
 3389SOL    HW121629   2.403   3.946   8.888  2.3777 -1.2421  0.9589
 3389SOL    HW221630   2.386   3.969   8.741  0.4297 -0.8836 -1.0396
 3390SOL     OW21631   2.146   3.390  15.469 -0.4783  0.2620 -0.1345
 3390SOL    HW121632   2.210   3.367  15.402 -0.2702 -2.4888  1.0117
 3390SOL    HW221633   2.120   3.465  15.414  1.4341  0.7936 -0.3189
 3391SOL     OW21634   4.601   2.901   4.223  0.0333 -0.2371 -0.1445
 3391SOL    HW121635   4.689   2.884   4.256  0.0739  0.6429  0.1976
 3391SOL    HW221636   4.611   2.960   4.148 -0.3313  1.8063  1.4006
 3392SOL     OW21637   0.394   4.443   0.641  0.3916 -0.2444 -0.1552
 3392SOL    HW121638   0.312   4.432   0.594  0.2061  1.2592 -0.1825
 3392SOL    HW221639   0.403   4.356   0.681 -0.1378 -0.9013 -1.4785
 3393SOL     OW21640   3.467   0.426   8.844 -0.2058  0.3743 -0.7754
 3393SOL    HW121641   3.456   0.519   8.824  0.9463  0.7881  0.5245
 3393SOL    HW221642   3.374   0.407   8.840 -0.2325  0.0965  1.1686
 3394SOL     OW21643   1.689   4.022   1.936  0.0907  0.9916  0.5455
 3394SOL    HW121644   1.694   4.047   2.029 -0.7324  0.7454  0.6565
 3394SOL    HW221645   1.611   4.067   1.902  0.8948  1.6885 -0.3475
 3395SOL     OW21646   4.216   2.919   6.678  0.0050  0.1578  0.0416
 3395SOL    HW121647   4.270   2.998   6.678 -0.1561  0.2592  0.9913
 3395SOL    HW221648   4.155   2.939   6.748 -1.6030 -0.8111 -1.0880
 3396SOL     OW21649   3.549   0.342   4.060 -0.6225 -0.1119  0.1558
 3396SOL    HW121650   3.470   0.395   4.053  0.4854  1.5397  0.1549
 3396SOL    HW221651   3.581   0.346   3.970 -0.4323  1.1968  0.2800
 3397SOL     OW21652   0.542   1.284   4.206  0.6214  0.8364  0.5304
 3397SOL    HW121653   0.546   1.277   4.111 -1.5052 -0.7328  0.5478
 3397SOL    HW221654   0.461   1.333   4.214 -0.1231 -0.6034  1.8066
 3398SOL     OW21655   3.857   1.310   5.751  0.0059 -0.0782  0.1253
 3398SOL    HW121656   3.947   1.303   5.783 -0.5217 -2.5805  1.0746
 3398SOL    HW221657   3.886   1.352   5.670 -0.9614 -1.0042 -0.6963
 3399SOL     OW21658   3.033   2.850  11.988  0.6864 -0.2058 -0.0801
 3399SOL    HW121659   2.941   2.839  12.008  1.2139 -0.9272  1.9194
 3399SOL    HW221660   3.039   2.890  11.901 -0.3996  0.5498  0.1918
 3400SOL     OW21661   3.844   1.568   6.255  0.4472 -0.4825 -0.1835
 3400SOL    HW121662   3.923   1.621   6.250 -0.0486  0.4575  2.1565
 3400SOL    HW221663   3.875   1.493   6.204 -0.9038 -0.1846 -1.4428
 3401SOL     OW21664   1.978   3.455   2.130 -0.0590 -0.3111  0.0113
 3401SOL    HW121665   1.906   3.422   2.076  0.8448 -2.4761  0.1463
 3401SOL    HW221666   2.002   3.531   2.077  1.5618 -2.2768 -2.0722
 3402SOL     OW21667   1.217   2.727   1.649  0.1287 -0.0244  0.4772
 3402SOL    HW121668   1.268   2.675   1.712 -0.2091 -1.6953 -0.6504
 3402SOL    HW221669   1.171   2.783   1.712 -0.4107  1.2542 -1.0501
 3403SOL     OW21670   1.942   2.046   9.170 -0.1538  0.4797 -1.0575
 3403SOL    HW121671   1.870   2.024   9.228  0.8398  1.0184  0.3669
 3403SOL    HW221672   1.927   2.001   9.086 -3.3208  2.2820 -1.4768
 3404SOL     OW21673   2.507   0.560   6.455 -0.2130  0.1493  0.5272
 3404SOL    HW121674   2.522   0.653   6.434 -0.7210  0.0124 -0.4296
 3404SOL    HW221675   2.589   0.514   6.436  0.6315  1.8868 -0.1250
 3405SOL     OW21676   0.374   3.486   7.737  0.2292  0.3189 -0.3736
 3405SOL    HW121677   0.414   3.446   7.814 -2.0101 -0.2924  0.4673
 3405SOL    HW221678   0.334   3.564   7.775 -0.1919  0.4318 -1.0555
 3406SOL     OW21679   2.755   2.918   4.551 -0.0467 -0.3772 -0.4728
 3406SOL    HW121680   2.761   2.825   4.570 -0.9157 -0.0581  1.3716
 3406SOL    HW221681   2.848   2.934   4.535 -0.1034  0.8998  0.4264
 3407SOL     OW21682   1.318   1.430   9.512  0.2218 -0.0894  0.1782
 3407SOL    HW121683   1.239   1.462   9.556  0.3351 -0.7211  0.8511
 3407SOL    HW221684   1.291   1.388   9.431 -0.3412 -1.5135  1.1164
 3408SOL     OW21685   0.966   0.986   4.023 -0.1135 -0.2174  0.4578
 3408SOL    HW121686   1.014   1.053   3.974  0.8619 -0.3634  1.2050
 3408SOL    HW221687   0.914   1.045   4.078 -0.7883  0.5594 -0.9864
 3409SOL     OW21688   4.482   3.495   2.127 -0.1742 -0.0242  0.9017
 3409SOL    HW121689   4.517   3.465   2.042 -1.7412 -0.2132  0.3270
 3409SOL    HW221690   4.390   3.512   2.108 -0.2959 -0.9524  0.6649
 3410SOL     OW21691   2.597   1.820   3.379  0.2237  0.2016  0.3650
 3410SOL    HW121692   2.512   1.855   3.355 -0.1285 -0.9394 -0.0894
 3410SOL    HW221693   2.578   1.737   3.423 -0.8248  0.3177  0.1297
 3411SOL     OW21694   3.190   1.657   1.600  0.1037 -0.1428 -0.4154
 3411SOL    HW121695   3.113   1.631   1.549  0.0311 -0.6544 -0.0445
 3411SOL    HW221696   3.166   1.717   1.671 -0.5595 -1.6934  0.6654
 3412SOL     OW21697   1.504   3.396   5.435  0.0483 -0.0120  0.2206
 3412SOL    HW121698   1.491   3.349   5.517  3.0313 -0.1751  0.6095
 3412SOL    HW221699   1.491   3.322   5.375  1.4016  0.0895 -0.2042
 3413SOL     OW21700   1.093   2.318   1.357 -0.2788 -0.2691  0.0193
 3413SOL    HW121701   1.109   2.365   1.439  1.1275 -1.1819  0.2789
 3413SOL    HW221702   1.061   2.236   1.394 -0.2769 -0.7593 -1.0948
 3414SOL     OW21703   4.353   2.998   5.366  0.9567  0.3610  0.0498
 3414SOL    HW121704   4.384   3.055   5.436  2.6697 -0.9293  0.3343
 3414SOL    HW221705   4.396   2.915   5.382 -0.4922 -0.3653  0.1513
 3415SOL     OW21706   3.394   1.750  17.152  0.2062 -0.1198 -0.4885
 3415SOL    HW121707   3.470   1.693  17.156  0.7486  0.7815  2.6343
 3415SOL    HW221708   3.412   1.804  17.229  0.6260  1.2232 -1.5385
 3416SOL     OW21709   3.503   4.433   9.870  0.6405 -0.3206 -0.6012
 3416SOL    HW121710   3.590   4.410   9.840  0.3971  0.3935 -1.8295
 3416SOL    HW221711   3.452   4.426   9.790 -2.0339 -0.9543  1.1505
 3417SOL     OW21712   3.343   0.081  13.687  0.2322 -0.5208 -0.0495
 3417SOL    HW121713   3.424   0.123  13.660 -1.1880  2.2006 -0.0678
 3417SOL    HW221714   3.279   0.134  13.640  0.2953 -1.0186 -0.7027
 3418SOL     OW21715   4.143   0.755   0.938 -0.2753  0.4189 -0.7458
 3418SOL    HW121716   4.110   0.752   0.848 -1.9975 -0.3811 -0.0824
 3418SOL    HW221717   4.193   0.674   0.945  0.0891  0.6350 -0.8614
 3419SOL     OW21718   3.816   3.932  14.638 -0.0653 -0.2916  0.1913
 3419SOL    HW121719   3.770   3.848  14.625 -0.2203  0.2313 -2.5268
 3419SOL    HW221720   3.743   3.991  14.654 -1.6455 -1.7907 -1.4373
 3420SOL     OW21721   1.311   4.555   7.944 -0.1952 -0.1890  0.6745
 3420SOL    HW121722   1.329   4.468   7.979 -1.9921 -0.5934  0.6293
 3420SOL    HW221723   1.305   4.537   7.850 -1.2273 -0.7720  0.8536
 3421SOL     OW21724   1.121   1.964   1.239  0.4691 -0.0584 -0.0934
 3421SOL    HW121725   1.051   2.009   1.192 -1.5716 -0.6388  2.4056
 3421SOL    HW221726   1.096   1.980   1.330 -0.2463 -0.7808 -0.1621
 3422SOL     OW21727   1.110   2.414  13.861 -0.1347 -0.0336  0.4870
 3422SOL    HW121728   1.079   2.435  13.949 -0.4924 -0.2070  0.4036
 3422SOL    HW221729   1.176   2.483  13.863 -0.7803  0.6039 -1.0391
 3423SOL     OW21730   0.611   4.645   1.753  0.2318  0.3172  0.5315
 3423SOL    HW121731   0.618   0.002   1.802 -3.4946  0.5914  0.6226
 3423SOL    HW221732   0.672   4.670   1.684 -2.9925  1.1358 -2.0385
 3424SOL     OW21733   1.378   4.153   6.098  0.0483  0.0561 -0.2665
 3424SOL    HW121734   1.454   4.096   6.111 -0.3231 -0.5252 -0.6596
 3424SOL    HW221735   1.346   4.127   6.012  0.5975  0.9065 -0.7379
 3425SOL     OW21736   2.107   4.361   4.324 -0.5827 -0.3244 -0.0654
 3425SOL    HW121737   2.161   4.373   4.402 -1.0020  1.6186 -0.0489
 3425SOL    HW221738   2.108   4.267   4.338 -0.1754 -0.1263  1.2377
 3426SOL     OW21739   0.766   2.352   5.723 -0.0162  0.1977 -0.3707
 3426SOL    HW121740   0.755   2.401   5.804  0.7510  0.8927 -0.6775
 3426SOL    HW221741   0.686   2.363   5.672  0.7359  0.7573 -1.4552
 3427SOL     OW21742   0.324   3.499   7.282  0.3786  0.1979  0.1200
 3427SOL    HW121743   0.247   3.493   7.225 -0.7627  0.4313  1.6027
 3427SOL    HW221744   0.397   3.532   7.231 -0.0128  1.9438  0.6736
 3428SOL     OW21745   1.127   3.485   3.133 -0.6566 -0.5328 -0.6855
 3428SOL    HW121746   1.038   3.455   3.113 -0.8123 -1.3925  1.3700
 3428SOL    HW221747   1.117   3.520   3.221  1.8048 -0.1959 -0.5498
 3429SOL     OW21748   3.681   0.787   6.661 -0.4879 -0.1064 -0.2332
 3429SOL    HW121749   3.731   0.788   6.742 -1.1770 -0.2581  0.1978
 3429SOL    HW221750   3.628   0.707   6.671  1.1149 -0.8001  2.6319
 3430SOL     OW21751   2.829   2.542   9.035  0.2402  0.4466 -0.1456
 3430SOL    HW121752   2.766   2.516   8.968  1.3894  1.0567 -1.4796
 3430SOL    HW221753   2.801   2.633   9.048 -0.6429  0.2173 -0.4367
 3431SOL     OW21754   0.058   3.380   1.572  0.0474 -0.1252 -0.4531
 3431SOL    HW121755   0.135   3.325   1.562  0.1364  0.1428 -1.2245
 3431SOL    HW221756   4.716   3.319   1.543  0.8720 -2.1028  1.7845
 3432SOL     OW21757   2.915   2.780   1.951  0.3086 -0.1057 -0.0437
 3432SOL    HW121758   2.987   2.757   2.010  2.8306 -0.9050 -3.3841
 3432SOL    HW221759   2.957   2.826   1.878 -1.0784 -0.0630 -0.8035
 3433SOL     OW21760   1.944   1.686   8.799  0.1921 -0.3992  0.1408
 3433SOL    HW121761   2.022   1.646   8.761  0.1242 -0.6753  0.2976
 3433SOL    HW221762   1.888   1.638   8.738  0.2901  0.0577 -0.3079
 3434SOL     OW21763   3.045   0.814  13.577 -0.2709 -0.2521  0.2976
 3434SOL    HW121764   3.013   0.723  13.575 -0.3133 -0.2543  1.1780
 3434SOL    HW221765   3.042   0.823  13.672 -0.7942  1.6816  0.0862
 3435SOL     OW21766   4.199   2.848   6.411  0.4369 -0.4176  0.6254
 3435SOL    HW121767   4.195   2.897   6.493  1.1617 -2.0443  1.6261
 3435SOL    HW221768   4.294   2.855   6.404  0.3817 -0.5537 -0.1990
 3436SOL     OW21769   0.375   2.520  11.121  0.1855  0.2821 -0.0344
 3436SOL    HW121770   0.333   2.483  11.198  1.3403 -0.3990  0.2722
 3436SOL    HW221771   0.466   2.509  11.151  0.0026  0.3299  0.5322
 3437SOL     OW21772   1.751   0.239   5.776  0.2336 -0.0990 -0.1623
 3437SOL    HW121773   1.752   0.159   5.724  3.4603 -0.0956 -0.1394
 3437SOL    HW221774   1.715   0.214   5.860 -1.5212  2.5280 -0.1272
 3438SOL     OW21775   0.107   1.154   9.748 -0.5408  0.2248 -0.1949
 3438SOL    HW121776   0.173   1.215   9.778  0.1588 -1.8002  2.3808
 3438SOL    HW221777   0.119   1.077   9.804  1.9583  0.3749 -0.5509
 3439SOL     OW21778   0.202   0.070   8.641 -0.4610  0.4867  0.1503
 3439SOL    HW121779   0.195   0.082   8.546  2.4946  0.3753 -0.0596
 3439SOL    HW221780   0.254   0.147   8.665 -0.1551  0.9904 -2.0883
 3440SOL     OW21781   3.759   3.124   6.239 -0.1078 -0.1973 -0.1200
 3440SOL    HW121782   3.781   3.179   6.164 -0.3006 -0.3682 -0.3026
 3440SOL    HW221783   3.839   3.138   6.290 -0.9887  1.3955  0.8158
 3441SOL     OW21784   0.767   0.999  14.156 -0.0591  0.2307  0.5705
 3441SOL    HW121785   0.753   0.988  14.062  1.2637 -3.1005  0.7705
 3441SOL    HW221786   0.845   0.946  14.168 -1.5709 -2.2091 -0.4067
 3442SOL     OW21787   1.682   3.536  16.842  0.4737  0.3732  0.5274
 3442SOL    HW121788   1.655   3.572  16.926 -2.3130  0.2024 -0.2746
 3442SOL    HW221789   1.765   3.584  16.838  0.0260  1.2207  1.3254
 3443SOL     OW21790   3.117   1.079  14.103 -0.3208 -0.6245  0.7377
 3443SOL    HW121791   3.143   1.146  14.167 -1.2764 -0.2153  0.6970
 3443SOL    HW221792   3.199   1.030  14.098  0.8574  1.6196 -1.6367
 3444SOL     OW21793   1.583   1.208   4.343  0.1315 -0.2568  0.0107
 3444SOL    HW121794   1.541   1.293   4.329 -1.4243 -1.0150  0.0188
 3444SOL    HW221795   1.547   1.184   4.428  0.4022  1.8954  0.7284
 3445SOL     OW21796   4.502   1.988   0.610  0.1861  0.0220  0.1851
 3445SOL    HW121797   4.517   1.957   0.699 -3.0662 -0.7205  0.4932
 3445SOL    HW221798   4.465   2.075   0.625  0.2851  0.3262 -1.3543
 3446SOL     OW21799   4.110   2.423   2.341 -0.2354 -0.3482  0.3869
 3446SOL    HW121800   4.142   2.492   2.399 -0.4244 -0.5314  0.7119
 3446SOL    HW221801   4.155   2.447   2.260 -1.9685 -0.9556 -0.7489
 3447SOL     OW21802   2.063   4.642   7.371  0.0165  0.1796 -0.0181
 3447SOL    HW121803   2.067   4.614   7.280  1.3000  0.2857  0.0073
 3447SOL    HW221804   2.151   4.609   7.391 -0.5286 -1.4404 -0.2780
 3448SOL     OW21805   3.160   4.418   1.104 -0.6939 -0.3633  0.4416
 3448SOL    HW121806   3.148   4.512   1.087 -1.6649 -0.7476 -0.9963
 3448SOL    HW221807   3.157   4.378   1.017 -0.2605  0.3074  0.1097
 3449SOL     OW21808   1.233   2.884   5.863  0.2122  0.2904 -0.4514
 3449SOL    HW121809   1.290   2.862   5.937  0.3350  1.0393 -0.3237
 3449SOL    HW221810   1.301   2.878   5.795  0.9379  1.8967  0.1115
 3450SOL     OW21811   1.766   2.422   0.735 -0.4458  0.0196  0.6062
 3450SOL    HW121812   1.714   2.484   0.683  0.4914 -0.2890 -0.7057
 3450SOL    HW221813   1.719   2.339   0.729 -0.5009 -0.0883  2.5696
 3451SOL     OW21814   2.415   3.066   5.041  0.3762 -0.3039  0.1126
 3451SOL    HW121815   2.394   2.992   4.983  1.1359  1.0033 -1.8454
 3451SOL    HW221816   2.482   3.019   5.090  0.0035 -3.3504 -2.2773
 3452SOL     OW21817   3.521   2.343  17.016  0.1032 -0.2578 -0.3355
 3452SOL    HW121818   3.471   2.261  17.022 -0.7514  0.2831 -0.0390
 3452SOL    HW221819   3.452   2.396  16.976 -2.7459 -1.0402  3.4918
 3453SOL     OW21820   1.884   2.717  10.632 -0.6567 -0.0751  0.4293
 3453SOL    HW121821   1.813   2.763  10.586 -0.4840  1.3486  1.6012
 3453SOL    HW221822   1.963   2.758  10.597 -0.7509  0.9970  1.4892
 3454SOL     OW21823   3.177   0.656   6.845 -0.0226  0.3523 -0.0658
 3454SOL    HW121824   3.097   0.699   6.814 -1.2392 -3.0262 -1.6056
 3454SOL    HW221825   3.241   0.722   6.820 -0.3565  0.3909 -0.8336
 3455SOL     OW21826   4.247   1.553  10.158  0.4078 -0.3948  0.4780
 3455SOL    HW121827   4.323   1.547  10.215  1.4896  1.1763 -0.7860
 3455SOL    HW221828   4.271   1.501  10.082 -0.6644 -2.8540  1.8319
 3456SOL     OW21829   2.499   2.437  16.298 -0.2646 -0.1879  0.1711
 3456SOL    HW121830   2.407   2.456  16.278 -0.6275 -0.5604  1.4623
 3456SOL    HW221831   2.520   2.354  16.256 -2.3799 -0.8174  0.3362
 3457SOL     OW21832   1.735   4.555   9.723 -0.2719 -0.7096 -0.4671
 3457SOL    HW121833   1.799   4.625   9.707 -0.9860 -0.0398 -0.3360
 3457SOL    HW221834   1.651   4.598   9.737  1.0308  1.5539  0.5281
 3458SOL     OW21835   2.083   0.690  16.689 -0.0048  0.8388  0.2156
 3458SOL    HW121836   2.036   0.747  16.749 -1.1889  0.7533 -0.6281
 3458SOL    HW221837   2.125   0.638  16.757 -0.4211  1.2796  0.8109
 3459SOL     OW21838   0.029   2.884  14.869  0.4427  0.0276  0.2823
 3459SOL    HW121839   0.050   2.950  14.803 -2.3650  2.3407  1.7152
 3459SOL    HW221840   0.073   2.919  14.947 -0.0848  0.4255  0.4014
 3460SOL     OW21841   3.589   0.572   5.682  0.4515  0.0469  0.0029
 3460SOL    HW121842   3.495   0.554   5.685  0.0267  2.2269 -0.2290
 3460SOL    HW221843   3.586   0.657   5.638  0.8266  0.3183  0.5069
 3461SOL     OW21844   0.473   0.139  13.710 -0.1765 -0.0579  0.0512
 3461SOL    HW121845   0.538   0.069  13.720 -0.0993  0.2289  1.6567
 3461SOL    HW221846   0.454   0.144  13.616 -0.5189 -1.5751  0.0427
 3462SOL     OW21847   4.035   0.514  16.898  0.1801  0.0930 -0.5636
 3462SOL    HW121848   3.954   0.466  16.879 -0.7315  1.8421 -1.0687
 3462SOL    HW221849   4.099   0.443  16.898  0.1040  0.0288  0.4456
 3463SOL     OW21850   0.017   3.492   2.828  0.1155 -0.1483  0.1585
 3463SOL    HW121851   4.662   3.451   2.861  0.0398  0.8280  1.1702
 3463SOL    HW221852   0.025   3.446   2.744 -0.0516 -0.1135  0.1237
 3464SOL     OW21853   2.566   1.258  12.283 -0.2834  0.4843 -0.1493
 3464SOL    HW121854   2.537   1.344  12.252 -0.2609  0.3111 -0.6588
 3464SOL    HW221855   2.551   1.199  12.209  1.2851 -0.1649  0.0601
 3465SOL     OW21856   1.124   1.645   8.893  0.7178  0.4748 -0.0267
 3465SOL    HW121857   1.105   1.551   8.895 -3.2063  1.2417  0.0497
 3465SOL    HW221858   1.040   1.684   8.866  1.2747  0.6882 -1.4601
 3466SOL     OW21859   3.845   2.587   2.428 -0.0407 -0.3932  0.6136
 3466SOL    HW121860   3.803   2.564   2.345 -0.6378 -0.0440  0.8220
 3466SOL    HW221861   3.934   2.619   2.412  0.9455 -2.1097  2.5403
 3467SOL     OW21862   1.259   4.481   2.268  0.0687 -0.4175  0.3405
 3467SOL    HW121863   1.265   4.455   2.176 -2.0114  1.6180 -0.3850
 3467SOL    HW221864   1.297   4.405   2.311  1.0828  0.6310  1.3069
 3468SOL     OW21865   4.200   3.309   2.870 -0.3989 -0.6818 -0.1299
 3468SOL    HW121866   4.213   3.216   2.891  1.1776 -0.9982 -2.6326
 3468SOL    HW221867   4.233   3.317   2.781 -1.7189  0.4548 -0.4970
 3469SOL     OW21868   2.952   0.215  15.864  0.2162  0.3630  0.6110
 3469SOL    HW121869   3.044   0.230  15.844  0.3185  1.2583  1.7649
 3469SOL    HW221870   2.958   0.214  15.959 -0.8163  0.9216  0.6798
 3470SOL     OW21871   1.813   3.236   8.796 -0.3466  0.1907  0.0481
 3470SOL    HW121872   1.891   3.181   8.789  0.2911  1.1778 -0.5169
 3470SOL    HW221873   1.857   3.313   8.833  2.0621 -1.6234  1.0289
 3471SOL     OW21874   2.858   3.001   8.639  0.1848  0.6406 -0.0998
 3471SOL    HW121875   2.813   3.083   8.662  1.2027  1.1753 -0.0400
 3471SOL    HW221876   2.829   2.991   8.548 -1.1964 -0.5280  0.4718
 3472SOL     OW21877   3.081   0.667  16.798 -0.0886 -0.0683 -0.1289
 3472SOL    HW121878   3.143   0.632  16.733 -0.6503  0.0266 -0.7066
 3472SOL    HW221879   3.060   0.756  16.772 -1.3613 -0.6680 -1.1579
 3473SOL     OW21880   0.848   3.998   0.538  0.0206  0.1538  0.4395
 3473SOL    HW121881   0.873   3.919   0.490  0.9946 -0.1961  1.5151
 3473SOL    HW221882   0.814   4.052   0.467  0.0896  2.1764  1.9540
 3474SOL     OW21883   1.929   0.152   7.113 -0.4066 -0.4271  0.2937
 3474SOL    HW121884   1.964   0.218   7.054  0.3965 -1.0143  0.1163
 3474SOL    HW221885   1.992   0.082   7.096  1.3641  1.4087 -0.6523
 3475SOL     OW21886   3.822   4.369  13.288  0.5712 -0.0644 -0.0569
 3475SOL    HW121887   3.910   4.378  13.252  0.1082  1.9636 -0.6880
 3475SOL    HW221888   3.828   4.435  13.357  0.4021 -0.2713  0.1542
 3476SOL     OW21889   0.766   0.226   7.758  0.1303  0.4855 -0.3790
 3476SOL    HW121890   0.698   0.228   7.691 -0.9145 -1.3667  0.6180
 3476SOL    HW221891   0.766   0.134   7.787 -1.2139  1.0659  1.4439
 3477SOL     OW21892   4.089   3.194   1.152  0.4687 -0.0894  0.1576
 3477SOL    HW121893   4.155   3.127   1.131  1.2702  0.3318  1.3662
 3477SOL    HW221894   4.107   3.262   1.087  2.3956 -2.2192 -1.5366
 3478SOL     OW21895   2.401   2.914   7.492 -0.3380 -0.2225 -0.6813
 3478SOL    HW121896   2.313   2.919   7.457  0.8861 -2.4692 -4.0986
 3478SOL    HW221897   2.386   2.943   7.582  0.8637 -3.0226  0.4147
 3479SOL     OW21898   4.617   0.505   9.747  0.7714 -0.3410  0.3046
 3479SOL    HW121899   4.659   0.525   9.664 -1.0493 -0.2185 -0.6002
 3479SOL    HW221900   4.686   0.496   9.813 -0.6150  0.4458  1.8603
 3480SOL     OW21901   1.161   3.048  13.622  0.0421 -0.0011 -0.1243
 3480SOL    HW121902   1.175   3.057  13.528 -3.7007 -1.2123 -0.7936
 3480SOL    HW221903   1.207   2.967  13.644 -0.2322  0.0773  0.7481
 3481SOL     OW21904   0.363   0.288   9.894  0.7993 -0.5203  0.8482
 3481SOL    HW121905   0.315   0.322   9.969 -1.4409  0.5128 -1.0389
 3481SOL    HW221906   0.440   0.345   9.900 -0.0311  0.6631  0.4944
 3482SOL     OW21907   4.504   1.311   4.081  0.1090 -0.0450 -0.2111
 3482SOL    HW121908   4.587   1.358   4.069  1.2147 -1.9230  0.1550
 3482SOL    HW221909   4.489   1.293   3.988 -1.3390 -0.4249  0.0968
 3483SOL     OW21910   0.351   1.021   4.993 -0.3256  0.6932 -0.4079
 3483SOL    HW121911   0.315   1.109   4.980 -1.2195  0.2994 -0.5482
 3483SOL    HW221912   0.371   1.030   5.086  1.9383  0.7923 -0.8921
 3484SOL     OW21913   3.899   0.538   0.648 -0.1326  0.4171  1.0959
 3484SOL    HW121914   3.814   0.512   0.613 -1.1292  0.5593  3.3549
 3484SOL    HW221915   3.910   0.470   0.715 -0.9326 -1.4870 -0.7085
 3485SOL     OW21916   0.282   3.725  13.717 -0.1212 -0.2436  0.4777
 3485SOL    HW121917   0.369   3.726  13.757 -0.0716 -0.6316  0.3779
 3485SOL    HW221918   0.218   3.769  13.773 -2.2123  1.4121 -3.1872
 3486SOL     OW21919   0.102   2.252   7.062  0.5602 -0.0852 -0.0320
 3486SOL    HW121920   0.025   2.298   7.097  0.1674  0.2344 -1.3127
 3486SOL    HW221921   0.091   2.286   6.973  2.5042 -0.6002 -0.4539
 3487SOL     OW21922   0.623   4.638   0.419  0.2621 -0.1668  0.2935
 3487SOL    HW121923   0.550   4.627   0.480 -2.4036 -0.5769 -3.0115
 3487SOL    HW221924   0.601   4.568   0.357 -2.2025  0.7049  0.2010
 3488SOL     OW21925   0.907   2.923   7.451  0.3833 -0.4285  0.4650
 3488SOL    HW121926   0.979   2.866   7.475  0.1570 -1.5814 -1.5879
 3488SOL    HW221927   0.863   2.924   7.536  0.3523  0.6199  0.4371
 3489SOL     OW21928   3.700   1.140   6.365  0.0170  0.0512  0.2038
 3489SOL    HW121929   3.762   1.075   6.332  1.5839  0.9996  1.2490
 3489SOL    HW221930   3.763   1.194   6.413  0.5234  0.9591 -1.4884
 3490SOL     OW21931   2.973   0.611  13.322 -0.2507 -0.3454 -0.3251
 3490SOL    HW121932   2.971   0.525  13.364  1.6324  0.0303  0.5350
 3490SOL    HW221933   2.880   0.615  13.298 -0.0366 -0.0805 -1.1137
 3491SOL     OW21934   0.079   1.532  13.120  0.0676  0.4806 -0.2068
 3491SOL    HW121935   4.710   1.521  13.128  0.1786 -1.5570 -1.5777
 3491SOL    HW221936   0.078   1.546  13.026 -0.5914 -1.7359 -0.5476
 3492SOL     OW21937   0.442   0.534  11.626 -0.0546 -0.0664  0.0334
 3492SOL    HW121938   0.479   0.465  11.681 -3.1441 -1.9191 -0.1880
 3492SOL    HW221939   0.520   0.585  11.604  0.3787 -0.6247  0.2761
 3493SOL     OW21940   1.468   0.493   8.073 -0.5782  0.6049  0.4823
 3493SOL    HW121941   1.487   0.478   8.165 -1.2176  2.3593  0.9075
 3493SOL    HW221942   1.501   0.582   8.061  2.4855 -0.6563 -0.3417
 3494SOL     OW21943   3.713   2.568   7.705  0.2328  0.1739 -0.3891
 3494SOL    HW121944   3.621   2.541   7.705  0.3843 -0.3278 -0.9365
 3494SOL    HW221945   3.755   2.527   7.781 -0.8616 -1.3539 -0.5898
 3495SOL     OW21946   0.599   2.913   3.400 -0.3773  0.5315  0.8482
 3495SOL    HW121947   0.645   2.961   3.332 -0.1751 -0.8528  0.0121
 3495SOL    HW221948   0.510   2.936   3.375 -0.6410  1.3107  2.4454
 3496SOL     OW21949   0.326   1.265   7.703  0.1373 -0.4875 -0.6712
 3496SOL    HW121950   0.338   1.214   7.783  0.5304 -0.4400 -0.6987
 3496SOL    HW221951   0.253   1.229   7.652 -0.5023  0.1428 -0.1829
 3497SOL     OW21952   4.589   3.611  13.769  0.0212  0.1210 -0.6763
 3497SOL    HW121953   4.558   3.596  13.858 -0.1168  1.8776 -0.4361
 3497SOL    HW221954   4.527   3.680  13.745 -1.7338 -1.1600  0.1888
 3498SOL     OW21955   2.612   2.722   5.732  0.2970  0.1818 -0.4069
 3498SOL    HW121956   2.671   2.797   5.740 -1.0014  1.2345 -0.5776
 3498SOL    HW221957   2.578   2.721   5.821 -0.7581 -0.7803 -0.8163
 3499SOL     OW21958   4.150   0.776   4.029  0.1306 -0.0682 -0.0879
 3499SOL    HW121959   4.206   0.791   4.106  1.1579  2.3775 -1.2862
 3499SOL    HW221960   4.159   0.681   4.023  0.5927 -0.1879  2.2833
 3500SOL     OW21961   2.730   4.120   0.766 -0.6911 -0.0766  0.0376
 3500SOL    HW121962   2.649   4.077   0.737 -0.3967  0.9101 -2.2593
 3500SOL    HW221963   2.731   4.093   0.858 -2.0216  0.9573  0.3570
 3501SOL     OW21964   0.471   2.568   4.495 -0.1884  0.3674 -0.1598
 3501SOL    HW121965   0.420   2.494   4.526  2.1678 -1.4995 -0.6456
 3501SOL    HW221966   0.404   2.635   4.502 -0.6023 -0.4074  3.1221
 3502SOL     OW21967   0.614   0.360  11.779  0.0210  0.1093 -0.2217
 3502SOL    HW121968   0.595   0.387  11.869 -2.0771  0.3404 -0.7207
 3502SOL    HW221969   0.705   0.389  11.778  0.6932 -2.1019 -2.4968
 3503SOL     OW21970   0.829   2.030   6.260 -0.1085 -0.1223  0.7506
 3503SOL    HW121971   0.770   1.996   6.327 -1.9055  0.2990 -0.6196
 3503SOL    HW221972   0.850   1.943   6.224  0.3465 -1.1952  3.6430
 3504SOL     OW21973   2.707   4.361   9.815 -0.0660 -0.0693 -0.1032
 3504SOL    HW121974   2.644   4.386   9.882  0.6249  0.3234  0.4061
 3504SOL    HW221975   2.643   4.346   9.745 -1.5905  0.4947  1.1988
 3505SOL     OW21976   4.562   1.861   6.940  0.3783 -0.5965 -0.1030
 3505SOL    HW121977   4.479   1.881   6.895 -0.7143  0.2598  2.2636
 3505SOL    HW221978   4.540   1.829   7.027  0.8178  0.8013  0.5248
 3506SOL     OW21979   2.163   0.334   5.841 -0.2017  0.5392  0.3804
 3506SOL    HW121980   2.226   0.322   5.771  1.2145  0.5895  1.6446
 3506SOL    HW221981   2.207   0.386   5.909 -0.2152  1.6479 -0.4608
 3507SOL     OW21982   1.710   2.829  12.141  0.0819 -0.2671  0.5130
 3507SOL    HW121983   1.677   2.790  12.060  0.4518  0.4871  0.0041
 3507SOL    HW221984   1.707   2.923  12.121 -1.9294 -0.0825  1.6395
 3508SOL     OW21985   1.632   1.123   6.657  0.3084 -0.1768  0.5208
 3508SOL    HW121986   1.614   1.061   6.728  2.9021  0.5355  1.7803
 3508SOL    HW221987   1.596   1.201   6.698 -1.6297  0.0831 -1.7018
 3509SOL     OW21988   0.408   4.323   8.005  0.0569  0.0280  0.0168
 3509SOL    HW121989   0.481   4.319   8.066 -0.9957 -0.7557  1.2303
 3509SOL    HW221990   0.389   4.409   8.041  0.3521  0.2271 -0.2977
 3510SOL     OW21991   3.341   2.246  12.926 -0.0230  0.3307  0.3200
 3510SOL    HW121992   3.251   2.272  12.904  0.2881  0.9240 -0.2577
 3510SOL    HW221993   3.320   2.185  12.997 -1.0551 -2.2348 -2.1946
 3511SOL     OW21994   4.546   2.413   0.836 -0.5091  0.2434 -0.1660
 3511SOL    HW121995   4.472   2.461   0.871 -0.4824 -0.8109  1.3409
 3511SOL    HW221996   4.506   2.335   0.799  1.0155 -1.1809  1.1337
 3512SOL     OW21997   1.288   3.251   4.397  0.5248 -0.4215  1.0523
 3512SOL    HW121998   1.361   3.224   4.341  0.5434  1.9985 -0.1061
 3512SOL    HW221999   1.324   3.236   4.484  1.8464  0.1033  0.5853
 3513SOL     OW22000   4.622   0.239  16.014 -0.0410  0.3025  0.1855
 3513SOL    HW122001   4.561   0.200  16.077  0.9041  1.3618  1.7556
 3513SOL    HW222002   4.705   0.230  16.060 -0.1796  0.7224  0.5169
 3514SOL     OW22003   4.290   4.056  16.814 -0.1445 -0.1776 -0.0697
 3514SOL    HW122004   4.276   4.151  16.818 -0.0163 -0.1347 -0.5887
 3514SOL    HW222005   4.381   4.050  16.784 -1.0932 -2.1895 -2.4876
 3515SOL     OW22006   4.016   0.920  10.178  0.0729  0.1080  0.4142
 3515SOL    HW122007   4.021   0.826  10.192  0.3343  0.1399  0.5381
 3515SOL    HW222008   4.103   0.955  10.197  0.9556 -0.1807 -3.1901
 3516SOL     OW22009   0.832   1.679  15.514  0.2292 -0.0972  0.1289
 3516SOL    HW122010   0.761   1.731  15.474  0.0580  0.0678  0.6449
 3516SOL    HW222011   0.891   1.754  15.514 -0.4532  0.4472  0.5141
 3517SOL     OW22012   1.901   0.268   8.373 -0.3506  0.2535  0.0794
 3517SOL    HW122013   1.897   0.310   8.287 -1.2407  1.6335  0.8006
 3517SOL    HW222014   1.956   0.325   8.427 -0.0905  0.4277 -0.3713
 3518SOL     OW22015   1.260   0.064   7.097 -0.3825  0.3004 -0.1926
 3518SOL    HW122016   1.315   0.125   7.146  0.5486 -1.0298  0.4402
 3518SOL    HW222017   1.319   0.048   7.023 -1.0982 -2.3448 -0.2153
 3519SOL     OW22018   2.819   0.924   5.629  0.4107  0.1888  0.0489
 3519SOL    HW122019   2.808   1.010   5.670  1.3501  0.2363  0.2076
 3519SOL    HW222020   2.773   0.868   5.692  2.0382 -0.9264  0.2465
 3520SOL     OW22021   1.136   0.198   4.597  0.5961  0.6438 -0.2721
 3520SOL    HW122022   1.225   0.218   4.628 -0.0312  2.8336  0.1656
 3520SOL    HW222023   1.146   0.112   4.558 -1.7509 -0.0806  0.7490
 3521SOL     OW22024   3.310   2.928   0.028 -0.1727 -0.2789  0.2425
 3521SOL    HW122025   3.240   2.944  17.667  1.6171 -0.0945 -1.6994
 3521SOL    HW222026   3.272   2.957   0.111 -0.0127  1.3045 -0.2342
 3522SOL     OW22027   0.893   0.100  14.494  0.0782 -0.0177  0.1493
 3522SOL    HW122028   0.977   0.143  14.508  0.1414 -0.4388  1.0547
 3522SOL    HW222029   0.926   0.041  14.426 -0.3358  1.3170 -1.1972
 3523SOL     OW22030   3.078   3.391   8.984  0.5757  0.3032 -0.3884
 3523SOL    HW122031   3.115   3.382   8.896 -0.5979 -0.3107 -0.8158
 3523SOL    HW222032   3.103   3.481   9.006  0.4458  0.5223 -1.1527
 3524SOL     OW22033   2.465   2.454   4.352 -0.4578 -0.0810  0.1464
 3524SOL    HW122034   2.496   2.381   4.407  0.3666  0.6756  0.6921
 3524SOL    HW222035   2.504   2.527   4.400 -3.7111  1.3499  0.5856
 3525SOL     OW22036   2.256   2.972   3.180  0.0671 -0.2376  0.0191
 3525SOL    HW122037   2.340   2.971   3.226  1.1638 -2.5902 -2.0429
 3525SOL    HW222038   2.222   2.884   3.190  0.8869 -0.3900  1.5050
 3526SOL     OW22039   4.375   3.144   6.694 -0.0807  0.3381 -0.1568
 3526SOL    HW122040   4.354   3.237   6.685 -0.9367  0.2519  1.0039
 3526SOL    HW222041   4.449   3.158   6.753 -0.1564  1.0970 -0.2409
 3527SOL     OW22042   0.780   2.985   2.178  0.2330 -0.3272  0.1153
 3527SOL    HW122043   0.815   2.945   2.258 -1.2397 -0.4264  0.7168
 3527SOL    HW222044   0.801   2.929   2.103 -3.1590 -0.3584 -0.8163
 3528SOL     OW22045   1.296   3.391  13.673  0.2351 -0.1909 -0.1292
 3528SOL    HW122046   1.265   3.346  13.752 -2.3620 -0.2306 -1.1664
 3528SOL    HW222047   1.315   3.480  13.701  1.2372 -0.4334 -0.0666
 3529SOL     OW22048   4.161   0.205   8.925 -0.6374  0.0571  0.1521
 3529SOL    HW122049   4.091   0.184   8.987 -2.9069  1.0988 -2.0665
 3529SOL    HW222050   4.128   0.147   8.857  0.5869  1.6427 -1.7843
 3530SOL     OW22051   4.300   0.934   3.415 -0.3796  0.3076 -0.3154
 3530SOL    HW122052   4.278   0.849   3.452  0.6305  0.8675  1.6133
 3530SOL    HW222053   4.292   1.000   3.484 -0.0292  0.7501 -0.6959
 3531SOL     OW22054   3.678   3.211   8.111 -0.0121 -0.6613 -0.5727
 3531SOL    HW122055   3.711   3.133   8.068  2.0385  0.2548 -0.6822
 3531SOL    HW222056   3.679   3.200   8.206 -3.5508 -1.0086 -0.5801
 3532SOL     OW22057   2.803   1.776   4.099 -0.0542  0.6178 -0.2793
 3532SOL    HW122058   2.793   1.836   4.173  1.0104  0.0923  0.2868
 3532SOL    HW222059   2.787   1.684   4.120 -1.4592  1.0527  0.5546
 3533SOL     OW22060   3.079   1.114   2.327 -0.3379 -0.5987 -0.1260
 3533SOL    HW122061   2.996   1.157   2.350 -0.0597  0.0030 -0.2485
 3533SOL    HW222062   3.075   1.031   2.374  1.0657  0.2209  1.4288
 3534SOL     OW22063   3.090   2.175  11.603  0.1483  0.3083 -0.1731
 3534SOL    HW122064   3.169   2.167  11.550  0.2173  1.3571 -0.2287
 3534SOL    HW222065   3.104   2.262  11.639 -0.2772  0.3035  0.0076
 3535SOL     OW22066   4.207   2.259   2.560 -0.6024  0.1031  0.2577
 3535SOL    HW122067   4.219   2.213   2.477 -1.8792  0.8408 -0.3333
 3535SOL    HW222068   4.231   2.345   2.525  2.1062 -0.8622 -0.2373
 3536SOL     OW22069   1.771   1.819   3.562 -0.0100 -0.3063 -0.1024
 3536SOL    HW122070   1.710   1.835   3.490 -0.4345  1.8508  0.7353
 3536SOL    HW222071   1.853   1.835   3.515  1.5456  0.7431  2.9994
 3537SOL     OW22072   3.582   0.878  13.980 -0.3583 -0.2311  0.2343
 3537SOL    HW122073   3.562   0.884  13.887  0.5605 -2.0186 -0.0866
 3537SOL    HW222074   3.490   0.879  14.006  0.2643  1.8913  2.3229
 3538SOL     OW22075   0.009   2.174  12.482 -0.1379  0.7204 -0.0387
 3538SOL    HW122076   4.648   2.191  12.520  0.7531  1.9685  1.4098
 3538SOL    HW222077   0.020   2.246  12.420  0.9226  1.0269  0.5066
 3539SOL     OW22078   2.514   0.791  12.495 -0.5645  0.1299  0.2507
 3539SOL    HW122079   2.483   0.865  12.548  0.4696  1.7051 -1.3318
 3539SOL    HW222080   2.573   0.747  12.556 -0.4137  1.8232  1.3528
 3540SOL     OW22081   1.934   2.755   3.130 -0.6497  0.1089  0.2970
 3540SOL    HW122082   1.925   2.698   3.206 -0.1952 -0.6027 -0.1781
 3540SOL    HW222083   2.026   2.740   3.106 -1.5124 -2.1206 -1.7075
 3541SOL     OW22084   2.003   2.607   5.586  0.4583 -0.5899 -0.5725
 3541SOL    HW122085   1.970   2.587   5.674  0.6517  1.7496  0.0163
 3541SOL    HW222086   2.047   2.525   5.562 -0.1943 -1.1799  0.2354
 3542SOL     OW22087   1.658   0.654  11.662  0.3272  0.4143 -0.7075
 3542SOL    HW122088   1.563   0.641  11.666  0.6417 -2.5914 -3.1738
 3542SOL    HW222089   1.675   0.562  11.642 -2.3316  0.0747 -1.3465
 3543SOL     OW22090   2.085   1.484   0.439 -0.6207  0.0010  0.4575
 3543SOL    HW122091   2.079   1.523   0.526  0.0596 -1.9428  1.3593
 3543SOL    HW222092   2.045   1.399   0.455 -4.3318  1.7408  0.6240
 3544SOL     OW22093   0.727   1.503  13.760 -0.5347 -0.7663  0.4830
 3544SOL    HW122094   0.700   1.547  13.679  1.1611  1.2087  0.9881
 3544SOL    HW222095   0.643   1.487  13.803 -0.6944 -0.1755  0.4036
 3545SOL     OW22096   3.231   3.321   7.023 -0.1183 -0.5248 -0.5490
 3545SOL    HW122097   3.254   3.233   6.993  1.1234 -0.5710  0.5463
 3545SOL    HW222098   3.301   3.343   7.085  0.6974 -2.8208 -0.6419
 3546SOL     OW22099   1.403   0.433   4.266  0.3950 -0.1739 -0.2925
 3546SOL    HW122100   1.314   0.402   4.283  0.4149 -0.9788 -1.6679
 3546SOL    HW222101   1.400   0.515   4.316  0.1832 -0.8174  0.7495
 3547SOL     OW22102   2.304   2.263   6.425 -0.0099 -0.1926 -0.3904
 3547SOL    HW122103   2.377   2.210   6.394  1.0199  0.9145  0.1474
 3547SOL    HW222104   2.242   2.276   6.353 -1.1742 -2.2463  0.2559
 3548SOL     OW22105   2.458   2.146   7.977  0.0806  0.2833 -0.8489
 3548SOL    HW122106   2.495   2.097   8.050  0.4704  0.7922 -0.7035
 3548SOL    HW222107   2.423   2.221   8.025  2.2072  0.4889  0.4067
 3549SOL     OW22108   2.166   4.573   4.154 -0.2497  0.2728 -0.1612
 3549SOL    HW122109   2.135   4.515   4.224 -3.1176  1.2070 -0.6618
 3549SOL    HW222110   2.124   4.549   4.072 -0.6557 -0.7888  0.3569
 3550SOL     OW22111   4.263   0.901   2.775 -0.1693 -0.3162 -0.1168
 3550SOL    HW122112   4.190   0.918   2.834 -0.1033 -0.5848  0.0398
 3550SOL    HW222113   4.319   0.974   2.804 -3.1415  2.1398 -0.5100
 3551SOL     OW22114   3.228   3.222   4.966  0.0286  0.7607  0.0322
 3551SOL    HW122115   3.204   3.282   4.896  0.5400  0.5830 -0.2981
 3551SOL    HW222116   3.260   3.289   5.025  0.8064  2.0033 -1.8005
 3552SOL     OW22117   4.048   1.330   1.058  0.2812  0.0042 -0.0304
 3552SOL    HW122118   4.081   1.314   1.147 -2.2459 -0.2810  0.8625
 3552SOL    HW222119   4.128   1.357   1.013  0.9578 -1.5303  0.2673
 3553SOL     OW22120   1.938   1.760   4.032 -0.1695  0.8982 -0.0625
 3553SOL    HW122121   1.956   1.853   4.019  2.5695 -0.0956 -3.3160
 3553SOL    HW222122   1.948   1.719   3.946 -1.0254  1.4289 -0.4047
 3554SOL     OW22123   4.151   1.342   7.562 -0.0416  0.5936  0.0015
 3554SOL    HW122124   4.165   1.247   7.551  0.2443  0.6696 -0.2913
 3554SOL    HW222125   4.225   1.376   7.512  0.9918 -0.9484  0.4614
 3555SOL     OW22126   0.820   2.649   1.513  0.2725  0.0080 -0.4982
 3555SOL    HW122127   0.814   2.702   1.592 -0.0861 -0.4383 -0.2259
 3555SOL    HW222128   0.915   2.656   1.500 -0.1730  1.6434 -2.9947
 3556SOL     OW22129   2.049   1.706   9.882 -0.1556 -0.6896 -0.0192
 3556SOL    HW122130   2.071   1.664   9.965  2.6172  0.9372  0.0804
 3556SOL    HW222131   2.060   1.627   9.829  0.1535 -0.0608 -0.8957
 3557SOL     OW22132   4.379   4.443   4.254 -0.0169  0.1135 -0.1433
 3557SOL    HW122133   4.416   4.428   4.167  0.5055 -0.8789  0.2603
 3557SOL    HW222134   4.290   4.473   4.231 -0.1783 -0.2488  0.0181
 3558SOL     OW22135   2.772   2.777   7.118  0.4028  0.0815 -0.6671
 3558SOL    HW122136   2.814   2.714   7.059 -0.6315 -0.6320 -0.6263
 3558SOL    HW222137   2.835   2.786   7.190  0.9181 -0.7057 -1.0196
 3559SOL     OW22138   1.198   2.390   9.338  0.4747  0.4906  0.1886
 3559SOL    HW122139   1.180   2.314   9.393  0.2197  0.6277  0.2949
 3559SOL    HW222140   1.216   2.352   9.251 -0.3266 -2.0269  1.1125
 3560SOL     OW22141   0.432   2.477   3.855 -0.0907  0.2868 -0.3291
 3560SOL    HW122142   0.447   2.398   3.803 -0.0912  0.1778 -0.1622
 3560SOL    HW222143   0.337   2.472   3.868 -0.0444  0.3677  0.0506
 3561SOL     OW22144   3.278   1.660   9.066  0.6360  0.0288 -0.6479
 3561SOL    HW122145   3.225   1.739   9.071  1.2163  0.3110  1.2360
 3561SOL    HW222146   3.253   1.632   8.979 -0.1784  2.4636 -1.1917
 3562SOL     OW22147   3.095   4.388   9.131 -0.3786 -0.6707  0.0283
 3562SOL    HW122148   3.105   4.410   9.039  2.3525  2.4093  1.0626
 3562SOL    HW222149   3.148   4.454   9.176 -0.3382  1.1427 -2.6995
 3563SOL     OW22150   3.521   3.825   9.353  0.0771  0.5429 -0.3723
 3563SOL    HW122151   3.541   3.826   9.446 -0.7356 -0.5672 -0.1808
 3563SOL    HW222152   3.612   3.838   9.325  0.0354 -2.2271 -1.8701
 3564SOL     OW22153   2.520   4.465   3.159  0.1651 -0.0445  0.2708
 3564SOL    HW122154   2.475   4.509   3.088  0.9885  1.8709  0.9508
 3564SOL    HW222155   2.518   4.539   3.220 -1.4773 -0.4050  0.6402
 3565SOL     OW22156   0.260   2.087   0.849 -0.3682  0.5446  0.5358
 3565SOL    HW122157   0.328   2.134   0.897  0.6459 -0.1395 -0.2394
 3565SOL    HW222158   0.292   1.997   0.857  0.2007  0.6529 -0.4692
 3566SOL     OW22159   1.143   2.211   7.795  0.1990 -0.1923  0.2199
 3566SOL    HW122160   1.210   2.144   7.809 -0.0480 -0.0336  2.0967
 3566SOL    HW222161   1.062   2.161   7.787 -1.3227  1.9991  2.0300
 3567SOL     OW22162   2.889   1.497   3.662  0.6308  0.3145 -0.0825
 3567SOL    HW122163   2.981   1.519   3.647  0.0567  2.7214 -0.0103
 3567SOL    HW222164   2.854   1.559   3.599  2.2073  2.0813  0.7911
 3568SOL     OW22165   0.431   0.181  17.498 -0.5787 -0.2277 -0.1415
 3568SOL    HW122166   0.513   0.192  17.450 -0.3161 -1.5641 -0.0137
 3568SOL    HW222167   0.385   0.120  17.441  0.4313 -0.0319 -1.1626
 3569SOL     OW22168   2.252   0.402  15.515 -0.1097 -0.3692  0.7620
 3569SOL    HW122169   2.255   0.479  15.572  0.0230  1.5562 -1.8621
 3569SOL    HW222170   2.311   0.427  15.443 -1.0308  0.1619  0.1984
 3570SOL     OW22171   2.307   4.529   7.429  0.6448  0.1424  0.3746
 3570SOL    HW122172   2.330   4.438   7.409 -0.7462  0.1549 -1.3092
 3570SOL    HW222173   2.353   4.574   7.358 -0.1241 -2.0473 -1.5428
 3571SOL     OW22174   1.701   2.317   2.885 -0.0309  0.3836 -0.0383
 3571SOL    HW122175   1.708   2.329   2.790 -0.5267 -1.2917 -0.2942
 3571SOL    HW222176   1.785   2.273   2.895 -0.6188 -0.7230  0.0309
 3572SOL     OW22177   3.026   3.128   3.181 -0.0819 -0.3537 -0.6342
 3572SOL    HW122178   2.939   3.166   3.168 -0.4867 -0.5885  1.3649
 3572SOL    HW222179   3.079   3.205   3.201  1.6678 -1.8116  0.3488
 3573SOL     OW22180   3.391   0.334   5.929 -0.1204 -0.4593  0.3586
 3573SOL    HW122181   3.405   0.385   5.849  1.3959 -0.6844  0.4923
 3573SOL    HW222182   3.378   0.250   5.886 -1.4040  0.0890 -0.3327
 3574SOL     OW22183   2.379   0.727   1.653  0.4038  0.2458 -0.3736
 3574SOL    HW122184   2.412   0.785   1.722  0.4519 -0.3096  0.0673
 3574SOL    HW222185   2.451   0.722   1.591  0.3788  0.9203 -0.4597
 3575SOL     OW22186   1.477   2.385   0.939  0.1046  0.4526 -0.5904
 3575SOL    HW122187   1.427   2.356   0.863 -3.1971  1.0243  1.3492
 3575SOL    HW222188   1.499   2.475   0.913 -0.2652  0.5335 -0.6272
 3576SOL     OW22189   3.683   3.291   4.489 -0.1548  0.5043 -0.5605
 3576SOL    HW122190   3.651   3.242   4.565  2.8546 -0.3438  0.1682
 3576SOL    HW222191   3.683   3.231   4.415 -0.8948 -0.2353  0.0279
 3577SOL     OW22192   3.861   4.362   0.104 -0.0082 -0.2223  0.5962
 3577SOL    HW122193   3.797   4.362   0.175  0.8707 -0.5818  1.3816
 3577SOL    HW222194   3.877   4.457   0.102  1.5047 -0.4813  0.7082
 3578SOL     OW22195   3.874   0.080   7.588 -0.1115  0.0751  0.4428
 3578SOL    HW122196   3.945   0.016   7.586 -1.6614 -1.5876 -0.5172
 3578SOL    HW222197   3.802   0.026   7.620 -0.4739 -1.7354 -3.5242
 3579SOL     OW22198   3.503   1.134  16.954  0.1457  0.0424 -0.4968
 3579SOL    HW122199   3.450   1.136  16.874 -1.2969  1.5432  0.5117
 3579SOL    HW222200   3.587   1.100  16.923  0.3663 -0.8546  1.0846
 3580SOL     OW22201   1.818   2.060  15.269 -0.1354 -0.6173 -0.0977
 3580SOL    HW122202   1.810   2.056  15.174  0.3106 -2.0122 -0.0723
 3580SOL    HW222203   1.875   2.137  15.279 -0.8866  0.2440 -2.3436
 3581SOL     OW22204   2.974   0.857  14.152  0.2214  0.6878 -0.0739
 3581SOL    HW122205   3.040   0.814  14.207  1.5099  0.1248 -2.0677
 3581SOL    HW222206   3.019   0.940  14.140 -0.3086  1.0884  0.7026
 3582SOL     OW22207   3.199   2.422   5.462 -0.1966 -0.6755 -0.0317
 3582SOL    HW122208   3.267   2.467   5.411  0.2177 -2.5910 -1.1800
 3582SOL    HW222209   3.162   2.373   5.388  1.3833  1.1464 -2.0335
 3583SOL     OW22210   1.425   3.260  13.308 -0.3713 -0.5720  0.3810
 3583SOL    HW122211   1.464   3.264  13.221 -0.4562  2.4671  0.4995
 3583SOL    HW222212   1.462   3.341  13.343  2.0595 -1.1594 -0.8238
 3584SOL     OW22213   1.580   1.572   0.526 -0.9467  0.1837 -0.1016
 3584SOL    HW122214   1.637   1.504   0.490 -0.7154  0.8126 -0.9067
 3584SOL    HW222215   1.646   1.630   0.564 -1.6470  0.3909  0.8052
 3585SOL     OW22216   1.030   0.658   3.548  0.2971 -0.1122 -0.2419
 3585SOL    HW122217   1.097   0.620   3.605 -0.0972  1.9698  1.6128
 3585SOL    HW222218   0.963   0.683   3.612  1.9702  2.8468  0.3357
 3586SOL     OW22219   1.836   3.726  13.828  0.2054 -0.3368 -0.2381
 3586SOL    HW122220   1.808   3.810  13.791 -2.7555 -1.8031 -1.3657
 3586SOL    HW222221   1.860   3.758  13.915 -3.2975 -0.4873  0.7957
 3587SOL     OW22222   0.721   4.512   4.577 -0.7414 -0.1656  0.2053
 3587SOL    HW122223   0.747   4.445   4.513  0.9532  0.3768  0.3266
 3587SOL    HW222224   0.692   4.583   4.519  0.1662 -0.7460 -0.9717
 3588SOL     OW22225   0.858   4.308   9.992 -0.1788  0.1527  0.1540
 3588SOL    HW122226   0.780   4.308   9.936 -0.1068 -0.2975  0.0508
 3588SOL    HW222227   0.823   4.298  10.080 -1.0578  0.2322 -0.1864
 3589SOL     OW22228   2.177   1.512   4.494 -0.2867 -0.3606 -0.1902
 3589SOL    HW122229   2.251   1.571   4.512  0.3613 -2.0487  2.5824
 3589SOL    HW222230   2.222   1.430   4.516  1.9691  1.2131  1.1256
 3590SOL     OW22231   0.849   1.283   7.479 -0.0682  0.5436 -0.9978
 3590SOL    HW122232   0.925   1.340   7.493 -0.8416  0.6587  2.7559
 3590SOL    HW222233   0.786   1.342   7.520  0.7414 -0.4763  1.6891
 3591SOL     OW22234   1.521   0.685   0.347 -0.0414 -0.1095  0.3880
 3591SOL    HW122235   1.585   0.666   0.278 -0.8529  1.0040 -0.6846
 3591SOL    HW222236   1.548   0.771   0.380 -1.0001  0.2956  0.1128
 3592SOL     OW22237   1.413   1.651   3.506 -0.3194 -0.1045 -0.6169
 3592SOL    HW122238   1.390   1.605   3.587 -0.2679  0.1371 -0.4668
 3592SOL    HW222239   1.416   1.576   3.446 -0.7431 -0.3167 -0.3732
 3593SOL     OW22240   2.993   3.173  15.463 -0.4390 -1.2363 -0.1063
 3593SOL    HW122241   2.975   3.143  15.552 -2.0200 -0.7613 -0.2603
 3593SOL    HW222242   2.997   3.267  15.484  3.4831 -1.5850  0.6584
 3594SOL     OW22243   4.600   1.977   8.875 -0.0214  0.0166 -0.2743
 3594SOL    HW122244   4.566   2.063   8.901 -1.6497 -0.5149 -0.6449
 3594SOL    HW222245   4.546   1.951   8.800  2.2485  2.8152 -2.9065
 3595SOL     OW22246   3.434   2.621   8.299 -0.0223  0.2991 -0.4436
 3595SOL    HW122247   3.352   2.579   8.325  0.3845 -0.0347  0.3284
 3595SOL    HW222248   3.409   2.713   8.297 -2.7780 -0.4666 -1.1162
 3596SOL     OW22249   3.913   2.139   1.694  0.3609  0.5308 -0.0206
 3596SOL    HW122250   3.861   2.142   1.613  0.8280  1.7325 -0.2891
 3596SOL    HW222251   3.866   2.206   1.744  0.5785  0.5361  0.1754
 3597SOL     OW22252   2.704   4.283  13.191 -0.0634  0.1696  0.1696
 3597SOL    HW122253   2.638   4.348  13.216  2.1937  1.3228  3.1819
 3597SOL    HW222254   2.768   4.340  13.150 -1.4692  1.7872  0.2247
 3598SOL     OW22255   1.541   1.049  17.208 -0.4341 -0.0918  0.1651
 3598SOL    HW122256   1.561   1.046  17.114  0.3573  1.3034  0.2915
 3598SOL    HW222257   1.445   1.047  17.207 -0.3475 -3.9913 -1.4693
 3599SOL     OW22258   3.810   0.645   8.688 -0.2557 -0.3543 -0.5189
 3599SOL    HW122259   3.826   0.561   8.733  2.0089 -0.1031 -0.8532
 3599SOL    HW222260   3.900   0.660   8.659 -1.0712  1.4736 -2.0392
 3600SOL     OW22261   4.196   1.763  13.199  0.0943 -0.6466  0.4007
 3600SOL    HW122262   4.214   1.817  13.122  0.1956 -0.4782  0.5424
 3600SOL    HW222263   4.260   1.809  13.253  2.8549  0.5357 -3.8676
 3601SOL     OW22264   1.453   1.159  16.568 -0.2506  0.1021 -0.2397
 3601SOL    HW122265   1.429   1.185  16.657  2.3468  2.5759 -0.2427
 3601SOL    HW222266   1.500   1.077  16.582  0.0413  0.1074 -1.1727
 3602SOL     OW22267   3.686   0.434   6.769 -0.3457  0.1646  0.3393
 3602SOL    HW122268   3.681   0.514   6.822 -0.2985  0.3478  0.0742
 3602SOL    HW222269   3.610   0.452   6.712  0.6555 -1.4556 -1.5107
 3603SOL     OW22270   2.640   2.120   3.174 -0.3391  0.1167 -0.3622
 3603SOL    HW122271   2.649   2.213   3.152  0.1403 -0.4047 -2.3771
 3603SOL    HW222272   2.630   2.135   3.268  1.2696 -0.9375 -0.0247
 3604SOL     OW22273   0.051   3.717   4.122  0.0669 -0.7651  0.3216
 3604SOL    HW122274   0.066   3.811   4.135 -1.9085 -0.3412 -0.5756
 3604SOL    HW222275   0.049   3.715   4.027 -0.6514  1.0274  0.3000
 3605SOL     OW22276   0.517   0.434   6.971  0.0561 -0.2726 -0.3372
 3605SOL    HW122277   0.543   0.377   6.899  1.9560  1.1965 -0.8337
 3605SOL    HW222278   0.422   0.433   6.957 -0.3462 -0.0006  2.4977
 3606SOL     OW22279   0.012   3.810   7.770  0.0982  0.0490 -0.0446
 3606SOL    HW122280   0.076   3.814   7.700  0.7384  0.0753  0.5443
 3606SOL    HW222281   0.055   3.858   7.841  0.9729  1.1791 -1.3487
 3607SOL     OW22282   1.322   2.640   6.296 -0.2834 -0.4351  0.3049
 3607SOL    HW122283   1.357   2.684   6.373  1.2817 -0.8022 -0.1779
 3607SOL    HW222284   1.232   2.617   6.319 -0.1684  0.2957  1.4691
 3608SOL     OW22285   0.471   1.367   2.266 -0.0692 -0.4337  0.2927
 3608SOL    HW122286   0.469   1.325   2.180  3.7557 -1.7756  0.8533
 3608SOL    HW222287   0.429   1.450   2.243 -0.5833 -1.4304 -2.3647
 3609SOL     OW22288   4.674   1.451   4.483 -0.2638  0.2594  0.5621
 3609SOL    HW122289   4.645   1.403   4.561 -1.1440 -1.9807 -1.1501
 3609SOL    HW222290   0.003   1.512   4.533 -1.7547  0.3992  2.0320
 3610SOL     OW22291   3.694   4.223   3.343 -1.0461 -0.4126 -0.2363
 3610SOL    HW122292   3.625   4.173   3.387 -2.2123 -0.0141 -1.6208
 3610SOL    HW222293   3.743   4.251   3.420  1.1768  1.2725 -2.2815
 3611SOL     OW22294   0.035   3.179   7.004  0.2353 -0.1627  0.4687
 3611SOL    HW122295   0.022   3.267   7.037  2.8327 -0.8178  3.2245
 3611SOL    HW222296   0.110   3.156   7.059 -0.0372 -1.9528  0.1190
 3612SOL     OW22297   2.867   3.407   3.519 -0.0513 -0.3901 -0.1333
 3612SOL    HW122298   2.834   3.489   3.556  0.0666  0.5527 -2.1332
 3612SOL    HW222299   2.827   3.347   3.583 -1.3920 -0.8448 -1.4090
 3613SOL     OW22300   0.820   4.019   2.005  0.4282 -0.1991  0.3457
 3613SOL    HW122301   0.770   4.099   1.988  1.5677  0.5898  0.6838
 3613SOL    HW222302   0.756   3.953   2.031  0.9425 -1.2340 -0.9756
 3614SOL     OW22303   1.654   2.103   2.612  0.3210 -0.1520  0.4334
 3614SOL    HW122304   1.748   2.092   2.595  0.2638  2.1270 -1.4957
 3614SOL    HW222305   1.616   2.016   2.622 -0.5253  0.1948  0.1845
 3615SOL     OW22306   4.685   2.657   8.345  0.0326  0.4504  0.5907
 3615SOL    HW122307   4.602   2.622   8.313  0.7228  1.5989 -2.5131
 3615SOL    HW222308   4.702   2.592   8.412 -1.4584 -0.1488  0.3875
 3616SOL     OW22309   4.288   0.487   3.962 -0.7246 -0.5066 -0.3601
 3616SOL    HW122310   4.363   0.491   4.022  0.2997  3.2584 -1.9476
 3616SOL    HW222311   4.257   0.403   3.996 -0.2440 -0.5373  0.0076
 3617SOL     OW22312   2.969   2.138  12.496  0.0856 -0.4122 -0.3088
 3617SOL    HW122313   3.026   2.062  12.485 -0.9465 -0.9795 -1.7680
 3617SOL    HW222314   2.957   2.164  12.404 -2.3659 -0.5087 -0.0003
 3618SOL     OW22315   4.600   0.785   4.190  1.1709  0.3740 -0.7605
 3618SOL    HW122316   4.610   0.753   4.279  0.6231 -1.3960 -1.3405
 3618SOL    HW222317   4.640   0.872   4.193  2.8710 -0.3391 -2.8201
 3619SOL     OW22318   2.407   3.273   5.223 -0.3261 -0.1386 -0.8206
 3619SOL    HW122319   2.390   3.198   5.165 -1.7210 -0.9135  0.6122
 3619SOL    HW222320   2.501   3.286   5.206 -0.4122  0.2206 -1.0199
 3620SOL     OW22321   1.993   2.714   7.364  0.3350  0.4801  0.1132
 3620SOL    HW122322   2.038   2.776   7.421 -2.0464  0.3542  2.1428
 3620SOL    HW222323   2.051   2.705   7.288  0.8704 -1.4972  0.7532
 3621SOL     OW22324   4.603   3.578   1.557 -0.1027 -0.3109 -0.1885
 3621SOL    HW122325   4.523   3.525   1.550 -1.4218  1.6082  0.2165
 3621SOL    HW222326   4.668   3.509   1.551 -1.3780 -1.6385  1.2750
 3622SOL     OW22327   2.465   4.358  10.587  0.2891  0.0474  0.0970
 3622SOL    HW122328   2.388   4.331  10.537 -1.7717  0.8680  2.8043
 3622SOL    HW222329   2.469   4.292  10.657  0.0537  0.2217  0.2745
 3623SOL     OW22330   2.999   2.525   6.140 -0.5066 -0.3933  0.0359
 3623SOL    HW122331   3.084   2.569   6.131 -0.6677 -1.0316 -4.8136
 3623SOL    HW222332   2.970   2.568   6.220 -0.0439  1.5903 -0.8571
 3624SOL     OW22333   3.629   0.297  13.365 -0.5190 -0.1558  0.2685
 3624SOL    HW122334   3.613   0.282  13.272 -0.1883 -2.0915  0.5364
 3624SOL    HW222335   3.651   0.209  13.396  0.7598 -0.0197 -0.2372
 3625SOL     OW22336   3.006   4.571  13.768 -0.2893 -0.1872 -0.0366
 3625SOL    HW122337   2.948   4.496  13.782  1.1678 -0.7452  2.9997
 3625SOL    HW222338   2.941   4.642  13.764 -0.5139 -0.2005  2.8506
 3626SOL     OW22339   3.769   0.641  16.163  0.4088 -0.1413 -0.0598
 3626SOL    HW122340   3.743   0.647  16.071 -1.6229  1.0272  0.5877
 3626SOL    HW222341   3.793   0.548  16.167 -2.8990 -1.0258 -0.7401
 3627SOL     OW22342   3.400   3.669  13.946  0.0702 -0.3435 -0.3957
 3627SOL    HW122343   3.386   3.763  13.958 -0.8926 -0.3302 -1.7337
 3627SOL    HW222344   3.431   3.675  13.856 -2.5405  0.6504 -1.2157
 3628SOL     OW22345   4.398   0.164  16.203 -0.2265 -0.3231 -0.0192
 3628SOL    HW122346   4.356   0.212  16.275  1.4233  2.3143 -0.8413
 3628SOL    HW222347   4.317   0.149  16.154 -1.6811  2.0670  1.6150
 3629SOL     OW22348   3.356   0.493   3.671  0.3827  0.2685 -0.1502
 3629SOL    HW122349   3.302   0.456   3.741  0.3464  1.0292  0.2228
 3629SOL    HW222350   3.353   0.419   3.610 -2.4741 -0.3042  0.6733
 3630SOL     OW22351   2.708   0.362   5.897 -0.1310 -0.5634 -0.7912
 3630SOL    HW122352   2.752   0.277   5.887  0.5527 -0.5625  2.3648
 3630SOL    HW222353   2.708   0.402   5.810  1.6685 -0.2574 -0.6585
 3631SOL     OW22354   0.744   2.584   1.890 -0.0378 -0.4634  0.3657
 3631SOL    HW122355   0.715   2.549   1.974  4.1004 -2.7018  0.8870
 3631SOL    HW222356   0.837   2.560   1.891  0.6932  2.2617 -2.1287
 3632SOL     OW22357   2.316   0.291   0.272  0.0891 -0.8857  0.4996
 3632SOL    HW122358   2.327   0.366   0.331 -2.6904 -0.1013  0.0289
 3632SOL    HW222359   2.233   0.320   0.234  1.4375  0.3828 -1.4553
 3633SOL     OW22360   1.462   1.414   3.969  0.2779  0.3218  0.3003
 3633SOL    HW122361   1.545   1.366   3.977 -1.5729 -2.3441  3.0581
 3633SOL    HW222362   1.483   1.468   3.892  2.0197 -3.7167 -2.0637
 3634SOL     OW22363   3.088   1.411  13.109 -0.0907  0.2255  0.3913
 3634SOL    HW122364   3.127   1.354  13.043  1.2783 -0.7323  2.0387
 3634SOL    HW222365   3.083   1.363  13.192 -3.2232 -1.9301 -1.0343
 3635SOL     OW22366   0.268   3.413   6.252  0.2299  0.2738 -0.5183
 3635SOL    HW122367   0.190   3.459   6.281  0.4739  0.4969 -0.2118
 3635SOL    HW222368   0.235   3.371   6.173 -0.5638  0.9553 -0.5526
 3636SOL     OW22369   1.798   3.754   2.068  0.1990  0.2815 -0.1097
 3636SOL    HW122370   1.887   3.729   2.045  0.1751  1.1750 -1.1714
 3636SOL    HW222371   1.742   3.695   2.017 -0.4355 -1.8805  3.0458
 3637SOL     OW22372   2.325   4.289   1.950 -0.0769  0.2172  0.4199
 3637SOL    HW122373   2.278   4.357   1.901 -1.4416  0.1850  1.6939
 3637SOL    HW222374   2.390   4.347   1.990  1.2021  0.7635 -2.4003
 3638SOL     OW22375   3.469   1.116   1.684  0.0566  0.1049  0.4342
 3638SOL    HW122376   3.455   1.186   1.619  0.4809 -0.6112 -0.4345
 3638SOL    HW222377   3.433   1.044   1.633 -0.3667  0.2372  0.5529
 3639SOL     OW22378   3.523   3.026  13.456  0.2901  0.2607 -0.2788
 3639SOL    HW122379   3.481   3.090  13.513  0.4939 -0.3268  0.5285
 3639SOL    HW222380   3.451   2.967  13.433  0.3683  0.9524 -2.3071
 3640SOL     OW22381   4.349   2.926   9.349  0.0778 -0.3053 -0.2330
 3640SOL    HW122382   4.278   2.975   9.389 -0.8321 -0.2050 -1.9864
 3640SOL    HW222383   4.400   2.917   9.430  0.8815 -2.2862 -0.9408
 3641SOL     OW22384   0.451   0.061   5.959  1.2061  0.0772  0.1977
 3641SOL    HW122385   0.486   0.121   6.026  0.9048  1.2066 -0.6595
 3641SOL    HW222386   0.495   0.083   5.877 -1.2698 -0.3510 -1.2290
 3642SOL     OW22387   4.223   2.934  13.728 -0.0720  0.1995 -0.2106
 3642SOL    HW122388   4.299   2.934  13.786  0.7611 -0.6902 -1.3109
 3642SOL    HW222389   4.236   3.015  13.678  1.1368 -0.0343 -0.2660
 3643SOL     OW22390   0.160   4.231   5.943  0.0437  0.3603  0.1274
 3643SOL    HW122391   0.253   4.250   5.927 -0.7965  3.0591 -1.4124
 3643SOL    HW222392   0.137   4.192   5.859 -0.9830  1.9447 -0.3222
 3644SOL     OW22393   4.028   1.704   0.869  0.2691 -0.6142 -0.0447
 3644SOL    HW122394   3.940   1.668   0.877  0.1296 -0.6698 -1.7649
 3644SOL    HW222395   4.075   1.655   0.936 -0.0892  0.7955  1.2353
 3645SOL     OW22396   2.892   2.543   6.900 -0.1459 -0.1600  0.2246
 3645SOL    HW122397   2.891   2.616   6.838 -1.6109 -0.7823 -0.4851
 3645SOL    HW222398   2.987   2.532   6.907 -0.4447 -2.5711  0.7732
 3646SOL     OW22399   1.659   1.394  17.120  0.4876  0.2769  0.4734
 3646SOL    HW122400   1.615   1.446  17.188 -2.0276 -0.6842 -0.3964
 3646SOL    HW222401   1.737   1.358  17.161  0.5790 -0.1959 -0.1107
 3647SOL     OW22402   0.667   2.616  11.222 -0.4940 -0.1144  0.0517
 3647SOL    HW122403   0.616   2.663  11.155  0.4374  0.0403 -0.5502
 3647SOL    HW222404   0.757   2.632  11.193 -0.8195  2.0063  0.1957
 3648SOL     OW22405   3.811   3.313   4.904 -0.2477  0.2546  0.1823
 3648SOL    HW122406   3.812   3.362   4.821 -2.8303  1.0754  0.6222
 3648SOL    HW222407   3.732   3.354   4.940 -0.4392  0.4325 -0.4334
 3649SOL     OW22408   1.931   2.999   3.431 -0.3180 -0.2267  0.4302
 3649SOL    HW122409   1.908   2.907   3.418 -0.0638  0.1389 -2.6058
 3649SOL    HW222410   1.956   3.022   3.342  2.5841  0.4125  1.3942
 3650SOL     OW22411   1.950   0.993  15.537 -0.1851  0.6558  0.4243
 3650SOL    HW122412   1.989   0.965  15.620 -3.5542  1.1254  2.1529
 3650SOL    HW222413   2.026   0.987  15.480  0.0426  0.5260  0.7432
 3651SOL     OW22414   2.818   4.456   8.675 -0.0521 -0.1061  0.0041
 3651SOL    HW122415   2.823   4.544   8.713 -1.0781  0.2142 -0.6171
 3651SOL    HW222416   2.821   4.411   8.760  1.5355 -0.7575 -0.3887
 3652SOL     OW22417   4.002   3.752   9.068  0.0311 -0.1911 -0.3966
 3652SOL    HW122418   4.094   3.725   9.072  0.4908  1.4895  0.1130
 3652SOL    HW222419   3.990   3.802   9.149 -0.9303 -1.0530  0.0009
 3653SOL     OW22420   0.177   3.772  14.254 -0.4070 -0.4523 -0.5904
 3653SOL    HW122421   0.250   3.821  14.216 -0.3858 -0.8846 -1.1029
 3653SOL    HW222422   0.114   3.778  14.183  0.2523 -0.9378 -1.2185
 3654SOL     OW22423   2.689   4.282   6.448  0.2955  0.2726 -0.2922
 3654SOL    HW122424   2.662   4.310   6.535 -2.9528  0.8776 -1.4770
 3654SOL    HW222425   2.784   4.278   6.453  0.2094  0.9713  1.7529
 3655SOL     OW22426   1.180   3.612   8.843  0.5789  0.0997  0.3340
 3655SOL    HW122427   1.089   3.594   8.864 -0.0456  1.4324 -1.2169
 3655SOL    HW222428   1.174   3.704   8.868  0.4125 -0.0497  0.8506
 3656SOL     OW22429   0.056   3.465   4.577  0.1990  0.5760  0.0751
 3656SOL    HW122430   0.061   3.377   4.538 -2.6879  0.8640 -0.8845
 3656SOL    HW222431   4.688   3.470   4.596 -0.2952  1.2709 -2.5447
 3657SOL     OW22432   1.587   0.675   3.124  0.2971 -0.2902  0.0563
 3657SOL    HW122433   1.593   0.661   3.029  2.0254  1.6277 -0.1101
 3657SOL    HW222434   1.665   0.728   3.137 -0.0058  0.2016 -0.1253
 3658SOL     OW22435   1.478   1.798   8.248  0.3926 -0.3140  0.2330
 3658SOL    HW122436   1.443   1.709   8.252 -1.5603  0.5008  1.2159
 3658SOL    HW222437   1.388   1.830   8.254  0.8761  1.3071 -1.3904
 3659SOL     OW22438   3.845   0.598   9.145 -0.4114 -0.0851 -0.4960
 3659SOL    HW122439   3.772   0.615   9.085  0.3562 -0.4343 -1.5182
 3659SOL    HW222440   3.848   0.502   9.140 -3.4446 -0.0987 -2.1468
 3660SOL     OW22441   3.064   3.959  10.764 -0.1814 -0.4237  0.1204
 3660SOL    HW122442   2.977   3.984  10.796 -0.9539 -0.7752 -1.7019
 3660SOL    HW222443   3.115   3.956  10.845  1.0306 -0.2830 -0.6428
 3661SOL     OW22444   2.518   1.073   1.479 -0.3435  0.1298 -0.0258
 3661SOL    HW122445   2.567   1.037   1.406 -0.0993  0.0850  0.1586
 3661SOL    HW222446   2.586   1.133   1.510 -0.5957  0.1982  0.3976
 3662SOL     OW22447   1.584   4.203  10.358  0.1983 -0.3534  0.1688
 3662SOL    HW122448   1.622   4.143  10.422  1.5356  0.6927  0.3662
 3662SOL    HW222449   1.583   4.288  10.403  0.7679 -0.6850  0.8227
 3663SOL     OW22450   1.190   3.569   7.995  0.0448  0.2786  0.5858
 3663SOL    HW122451   1.286   3.574   7.997  0.0984 -0.4615 -0.0588
 3663SOL    HW222452   1.157   3.624   8.067 -1.9294  0.1541 -0.2355
 3664SOL     OW22453   3.752   1.440   7.473  0.4308  0.0189  0.2176
 3664SOL    HW122454   3.702   1.507   7.426  0.1337 -0.6139 -0.3925
 3664SOL    HW222455   3.803   1.488   7.537  0.3346 -0.3172  0.5444
 3665SOL     OW22456   3.031   0.676   7.595 -0.3867 -0.4507 -0.1066
 3665SOL    HW122457   2.964   0.616   7.627 -0.8006 -0.7592 -1.5594
 3665SOL    HW222458   2.979   0.756   7.588 -0.4392 -0.4755  0.0118
 3666SOL     OW22459   1.894   1.269   2.081  0.1088 -0.3069 -0.5971
 3666SOL    HW122460   1.916   1.194   2.137  1.9520  1.8205  1.5692
 3666SOL    HW222461   1.818   1.308   2.125 -0.9116 -0.3474 -2.3137
 3667SOL     OW22462   3.758   1.476   9.128 -0.1709  0.2040 -0.6082
 3667SOL    HW122463   3.812   1.443   9.200  0.0447 -0.1190 -0.9134
 3667SOL    HW222464   3.708   1.543   9.173  1.4227  0.3263  0.9959
 3668SOL     OW22465   1.324   3.988   8.582  0.3220 -0.5867  0.4904
 3668SOL    HW122466   1.307   3.907   8.536 -3.4728 -0.4956  1.7798
 3668SOL    HW222467   1.250   4.037   8.547  0.2934 -0.4434  0.7513
 3669SOL     OW22468   2.403   1.064   0.111 -0.0575  0.0766 -0.4397
 3669SOL    HW122469   2.370   1.005   0.043  0.8801 -0.6474 -0.2638
 3669SOL    HW222470   2.498   1.056   0.117  0.2372  3.0633 -1.2208
 3670SOL     OW22471   1.424   3.051   2.505  0.0962 -0.1122  0.2255
 3670SOL    HW122472   1.458   2.975   2.457  1.1980  0.3414  0.2863
 3670SOL    HW222473   1.365   2.997   2.558  1.3301 -1.1505  0.5371
 3671SOL     OW22474   2.141   4.575   0.382  0.4051 -0.2884 -0.0101
 3671SOL    HW122475   2.085   4.531   0.446  0.3451  0.5714  0.5335
 3671SOL    HW222476   2.081   4.571   0.307 -1.0608 -2.3586  1.2911
 3672SOL     OW22477   1.773   0.531   5.522 -0.0326  0.0080 -0.1163
 3672SOL    HW122478   1.804   0.622   5.519  0.0273  0.0390  1.6008
 3672SOL    HW222479   1.818   0.496   5.599 -1.1370  0.8237  0.9162
 3673SOL     OW22480   0.146   4.634   1.930  0.1303 -0.2047 -0.1508
 3673SOL    HW122481   0.215   4.571   1.906  0.0103 -0.3613 -0.0778
 3673SOL    HW222482   0.203   4.710   1.915 -2.7892  1.9313 -0.2538
 3674SOL     OW22483   3.575   4.096   1.847 -0.4822  0.1652 -0.0806
 3674SOL    HW122484   3.584   4.187   1.818  0.8557  0.3425  0.8972
 3674SOL    HW222485   3.658   4.062   1.813 -0.6539  1.4327 -1.8012
 3675SOL     OW22486   2.812   2.651   4.573 -0.0624 -0.9870 -0.2195
 3675SOL    HW122487   2.821   2.559   4.548  0.6076 -1.1896  0.7426
 3675SOL    HW222488   2.847   2.635   4.661  0.9772 -1.4312 -0.7150
 3676SOL     OW22489   1.254   0.101   5.427 -0.0230  0.0671 -0.0273
 3676SOL    HW122490   1.197   0.163   5.383  0.8645  2.0910  1.6460
 3676SOL    HW222491   1.204   0.020   5.416  0.7283  0.0053 -2.9459
 3677SOL     OW22492   3.698   3.945   6.077 -0.1234 -0.3101 -0.3871
 3677SOL    HW122493   3.781   3.900   6.093  0.1270  0.3008  0.0172
 3677SOL    HW222494   3.670   3.881   6.011  0.5886 -0.8439 -0.1676
 3678SOL     OW22495   1.391   4.278   4.001  0.1172  0.1172 -0.1678
 3678SOL    HW122496   1.449   4.319   4.065 -2.1801  2.6619  0.2710
 3678SOL    HW222497   1.328   4.235   4.058  1.2193 -1.5877 -0.2193
 3679SOL     OW22498   2.301   4.326  11.042 -0.1928 -0.3491  0.1182
 3679SOL    HW122499   2.310   4.418  11.067 -3.0283 -0.4753  1.6369
 3679SOL    HW222500   2.394   4.307  11.034 -0.4981 -1.7669 -0.0613
 3680SOL     OW22501   3.200   0.748   2.963 -0.1637  0.2152  1.2276
 3680SOL    HW122502   3.146   0.689   3.015 -0.6466 -0.1236  0.3431
 3680SOL    HW222503   3.166   0.835   2.983  0.4732  0.2693  2.0579
 3681SOL     OW22504   0.956   2.019   5.157  0.0991  0.4016 -0.7577
 3681SOL    HW122505   0.865   2.030   5.128 -1.4135 -1.6387  3.2435
 3681SOL    HW222506   0.949   1.940   5.209 -3.7438  2.6445  2.0757
 3682SOL     OW22507   0.876   3.921   3.093  0.4208  0.3410 -0.4652
 3682SOL    HW122508   0.890   3.882   3.007 -0.9079  0.3262 -0.6707
 3682SOL    HW222509   0.916   4.006   3.075  1.3344 -0.0479 -0.2436
 3683SOL     OW22510   3.753   1.439   6.961 -0.3676  0.3382  0.1692
 3683SOL    HW122511   3.695   1.512   6.982  0.1705  0.6354  0.6124
 3683SOL    HW222512   3.709   1.410   6.881 -0.2872  2.2355 -0.5820
 3684SOL     OW22513   0.363   0.615  10.927  0.2538 -0.0996 -0.4625
 3684SOL    HW122514   0.438   0.669  10.952 -0.0959 -0.3746  1.1923
 3684SOL    HW222515   0.365   0.543  10.991  1.9104  0.2551 -0.1209
 3685SOL     OW22516   2.973   0.943  17.439  0.1624  0.2900 -0.1070
 3685SOL    HW122517   3.065   0.947  17.464  0.0637  2.0758 -0.0280
 3685SOL    HW222518   2.944   1.034  17.450 -1.3230 -0.4238  2.0258
 3686SOL     OW22519   3.356   2.947   3.348 -0.3458  0.1354 -0.2343
 3686SOL    HW122520   3.388   2.998   3.273 -2.8706  0.5126 -1.0611
 3686SOL    HW222521   3.434   2.912   3.390  0.4746  1.2960 -0.7804
 3687SOL     OW22522   2.745   4.690   7.085 -0.2468  0.2016  0.3580
 3687SOL    HW122523   2.667   4.724   7.041  0.4977 -1.2545 -2.1418
 3687SOL    HW222524   2.743   0.008   7.170 -1.9534  0.6058  0.1119
 3688SOL     OW22525   1.939   2.810   9.499 -0.8712 -0.0520  0.3993
 3688SOL    HW122526   2.001   2.848   9.561  1.9312 -2.4777 -0.8901
 3688SOL    HW222527   1.991   2.743   9.454 -0.4207 -0.2834  1.2607
 3689SOL     OW22528   1.051   3.769   6.815 -0.0388  0.9691 -0.4676
 3689SOL    HW122529   1.013   3.730   6.894 -1.8904  4.4343  0.3643
 3689SOL    HW222530   0.986   3.749   6.747 -1.7430 -2.4270  2.1501
 3690SOL     OW22531   2.286   1.988   3.003 -0.0069 -0.2763  0.0610
 3690SOL    HW122532   2.371   1.946   2.991  0.1658 -0.1607  0.8524
 3690SOL    HW222533   2.302   2.081   3.017  2.2393 -0.7484  0.6640
 3691SOL     OW22534   3.978   2.016  11.478  0.2679 -0.1466  0.4086
 3691SOL    HW122535   3.903   2.040  11.532  0.5504 -0.4789  0.9465
 3691SOL    HW222536   3.944   1.935  11.439  0.8457 -0.5446  0.7292
 3692SOL     OW22537   3.336   2.702   7.350 -0.1589  0.6964  0.4655
 3692SOL    HW122538   3.412   2.644   7.351 -1.6896 -1.2843  0.1650
 3692SOL    HW222539   3.318   2.707   7.256 -0.6152 -1.4152  0.4378
 3693SOL     OW22540   4.389   1.698   4.516 -0.5521  0.5729 -0.2702
 3693SOL    HW122541   4.334   1.627   4.483  0.5182 -0.4094  0.0533
 3693SOL    HW222542   4.416   1.728   4.430 -2.1510  0.2101 -0.8959
 3694SOL     OW22543   1.814   0.047   2.013 -0.0477 -0.0561 -0.3708
 3694SOL    HW122544   1.817   0.142   2.005 -1.3474 -0.0734 -0.9594
 3694SOL    HW222545   1.765   0.045   2.095  0.7236 -2.4685  0.0260
 3695SOL     OW22546   1.073   2.019   8.987  0.1208 -0.4184  0.4745
 3695SOL    HW122547   0.990   2.034   8.942  0.1932 -1.4604 -0.0102
 3695SOL    HW222548   1.121   1.960   8.929  1.1824 -0.2320  1.1564
 3696SOL     OW22549   3.523   4.223   5.435  0.3816  0.6208 -0.7047
 3696SOL    HW122550   3.587   4.255   5.500  0.3736 -0.6191 -0.0976
 3696SOL    HW222551   3.449   4.283   5.445  0.6498  1.1006 -1.6472
 3697SOL     OW22552   3.214   1.437  17.617  0.2158 -0.0852  0.3563
 3697SOL    HW122553   3.277   1.386  17.566 -0.8009 -1.2236  0.2600
 3697SOL    HW222554   3.133   1.396  17.588 -0.3631  1.5210 -0.2858
 3698SOL     OW22555   3.553   3.933   4.153  0.4434 -0.4789  0.6554
 3698SOL    HW122556   3.470   3.913   4.110  0.9542 -0.7385 -0.2053
 3698SOL    HW222557   3.543   4.022   4.189  2.6085 -0.2565  0.7386
 3699SOL     OW22558   2.724   4.471  10.749  0.0798 -0.1225 -0.1693
 3699SOL    HW122559   2.795   4.533  10.761 -0.5154  0.3065  1.1462
 3699SOL    HW222560   2.760   4.393  10.706 -0.9964 -0.7848  0.1095
 3700SOL     OW22561   1.394   2.459   7.753 -0.6034  0.2209  0.7501
 3700SOL    HW122562   1.435   2.375   7.772 -1.9099 -0.5229  0.3131
 3700SOL    HW222563   1.310   2.447   7.798  0.2478 -2.5155  1.6078
 3701SOL     OW22564   0.286   3.473   4.817 -0.6299 -0.5269 -0.0769
 3701SOL    HW122565   0.192   3.491   4.811 -0.6195  0.1969  1.6087
 3701SOL    HW222566   0.306   3.496   4.908  2.5927  1.1506 -1.1816
 3702SOL     OW22567   4.135   3.789   6.884  0.3117 -0.1915 -0.0233
 3702SOL    HW122568   4.142   3.744   6.968 -2.4533  2.1986  1.5059
 3702SOL    HW222569   4.226   3.811   6.867  0.1783 -0.4287 -1.0406
 3703SOL     OW22570   1.217   2.203   4.953  0.0438 -0.3834  0.4243
 3703SOL    HW122571   1.246   2.268   5.017 -1.2932  0.6253 -0.0093
 3703SOL    HW222572   1.122   2.201   4.956  0.0700  0.6638  1.8399
 3704SOL     OW22573   0.034   4.410  11.555  0.2899  0.0628 -0.4711
 3704SOL    HW122574   4.691   4.342  11.557 -0.8863  1.2686  0.0685
 3704SOL    HW222575   0.052   4.434  11.646 -1.3623  1.1837 -0.4467
 3705SOL     OW22576   2.813   3.068   3.621  0.3773 -0.2524 -0.2535
 3705SOL    HW122577   2.795   3.032   3.534  0.0315 -0.9496  0.1030
 3705SOL    HW222578   2.727   3.088   3.657  0.9848  1.8477  0.0528
 3706SOL     OW22579   4.693   3.722   1.765  0.0678 -0.3419 -0.1320
 3706SOL    HW122580   4.642   3.678   1.697 -2.4741  2.0432  0.2509
 3706SOL    HW222581   4.671   3.813   1.744 -1.3861 -0.9023 -1.0655
 3707SOL     OW22582   1.287   0.840   2.001 -0.6845  0.4162 -0.0797
 3707SOL    HW122583   1.193   0.848   1.989 -0.7137 -0.3448 -0.3625
 3707SOL    HW222584   1.285   0.840   2.097  1.4600 -0.0893 -0.0238
 3708SOL     OW22585   3.398   0.572   2.572 -0.0289 -0.0520 -0.0635
 3708SOL    HW122586   3.447   0.548   2.493 -1.1676 -1.8455 -0.2097
 3708SOL    HW222587   3.359   0.655   2.545  1.6463  0.8358  0.2311
 3709SOL     OW22588   0.137   0.398   6.001 -0.2530 -0.1744 -0.2118
 3709SOL    HW122589   0.183   0.480   6.022 -0.2338 -0.1501 -0.3478
 3709SOL    HW222590   0.043   0.416   5.999  0.1570  1.8574 -2.2564
 3710SOL     OW22591   0.746   3.518   6.547  0.2357  0.1244  0.4114
 3710SOL    HW122592   0.741   3.445   6.485 -0.2044 -0.1831  0.8027
 3710SOL    HW222593   0.733   3.588   6.483 -0.2470 -0.1337  0.2221
 3711SOL     OW22594   0.442   4.389   5.352 -0.1274  0.1462  0.0517
 3711SOL    HW122595   0.420   4.398   5.444 -0.9312 -0.6844 -0.0552
 3711SOL    HW222596   0.482   4.472   5.326 -0.5072 -0.8011 -3.5843
 3712SOL     OW22597   1.959   2.268   2.887 -0.1352 -0.7789 -0.1964
 3712SOL    HW122598   1.984   2.183   2.852  1.3500 -0.1898 -0.5525
 3712SOL    HW222599   2.007   2.319   2.822  0.2527 -1.3822 -0.3748
 3713SOL     OW22600   4.362   0.143   2.796 -0.4401 -0.0455 -0.4938
 3713SOL    HW122601   4.293   0.179   2.852 -1.2283  1.1205 -2.2116
 3713SOL    HW222602   4.340   0.180   2.710  1.5893  0.1991 -0.9054
 3714SOL     OW22603   2.514   0.891   7.369  0.2196 -0.0288  0.0482
 3714SOL    HW122604   2.445   0.928   7.314 -0.2639 -2.7943 -1.2448
 3714SOL    HW222605   2.454   0.861   7.437 -2.4343  0.8402 -1.9009
 3715SOL     OW22606   2.516   4.235   1.040  0.2217  0.0574 -0.1565
 3715SOL    HW122607   2.607   4.251   1.017  0.7322 -1.3960  0.8518
 3715SOL    HW222608   2.473   4.232   0.955  0.4098  0.2040 -0.2567
 3716SOL     OW22609   3.002   0.503   9.237  0.3280 -0.3964 -0.0498
 3716SOL    HW122610   3.030   0.539   9.321 -1.4310  1.5385 -0.3042
 3716SOL    HW222611   2.906   0.500   9.242  0.2798  0.6990 -0.4097
 3717SOL     OW22612   3.064   0.267  14.823 -0.0562  0.2120  0.1646
 3717SOL    HW122613   3.021   0.351  14.838  1.5230  0.5560  2.9406
 3717SOL    HW222614   3.046   0.255  14.730 -1.1300  1.3678  0.2245
 3718SOL     OW22615   1.049   4.270   5.955 -0.6745  0.0798 -0.3082
 3718SOL    HW122616   1.138   4.304   5.947  0.1323 -2.1645 -0.6612
 3718SOL    HW222617   1.067   4.180   5.929  1.1660  0.3261  0.1204
 3719SOL     OW22618   3.437   0.985   2.289  0.0371 -0.1633 -0.4195
 3719SOL    HW122619   3.358   0.958   2.242 -2.0191  1.9044  1.8525
 3719SOL    HW222620   3.502   0.967   2.221 -1.2445 -0.9740 -1.3998
 3720SOL     OW22621   0.743   3.089   4.827  0.1781 -0.4816 -0.5882
 3720SOL    HW122622   0.656   3.123   4.803 -0.3703 -0.4803  1.4155
 3720SOL    HW222623   0.738   3.001   4.790  0.1334 -0.8037  0.1748
 3721SOL     OW22624   4.543   1.192  13.053 -0.4477 -0.1572  0.2847
 3721SOL    HW122625   4.521   1.286  13.059 -2.2491 -0.6574  1.5506
 3721SOL    HW222626   4.503   1.167  12.970  2.3202  0.8166 -1.3259
 3722SOL     OW22627   0.435   1.088   6.696  0.7223  0.2307 -0.3076
 3722SOL    HW122628   0.404   1.051   6.779  0.9627  1.0676  0.1567
 3722SOL    HW222629   0.377   1.052   6.630  2.2298 -1.0836 -0.9307
 3723SOL     OW22630   0.767   4.311   6.960 -0.0145 -0.2208 -0.0844
 3723SOL    HW122631   0.703   4.309   7.031 -1.4857  1.5136 -1.3756
 3723SOL    HW222632   0.849   4.270   6.990  0.2348 -0.9239 -1.7404
 3724SOL     OW22633   1.971   4.271   7.541 -0.2480  0.2083 -0.2196
 3724SOL    HW122634   2.016   4.348   7.575  1.4199 -0.6766 -0.4364
 3724SOL    HW222635   1.898   4.316   7.500  0.6624  0.2144 -1.8296
 3725SOL     OW22636   3.841   2.661   7.483 -0.1128 -0.2091 -0.0229
 3725SOL    HW122637   3.774   2.730   7.478  2.2818  2.1646  0.8243
 3725SOL    HW222638   3.803   2.599   7.545 -0.2993  1.3434  1.3949
 3726SOL     OW22639   2.036   3.494   1.083 -0.5154  0.1424  0.3910
 3726SOL    HW122640   1.986   3.412   1.086 -0.4617  0.0401 -1.5796
 3726SOL    HW222641   2.090   3.495   1.162 -0.3550  0.9975  0.2694
 3727SOL     OW22642   1.023   1.592  14.303  0.3226  0.2113  0.4903
 3727SOL    HW122643   1.053   1.501  14.305  2.2793  0.8232 -1.8831
 3727SOL    HW222644   0.997   1.607  14.213 -2.6252  0.2539  1.3614
 3728SOL     OW22645   2.800   0.001  13.453 -0.6220  0.2682  0.2297
 3728SOL    HW122646   2.802   4.643  13.501 -1.1736  1.1059  1.6905
 3728SOL    HW222647   2.736   4.702  13.387 -0.4374 -0.0568  0.1645
 3729SOL     OW22648   2.580   2.724  15.803  0.3801 -0.1783  0.4503
 3729SOL    HW122649   2.545   2.689  15.884 -1.6282  1.6290  0.3561
 3729SOL    HW222650   2.639   2.664  15.757  0.4589  0.1639  0.1050
 3730SOL     OW22651   0.404   4.457   2.761  0.2366  0.4016 -0.4114
 3730SOL    HW122652   0.410   4.432   2.853 -0.9962  0.0680 -0.4186
 3730SOL    HW222653   0.316   4.495   2.760  0.1190  0.1615  0.9641
 3731SOL     OW22654   3.764   0.927  14.177  0.0517 -0.3966  0.5383
 3731SOL    HW122655   3.721   0.904  14.094 -0.1374  1.5001  0.1227
 3731SOL    HW222656   3.752   1.021  14.187  2.4473  0.2398 -2.4986
 3732SOL     OW22657   0.687   4.102  11.562 -0.0380  0.2553 -0.8630
 3732SOL    HW122658   0.640   4.166  11.616 -0.7086 -1.0307  0.0644
 3732SOL    HW222659   0.726   4.161  11.497  0.9995  1.3431  0.7249
 3733SOL     OW22660   0.133   1.612   8.554 -0.4276  0.2664  0.8337
 3733SOL    HW122661   0.167   1.699   8.532 -0.7636  0.2686  0.3240
 3733SOL    HW222662   0.160   1.564   8.476 -0.1385 -1.3181  1.9183
 3734SOL     OW22663   4.056   4.695   4.631  0.3456  0.5090 -0.5364
 3734SOL    HW122664   3.993   4.708   4.702 -1.3748 -2.8718 -1.4140
 3734SOL    HW222665   4.104   4.632   4.684  0.0086  2.6385  2.2674
 3735SOL     OW22666   3.898   2.960   6.638 -0.4346  0.6356  0.5851
 3735SOL    HW122667   3.949   2.881   6.657  1.7147  1.4481 -1.9231
 3735SOL    HW222668   3.842   2.949   6.715 -0.4679  2.1845  0.7855
 3736SOL     OW22669   3.494   1.391  12.077 -0.3589 -0.4441  0.3071
 3736SOL    HW122670   3.496   1.330  12.004 -2.1785  1.1203 -1.0569
 3736SOL    HW222671   3.500   1.473  12.027  1.1406  0.3473  1.7830
 3737SOL     OW22672   0.608   1.029   1.647 -0.1581  0.4431 -0.1590
 3737SOL    HW122673   0.653   1.072   1.719 -3.8275 -0.1904  2.5393
 3737SOL    HW222674   0.677   1.020   1.581 -1.3282  1.0564 -1.4741
 3738SOL     OW22675   2.174   3.745   6.449 -0.8050  0.3415  0.3887
 3738SOL    HW122676   2.166   3.709   6.360  0.8440 -2.3628  1.3158
 3738SOL    HW222677   2.153   3.666   6.499  0.6975 -0.0542  0.3981
 3739SOL     OW22678   4.590   1.015   6.774 -0.3214  0.0792  0.4591
 3739SOL    HW122679   4.551   1.008   6.687  1.4540 -0.2233 -0.3094
 3739SOL    HW222680   4.524   1.067   6.820 -0.8873 -2.9174  3.0990
 3740SOL     OW22681   2.793   2.046  11.350  0.1498  0.5848  0.0449
 3740SOL    HW122682   2.807   2.060  11.256  3.4115  0.1781  0.4644
 3740SOL    HW222683   2.706   2.085  11.358  0.9910  2.5695 -0.4192
 3741SOL     OW22684   4.554   2.520   4.969  0.1183 -0.1130  0.2442
 3741SOL    HW122685   4.551   2.552   4.879 -0.3510 -3.0634 -0.7886
 3741SOL    HW222686   4.492   2.581   5.010 -0.8232  0.0390 -1.4242
 3742SOL     OW22687   3.751   4.321   3.965 -0.0285  0.0371 -0.0548
 3742SOL    HW122688   3.759   4.226   3.968 -1.6148  0.0514  4.3450
 3742SOL    HW222689   3.769   4.346   4.055 -0.0064 -0.7173  0.1521
 3743SOL     OW22690   1.721   1.435   0.346  0.1708  0.2851 -0.5364
 3743SOL    HW122691   1.657   1.364   0.339  1.7751 -1.1872 -0.2347
 3743SOL    HW222692   1.800   1.401   0.303 -0.3337 -1.8587  0.2037
 3744SOL     OW22693   4.356   2.479   2.817  0.3965  0.3798  0.1206
 3744SOL    HW122694   4.261   2.491   2.822  0.5035  1.2947  0.0979
 3744SOL    HW222695   4.372   2.385   2.819  3.6059  0.9232 -0.0447
 3745SOL     OW22696   4.647   3.463   8.366  0.3032 -0.2372  0.3454
 3745SOL    HW122697   4.723   3.483   8.421  0.8689 -0.2311 -0.4407
 3745SOL    HW222698   4.584   3.506   8.424 -1.7075 -1.9413 -0.5963
 3746SOL     OW22699   4.131   3.318   3.509  0.2244 -0.1379  0.2679
 3746SOL    HW122700   4.176   3.325   3.425  2.7201 -0.5407  1.5706
 3746SOL    HW222701   4.061   3.259   3.479 -0.2787  0.6488 -0.0892
 3747SOL     OW22702   3.168   4.326   0.814 -0.6400  0.1049  0.8440
 3747SOL    HW122703   3.257   4.331   0.778 -1.5673  0.2486 -1.4312
 3747SOL    HW222704   3.129   4.294   0.733  2.1311 -1.1271 -0.0006
 3748SOL     OW22705   3.191   3.790   3.760  0.4835  0.1067 -0.1676
 3748SOL    HW122706   3.142   3.708   3.755  0.5615  0.1245 -1.1196
 3748SOL    HW222707   3.254   3.779   3.689 -0.0171 -0.5142 -0.5112
 3749SOL     OW22708   1.416   4.181  12.297  0.4247 -0.3622 -0.2375
 3749SOL    HW122709   1.325   4.164  12.274  0.1408 -0.5943  1.0261
 3749SOL    HW222710   1.440   4.097  12.337  0.1407 -0.2922  0.0750
 3750SOL     OW22711   3.169   4.381  11.325 -0.6241  0.1637 -0.0807
 3750SOL    HW122712   3.152   4.294  11.361  0.6578  0.9750  2.4516
 3750SOL    HW222713   3.209   4.427  11.399  0.5763  0.1055 -0.6786
 3751SOL     OW22714   4.168   4.372  16.387  0.8839 -0.5667 -0.0115
 3751SOL    HW122715   4.169   4.443  16.323 -0.6064 -2.3739 -2.0262
 3751SOL    HW222716   4.260   4.361  16.411  0.2755 -1.3183  1.9826
 3752SOL     OW22717   3.049   2.833  13.725 -0.2227 -0.2902 -0.1069
 3752SOL    HW122718   2.988   2.855  13.654  1.2287 -0.2347 -1.3385
 3752SOL    HW222719   3.041   2.738  13.730  0.2627 -0.2888  0.7772
 3753SOL     OW22720   0.740   0.159  16.680  0.2748 -0.5786 -0.0081
 3753SOL    HW122721   0.800   0.146  16.608  2.6165  1.6275  1.5339
 3753SOL    HW222722   0.718   0.251  16.663 -0.6989 -0.6603  0.7919
 3754SOL     OW22723   1.986   4.507   3.241  0.4732 -0.0017 -0.0127
 3754SOL    HW122724   2.076   4.509   3.209  0.4549  0.4597 -0.0295
 3754SOL    HW222725   1.987   4.598   3.271  0.0459  0.3890 -1.1947
 3755SOL     OW22726   1.096   2.921   4.358  0.0500 -0.3579 -0.1327
 3755SOL    HW122727   1.145   2.969   4.291  0.0167  2.4389  1.8518
 3755SOL    HW222728   1.051   2.995   4.398  0.4100 -0.8319  1.1597
 3756SOL     OW22729   0.566   1.224  11.559 -0.5592 -0.0189  0.0727
 3756SOL    HW122730   0.486   1.216  11.507 -0.7408 -0.8089  0.4699
 3756SOL    HW222731   0.531   1.289  11.620  1.8673  1.0387  0.3180
 3757SOL     OW22732   4.368   1.384   8.668 -0.6124 -0.5112 -0.1732
 3757SOL    HW122733   4.381   1.419   8.756  0.3676 -2.5689  0.5144
 3757SOL    HW222734   4.441   1.409   8.612 -0.0574 -2.0508 -0.1438
 3758SOL     OW22735   2.610   0.308  13.224 -0.4340 -0.5133 -0.1273
 3758SOL    HW122736   2.625   0.306  13.129 -2.4003 -1.3095 -0.4162
 3758SOL    HW222737   2.604   0.400  13.250  0.9470 -0.5952  0.5000
 3759SOL     OW22738   0.954   1.911   0.963 -0.1249 -0.1867 -0.0673
 3759SOL    HW122739   0.911   1.948   0.886 -0.2369  2.4318  1.2502
 3759SOL    HW222740   0.934   1.819   0.947  0.3153 -0.1574 -0.7803
 3760SOL     OW22741   4.035   4.722   9.537  0.1080 -0.0050  0.0415
 3760SOL    HW122742   3.984   0.068   9.498  0.8980 -0.4299 -1.7587
 3760SOL    HW222743   4.121   0.040   9.532 -0.4937  1.1975 -0.0150
 3761SOL     OW22744   4.371   0.446   6.622 -0.1300 -0.1619  0.1717
 3761SOL    HW122745   4.314   0.519   6.647  0.5129  1.7263 -3.8548
 3761SOL    HW222746   4.307   0.392   6.576  0.9585 -0.0170 -1.5024
 3762SOL     OW22747   0.942   0.392   8.226  0.2121  0.5506 -0.0152
 3762SOL    HW122748   1.029   0.419   8.256  1.5730 -1.0290 -2.5696
 3762SOL    HW222749   0.965   0.313   8.177  0.1222  0.6019 -0.1407
 3763SOL     OW22750   1.908   1.107   1.062 -0.0917  0.1198 -0.2179
 3763SOL    HW122751   1.891   1.013   1.063 -1.9660  0.4571 -0.3824
 3763SOL    HW222752   1.852   1.141   1.132  1.4333  0.4629  0.8240
 3764SOL     OW22753   2.706   0.202  14.414  0.3195 -0.4811 -0.4185
 3764SOL    HW122754   2.688   0.186  14.506  0.2358  0.6419 -0.2364
 3764SOL    HW222755   2.705   0.298  14.419  1.0618 -0.4928 -0.1891
 3765SOL     OW22756   0.300   3.957   6.501 -0.4032 -0.1959  0.3842
 3765SOL    HW122757   0.242   3.899   6.549 -0.5640 -1.4581 -1.3167
 3765SOL    HW222758   0.339   3.999   6.577  0.6613 -0.6196  0.0770
 3766SOL     OW22759   0.833   4.511   2.117 -1.0318  0.8063 -0.4930
 3766SOL    HW122760   0.870   4.599   2.123  0.6349  0.0710 -0.0906
 3766SOL    HW222761   0.745   4.531   2.149 -1.6188 -0.1415 -1.4958
 3767SOL     OW22762   3.314   3.930   5.181 -0.2535  0.7304 -0.2019
 3767SOL    HW122763   3.358   3.848   5.161 -0.8054  0.3885 -0.0087
 3767SOL    HW222764   3.227   3.895   5.161  0.1098  0.1773 -0.7985
 3768SOL     OW22765   1.713   3.722   7.150 -0.2849  0.1016 -0.9382
 3768SOL    HW122766   1.666   3.639   7.154 -0.0237 -0.0994 -2.2098
 3768SOL    HW222767   1.688   3.746   7.061 -1.7448 -0.3449 -0.6582
 3769SOL     OW22768   0.212   0.057  13.785  0.1984  0.1776 -0.7259
 3769SOL    HW122769   0.199   0.092  13.873 -1.0596  1.7144 -1.5293
 3769SOL    HW222770   0.296   0.099  13.767 -0.0633  1.1298  0.3379
 3770SOL     OW22771   3.121   2.551   3.592 -0.6978  0.6384 -0.4969
 3770SOL    HW122772   3.056   2.610   3.554  1.4097  2.3598 -1.4325
 3770SOL    HW222773   3.151   2.589   3.674 -1.2778 -0.7642  0.3646
 3771SOL     OW22774   4.357   0.431  15.568 -0.7181  0.0441  0.3280
 3771SOL    HW122775   4.355   0.373  15.492 -0.5824 -0.7457  0.9272
 3771SOL    HW222776   4.287   0.392  15.620  0.0078  0.4616  1.6319
 3772SOL     OW22777   1.407   3.601   6.416 -0.2031 -0.2174  0.0939
 3772SOL    HW122778   1.371   3.632   6.333 -0.0701  2.3255  0.9691
 3772SOL    HW222779   1.498   3.581   6.392  0.2125  1.6416  0.0582
 3773SOL     OW22780   2.828   1.664   9.864  0.7659 -0.6148 -0.6667
 3773SOL    HW122781   2.753   1.724   9.858  2.0843  0.9997 -0.6675
 3773SOL    HW222782   2.900   1.721   9.840  1.4504 -1.1960  0.0274
 3774SOL     OW22783   3.560   3.820   9.625  0.1665  0.8214  0.0009
 3774SOL    HW122784   3.653   3.796   9.621 -1.0636 -3.8879 -0.6800
 3774SOL    HW222785   3.524   3.735   9.649  0.1073  1.5654  2.5968
 3775SOL     OW22786   2.533   2.157   6.243  0.0929 -0.5077  0.1561
 3775SOL    HW122787   2.572   2.128   6.161  0.6110 -0.9966  0.5756
 3775SOL    HW222788   2.503   2.073   6.277  0.9541 -1.5322 -1.6661
 3776SOL     OW22789   2.306   4.440  12.689 -0.2451 -0.0061 -0.5854
 3776SOL    HW122790   2.333   4.509  12.629  0.0529  0.8545  0.5289
 3776SOL    HW222791   2.216   4.467  12.707 -0.2063  0.4704 -1.0852
 3777SOL     OW22792   3.348   1.113   7.855 -0.0820 -0.1966  0.3411
 3777SOL    HW122793   3.305   1.082   7.935  0.6146 -0.1290  0.7482
 3777SOL    HW222794   3.355   1.041   7.792  2.4594 -0.6741  1.1506
 3778SOL     OW22795   1.242   4.162   7.375 -0.1748 -0.3520 -0.2711
 3778SOL    HW122796   1.300   4.201   7.439 -0.2219  1.9439 -1.6246
 3778SOL    HW222797   1.160   4.180   7.422 -0.7750 -1.6947 -0.7836
 3779SOL     OW22798   0.686   2.600   8.774  0.5270  0.2265 -0.0963
 3779SOL    HW122799   0.633   2.645   8.840  3.3227  1.0954  1.5543
 3779SOL    HW222800   0.716   2.676   8.725  0.8182  2.0761  2.9745
 3780SOL     OW22801   2.292   4.584   8.436 -0.4677 -0.6568 -0.1576
 3780SOL    HW122802   2.322   4.671   8.460 -1.1209 -0.4024 -0.2781
 3780SOL    HW222803   2.364   4.524   8.458 -0.7420 -0.1765  2.0303
 3781SOL     OW22804   1.466   2.822   4.231 -0.4169  0.3859 -0.5659
 3781SOL    HW122805   1.389   2.765   4.237  1.8677 -2.7091 -0.2917
 3781SOL    HW222806   1.526   2.758   4.193 -0.4561  0.1656 -0.2533
 3782SOL     OW22807   2.209   1.580  15.631 -0.3175 -0.0558 -0.1838
 3782SOL    HW122808   2.121   1.553  15.656 -0.5325 -2.0682 -3.2272
 3782SOL    HW222809   2.249   1.494  15.646  0.2787  0.2580  0.0521
 3783SOL     OW22810   0.566   4.247   3.438  0.4438  0.0916  0.4379
 3783SOL    HW122811   0.474   4.250   3.411 -0.0951 -0.1193  2.2751
 3783SOL    HW222812   0.563   4.307   3.512 -0.5224  0.5454  0.0300
 3784SOL     OW22813   3.349   2.846   2.993 -0.4333  0.0158 -0.2668
 3784SOL    HW122814   3.264   2.810   3.021  0.1942 -1.5306 -0.3377
 3784SOL    HW222815   3.353   2.825   2.899 -2.2679 -0.1645 -0.3205
 3785SOL     OW22816   1.470   4.084   4.955  0.6723 -0.0274  0.3358
 3785SOL    HW122817   1.542   4.146   4.942  0.5588  0.5492  2.3916
 3785SOL    HW222818   1.414   4.144   5.006 -0.8908 -2.5225  1.5448
 3786SOL     OW22819   0.410   0.036   5.065 -0.2631  0.0942 -0.8169
 3786SOL    HW122820   0.463   0.097   5.014  0.6680  0.1031  0.1467
 3786SOL    HW222821   0.335   0.042   5.007 -0.8737 -0.2303 -0.0608
 3787SOL     OW22822   2.119   0.197   6.899  0.0553  0.5314 -0.3696
 3787SOL    HW122823   2.083   0.197   6.811 -2.7200 -0.9287  0.7497
 3787SOL    HW222824   2.198   0.250   6.886 -0.1385  1.2672  1.3501
 3788SOL     OW22825   0.294   2.724  15.157  0.5575 -0.4791  0.2859
 3788SOL    HW122826   0.342   2.797  15.196 -0.8143  1.1789 -1.1475
 3788SOL    HW222827   0.307   2.746  15.065 -1.2226 -0.8235 -0.0390
 3789SOL     OW22828   2.259   2.658   3.205  0.1917 -0.6676  0.6872
 3789SOL    HW122829   2.355   2.656   3.209  0.1696  0.5240  1.7160
 3789SOL    HW222830   2.242   2.595   3.135  0.7440 -1.9614  1.7297
 3790SOL     OW22831   2.669   3.022  11.560  0.6981  0.4734  0.0835
 3790SOL    HW122832   2.640   3.088  11.622  3.4328  1.2463  0.5262
 3790SOL    HW222833   2.610   2.947  11.568  0.7053  0.5282  0.6235
 3791SOL     OW22834   0.530   0.849  11.059 -0.3424 -0.6415 -0.5087
 3791SOL    HW122835   0.538   0.795  11.138  1.5839  1.3146  0.6577
 3791SOL    HW222836   0.617   0.884  11.037 -0.3234  0.5368  1.3978
 3792SOL     OW22837   4.685   1.537   6.701  0.1735 -0.0654  0.1821
 3792SOL    HW122838   4.650   1.508   6.785  2.3180 -1.3171  0.6526
 3792SOL    HW222839   4.642   1.473   6.645 -1.7986 -0.3843  2.0732
 3793SOL     OW22840   0.059   0.616   6.340 -0.3834  0.0712  0.0964
 3793SOL    HW122841   0.099   0.688   6.389 -0.0323 -0.4545  0.5840
 3793SOL    HW222842   0.059   0.643   6.248  0.7603  2.2977  0.7471
 3794SOL     OW22843   4.353   1.544   7.854  0.1305 -0.1406 -0.6818
 3794SOL    HW122844   4.390   1.510   7.935  2.0556  1.0365 -1.0702
 3794SOL    HW222845   4.400   1.492   7.790 -0.4009 -1.5695  0.1024
 3795SOL     OW22846   0.818   3.578   2.610  0.1853  0.6815  0.0330
 3795SOL    HW122847   0.796   3.586   2.703 -1.9075 -0.2588 -0.3657
 3795SOL    HW222848   0.820   3.482   2.612  0.7873  0.7236  1.2563
 3796SOL     OW22849   0.361   4.484   7.384  0.5583  0.3443  0.4624
 3796SOL    HW122850   0.352   4.517   7.295 -3.2162 -1.5516  0.1390
 3796SOL    HW222851   0.456   4.471   7.378  0.2749 -1.0919 -0.8767
 3797SOL     OW22852   0.736   1.207   1.038  0.4330  0.1938 -0.6774
 3797SOL    HW122853   0.739   1.161   0.954 -0.0838  1.5280 -1.4186
 3797SOL    HW222854   0.696   1.291   1.015 -2.0939 -0.7530  0.1318
 3798SOL     OW22855   2.212   4.572   3.091 -0.0696  0.4902  0.0349
 3798SOL    HW122856   2.179   4.493   3.049  2.7091 -0.3029 -0.6698
 3798SOL    HW222857   2.290   4.586   3.037 -0.5637  1.8431 -0.3252
 3799SOL     OW22858   2.278   3.155  10.174  0.0609 -0.2260  0.2385
 3799SOL    HW122859   2.267   3.169  10.269 -2.9081 -1.2172  0.0641
 3799SOL    HW222860   2.263   3.061  10.172 -2.2152  0.1012  1.6780
 3800SOL     OW22861   0.484   1.254  12.664  0.2538 -0.2367  0.1137
 3800SOL    HW122862   0.443   1.193  12.725 -0.8691  0.3618 -0.0522
 3800SOL    HW222863   0.549   1.201  12.616  2.4602 -0.2312  3.0612
 3801SOL     OW22864   3.123   2.857  15.779  0.4173  0.1239 -0.2055
 3801SOL    HW122865   3.155   2.926  15.720 -0.7658  0.2198 -0.7375
 3801SOL    HW222866   3.092   2.794  15.713  2.0862 -1.4735  0.5288
 3802SOL     OW22867   1.635   1.582   2.637  0.7236  0.0404 -0.3314
 3802SOL    HW122868   1.698   1.600   2.568  0.5976  1.2500 -0.1357
 3802SOL    HW222869   1.628   1.487   2.632  0.9191 -0.0659  1.3635
 3803SOL     OW22870   1.117   2.097   0.723 -0.2419  0.1164 -0.4246
 3803SOL    HW122871   1.026   2.085   0.751 -0.7389  0.9644 -1.6635
 3803SOL    HW222872   1.135   2.183   0.763 -1.5660 -0.3461  1.1662
 3804SOL     OW22873   2.530   3.653  16.195  0.5270 -0.0639  0.3796
 3804SOL    HW122874   2.553   3.571  16.238 -0.3428  0.1493  1.2556
 3804SOL    HW222875   2.608   3.707  16.203  0.5615 -0.1154  0.3908
 3805SOL     OW22876   4.516   0.375   7.811  0.2557  0.1127 -0.2831
 3805SOL    HW122877   4.577   0.450   7.814 -0.4638  0.6112  1.5942
 3805SOL    HW222878   4.433   0.422   7.806  0.2617  0.3629  2.3384
 3806SOL     OW22879   3.777   2.608  16.842  0.1077  0.1053  0.1614
 3806SOL    HW122880   3.748   2.642  16.758  1.1584  0.6411  0.0052
 3806SOL    HW222881   3.787   2.694  16.884  1.0490 -0.5556  1.3069
 3807SOL     OW22882   2.589   3.345  16.029  0.4487  0.2191  0.1771
 3807SOL    HW122883   2.522   3.355  15.961 -0.0271  0.6751  0.7068
 3807SOL    HW222884   2.645   3.422  16.017  1.0950 -0.1232  1.0206
 3808SOL     OW22885   4.327   0.163  17.119 -0.4270 -0.6580  0.3731
 3808SOL    HW122886   4.312   0.187  17.211  0.2265  2.2493 -0.2794
 3808SOL    HW222887   4.349   0.070  17.126  0.6176 -0.5375 -1.4631
 3809SOL     OW22888   2.682   4.265   7.904  0.6984 -0.2426 -0.6293
 3809SOL    HW122889   2.650   4.284   7.993  0.2960  2.3597 -1.3253
 3809SOL    HW222890   2.599   4.291   7.864  0.4589 -0.3674 -0.2121
 3810SOL     OW22891   1.696   0.527  15.226  0.5544  0.3271 -0.0925
 3810SOL    HW122892   1.685   0.530  15.321  1.1413  1.2537 -0.0523
 3810SOL    HW222893   1.740   0.444  15.209 -2.1685 -1.2588  0.6850
 3811SOL     OW22894   4.450   2.209   9.809 -0.4756  0.1551 -0.2085
 3811SOL    HW122895   4.486   2.128   9.774  0.0115 -0.3466  1.4772
 3811SOL    HW222896   4.356   2.204   9.795 -0.4330 -2.5424  0.6063
 3812SOL     OW22897   1.121   1.321   7.751  0.9936  0.8006  0.3452
 3812SOL    HW122898   1.066   1.379   7.804 -0.7740 -1.4162  0.9156
 3812SOL    HW222899   1.151   1.254   7.812  3.1041  1.0168 -0.4581
 3813SOL     OW22900   0.015   3.770   2.819  0.5382 -0.1344 -0.4213
 3813SOL    HW122901   0.040   3.755   2.910  0.6468 -1.2359 -0.6355
 3813SOL    HW222902   0.028   3.686   2.776 -3.3308 -1.2835  0.6559
 3814SOL     OW22903   0.478   3.941   3.774 -0.7375  0.1766  0.4931
 3814SOL    HW122904   0.565   3.971   3.747 -0.4569 -0.0858  1.1118
 3814SOL    HW222905   0.456   4.010   3.836  0.5018 -1.0475  2.3100
 3815SOL     OW22906   4.197   0.964  15.876 -0.0625  0.2308  0.1645
 3815SOL    HW122907   4.161   0.965  15.965 -0.5956 -0.6963 -0.0465
 3815SOL    HW222908   4.200   1.057  15.854 -1.3679  0.5253  1.1611
 3816SOL     OW22909   1.151   1.213   4.374  0.8520  0.0893  0.0578
 3816SOL    HW122910   1.060   1.220   4.347  0.0256 -0.4692  2.7010
 3816SOL    HW222911   1.178   1.127   4.341 -1.1526 -0.3258 -0.4833
 3817SOL     OW22912   4.540   0.845   8.375 -0.1485 -0.5599  0.2421
 3817SOL    HW122913   4.559   0.903   8.449  1.1999  1.2039 -1.4825
 3817SOL    HW222914   4.603   0.775   8.390  0.9675 -0.0960 -2.1405
 3818SOL     OW22915   2.513   2.820  13.098  0.2040  0.6188 -0.1903
 3818SOL    HW122916   2.454   2.747  13.116  2.8045 -1.4067  0.2313
 3818SOL    HW222917   2.493   2.843  13.007 -0.8803  1.7651  0.3552
 3819SOL     OW22918   1.278   1.376  10.574  0.0040  0.0592 -0.4318
 3819SOL    HW122919   1.344   1.356  10.641 -0.8765  0.2901  0.5030
 3819SOL    HW222920   1.335   1.364  10.498  0.8968  1.7649 -0.0337
 3820SOL     OW22921   0.689   1.360  10.315  0.1910 -0.3684  0.6141
 3820SOL    HW122922   0.613   1.413  10.337  1.2779  0.9411  1.2338
 3820SOL    HW222923   0.668   1.276  10.355  1.5671 -1.2151 -0.4452
 3821SOL     OW22924   4.064   4.514  15.273  0.0027 -0.5045 -0.5055
 3821SOL    HW122925   3.999   4.473  15.331 -0.2479 -0.0735 -0.4841
 3821SOL    HW222926   4.032   4.604  15.279 -1.6871 -1.1723  0.4835
 3822SOL     OW22927   1.707   0.847   7.610 -0.3233  0.1015 -0.2301
 3822SOL    HW122928   1.660   0.890   7.538  1.4690  1.3711 -0.6283
 3822SOL    HW222929   1.781   0.908   7.611  1.1243 -1.6454 -1.5262
 3823SOL     OW22930   4.358   3.926  14.897 -0.1002  0.3420 -0.5130
 3823SOL    HW122931   4.321   4.006  14.934  0.0020 -0.7757  2.0160
 3823SOL    HW222932   4.358   3.939  14.803  2.7905 -1.1349 -0.7371
 3824SOL     OW22933   3.441   1.709   1.945  0.0059 -0.0805 -0.3817
 3824SOL    HW122934   3.491   1.628   1.957  0.4302  0.6010  2.2975
 3824SOL    HW222935   3.354   1.678   1.922  0.7578 -0.1637 -3.1983
 3825SOL     OW22936   1.304   1.119   5.185  0.3917  0.4253  0.4198
 3825SOL    HW122937   1.246   1.042   5.188 -1.0194  1.4366 -0.7157
 3825SOL    HW222938   1.311   1.140   5.092  1.7421 -0.9840  0.2097
 3826SOL     OW22939   3.521   1.745   7.823 -0.1193  0.2337  0.3354
 3826SOL    HW122940   3.546   1.664   7.779 -0.7818  0.0146  0.3759
 3826SOL    HW222941   3.447   1.720   7.877 -0.4065 -1.5976 -0.9022
 3827SOL     OW22942   3.306   1.705   2.420 -0.1612  0.1273 -0.2878
 3827SOL    HW122943   3.309   1.622   2.373 -1.8234  0.2447 -0.6276
 3827SOL    HW222944   3.366   1.751   2.361 -1.7017 -0.1003 -2.0352
 3828SOL     OW22945   3.887   3.248  12.220  0.5561 -0.5950 -0.4915
 3828SOL    HW122946   3.927   3.180  12.274  1.6692 -0.2191 -0.8530
 3828SOL    HW222947   3.873   3.311  12.291 -0.0430  0.7564 -1.8082
 3829SOL     OW22948   4.701   0.435  15.694 -0.1620 -0.3651  0.2066
 3829SOL    HW122949   0.004   0.499  15.759  0.3728 -1.5311  1.1336
 3829SOL    HW222950   0.000   0.349  15.730  0.2641 -0.8080 -1.1260
 3830SOL     OW22951   3.702   4.515   4.464  0.2091 -0.3163  0.1340
 3830SOL    HW122952   3.645   4.591   4.459  0.6635 -0.0193 -0.6773
 3830SOL    HW222953   3.641   4.446   4.488  1.5514 -0.9263  1.7971
 3831SOL     OW22954   1.405   4.272  14.200  0.0500 -0.1783 -0.6796
 3831SOL    HW122955   1.473   4.247  14.139 -0.0009 -3.7233  0.7266
 3831SOL    HW222956   1.454   4.298  14.278  1.8924 -0.0820 -1.8900
 3832SOL     OW22957   4.092   2.015   4.838  0.1351 -0.3299 -0.4487
 3832SOL    HW122958   4.150   2.090   4.824  2.9866 -2.2827  0.7293
 3832SOL    HW222959   4.036   2.016   4.760  2.0669 -2.8158 -1.9232
 3833SOL     OW22960   1.451   2.594   4.048 -0.2511 -0.3266 -0.0289
 3833SOL    HW122961   1.410   2.560   3.968 -0.2808 -0.9854  0.2674
 3833SOL    HW222962   1.431   2.524   4.110 -0.6721 -1.4333 -1.3856
 3834SOL     OW22963   3.941   3.795   0.755 -0.2780  0.1578 -0.4328
 3834SOL    HW122964   3.867   3.834   0.708  0.5868  2.1373 -0.1579
 3834SOL    HW222965   3.903   3.734   0.818  0.5485  0.2479  0.1565
 3835SOL     OW22966   1.804   4.721  17.189  0.1924  0.3641  0.1426
 3835SOL    HW122967   1.842   4.635  17.171 -1.0938 -0.0238 -0.7233
 3835SOL    HW222968   1.719   4.715  17.145  1.4447  1.3655 -2.3865
 3836SOL     OW22969   2.446   2.697   5.954  0.9023 -0.2467 -0.2075
 3836SOL    HW122970   2.466   2.678   6.046  3.9853  0.4407 -0.7302
 3836SOL    HW222971   2.385   2.769   5.966  0.6099 -0.4625 -0.4246
 3837SOL     OW22972   2.288   0.331   7.268 -0.5721  0.3953  0.1783
 3837SOL    HW122973   2.233   0.409   7.275 -0.7260  0.4006 -1.0377
 3837SOL    HW222974   2.378   0.359   7.249 -0.3352 -0.2176  0.3807
 3838SOL     OW22975   0.512   0.723   7.401  0.2296 -0.1891  0.3834
 3838SOL    HW122976   0.532   0.799   7.346  0.3626  2.1215  3.6372
 3838SOL    HW222977   0.539   0.650   7.346 -0.1516 -0.0118 -0.0366
 3839SOL     OW22978   2.524   0.979  11.775  0.4461  0.3056 -0.1983
 3839SOL    HW122979   2.538   0.887  11.750  0.5312 -0.3631  2.2767
 3839SOL    HW222980   2.454   1.008  11.717  0.9094  1.5829 -0.1034
 3840SOL     OW22981   1.220   0.976   4.127 -0.2080 -0.2243 -0.0343
 3840SOL    HW122982   1.161   1.032   4.077 -0.3141 -1.5357 -1.3882
 3840SOL    HW222983   1.303   1.023   4.131 -0.0960 -0.5079  0.8707
 3841SOL     OW22984   3.798   0.971   1.790 -0.0875 -0.3727  0.0630
 3841SOL    HW122985   3.810   1.065   1.783 -0.6121 -0.4158 -1.4158
 3841SOL    HW222986   3.753   0.955   1.707 -1.0346  0.7224  0.3634
 3842SOL     OW22987   3.058   0.501   2.868 -0.1100  0.2747 -0.0283
 3842SOL    HW122988   3.106   0.439   2.923 -0.0737  0.8481  0.5854
 3842SOL    HW222989   3.130   0.561   2.848  0.6131 -0.7661 -0.5191
 3843SOL     OW22990   3.143   1.820   7.852  0.1144 -0.0428 -0.5705
 3843SOL    HW122991   3.217   1.760   7.857 -0.1008 -0.3222 -0.7424
 3843SOL    HW222992   3.092   1.778   7.921 -1.0074  0.8171 -0.8812
 3844SOL     OW22993   2.073   3.304   8.144  0.3450  0.0248  0.3755
 3844SOL    HW122994   2.081   3.209   8.152  0.1426  0.0909  1.4228
 3844SOL    HW222995   2.044   3.310   8.053  1.5047  0.5857  0.0391
 3845SOL     OW22996   0.293   1.239   2.679  0.8443  0.1120  0.9079
 3845SOL    HW122997   0.213   1.279   2.646  0.3593 -0.7822  1.0059
 3845SOL    HW222998   0.352   1.300   2.635  2.1571 -1.2805  0.7321
 3846SOL     OW22999   2.003   2.012   3.129  0.1463  0.1891  0.1387
 3846SOL    HW123000   1.949   2.043   3.056  0.1659 -2.1325 -0.8699
 3846SOL    HW223001   2.086   1.994   3.086 -0.6359 -0.8481 -0.9323
 3847SOL     OW23002   0.925   2.959   0.254 -0.3948  0.1812 -0.5566
 3847SOL    HW123003   0.865   2.885   0.248  2.1556 -1.9780  0.7262
 3847SOL    HW223004   0.938   2.976   0.348  2.5444  1.2380 -1.1553
 3848SOL     OW23005   3.843   1.914  15.497 -0.1734  0.9138 -0.0232
 3848SOL    HW123006   3.766   1.965  15.471 -0.7187  0.3791  0.5436
 3848SOL    HW223007   3.832   1.912  15.592 -0.6897 -0.0463 -0.1088
 3849SOL     OW23008   0.694   0.747   1.856  0.5049  0.0916  0.0024
 3849SOL    HW123009   0.716   0.719   1.945 -3.4355 -0.5877  0.7590
 3849SOL    HW223010   0.709   0.842   1.862 -0.6091  0.1631  1.7099
 3850SOL     OW23011   3.471   2.099   3.075 -0.0671 -0.4684 -0.5177
 3850SOL    HW123012   3.508   2.013   3.054 -1.3575 -0.8403 -1.2703
 3850SOL    HW223013   3.432   2.109   2.988 -2.7661  3.8149  1.1840
 3851SOL     OW23014   0.186   4.460  15.771  0.2887 -0.3922  0.4515
 3851SOL    HW123015   0.216   4.542  15.811  1.7482 -0.6377 -0.1275
 3851SOL    HW223016   0.164   4.407  15.847 -3.3157  1.4257  0.6699
 3852SOL     OW23017   2.662   3.988   4.933  0.4869  0.3157 -0.1457
 3852SOL    HW123018   2.726   3.981   5.004 -0.5359 -2.1761  0.5158
 3852SOL    HW223019   2.604   3.916   4.958 -0.8815  1.0179 -1.3310
 3853SOL     OW23020   2.310   4.590   5.609 -0.3123  0.8299 -0.0416
 3853SOL    HW123021   2.228   4.601   5.658  0.3776  2.1499  0.8183
 3853SOL    HW223022   2.379   4.582   5.675  0.0942 -0.0998 -0.5819
 3854SOL     OW23023   2.162   1.073   6.526 -0.7057  0.3365  0.0858
 3854SOL    HW123024   2.095   1.136   6.498 -1.5692 -0.6467 -0.0441
 3854SOL    HW223025   2.168   1.010   6.455  0.1876  0.9029 -0.3388
 3855SOL     OW23026   0.205   2.470   8.277  0.0735 -0.2140 -0.4745
 3855SOL    HW123027   0.175   2.532   8.210 -2.2715 -0.0820  0.7110
 3855SOL    HW223028   0.225   2.396   8.220  0.1157  0.7207 -1.6635
 3856SOL     OW23029   4.367   4.375   0.331  0.7553 -0.3733  0.1702
 3856SOL    HW123030   4.366   4.335   0.244  2.0472 -0.2815  0.1129
 3856SOL    HW223031   4.448   4.338   0.365  0.7578 -0.6778 -0.1710
 3857SOL     OW23032   3.473   1.409   2.762 -0.0515  0.0437 -0.2210
 3857SOL    HW123033   3.494   1.454   2.680  0.9149 -0.6669 -0.3699
 3857SOL    HW223034   3.388   1.449   2.775 -1.7898 -3.3843 -0.8557
 3858SOL     OW23035   0.280   3.447  13.950  0.2259  0.2694 -0.1318
 3858SOL    HW123036   0.192   3.422  13.979  0.4589 -0.9501 -0.4676
 3858SOL    HW223037   0.317   3.493  14.026 -1.3348  0.8693  0.2674
 3859SOL     OW23038   1.206   3.140  14.835  0.0923 -0.2159  0.0177
 3859SOL    HW123039   1.233   3.123  14.745 -1.7050  0.2182 -0.6153
 3859SOL    HW223040   1.181   3.059  14.880 -1.2570 -0.9388 -2.0303
 3860SOL     OW23041   0.349   4.441   8.419  0.2019  0.2237  0.1272
 3860SOL    HW123042   0.288   4.514   8.428 -1.6331 -1.2171 -0.7824
 3860SOL    HW223043   0.303   4.358   8.433  0.7950 -0.1428 -0.1196
 3861SOL     OW23044   4.172   1.860   4.549 -0.2753 -0.1946 -0.0704
 3861SOL    HW123045   4.133   1.809   4.620 -0.2136 -1.1790 -0.7433
 3861SOL    HW223046   4.255   1.816   4.535 -0.9961 -1.8729  0.9033
 3862SOL     OW23047   3.056   1.853   2.200  0.0020 -0.2525 -0.1215
 3862SOL    HW123048   3.111   1.786   2.160  0.4482  0.4919 -0.7731
 3862SOL    HW223049   2.986   1.796   2.231 -0.7209  0.4742 -0.4202
 3863SOL     OW23050   2.084   3.550   4.017  0.3437  0.3453 -0.0538
 3863SOL    HW123051   2.005   3.573   4.065 -1.0887 -2.2319 -1.1877
 3863SOL    HW223052   2.059   3.558   3.925 -0.6051  1.4927  0.3054
 3864SOL     OW23053   4.061   1.891  13.526 -0.4359  0.2073 -0.8023
 3864SOL    HW123054   4.133   1.937  13.482  0.2329  0.1223  0.1892
 3864SOL    HW223055   4.014   1.969  13.554 -0.4208 -0.4989  1.1857
 3865SOL     OW23056   1.174   1.342   4.105 -0.2288 -0.1585  0.2578
 3865SOL    HW123057   1.192   1.348   4.199 -0.4944 -0.3886  0.3258
 3865SOL    HW223058   1.153   1.431   4.077 -0.5420 -0.1183  0.6271
 3866SOL     OW23059   4.389   3.823   8.815  0.4779  0.1388  0.2461
 3866SOL    HW123060   4.325   3.811   8.886 -0.8531  2.0725 -0.6162
 3866SOL    HW223061   4.465   3.773   8.845  0.7504  0.3569 -0.0938
 3867SOL     OW23062   1.018   0.877   3.283  0.0017  0.2493 -0.1638
 3867SOL    HW123063   0.923   0.868   3.281  0.1522 -1.2756 -0.9355
 3867SOL    HW223064   1.039   0.831   3.201 -0.6760 -2.0118  0.9252
 3868SOL     OW23065   2.704   1.472   1.555 -0.1791  0.0285 -0.4082
 3868SOL    HW123066   2.725   1.497   1.465 -1.9719  0.1874 -0.7768
 3868SOL    HW223067   2.608   1.473   1.555 -0.1488  2.1329  0.3606
 3869SOL     OW23068   1.664   0.695   7.341  0.2199  0.1422 -0.6199
 3869SOL    HW123069   1.634   0.760   7.277  0.1595 -0.5022 -1.2437
 3869SOL    HW223070   1.756   0.723   7.336  1.4020 -3.3334  2.6740
 3870SOL     OW23071   1.821   0.575  13.762  0.9848  0.3342  0.3413
 3870SOL    HW123072   1.909   0.596  13.793  1.4700 -3.4112  1.5331
 3870SOL    HW223073   1.825   0.480  13.772 -2.0904  0.2244  0.4079
 3871SOL     OW23074   3.176   1.273   6.414  0.0311  0.0987 -0.1193
 3871SOL    HW123075   3.257   1.230   6.386 -0.4186 -0.2590 -0.8504
 3871SOL    HW223076   3.123   1.289   6.336  0.2559 -4.3261 -1.1746
 3872SOL     OW23077   1.189   0.541  11.891 -0.0567 -0.3987 -0.8884
 3872SOL    HW123078   1.163   0.531  11.983  1.2295  0.9438 -0.3564
 3872SOL    HW223079   1.233   0.457  11.886  0.3958 -0.2153 -0.0803
 3873SOL     OW23080   3.333   1.096   4.512 -0.1234 -0.0995  0.2590
 3873SOL    HW123081   3.321   1.183   4.474  1.1498 -0.1621 -0.2765
 3873SOL    HW223082   3.347   1.046   4.432  1.6548 -0.2175  0.6418
 3874SOL     OW23083   0.352   1.931   7.471 -0.2176  0.0225 -0.1612
 3874SOL    HW123084   0.431   1.942   7.418 -0.3288  0.6490 -0.1904
 3874SOL    HW223085   0.316   1.847   7.439  0.8252  0.5452 -2.7053
 3875SOL     OW23086   3.294   0.718   8.471  0.3930 -0.4568  0.5326
 3875SOL    HW123087   3.254   0.644   8.425 -0.9536  0.5902  0.0015
 3875SOL    HW223088   3.371   0.744   8.421  1.0565 -2.9890  0.2196
 3876SOL     OW23089   4.413   1.743   8.608 -0.3319 -0.1284  0.2862
 3876SOL    HW123090   4.372   1.718   8.690 -1.6237  1.7073  0.2061
 3876SOL    HW223091   4.504   1.743   8.638 -0.8555  0.2533  1.8687
 3877SOL     OW23092   1.187   2.132   8.737 -0.6685 -0.2962 -0.0100
 3877SOL    HW123093   1.229   2.062   8.788  1.1005  4.3168  4.8891
 3877SOL    HW223094   1.166   2.086   8.656 -0.3515  0.3653 -0.4650
 3878SOL     OW23095   1.413   1.575   9.049 -0.6139 -0.1986  0.2543
 3878SOL    HW123096   1.393   1.656   9.096 -3.3459 -1.6681  1.5906
 3878SOL    HW223097   1.505   1.562   9.026 -1.0386  1.6331 -2.5071
 3879SOL     OW23098   1.537   1.951  13.371 -0.2903  0.0981  0.1909
 3879SOL    HW123099   1.583   1.895  13.308 -0.0646 -0.0686  0.5071
 3879SOL    HW223100   1.445   1.939  13.347 -0.3126 -0.6249  0.6460
 3880SOL     OW23101   3.023   1.592   5.453 -0.4724  0.4296  0.2350
 3880SOL    HW123102   2.952   1.624   5.509  0.5209 -0.2030  1.8479
 3880SOL    HW223103   3.043   1.666   5.395  0.4529 -0.3246 -0.3978
 3881SOL     OW23104   1.251   0.822   5.506  0.7180  0.6332 -0.4454
 3881SOL    HW123105   1.302   0.839   5.427  1.9657  2.3436  0.7222
 3881SOL    HW223106   1.168   0.842   5.463  1.0068  1.4360 -0.6354
 3882SOL     OW23107   0.637   3.980  12.670  0.1711 -0.1243  0.5509
 3882SOL    HW123108   0.672   4.067  12.651 -1.2824  0.2089 -0.6357
 3882SOL    HW223109   0.546   3.993  12.643  0.6309  1.7512 -0.1466
 3883SOL     OW23110   2.676   1.498   6.229 -0.3163 -0.1504  0.1616
 3883SOL    HW123111   2.664   1.531   6.318  0.1040  0.9469 -0.1865
 3883SOL    HW223112   2.588   1.514   6.195  0.7297  2.9983 -1.0670
 3884SOL     OW23113   2.501   4.108   4.446  0.2898  0.6228  0.7918
 3884SOL    HW123114   2.540   4.195   4.436 -0.3073  1.0181  1.8174
 3884SOL    HW223115   2.420   4.140   4.486 -0.8483 -1.6519  0.3085
 3885SOL     OW23116   1.480   3.552   4.239  0.0524 -0.1761  0.4311
 3885SOL    HW123117   1.572   3.557   4.264  0.3945 -0.6753 -0.6798
 3885SOL    HW223118   1.485   3.484   4.172  1.9156 -2.1198  2.5456
 3886SOL     OW23119   1.574   1.803  12.756 -0.3122  0.1671 -0.2700
 3886SOL    HW123120   1.495   1.751  12.771  0.0604 -0.3635 -0.1852
 3886SOL    HW223121   1.590   1.761  12.671  2.0902  0.1709  0.1920
 3887SOL     OW23122   1.669   4.401   1.537  0.1118 -0.4150  0.0567
 3887SOL    HW123123   1.627   4.487   1.531 -2.6671 -1.8287 -1.1768
 3887SOL    HW223124   1.668   4.378   1.444  1.8871  1.8192 -0.4888
 3888SOL     OW23125   1.810   2.435   6.861  0.1514  0.3113  0.0935
 3888SOL    HW123126   1.787   2.476   6.944 -0.6968  0.7586 -0.3692
 3888SOL    HW223127   1.724   2.423   6.821  0.7644 -0.1521 -1.0723
 3889SOL     OW23128   1.747   3.545  13.617 -0.3381  0.3257 -0.3486
 3889SOL    HW123129   1.775   3.454  13.625 -3.0789 -0.3759  1.2764
 3889SOL    HW223130   1.793   3.599  13.681  3.4736 -2.1041 -1.0723
 3890SOL     OW23131   2.057   3.714   3.607  0.2907  0.2432 -0.6892
 3890SOL    HW123132   2.014   3.688   3.525 -1.3722  0.6753  0.0393
 3890SOL    HW223133   2.140   3.731   3.563 -0.2516 -1.8961 -2.5612
 3891SOL     OW23134   1.444   2.305   4.688 -0.2914 -0.5558 -0.4332
 3891SOL    HW123135   1.406   2.328   4.773  1.3671 -3.6093  1.1023
 3891SOL    HW223136   1.450   2.393   4.650  0.1103  0.3663  1.7982
 3892SOL     OW23137   0.764   4.330  11.394 -0.6064  0.5840  0.2496
 3892SOL    HW123138   0.715   4.359  11.317 -0.1570  2.1960  0.5724
 3892SOL    HW223139   0.843   4.295  11.352  0.9069  1.5704  2.2751
 3893SOL     OW23140   3.669   2.882  16.396  1.0068  0.7720 -0.2356
 3893SOL    HW123141   3.721   2.849  16.323  0.4494 -0.2578 -0.1694
 3893SOL    HW223142   3.704   2.971  16.405  2.1195  0.3093 -0.0833
 3894SOL     OW23143   1.156   0.268   8.577  0.1520  0.1925  0.0645
 3894SOL    HW123144   1.192   0.185   8.610 -0.2961 -1.1642 -2.8722
 3894SOL    HW223145   1.063   0.254   8.591 -0.4636  3.8163 -0.4200
 3895SOL     OW23146   1.555   3.080   6.282  0.1234  0.1903  0.3105
 3895SOL    HW123147   1.460   3.070   6.270 -0.0678  1.8524  0.4927
 3895SOL    HW223148   1.571   3.046   6.370 -0.7783 -1.8981 -0.3199
 3896SOL     OW23149   0.512   0.162   9.217  0.0717  0.3394 -0.2129
 3896SOL    HW123150   0.529   0.250   9.183  0.2384  0.0371 -0.9017
 3896SOL    HW223151   0.502   0.097   9.148 -0.6650 -0.8097  0.9688
 3897SOL     OW23152   2.342   3.727   8.423 -0.2852 -0.3756  0.0070
 3897SOL    HW123153   2.303   3.693   8.504  2.3745 -0.8503  1.1002
 3897SOL    HW223154   2.354   3.818   8.450  0.6174 -1.3214  2.7916
 3898SOL     OW23155   3.474   4.069  15.366 -0.5568 -0.2728 -0.2322
 3898SOL    HW123156   3.526   4.014  15.308  1.4795  1.7712 -0.3428
 3898SOL    HW223157   3.390   4.063  15.321  0.2817  0.6466 -1.9357
 3899SOL     OW23158   0.342   0.122   1.896  0.4797  0.2020  0.4784
 3899SOL    HW123159   0.367   0.206   1.934  0.3810  0.4622 -0.0284
 3899SOL    HW223160   0.330   0.141   1.803  2.3400 -1.1250 -0.0242
 3900SOL     OW23161   3.302   1.664  12.884  0.4004  0.4587  0.2984
 3900SOL    HW123162   3.291   1.751  12.845 -0.2393  0.8463  1.3475
 3900SOL    HW223163   3.352   1.678  12.964 -0.9549 -1.9013  1.5701
 3901SOL     OW23164   0.816   3.860   9.434  0.9943 -0.4537 -0.7324
 3901SOL    HW123165   0.741   3.822   9.388 -0.2142  0.2989  0.6248
 3901SOL    HW223166   0.819   3.800   9.508 -0.6734  0.9496  0.4855
 3902SOL     OW23167   4.426   4.035   7.081  0.2166 -0.4329 -0.1959
 3902SOL    HW123168   4.416   3.977   7.005  0.7285 -1.0043  0.1716
 3902SOL    HW223169   4.522   4.035   7.086  0.1799 -3.7881  0.3508
 3903SOL     OW23170   1.528   2.589  14.966  0.2154 -0.4251 -0.0616
 3903SOL    HW123171   1.599   2.646  14.937  0.3194 -0.0147  0.9879
 3903SOL    HW223172   1.580   2.533  15.024 -2.8388 -2.6361  0.5727
 3904SOL     OW23173   2.302   0.022   6.167  0.3052 -0.6961 -0.0873
 3904SOL    HW123174   2.327   4.655   6.162 -0.6975 -0.8910 -1.4247
 3904SOL    HW223175   2.387   0.060   6.187  0.6692  0.5851 -4.0711
 3905SOL     OW23176   4.467   1.510  10.324  0.3068 -0.3195 -0.1443
 3905SOL    HW123177   4.462   1.569  10.399 -0.3073 -1.9282  1.0844
 3905SOL    HW223178   4.555   1.475  10.339  1.0492  1.1205 -1.2059
 3906SOL     OW23179   4.107   2.755  15.040 -0.5685 -0.3982  0.0792
 3906SOL    HW123180   4.149   2.754  14.954  0.4860  1.8886  0.5595
 3906SOL    HW223181   4.064   2.671  15.027  0.6170 -0.7836 -1.4846
 3907SOL     OW23182   1.213   1.542   2.706  0.4752 -0.1962  0.3113
 3907SOL    HW123183   1.251   1.610   2.649 -1.4831  0.0727 -0.6715
 3907SOL    HW223184   1.281   1.476   2.691  1.0015  0.1604  1.0998
 3908SOL     OW23185   0.415   1.077   3.816 -0.2420 -0.1584 -0.2942
 3908SOL    HW123186   0.420   0.991   3.857  0.9012  1.6150  3.2648
 3908SOL    HW223187   0.415   1.045   3.726 -2.0363  2.0754 -1.0998
 3909SOL     OW23188   1.586   3.366   8.594 -0.6518 -0.0614 -0.2837
 3909SOL    HW123189   1.565   3.459   8.583 -3.9268 -0.9002 -1.0371
 3909SOL    HW223190   1.516   3.349   8.656  0.4481  0.8354  1.1981
 3910SOL     OW23191   1.944   0.788   7.271 -0.5430 -0.2020  0.0278
 3910SOL    HW123192   1.966   0.872   7.312  0.3754  1.2163 -3.3948
 3910SOL    HW223193   2.017   0.775   7.210  0.1385  2.5443  0.2633
 3911SOL     OW23194   2.318   2.385  14.934  0.1524  0.1043 -1.0224
 3911SOL    HW123195   2.287   2.300  14.967  1.3009  0.5235  1.1230
 3911SOL    HW223196   2.408   2.360  14.954 -0.8039 -1.8802  0.9098
 3912SOL     OW23197   4.536   0.920  14.488 -0.6325  0.0378  0.4961
 3912SOL    HW123198   4.573   1.008  14.499 -1.3917  0.3257  0.8002
 3912SOL    HW223199   4.616   0.874  14.463 -0.2049  0.5851  0.8493
 3913SOL     OW23200   1.416   0.618  11.630  0.1210  0.0154 -0.2280
 3913SOL    HW123201   1.426   0.608  11.535  0.7171  1.8042 -0.3549
 3913SOL    HW223202   1.323   0.632  11.643  0.8568  1.6472  3.2285
 3914SOL     OW23203   3.655   2.819   5.403 -0.3258  0.4683 -0.2196
 3914SOL    HW123204   3.689   2.780   5.323 -3.2626  0.9546 -1.6826
 3914SOL    HW223205   3.687   2.754   5.465  0.0282 -0.3049 -1.2172
 3915SOL     OW23206   2.489   3.984   7.179 -0.2130 -0.0612  0.3679
 3915SOL    HW123207   2.584   3.989   7.184 -0.1962  1.2879 -1.1541
 3915SOL    HW223208   2.458   4.035   7.254  0.8974  1.1442  0.0100
 3916SOL     OW23209   2.216   1.029   8.658  0.4080  0.3237 -0.2454
 3916SOL    HW123210   2.208   1.034   8.754  1.4854  1.6613 -0.2281
 3916SOL    HW223211   2.138   1.075   8.627  0.1127 -0.4064 -0.5769
 3917SOL     OW23212   2.376   3.334   6.828  0.1422 -0.1523 -0.3128
 3917SOL    HW123213   2.386   3.251   6.873 -1.3664  0.5794  1.3724
 3917SOL    HW223214   2.383   3.393   6.903 -1.1976 -0.7846  0.3069
 3918SOL     OW23215   2.595   2.542  11.984  0.3078  0.0790 -0.3759
 3918SOL    HW123216   2.524   2.519  11.925 -0.1694  1.1578 -0.2330
 3918SOL    HW223217   2.668   2.559  11.924  0.5214 -1.1217 -0.4591
 3919SOL     OW23218   1.947   4.476   4.563 -0.4948  0.4243  0.0684
 3919SOL    HW123219   1.956   4.421   4.486 -0.0112  1.5988 -0.7202
 3919SOL    HW223220   1.993   4.423   4.629 -1.9565 -0.1725  0.6044
 3920SOL     OW23221   1.219   3.879   8.815  0.1640 -0.1062  1.0222
 3920SOL    HW123222   1.143   3.926   8.851 -1.9171 -0.8871 -2.4297
 3920SOL    HW223223   1.232   3.921   8.730  0.6266 -1.4844  0.4183
 3921SOL     OW23224   3.499   0.528   6.590  0.1057  0.2023  0.5032
 3921SOL    HW123225   3.506   0.467   6.517  1.5099  1.0326 -0.0520
 3921SOL    HW223226   3.424   0.579   6.559  0.1551 -1.1148 -1.7364
 3922SOL     OW23227   1.037   0.547   7.028  0.1739 -0.5514 -0.2434
 3922SOL    HW123228   0.945   0.523   7.031  0.3947 -1.3373  0.2823
 3922SOL    HW223229   1.023   0.638   7.055  1.2067 -0.0993 -1.2124
 3923SOL     OW23230   1.384   4.316   1.476 -0.2678 -0.1209 -0.3694
 3923SOL    HW123231   1.449   4.380   1.505 -2.1988  2.2516 -1.1673
 3923SOL    HW223232   1.427   4.303   1.392  2.0574  1.7808  0.5285
 3924SOL     OW23233   3.854   3.271   1.281  0.2849  0.0810  0.2015
 3924SOL    HW123234   3.881   3.253   1.371 -0.5148  2.9390  1.0164
 3924SOL    HW223235   3.940   3.264   1.241 -0.6850 -2.2866 -1.4891
 3925SOL     OW23236   1.836   3.738   6.449  0.2480  0.6149 -0.0901
 3925SOL    HW123237   1.867   3.828   6.438 -2.5465  1.7671  1.4440
 3925SOL    HW223238   1.853   3.733   6.543 -2.3962  0.2990  0.3744
 3926SOL     OW23239   1.913   4.187   8.185 -0.0165  0.1988 -0.1944
 3926SOL    HW123240   1.844   4.173   8.120 -0.6291  0.3095  0.4292
 3926SOL    HW223241   1.918   4.282   8.198 -1.9627  0.0205  1.7539
 3927SOL     OW23242   3.373   0.170  14.889 -0.3381  0.5252 -0.1434
 3927SOL    HW123243   3.404   0.257  14.863  0.5775  0.6407  1.3178
 3927SOL    HW223244   3.386   0.123  14.807  0.5185  0.6283 -0.0695
 3928SOL     OW23245   4.328   1.251   4.632 -0.0409 -0.1190  1.0989
 3928SOL    HW123246   4.311   1.204   4.550  0.0889  2.2233 -0.2670
 3928SOL    HW223247   4.416   1.280   4.607 -0.7718  2.3964  1.3905
 3929SOL     OW23248   1.146   0.366   4.357 -0.1649  0.0363  0.2973
 3929SOL    HW123249   1.142   0.271   4.371 -0.6478  0.2173  1.4090
 3929SOL    HW223250   1.138   0.399   4.446 -1.5273 -0.5751  0.4110
 3930SOL     OW23251   4.315   0.115   8.325 -0.4263  0.0629 -0.4808
 3930SOL    HW123252   4.298   0.158   8.241 -1.0460  1.5408  0.4014
 3930SOL    HW223253   4.343   0.029   8.293 -0.1407  0.1498 -0.4666
 3931SOL     OW23254   1.790   1.422  14.005 -0.0240 -0.2889  0.1168
 3931SOL    HW123255   1.846   1.393  14.077 -0.4391  0.7736  0.8615
 3931SOL    HW223256   1.710   1.376  14.028 -1.0270  0.6514 -1.4808
 3932SOL     OW23257   3.219   4.189   7.244  0.0249 -0.1758 -0.1817
 3932SOL    HW123258   3.161   4.145   7.306 -0.9141 -0.8698 -1.5392
 3932SOL    HW223259   3.186   4.147   7.165 -0.8346 -0.5459  0.3677
 3933SOL     OW23260   0.543   1.035  17.674 -0.1292  0.0770 -0.1865
 3933SOL    HW123261   0.460   0.993  17.651  0.7304 -2.0714  0.6912
 3933SOL    HW223262   0.519   1.097   0.041 -1.3632 -0.9518  0.3037
 3934SOL     OW23263   3.840   1.425   8.441  0.1116  0.2870 -0.2340
 3934SOL    HW123264   3.884   1.377   8.511 -2.6127 -3.0327 -0.7980
 3934SOL    HW223265   3.918   1.449   8.391 -0.4260 -3.5164 -2.8571
 3935SOL     OW23266   0.849   4.665   2.452 -0.0741  0.5935 -0.1392
 3935SOL    HW123267   0.818   0.028   2.473  2.5235  1.9980 -2.1978
 3935SOL    HW223268   0.764   4.621   2.442 -0.2278  0.4014  2.0678
 3936SOL     OW23269   3.485   4.293   5.779  0.2269  0.0310  0.4715
 3936SOL    HW123270   3.434   4.339   5.712  1.3212  0.9533  0.2646
 3936SOL    HW223271   3.479   4.357   5.850 -0.9723  1.5886 -1.0248
 3937SOL     OW23272   3.226   3.200  12.764  0.1175 -0.6344  0.2062
 3937SOL    HW123273   3.245   3.294  12.773 -1.5257 -0.2055 -0.6993
 3937SOL    HW223274   3.295   3.161  12.818 -0.0035 -0.0932  0.7601
 3938SOL     OW23275   1.328   1.126  10.056  0.5482  0.3638 -0.2863
 3938SOL    HW123276   1.379   1.079  10.122  0.8951 -0.5306 -1.1823
 3938SOL    HW223277   1.313   1.054   9.995  0.0993 -1.5225  2.0463
 3939SOL     OW23278   0.257   0.848   3.339 -0.0650  0.1270 -0.2647
 3939SOL    HW123279   0.173   0.822   3.378 -0.2808  1.4672  0.1817
 3939SOL    HW223280   0.226   0.907   3.270 -0.1545 -1.3040 -1.4381
 3940SOL     OW23281   2.197   2.874  12.084 -0.8393  0.1922  0.6316
 3940SOL    HW123282   2.195   2.946  12.021  2.0732 -0.7991 -0.5896
 3940SOL    HW223283   2.271   2.901  12.139 -0.0627  1.5803 -1.1039
 3941SOL     OW23284   4.265   3.118   4.879 -0.1747  0.2462  0.3828
 3941SOL    HW123285   4.191   3.061   4.901 -0.6217  2.1716  3.7655
 3941SOL    HW223286   4.323   3.055   4.836 -0.0574 -0.3421  1.4034
 3942SOL     OW23287   3.092   2.320   4.888 -0.5436 -0.3007 -0.2895
 3942SOL    HW123288   3.049   2.237   4.913  0.7313 -0.3274  1.7824
 3942SOL    HW223289   3.126   2.306   4.800 -1.3860  1.6833 -0.9133
 3943SOL     OW23290   2.762   1.263   3.752 -0.1262  0.0211 -0.6624
 3943SOL    HW123291   2.828   1.332   3.763 -0.3053 -0.2874  2.4285
 3943SOL    HW223292   2.724   1.296   3.671 -3.2025 -0.1770  0.7343
 3944SOL     OW23293   4.475   2.816   6.599  0.3507 -0.0152 -0.1927
 3944SOL    HW123294   4.505   2.731   6.632  0.2967 -0.4041 -1.1530
 3944SOL    HW223295   4.393   2.807   6.647 -0.1047  0.9546 -0.7777
 3945SOL     OW23296   0.230   2.170  10.383 -0.6767  0.0630 -0.4338
 3945SOL    HW123297   0.161   2.223  10.344  0.6765  0.6861 -1.9743
 3945SOL    HW223298   0.300   2.187  10.320  0.8951  0.0372  1.2972
 3946SOL     OW23299   2.874   1.130   4.310 -0.1776 -0.2533  0.5261
 3946SOL    HW123300   2.930   1.084   4.372  1.1299  2.0565  1.0631
 3946SOL    HW223301   2.927   1.124   4.231  0.2582 -0.9171  0.8707
 3947SOL     OW23302   1.692   1.518   4.237 -0.3685 -0.1288 -0.6236
 3947SOL    HW123303   1.640   1.570   4.299  1.5067 -1.8169  2.3364
 3947SOL    HW223304   1.682   1.566   4.155  0.7408  0.1747 -0.5755
 3948SOL     OW23305   3.499   2.235  12.720  0.1917 -0.2213  0.3404
 3948SOL    HW123306   3.432   2.225  12.787  0.3391  0.1472  0.5410
 3948SOL    HW223307   3.502   2.142  12.697 -1.8053 -0.0940 -0.5002
 3949SOL     OW23308   4.488   3.261   4.571 -0.2295 -0.3894  0.0253
 3949SOL    HW123309   4.576   3.226   4.557 -0.0989  0.1199 -0.4101
 3949SOL    HW223310   4.432   3.184   4.558 -2.2061  0.9587  0.6656
 3950SOL     OW23311   3.341   3.993   0.623 -0.1267  0.2104  0.4901
 3950SOL    HW123312   3.399   3.928   0.662 -0.1578  0.5701  1.1393
 3950SOL    HW223313   3.259   3.976   0.669 -0.1121  0.4197  0.5937
 3951SOL     OW23314   3.815   0.529   5.852  0.1237  0.1836 -0.4901
 3951SOL    HW123315   3.866   0.536   5.771  0.5311  2.4276 -0.0383
 3951SOL    HW223316   3.728   0.548   5.818  0.8997  0.2054 -2.4912
 3952SOL     OW23317   0.694   3.031   9.099  0.0514 -0.4536 -0.3564
 3952SOL    HW123318   0.612   3.037   9.147  0.4100 -1.3442  0.3829
 3952SOL    HW223319   0.714   2.938   9.111 -2.5968 -0.9396  0.4116
 3953SOL     OW23320   0.065   0.014  14.963 -0.5188 -0.0153 -0.5307
 3953SOL    HW123321   0.040   0.059  15.044 -0.8133 -1.2769  0.0831
 3953SOL    HW223322   0.102   0.076  14.900 -0.3346  0.3356 -0.0782
 3954SOL     OW23323   3.589   0.830   2.509 -0.2809  0.0805  0.5385
 3954SOL    HW123324   3.611   0.822   2.416  0.4849  1.3817  0.6036
 3954SOL    HW223325   3.495   0.844   2.511 -0.2815 -0.2003  3.1363
 3955SOL     OW23326   4.133   2.643   3.161 -0.9223  0.1460  0.1322
 3955SOL    HW123327   4.055   2.599   3.194 -0.4490 -0.7354  0.0620
 3955SOL    HW223328   4.202   2.577   3.164  0.7162  1.8411  0.1097
 3956SOL     OW23329   3.269   2.456  14.742 -0.1835 -0.0025  0.1515
 3956SOL    HW123330   3.303   2.491  14.660  2.3979 -1.2660  0.6820
 3956SOL    HW223331   3.217   2.385  14.704  0.2885 -1.4671  2.2281
 3957SOL     OW23332   0.606   3.591   9.119 -0.0202  0.1633 -0.3507
 3957SOL    HW123333   0.521   3.554   9.093  0.1856 -0.1188 -0.6299
 3957SOL    HW223334   0.664   3.534   9.069 -1.2320 -2.3070  1.0555
 3958SOL     OW23335   3.409   0.322   8.486 -0.3121  0.9525  0.0821
 3958SOL    HW123336   3.479   0.354   8.543  1.4068 -1.7389 -0.5402
 3958SOL    HW223337   3.463   0.289   8.414 -0.8616 -0.8510  0.4984
 3959SOL     OW23338   4.443   2.977   9.623 -0.5134  0.1508  0.0886
 3959SOL    HW123339   4.495   3.046   9.663 -0.5608 -0.6193  1.4772
 3959SOL    HW223340   4.485   2.906   9.672  3.4204  1.5524 -1.2717
 3960SOL     OW23341   3.915   1.735   7.677 -0.5755 -0.1396  0.2401
 3960SOL    HW123342   3.924   1.641   7.695 -0.5700 -0.0424  0.7344
 3960SOL    HW223343   4.005   1.761   7.698 -0.9480  2.5835 -1.4673
 3961SOL     OW23344   1.721   0.911   2.443 -0.5688  0.3232  0.6932
 3961SOL    HW123345   1.635   0.948   2.463 -1.8609 -1.2146 -2.0031
 3961SOL    HW223346   1.787   0.963   2.490  1.8430  0.3329 -2.6237
 3962SOL     OW23347   2.006   4.722   3.742 -0.2349 -0.2032  0.7232
 3962SOL    HW123348   2.099   0.020   3.739 -0.3353 -0.0589 -1.6731
 3962SOL    HW223349   1.958   0.078   3.726 -2.1562 -1.7252 -1.2748
 3963SOL     OW23350   4.290   2.064  12.787 -0.0536  0.0991  0.1185
 3963SOL    HW123351   4.289   2.148  12.741 -2.2361  0.5131  0.9263
 3963SOL    HW223352   4.238   2.008  12.729  0.7418  0.3487 -0.8407
 3964SOL     OW23353   0.278   0.573  15.874  0.5832 -0.5875  0.1526
 3964SOL    HW123354   0.231   0.623  15.807 -1.0059 -0.1847  1.5501
 3964SOL    HW223355   0.361   0.616  15.894 -0.3901  0.1730  2.5992
 3965SOL     OW23356   0.528   3.085   1.514  0.2907  0.1897 -0.2901
 3965SOL    HW123357   0.596   3.104   1.578  0.5466  0.2763 -0.5829
 3965SOL    HW223358   0.514   2.991   1.505  0.3566  0.2002 -0.5069
 3966SOL     OW23359   2.471   2.848   6.709  0.5626  0.1993 -0.1320
 3966SOL    HW123360   2.463   2.793   6.631 -1.0175  1.2490 -0.7103
 3966SOL    HW223361   2.548   2.897   6.679  1.2642 -0.7685  0.1051
 3967SOL     OW23362   0.926   3.196   1.828  0.2119 -0.4306 -0.9567
 3967SOL    HW123363   0.990   3.225   1.762 -0.0099 -0.8396 -1.3468
 3967SOL    HW223364   0.849   3.185   1.773 -1.9999  2.3996  1.6024
 3968SOL     OW23365   4.594   2.263   7.246 -0.4439 -0.5329 -0.1040
 3968SOL    HW123366   4.525   2.199   7.230 -1.4041  0.3683  0.3984
 3968SOL    HW223367   4.600   2.261   7.342  0.1014  0.0138 -0.1245
 3969SOL     OW23368   2.569   0.872   3.861 -0.1396  0.7517  0.6280
 3969SOL    HW123369   2.608   0.808   3.920 -0.9931 -1.0548 -0.7970
 3969SOL    HW223370   2.641   0.935   3.855 -0.4051  1.2047  2.3337
 3970SOL     OW23371   4.306   0.245  15.374 -0.5127 -0.0324  0.6882
 3970SOL    HW123372   4.309   0.154  15.404  1.3275  0.0883  0.8629
 3970SOL    HW223373   4.373   0.242  15.306  0.1875 -2.9401  1.4950
 3971SOL     OW23374   4.099   1.821   0.631 -0.3354  0.5071 -0.1609
 3971SOL    HW123375   4.100   1.775   0.714 -0.7282  1.2741  0.2723
 3971SOL    HW223376   4.190   1.808   0.603 -0.2987  0.4416 -0.0106
 3972SOL     OW23377   3.653   1.229   2.093  0.1738 -0.2473 -0.2992
 3972SOL    HW123378   3.572   1.183   2.069 -0.9985  1.1784  0.8704
 3972SOL    HW223379   3.707   1.175   2.036  0.4771  0.3483 -0.5749
 3973SOL     OW23380   0.331   0.069  15.282  0.4632 -0.3422  0.2560
 3973SOL    HW123381   0.399   0.048  15.218 -0.6406 -2.2697 -0.2918
 3973SOL    HW223382   0.377   0.132  15.338  1.3934 -2.0444  1.4451
 3974SOL     OW23383   2.965   2.861  14.384  0.0675  0.2654 -0.3718
 3974SOL    HW123384   3.022   2.808  14.440  0.1975  1.2676  0.4401
 3974SOL    HW223385   3.031   2.917  14.344  1.2732  0.4169  1.8068
 3975SOL     OW23386   3.339   0.389  13.766 -0.0888  0.0139 -0.0470
 3975SOL    HW123387   3.417   0.345  13.729 -1.1248 -0.3508 -1.8060
 3975SOL    HW223388   3.269   0.337  13.726  0.7533 -2.2227  1.3548
 3976SOL     OW23389   1.627   0.806   5.538 -0.1947 -0.4273  0.8121
 3976SOL    HW123390   1.721   0.816   5.551 -0.3059  0.5104  0.8942
 3976SOL    HW223391   1.596   0.831   5.626 -0.5733 -1.9740  1.1171
 3977SOL     OW23392   0.462   2.319   7.475  0.3700 -0.2186  0.2528
 3977SOL    HW123393   0.378   2.361   7.490  0.7287  0.5540  0.1143
 3977SOL    HW223394   0.441   2.244   7.419 -2.1587 -1.2477  2.5436
 3978SOL     OW23395   1.437   1.059  17.655  0.0728 -0.2929 -0.1218
 3978SOL    HW123396   1.512   1.004  17.635  1.0077  0.9922 -0.1877
 3978SOL    HW223397   1.481   1.144  17.657 -0.6685  0.0882  0.0496
 3979SOL     OW23398   2.498   2.016   8.194  0.7344 -0.2624  0.5695
 3979SOL    HW123399   2.529   1.937   8.238 -1.8454 -0.8825  1.3234
 3979SOL    HW223400   2.419   2.033   8.246  0.6621 -0.0895  0.4022
 3980SOL     OW23401   0.790   0.794   8.477 -0.3157 -0.5252 -0.0973
 3980SOL    HW123402   0.807   0.711   8.522  0.4192 -0.3439 -0.0254
 3980SOL    HW223403   0.716   0.834   8.523  0.9324  0.2445  1.2556
 3981SOL     OW23404   1.977   0.764   2.713 -0.2982  0.5754 -0.1380
 3981SOL    HW123405   2.056   0.719   2.684  0.8172  1.1916  1.9470
 3981SOL    HW223406   1.912   0.699   2.685 -0.1321 -0.0824  1.0132
 3982SOL     OW23407   0.111   3.998   7.962 -0.4119 -1.1084 -0.1512
 3982SOL    HW123408   0.069   4.022   8.045 -0.1761  0.3670 -0.4546
 3982SOL    HW223409   0.185   3.951   8.000  0.1047 -0.8608 -0.8513
 3983SOL     OW23410   3.489   3.358   2.278  0.6309  0.1847 -0.0428
 3983SOL    HW123411   3.520   3.326   2.194 -2.4791  0.4107 -1.2436
 3983SOL    HW223412   3.551   3.431   2.288  0.2684  0.4685  0.1203
 3984SOL     OW23413   0.004   4.583   7.537 -0.0467 -0.1631 -0.2095
 3984SOL    HW123414   4.662   4.517   7.555  0.1274  0.2513  1.9262
 3984SOL    HW223415   0.078   4.552   7.590 -0.6156  0.2140  0.8000
 3985SOL     OW23416   3.310   2.633   0.167 -0.3782 -0.5180  0.0310
 3985SOL    HW123417   3.232   2.678   0.135 -0.8691  0.5534  2.7943
 3985SOL    HW223418   3.277   2.622   0.256  3.0020  0.8034  1.4138
 3986SOL     OW23419   3.266   2.022   3.558 -0.1998 -0.8437  0.1470
 3986SOL    HW123420   3.268   2.118   3.566  0.3132 -0.8642  0.2556
 3986SOL    HW223421   3.355   1.990   3.551 -0.1220 -0.3526 -1.0837
 3987SOL     OW23422   2.227   2.573   3.796  0.0227 -0.4006 -0.0122
 3987SOL    HW123423   2.234   2.607   3.707 -1.0883 -1.2651 -0.4224
 3987SOL    HW223424   2.302   2.513   3.797  1.0831  0.9304  0.3658
 3988SOL     OW23425   3.707   0.383   2.466 -0.2985 -0.4459  0.5740
 3988SOL    HW123426   3.723   0.304   2.415  1.1486  0.3952 -0.2766
 3988SOL    HW223427   3.669   0.437   2.396 -1.2773 -2.5498 -0.5320
 3989SOL     OW23428   2.080   2.249   1.744  0.1856  0.2015  0.0790
 3989SOL    HW123429   2.005   2.271   1.689 -0.0615  3.7641  1.8148
 3989SOL    HW223430   2.084   2.159   1.711  4.1255  0.2934  0.3162
 3990SOL     OW23431   2.863   3.953   7.496  0.7685  0.4260 -0.1420
 3990SOL    HW123432   2.786   3.929   7.548  1.4987 -0.0072  0.7246
 3990SOL    HW223433   2.919   3.877   7.507 -1.2326 -1.2014 -1.1950
 3991SOL     OW23434   3.525   1.776   9.927  0.7671 -0.0941  0.0523
 3991SOL    HW123435   3.519   1.754   9.834  0.9013 -0.5393  0.1503
 3991SOL    HW223436   3.541   1.698   9.979  1.5863  0.1270  0.1366
 3992SOL     OW23437   1.662   2.582  10.765  0.2296  0.1820 -0.1176
 3992SOL    HW123438   1.621   2.663  10.733  1.2295  1.0997  0.9650
 3992SOL    HW223439   1.739   2.586  10.708  0.6738  0.2408  0.4929
 3993SOL     OW23440   4.311   2.487   3.702  0.3471  0.1264 -0.0941
 3993SOL    HW123441   4.304   2.482   3.607  3.0585  0.8217 -0.3385
 3993SOL    HW223442   4.306   2.394   3.721 -1.8106 -0.3293 -3.0776
 3994SOL     OW23443   1.602   4.379   8.335  0.3589  0.0752  0.1923
 3994SOL    HW123444   1.682   4.393   8.285  0.7479  0.8339  1.0284
 3994SOL    HW223445   1.593   4.474   8.348  1.7542  0.2347 -0.0829
 3995SOL     OW23446   1.948   1.479   7.500  0.8510 -0.1021 -0.3270
 3995SOL    HW123447   1.931   1.568   7.531  0.7845 -0.7033  1.3592
 3995SOL    HW223448   2.041   1.487   7.481  0.4837 -1.4298 -2.8350
 3996SOL     OW23449   0.097   0.364   8.087  0.1689  0.2239 -0.1418
 3996SOL    HW123450   0.100   0.348   7.993 -0.7172  1.6108 -0.3929
 3996SOL    HW223451   0.093   0.459   8.092 -1.5601  0.0554  1.7612
 3997SOL     OW23452   1.741   1.838  15.673  0.2514 -0.0613  0.5062
 3997SOL    HW123453   1.731   1.869  15.583 -0.1486  2.5771  1.4472
 3997SOL    HW223454   1.693   1.913  15.708  0.2177 -0.2987  0.9632
 3998SOL     OW23455   1.145   0.144   2.893 -0.4597  0.9509 -0.0257
 3998SOL    HW123456   1.153   0.077   2.826 -2.0905  0.0964  0.6524
 3998SOL    HW223457   1.203   0.109   2.961  0.7110  2.8328 -0.0256
 3999SOL     OW23458   2.145   4.374   2.947  0.2279  0.0792  0.3475
 3999SOL    HW123459   2.168   4.326   2.868 -0.6007  2.3659 -1.2884
 3999SOL    HW223460   2.051   4.359   2.956  0.1757 -0.2364 -0.7872
 4000SOL     OW23461   2.612   1.254   5.466 -0.0951  0.6250  0.2024
 4000SOL    HW123462   2.528   1.273   5.424  0.6134  2.6259 -0.3329
 4000SOL    HW223463   2.660   1.222   5.389 -0.1355  2.5068 -0.6113
 4001SOL     OW23464   3.028   0.891   2.481 -0.0166 -0.1092  0.3289
 4001SOL    HW123465   2.999   0.946   2.554 -3.4149 -0.3189 -0.8237
 4001SOL    HW223466   2.951   0.835   2.473 -0.0857  0.1118 -0.5406
 4002SOL     OW23467   3.755   0.927   7.082 -0.3493  0.4634 -0.3585
 4002SOL    HW123468   3.708   1.009   7.074  0.1315  0.7859  0.1218
 4002SOL    HW223469   3.768   0.913   7.176 -1.4732 -3.4992 -0.7928
 4003SOL     OW23470   0.975   2.053  14.476  0.6210  0.7800 -0.6722
 4003SOL    HW123471   1.015   1.966  14.479 -2.8984 -0.8444 -1.1506
 4003SOL    HW223472   1.023   2.095  14.548  1.1993  1.7211 -1.6089
 4004SOL     OW23473   3.429   2.005   8.856  0.6344 -0.4311  0.2143
 4004SOL    HW123474   3.473   2.090   8.851  0.1480 -0.2022 -0.1357
 4004SOL    HW223475   3.400   1.999   8.948 -0.3197 -2.3527 -0.2025
 4005SOL     OW23476   0.473   3.171   3.506  0.2021  0.0970  0.2380
 4005SOL    HW123477   0.416   3.156   3.581  0.3448 -0.5594  0.2156
 4005SOL    HW223478   0.425   3.132   3.432 -4.3514  2.2134  2.1086
 4006SOL     OW23479   0.605   2.046   9.004 -0.7681  0.1245 -0.0197
 4006SOL    HW123480   0.515   2.023   8.981 -0.5847 -1.6519  0.9746
 4006SOL    HW223481   0.579   2.109   9.071 -2.0548 -1.6860  1.1816
 4007SOL     OW23482   3.210   3.471   4.375  0.2934  0.1925  0.1359
 4007SOL    HW123483   3.257   3.392   4.402 -1.0102 -0.1205  1.5348
 4007SOL    HW223484   3.128   3.431   4.345  0.9394 -1.0611  0.0458
 4008SOL     OW23485   2.313   0.833   2.271  0.3373 -0.0798 -0.3822
 4008SOL    HW123486   2.246   0.867   2.212  1.4805  1.5425 -0.7768
 4008SOL    HW223487   2.374   0.796   2.207 -1.1041 -2.0690 -0.5747
 4009SOL     OW23488   4.003   1.817   9.209  0.0512 -0.5065  0.0480
 4009SOL    HW123489   3.935   1.839   9.273  1.0940  0.9314  0.6478
 4009SOL    HW223490   3.953   1.834   9.129  2.0818 -2.2223 -1.6132
 4010SOL     OW23491   4.449   2.876  10.968  0.3319 -0.2238  0.2554
 4010SOL    HW123492   4.413   2.883  11.057 -1.6622 -1.9873 -0.4072
 4010SOL    HW223493   4.367   2.851  10.924 -0.7710  0.7745  1.7438
 4011SOL     OW23494   1.418   0.404  14.062  0.3673  0.1699 -0.0951
 4011SOL    HW123495   1.502   0.395  14.107 -0.7625  1.2511  2.1966
 4011SOL    HW223496   1.371   0.348  14.123  0.4663  0.7439  0.5011
 4012SOL     OW23497   4.628   4.237   2.629  0.0094 -0.3878 -0.3191
 4012SOL    HW123498   4.590   4.248   2.542  1.3210 -1.0313 -0.9826
 4012SOL    HW223499   4.590   4.159   2.669 -1.1477 -0.8270 -2.2896
 4013SOL     OW23500   0.950   1.952   7.294 -0.0891  0.0919 -0.2261
 4013SOL    HW123501   1.032   2.000   7.286  1.0571 -1.6123  1.1916
 4013SOL    HW223502   0.925   1.969   7.385  1.8744  0.5815  0.2203
 4014SOL     OW23503   3.375   4.411   8.056 -0.3324 -0.7718 -0.3337
 4014SOL    HW123504   3.283   4.391   8.072 -1.1566  1.5337 -2.2416
 4014SOL    HW223505   3.410   4.415   8.145 -1.0124 -2.1704 -0.0054
 4015SOL     OW23506   4.586   4.274   4.537  0.3788 -0.1186  0.1489
 4015SOL    HW123507   4.543   4.335   4.597  2.3939 -1.2437  2.7608
 4015SOL    HW223508   4.680   4.284   4.551  0.7879 -1.6947 -1.4478
 4016SOL     OW23509   0.518   1.473   9.779  0.0707 -0.6168  0.2844
 4016SOL    HW123510   0.486   1.503   9.694 -0.8328  1.1090  1.2246
 4016SOL    HW223511   0.596   1.431   9.742 -0.4970 -1.4214  0.0161
 4017SOL     OW23512   1.564   2.352   4.252  0.4933  0.1210  0.2781
 4017SOL    HW123513   1.608   2.353   4.167  1.1952 -0.0081  0.6362
 4017SOL    HW223514   1.632   2.305   4.301  0.7530 -0.3727 -0.5533
 4018SOL     OW23515   0.718   1.579  15.771  0.2782  0.2352 -0.1622
 4018SOL    HW123516   0.758   1.665  15.783 -1.6840  1.1775 -0.3620
 4018SOL    HW223517   0.734   1.559  15.679  1.1369  2.0574 -0.4023
 4019SOL     OW23518   0.181   4.031  16.567  0.4692  1.0249 -0.7315
 4019SOL    HW123519   0.092   3.999  16.550  0.7732 -0.7867  1.1425
 4019SOL    HW223520   0.214   3.960  16.622  0.4910  0.6078 -1.2933
 4020SOL     OW23521   0.380   1.209   7.134  0.1641 -0.0170  0.3215
 4020SOL    HW123522   0.370   1.229   7.227  0.1539 -1.1065  0.5502
 4020SOL    HW223523   0.475   1.214   7.127  0.1063 -0.7127 -0.9239
 4021SOL     OW23524   0.701   1.734   5.452  0.1424 -0.1443 -0.2435
 4021SOL    HW123525   0.785   1.779   5.438  0.9841 -1.8498 -0.7297
 4021SOL    HW223526   0.656   1.757   5.371 -0.4232 -0.4858 -0.0251
 4022SOL     OW23527   0.141   3.115   7.580  0.8316  0.4558  0.4920
 4022SOL    HW123528   0.129   3.160   7.497 -1.6662 -0.6286  0.2342
 4022SOL    HW223529   0.161   3.195   7.628 -0.9203  0.1910  1.6788
 4023SOL     OW23530   2.506   2.852   8.042  0.0163 -0.0650  0.4060
 4023SOL    HW123531   2.530   2.791   7.972  3.4282 -0.6370  2.1079
 4023SOL    HW223532   2.594   2.887   8.048 -0.5682  1.3389  0.7043
 4024SOL     OW23533   2.403   0.560   5.057 -0.5091 -0.7005  0.5024
 4024SOL    HW123534   2.313   0.575   5.028  0.1804 -0.5598 -1.5670
 4024SOL    HW223535   2.422   0.505   4.981  2.0090  0.4776  0.2696
 4025SOL     OW23536   4.437   2.644   4.190 -0.5839  0.3074 -0.3215
 4025SOL    HW123537   4.358   2.673   4.145 -1.6962 -0.3030  1.2168
 4025SOL    HW223538   4.485   2.727   4.185  0.6310 -0.2271  2.6243
 4026SOL     OW23539   0.822   3.858   8.467  0.0685 -0.2887 -1.1085
 4026SOL    HW123540   0.740   3.886   8.426  0.1153  2.7209  0.8693
 4026SOL    HW223541   0.875   3.936   8.453 -1.6436  1.0858  0.2194
 4027SOL     OW23542   0.346   1.182   5.269  0.3248  0.1128 -0.1927
 4027SOL    HW123543   0.260   1.145   5.289  0.1194  0.6372 -0.1283
 4027SOL    HW223544   0.401   1.143   5.337 -0.9781 -1.1595  0.1398
 4028SOL     OW23545   3.413   3.979   5.535 -0.7553 -0.3380 -0.0875
 4028SOL    HW123546   3.447   4.061   5.499 -1.9072  0.3860  0.4775
 4028SOL    HW223547   3.370   4.013   5.614 -1.0978  0.5530 -0.6584
 4029SOL     OW23548   2.751   0.634   8.855 -0.1602  0.0785 -0.4262
 4029SOL    HW123549   2.679   0.697   8.859 -0.1445  0.2164 -2.2797
 4029SOL    HW223550   2.699   0.556   8.835 -0.9973  0.7285 -0.7582
 4030SOL     OW23551   1.724   1.125  16.346 -0.0459  0.3185 -0.1300
 4030SOL    HW123552   1.753   1.034  16.354  1.0303  0.8117  1.7413
 4030SOL    HW223553   1.777   1.160  16.418 -1.9796 -0.2811  1.5819
 4031SOL     OW23554   4.425   0.642   2.716  0.3144 -0.5799 -0.3015
 4031SOL    HW123555   4.399   0.733   2.724  0.1006 -0.7801  1.2012
 4031SOL    HW223556   4.343   0.600   2.742  0.8220 -1.1030  0.4546
 4032SOL     OW23557   3.975   1.344   2.480  0.1400  0.0061 -0.3957
 4032SOL    HW123558   3.914   1.373   2.413  0.3364  0.9537 -0.1596
 4032SOL    HW223559   4.055   1.384   2.445  0.0199  0.6196  0.0331
 4033SOL     OW23560   4.443   0.231   6.802 -0.7460  0.1357  0.0990
 4033SOL    HW123561   4.442   0.326   6.802 -0.1266  0.1468 -1.5627
 4033SOL    HW223562   4.350   0.214   6.818 -0.6663  0.7326  1.1452
 4034SOL     OW23563   3.448   1.655   1.465  0.5749 -0.1032 -0.0306
 4034SOL    HW123564   3.372   1.650   1.522  0.4502 -0.1055 -0.1990
 4034SOL    HW223565   3.413   1.689   1.383  1.3870  0.2354 -0.2368
 4035SOL     OW23566   1.034   4.668   2.259 -0.0142 -0.2269  0.0258
 4035SOL    HW123567   1.080   4.591   2.292  1.4635  0.2600 -0.8897
 4035SOL    HW223568   0.961   4.668   2.320  0.9297 -0.6190  1.1530
 4036SOL     OW23569   0.312   2.087   3.148  0.6943  0.3922 -0.3704
 4036SOL    HW123570   0.359   2.013   3.186  0.1259  1.1941  1.9109
 4036SOL    HW223571   0.285   2.134   3.227  2.3603 -0.8722  0.9563
 4037SOL     OW23572   2.173   3.183  11.329  0.0134  0.3635 -0.1108
 4037SOL    HW123573   2.115   3.204  11.255 -0.3855 -0.8086 -0.1256
 4037SOL    HW223574   2.126   3.215  11.406 -2.4240  1.4824 -2.0337
 4038SOL     OW23575   0.823   3.052  17.694 -0.0324  0.0747  0.5461
 4038SOL    HW123576   0.838   3.052   0.087  0.9469  1.2879  0.3928
 4038SOL    HW223577   0.911   3.034  17.663 -0.3692 -0.9297  0.1556
 4039SOL     OW23578   0.347   4.278   9.326 -0.0358 -0.0596  0.6789
 4039SOL    HW123579   0.378   4.369   9.321 -0.8448  0.1346 -0.9150
 4039SOL    HW223580   0.254   4.288   9.343 -0.1054  0.3908  0.0207
 4040SOL     OW23581   3.538   2.534   2.861 -0.2253 -0.0188 -0.3604
 4040SOL    HW123582   3.476   2.514   2.790 -0.3280  0.3774 -0.3813
 4040SOL    HW223583   3.545   2.629   2.853  1.6226 -0.0900  0.3427
 4041SOL     OW23584   3.502   4.122  11.270 -0.5472 -0.3831  0.0405
 4041SOL    HW123585   3.577   4.063  11.280  0.8356  1.3788 -0.1166
 4041SOL    HW223586   3.453   4.070  11.334 -0.5423  1.9678  1.9102
 4042SOL     OW23587   4.623   0.539  10.734 -0.2893 -0.5143  0.2794
 4042SOL    HW123588   4.646   0.552  10.642 -1.0389  1.0355  0.3173
 4042SOL    HW223589   4.651   0.449  10.753 -2.1389 -1.1044  0.1537
 4043SOL     OW23590   4.699   0.509   4.299  0.2957  0.3630  0.5078
 4043SOL    HW123591   4.660   0.526   4.213 -0.1281 -2.3572  0.1607
 4043SOL    HW223592   4.696   0.414   4.300 -1.1806  0.4188  1.5222
 4044SOL     OW23593   3.817   3.908   4.685 -0.1581 -0.6810 -0.1074
 4044SOL    HW123594   3.891   3.912   4.624 -0.3077  0.4161 -0.2114
 4044SOL    HW223595   3.824   3.821   4.724  0.8694 -0.6640 -0.2516
 4045SOL     OW23596   4.469   3.671   2.933  0.0169  0.1102 -0.5169
 4045SOL    HW123597   4.446   3.632   2.849 -0.0432  0.5594 -0.7088
 4045SOL    HW223598   4.546   3.721   2.906  0.2057  0.3797  0.4965
 4046SOL     OW23599   3.493   4.180   4.288 -0.3195  0.1607 -0.0633
 4046SOL    HW123600   3.403   4.199   4.315 -1.4929 -1.6494 -2.5968
 4046SOL    HW223601   3.538   4.211   4.366 -1.0613 -0.3087  0.5469
 4047SOL     OW23602   1.631   4.449   6.499  0.0200 -0.0547  0.0333
 4047SOL    HW123603   1.568   4.521   6.490 -0.9123 -0.8894 -0.2022
 4047SOL    HW223604   1.604   4.410   6.582 -0.4301  2.2007  0.9274
 4048SOL     OW23605   0.742   0.568   0.524 -0.0833 -0.3327 -0.2189
 4048SOL    HW123606   0.738   0.621   0.444  0.0681  1.0045  0.6566
 4048SOL    HW223607   0.769   0.489   0.478  0.2540  0.3343 -1.1684
 4049SOL     OW23608   2.878   4.608   1.008  0.3754 -0.3065 -0.2390
 4049SOL    HW123609   2.875   4.587   1.101 -2.2647 -3.3486 -1.0140
 4049SOL    HW223610   2.944   4.677   1.006 -1.5246  1.5266 -0.9192
 4050SOL     OW23611   1.671   0.666  15.554  0.3358  0.0879  0.1029
 4050SOL    HW123612   1.607   0.735  15.539 -0.1904 -0.1593  1.2270
 4050SOL    HW223613   1.627   0.588  15.520 -0.2871  0.6434 -0.3422
 4051SOL     OW23614   3.836   2.270  17.541  0.5869 -0.6071 -0.0332
 4051SOL    HW123615   3.927   2.242  17.542  0.3687 -1.2991  0.3602
 4051SOL    HW223616   3.805   2.218  17.615  0.2166  1.5790  1.3432
 4052SOL     OW23617   0.772   3.317   6.046 -0.0579 -0.0801 -0.3545
 4052SOL    HW123618   0.683   3.287   6.027 -0.3644 -0.0361  1.0558
 4052SOL    HW223619   0.753   3.353   6.132  0.7343 -1.0615  0.2362
 4053SOL     OW23620   3.160   1.830  13.852 -0.1481 -0.1040  0.0703
 4053SOL    HW123621   3.126   1.751  13.895  0.3126 -0.1990  0.2626
 4053SOL    HW223622   3.145   1.893  13.923  0.7088 -1.4870  1.4750
 4054SOL     OW23623   0.407   2.286  11.531 -0.2793 -0.1093 -0.1992
 4054SOL    HW123624   0.475   2.220  11.540 -1.0342 -1.0959 -1.7115
 4054SOL    HW223625   0.449   2.353  11.478 -0.0104 -2.3962 -2.8932
 4055SOL     OW23626   2.755   2.399  16.508 -0.1239  0.3273 -0.3636
 4055SOL    HW123627   2.807   2.419  16.586 -0.7854  0.2163  0.1071
 4055SOL    HW223628   2.817   2.358  16.448 -0.1853  1.3224 -1.1211
 4056SOL     OW23629   4.515   3.968   2.086  0.0988 -0.6227  0.1383
 4056SOL    HW123630   4.554   3.884   2.063  1.4155  0.1959 -0.6398
 4056SOL    HW223631   4.592   4.021   2.066  0.4018 -1.5223 -1.0214
 4057SOL     OW23632   4.015   3.887  14.919 -0.6226 -0.6004 -0.1494
 4057SOL    HW123633   4.108   3.883  14.940 -0.3957 -0.5834 -1.1867
 4057SOL    HW223634   4.019   3.921  14.830 -0.9553  1.4780  0.6311
 4058SOL     OW23635   2.311   1.246   5.416  0.3609 -0.3781 -0.1722
 4058SOL    HW123636   2.338   1.173   5.471 -2.8218  1.1383  3.3606
 4058SOL    HW223637   2.236   1.273   5.468  1.1209  1.9498 -0.2900
 4059SOL     OW23638   3.232   3.596   7.769 -0.2154  0.5119 -0.4101
 4059SOL    HW123639   3.326   3.597   7.785 -0.2580  1.9241 -0.2052
 4059SOL    HW223640   3.235   3.544   7.689  2.5483 -0.2762  0.2166
 4060SOL     OW23641   2.709   3.759   7.697  0.5697 -0.0232 -0.4574
 4060SOL    HW123642   2.672   3.799   7.776  0.6451 -0.2756 -0.2932
 4060SOL    HW223643   2.790   3.731   7.739 -2.1382 -2.2873  3.3782
 4061SOL     OW23644   3.973   2.940   2.568 -0.1304  0.2006  0.8530
 4061SOL    HW123645   3.957   2.956   2.475  0.5738 -1.6450  0.4074
 4061SOL    HW223646   4.057   2.986   2.573  0.7732 -1.3286 -0.2554
 4062SOL     OW23647   3.265   0.292  16.800  0.8259 -0.1591  0.4772
 4062SOL    HW123648   3.199   0.262  16.861  1.6395  0.1376  1.5035
 4062SOL    HW223649   3.261   0.386  16.818 -1.5051 -0.3364  0.8902
 4063SOL     OW23650   4.309   3.957  14.193 -0.3089 -0.8972  0.0166
 4063SOL    HW123651   4.231   3.907  14.217 -1.9061 -0.0402 -3.3562
 4063SOL    HW223652   4.293   3.980  14.101  0.9254  2.0180  0.5334
 4064SOL     OW23653   1.624   2.590   4.972  0.2680  0.5319 -0.7699
 4064SOL    HW123654   1.595   2.613   5.060  0.9112  1.1311 -0.7086
 4064SOL    HW223655   1.718   2.602   4.987  0.5057 -2.6632  0.3716
 4065SOL     OW23656   1.660   2.945   4.375  0.1961  0.5402  0.0963
 4065SOL    HW123657   1.639   2.933   4.468  0.5654  0.5560  0.1824
 4065SOL    HW223658   1.577   2.922   4.335  0.2217 -0.1578  0.4393
 4066SOL     OW23659   2.686   2.282   7.578 -0.1250 -0.0956 -0.2404
 4066SOL    HW123660   2.694   2.371   7.543 -1.2680  0.1234  0.0409
 4066SOL    HW223661   2.612   2.279   7.639 -0.7384 -0.4326 -0.9982
 4067SOL     OW23662   4.035   1.815   4.137  0.3430  0.4105  0.1915
 4067SOL    HW123663   4.032   1.741   4.198  1.3626  0.5198  0.3789
 4067SOL    HW223664   4.128   1.834   4.153  0.5935 -1.1015  0.5400
 4068SOL     OW23665   1.950   3.467   8.868 -0.2971 -0.0236  0.7912
 4068SOL    HW123666   1.953   3.522   8.789 -2.5809  1.1362  1.4937
 4068SOL    HW223667   1.945   3.545   8.925 -1.9330 -0.1191  0.7624
 4069SOL     OW23668   3.019   2.818   0.233  0.5230 -0.4603  0.2085
 4069SOL    HW123669   2.949   2.829   0.298  1.2617 -1.0493  1.1034
 4069SOL    HW223670   3.098   2.844   0.280 -1.3431  0.6633  2.7493
 4070SOL     OW23671   2.726   0.639   0.680 -0.7090 -0.3179  0.2201
 4070SOL    HW123672   2.636   0.670   0.686 -1.0898 -0.9185 -2.3263
 4070SOL    HW223673   2.761   0.682   0.602  0.5735 -0.0125  0.9444
 4071SOL     OW23674   0.005   0.418  13.854 -0.1977 -0.0706  0.5238
 4071SOL    HW123675   0.088   0.376  13.835 -1.0361  0.1025 -3.4305
 4071SOL    HW223676   0.032   0.461  13.936 -1.4114 -0.7656  1.2940
 4072SOL     OW23677   2.195   0.953   4.073 -0.3420 -0.3115 -0.3215
 4072SOL    HW123678   2.155   0.978   4.156 -0.1605 -2.3167  0.3799
 4072SOL    HW223679   2.122   0.977   4.018 -0.6110 -0.0515  0.1485
 4073SOL     OW23680   3.341   0.158   3.117 -0.2400  0.4783  0.1323
 4073SOL    HW123681   3.331   0.063   3.127  1.2746  0.0593 -2.3169
 4073SOL    HW223682   3.417   0.174   3.174 -0.5543 -1.3969  1.0761
 4074SOL     OW23683   1.889   0.393   8.123 -0.6915  0.3868  0.1799
 4074SOL    HW123684   1.906   0.328   8.054 -0.8866  0.6696 -0.1375
 4074SOL    HW223685   1.975   0.435   8.122  0.9427 -2.9449 -1.0502
 4075SOL     OW23686   2.640   0.874   4.880  0.0157  0.4456 -0.4577
 4075SOL    HW123687   2.691   0.815   4.825 -0.1116  0.9116 -1.0781
 4075SOL    HW223688   2.697   0.948   4.900 -0.0656  0.6495 -0.9920
 4076SOL     OW23689   4.341   0.308   3.753  0.1444  0.6919  0.2141
 4076SOL    HW123690   4.245   0.307   3.752  0.1504  2.1570 -2.1499
 4076SOL    HW223691   4.365   0.379   3.813  0.2571  1.2168 -0.4553
 4077SOL     OW23692   2.547   4.317   9.281  0.5679 -0.2468  0.0425
 4077SOL    HW123693   2.592   4.311   9.366  0.2240  2.2746  0.3972
 4077SOL    HW223694   2.480   4.252   9.301  0.1171  0.2089  0.0301
 4078SOL     OW23695   1.094   0.643   4.933 -0.3624 -0.2605  0.0811
 4078SOL    HW123696   1.143   0.646   5.016 -2.4186  0.6871  1.2745
 4078SOL    HW223697   1.006   0.629   4.969 -1.3638  0.8953 -1.9084
 4079SOL     OW23698   0.650   3.988   5.048  0.0713 -0.9814  0.2542
 4079SOL    HW123699   0.634   3.911   4.993  2.0925 -0.6807 -0.7566
 4079SOL    HW223700   0.560   4.015   5.064  0.9289  1.1423  1.4337
 4080SOL     OW23701   1.857   0.785  15.376  0.1596 -0.5196 -0.2984
 4080SOL    HW123702   1.798   0.727  15.423 -0.9832 -0.1012 -1.2072
 4080SOL    HW223703   1.869   0.853  15.442  1.4198 -0.3647 -0.6868
 4081SOL     OW23704   0.680   0.989   9.161  0.9773  0.3100 -0.0221
 4081SOL    HW123705   0.617   1.031   9.102 -1.6912 -2.4957  0.8010
 4081SOL    HW223706   0.748   1.056   9.170  0.8044  0.1621  2.2465
 4082SOL     OW23707   2.215   3.373   3.744 -0.5186  0.3410  0.0874
 4082SOL    HW123708   2.259   3.302   3.790  0.0332 -1.1173 -2.6646
 4082SOL    HW223709   2.289   3.394   3.688 -0.1617 -1.7098 -0.2235
 4083SOL     OW23710   4.313   3.820  11.751  0.1415  0.7295  0.4453
 4083SOL    HW123711   4.227   3.805  11.711  0.9737 -0.7115 -0.8151
 4083SOL    HW223712   4.349   3.887  11.692 -1.3495  0.4567 -0.7768
 4084SOL     OW23713   2.870   2.147  16.840  0.3838  0.4365  0.2104
 4084SOL    HW123714   2.819   2.211  16.790  1.7598  1.8768  0.6583
 4084SOL    HW223715   2.818   2.146  16.920 -0.0275 -0.5784 -0.0628
 4085SOL     OW23716   2.007   2.441   9.632 -0.2027 -0.1143 -0.1521
 4085SOL    HW123717   1.956   2.471   9.556  2.1884  0.9447 -1.3422
 4085SOL    HW223718   1.962   2.493   9.698  0.6012 -0.2541  0.4966
 4086SOL     OW23719   4.227   2.242  16.794  0.1352  0.2576  0.1708
 4086SOL    HW123720   4.179   2.180  16.740 -1.0024 -0.2330  1.7600
 4086SOL    HW223721   4.191   2.328  16.770 -0.0381  0.4807  1.2290
 4087SOL     OW23722   0.459   3.523   3.237 -0.4947 -0.1764  0.5023
 4087SOL    HW123723   0.525   3.556   3.175 -1.0116 -1.1831 -0.5789
 4087SOL    HW223724   0.512   3.480   3.303  1.6552  0.5157 -0.7777
 4088SOL     OW23725   1.236   0.580   7.662  0.3359  0.2699 -0.1095
 4088SOL    HW123726   1.291   0.594   7.585 -0.4546  0.2397 -0.6784
 4088SOL    HW223727   1.211   0.489   7.648 -0.7729  0.5698 -0.0693
 4089SOL     OW23728   1.588   3.817   4.935  0.6364 -0.1532 -0.1181
 4089SOL    HW123729   1.591   3.911   4.955  0.2660 -0.0805 -0.4131
 4089SOL    HW223730   1.635   3.823   4.852  0.9948 -1.1427  0.0168
 4090SOL     OW23731   0.361   0.333   6.656  0.2095  0.2577 -0.1411
 4090SOL    HW123732   0.374   0.414   6.607  0.5876  0.3278  0.0752
 4090SOL    HW223733   0.438   0.282   6.628  0.1348 -1.7308  3.2353
 4091SOL     OW23734   1.878   2.774   0.599  0.8807 -0.4996 -0.3892
 4091SOL    HW123735   1.970   2.776   0.624  1.0474  1.2589 -1.1606
 4091SOL    HW223736   1.872   2.710   0.528  2.2698  0.2210 -1.1484
 4092SOL     OW23737   3.103   4.250  16.715 -0.2479 -0.1975 -0.1362
 4092SOL    HW123738   3.085   4.301  16.635  1.3598  1.4437  0.5473
 4092SOL    HW223739   3.112   4.167  16.668 -0.3054 -0.3999  0.2131
 4093SOL     OW23740   0.395   4.645   4.813 -0.3830 -0.0378 -0.4400
 4093SOL    HW123741   0.434   4.565   4.778  1.1325  1.3809 -1.9087
 4093SOL    HW223742   0.450   4.646   4.891  0.4107  1.7583 -1.0294
 4094SOL     OW23743   4.646   0.731   6.778 -0.3653 -0.6630  0.0151
 4094SOL    HW123744   4.602   0.814   6.796 -0.2194 -0.9545  1.7514
 4094SOL    HW223745   4.603   0.689   6.704 -1.0646  0.3277 -0.1399
 4095SOL     OW23746   1.100   1.996  11.029  0.2177 -0.5905 -0.0068
 4095SOL    HW123747   1.031   1.959  11.084  0.0795 -1.5350 -0.8147
 4095SOL    HW223748   1.087   1.935  10.957  1.3155  0.2840 -0.9566
 4096SOL     OW23749   4.102   1.667   6.216 -0.5014 -0.2969 -0.2134
 4096SOL    HW123750   4.194   1.694   6.214  0.1265 -2.5893 -2.1806
 4096SOL    HW223751   4.092   1.592   6.157 -3.2268  1.3982 -1.8482
 4097SOL     OW23752   4.355   1.740   0.978 -0.7736 -0.0496 -0.2626
 4097SOL    HW123753   4.440   1.759   0.938 -0.1089  0.4979  1.3646
 4097SOL    HW223754   4.320   1.820   1.017 -0.2415 -0.2075  0.5450
 4098SOL     OW23755   1.680   0.681   6.375  0.2411 -0.1843 -0.7953
 4098SOL    HW123756   1.636   0.700   6.292  0.3357  1.2439 -0.5240
 4098SOL    HW223757   1.694   0.588   6.360  0.7857 -0.2386  0.0888
 4099SOL     OW23758   3.630   3.204   5.170 -0.2537 -0.4685 -0.0755
 4099SOL    HW123759   3.644   3.125   5.119  0.0805 -1.9155  2.2384
 4099SOL    HW223760   3.597   3.271   5.109  0.1597 -2.3979 -2.4113
 4100SOL     OW23761   4.273   0.520   0.949 -0.2687  0.5728  0.0059
 4100SOL    HW123762   4.323   0.440   0.933 -2.1418 -0.8168  1.1514
 4100SOL    HW223763   4.230   0.502   1.033 -0.0851  0.8700  0.1620
 4101SOL     OW23764   0.849   0.516  11.817  0.2772  0.3069 -0.0934
 4101SOL    HW123765   0.945   0.515  11.812  0.2475 -0.5858 -0.4460
 4101SOL    HW223766   0.818   0.606  11.829 -0.6177  0.1324 -1.1044
 4102SOL     OW23767   1.123   3.346   2.390  0.3947 -0.0328  0.5046
 4102SOL    HW123768   1.120   3.397   2.472 -1.4572  2.7710 -1.2953
 4102SOL    HW223769   1.031   3.361   2.369  0.9273  1.7118 -0.5763
 4103SOL     OW23770   2.751   2.314   8.579  0.1131  0.1788 -0.2646
 4103SOL    HW123771   2.741   2.250   8.508 -0.0564 -2.4303  2.0969
 4103SOL    HW223772   2.827   2.279   8.625  0.9589  0.9194 -1.1035
 4104SOL     OW23773   3.417   1.778   2.676  0.3743 -0.1641 -0.1299
 4104SOL    HW123774   3.368   1.816   2.603  0.5562 -1.2736 -0.8206
 4104SOL    HW223775   3.473   1.710   2.638  0.0135  0.6335 -2.1155
 4105SOL     OW23776   0.641   1.524   5.651  0.4696 -0.2291 -0.2123
 4105SOL    HW123777   0.573   1.470   5.611 -0.6265  2.5131 -2.0497
 4105SOL    HW223778   0.643   1.598   5.590  2.2623 -0.1573 -0.0550
 4106SOL     OW23779   2.072   2.850   4.421  0.1019 -0.0358 -0.3032
 4106SOL    HW123780   2.014   2.828   4.348  0.9602 -1.4971 -0.5531
 4106SOL    HW223781   2.072   2.765   4.465 -0.7382  0.3007  0.3260
 4107SOL     OW23782   3.112   1.705   0.632 -0.1053 -0.6515 -0.0844
 4107SOL    HW123783   3.090   1.654   0.554  2.4057 -3.2889  0.9068
 4107SOL    HW223784   3.201   1.672   0.647 -0.1826 -1.6112 -1.6924
 4108SOL     OW23785   3.599   1.685   6.175  0.3997 -0.8894 -0.3258
 4108SOL    HW123786   3.679   1.632   6.177  1.3792  0.6128  0.9579
 4108SOL    HW223787   3.590   1.716   6.085 -0.5639  0.5649  0.2649
 4109SOL     OW23788   1.602   1.501   7.257 -0.5588  0.1737 -0.2409
 4109SOL    HW123789   1.568   1.582   7.295  0.0968  0.5269 -0.4191
 4109SOL    HW223790   1.631   1.541   7.176 -0.8755 -0.0930 -0.4858
 4110SOL     OW23791   1.532   2.505   9.074  0.0208 -0.1467  0.2466
 4110SOL    HW123792   1.453   2.456   9.096 -0.0768 -0.3593 -0.5992
 4110SOL    HW223793   1.606   2.448   9.094  0.0187  0.2581  1.4257
 4111SOL     OW23794   1.406   1.903   0.473 -0.5035  1.1042  0.1965
 4111SOL    HW123795   1.419   1.887   0.379  0.4802 -0.7451  0.6431
 4111SOL    HW223796   1.462   1.837   0.514 -2.6510 -0.0921  1.1505
 4112SOL     OW23797   1.116   1.714   5.985  0.0700 -0.5777 -0.2291
 4112SOL    HW123798   1.158   1.762   5.913 -1.8077  0.6149 -0.5069
 4112SOL    HW223799   1.034   1.676   5.954 -0.6988  0.8309  0.1106
 4113SOL     OW23800   1.348   1.901   2.369  0.2765 -0.0617 -0.6273
 4113SOL    HW123801   1.380   1.965   2.304  1.6744 -0.6471 -0.5196
 4113SOL    HW223802   1.414   1.832   2.363 -0.3547 -1.0037  3.3270
 4114SOL     OW23803   0.686   0.420   8.193 -0.0830 -0.0915  0.2969
 4114SOL    HW123804   0.779   0.419   8.216  0.6331  0.8555 -2.5061
 4114SOL    HW223805   0.687   0.492   8.130  0.6822  0.4499  0.9262
 4115SOL     OW23806   3.086   1.894  12.350 -0.1976 -0.3642  0.0346
 4115SOL    HW123807   3.111   1.802  12.340  0.8518 -0.1906  1.0563
 4115SOL    HW223808   3.086   1.922  12.258  2.1896 -0.7461 -0.0875
 4116SOL     OW23809   4.259   3.761   6.479 -0.3621  0.4441  0.0800
 4116SOL    HW123810   4.276   3.833   6.540  0.0987 -1.0789  1.7579
 4116SOL    HW223811   4.344   3.740   6.442  0.6204  2.2854  1.2777
 4117SOL     OW23812   1.914   3.405   2.382  0.0026 -0.2085 -0.2770
 4117SOL    HW123813   1.952   3.405   2.294 -1.7682 -1.7549 -1.0434
 4117SOL    HW223814   1.920   3.309   2.385 -1.0615 -0.1900  2.4854
 4118SOL     OW23815   4.029   4.317   6.459 -0.1496  0.2012  0.6179
 4118SOL    HW123816   4.029   4.224   6.435 -0.8101  0.8441 -1.9087
 4118SOL    HW223817   4.016   4.311   6.553 -0.5442  0.6914  0.5962
 4119SOL     OW23818   1.660   3.173   5.096 -0.2945  0.0801 -0.4254
 4119SOL    HW123819   1.684   3.265   5.091  2.0769 -0.4131  1.2013
 4119SOL    HW223820   1.745   3.139   5.126 -1.3224 -1.5174  0.7053
 4120SOL     OW23821   3.390   0.717  14.232  0.1278  0.3020  0.0382
 4120SOL    HW123822   3.335   0.639  14.242 -1.6935  1.6473  0.4095
 4120SOL    HW223823   3.478   0.680  14.239  0.9899  2.3980  0.2880
 4121SOL     OW23824   1.013   3.151   2.769 -0.1656  0.6710 -0.1335
 4121SOL    HW123825   1.106   3.170   2.760 -0.0109  1.1302  2.3313
 4121SOL    HW223826   0.970   3.203   2.700 -0.1908  0.1976 -0.4690
 4122SOL     OW23827   2.563   0.114  13.908  0.4872 -0.1095 -0.0450
 4122SOL    HW123828   2.617   0.071  13.842 -0.6740 -0.8999 -0.4922
 4122SOL    HW223829   2.575   0.043  13.972 -0.8051 -0.0510  0.2631
 4123SOL     OW23830   0.833   1.270   9.246 -0.1234 -0.9845  0.0357
 4123SOL    HW123831   0.919   1.230   9.232  0.5200 -0.3442  2.2491
 4123SOL    HW223832   0.834   1.306   9.334 -0.3837 -0.9647  0.0298
 4124SOL     OW23833   3.109   3.081   6.618  0.0034  0.2359  0.4177
 4124SOL    HW123834   3.062   3.158   6.585 -1.1890 -1.1755 -1.2223
 4124SOL    HW223835   3.203   3.095   6.607  0.0518 -1.5077 -1.5466
 4125SOL     OW23836   0.806   4.259   0.373 -0.1788 -0.1438  0.3611
 4125SOL    HW123837   0.863   4.285   0.446 -0.1841 -1.8309  0.9488
 4125SOL    HW223838   0.788   4.349   0.344  0.9432  0.4289  1.4235
 4126SOL     OW23839   1.710   2.076   9.892  0.1222 -0.4982  0.7770
 4126SOL    HW123840   1.786   2.091   9.835  1.7208  0.7281  3.2301
 4126SOL    HW223841   1.725   1.984   9.913 -0.4672 -1.0488 -1.1616
 4127SOL     OW23842   4.282   4.129   4.821 -1.0984 -0.7259 -0.4411
 4127SOL    HW123843   4.214   4.108   4.757  0.4467 -1.7983 -1.7313
 4127SOL    HW223844   4.278   4.056   4.882  2.3984  0.8841  1.7904
 4128SOL     OW23845   3.731   0.535   2.054 -0.2613 -0.1734 -0.1098
 4128SOL    HW123846   3.798   0.533   2.122 -1.4283  0.5560  1.0817
 4128SOL    HW223847   3.786   0.582   1.991  0.7309 -2.4143 -0.8990
 4129SOL     OW23848   3.597   0.021   5.358  0.2221  0.3296  0.0722
 4129SOL    HW123849   3.651   4.667   5.363  0.5028  0.4586 -1.0223
 4129SOL    HW223850   3.531   4.709   5.300 -0.0730 -1.2449  1.3890
 4130SOL     OW23851   2.993   2.969  16.001  0.0783  0.6723 -0.5889
 4130SOL    HW123852   2.987   3.058  15.965  0.4014  0.2877 -1.6180
 4130SOL    HW223853   3.048   2.934  15.930 -1.6426 -1.0187 -1.0660
 4131SOL     OW23854   0.671   1.483   6.924 -0.0987  0.4645 -0.3739
 4131SOL    HW123855   0.630   1.527   6.998 -1.7730 -3.0852  0.7945
 4131SOL    HW223856   0.598   1.448   6.872 -0.4856  0.0526  0.4454
 4132SOL     OW23857   3.731   1.147   8.135  0.1250  0.0839  0.0324
 4132SOL    HW123858   3.731   1.105   8.221 -0.5308 -1.1717 -0.5921
 4132SOL    HW223859   3.818   1.184   8.121 -0.4699  1.2799 -0.5833
 4133SOL     OW23860   3.528   1.439   1.958  0.0484 -1.3724 -0.1431
 4133SOL    HW123861   3.516   1.374   1.889 -2.4924  0.2705 -1.2660
 4133SOL    HW223862   3.598   1.398   2.008 -0.6099 -0.3894  1.5722
 4134SOL     OW23863   1.279   1.367  17.284 -0.1095 -0.3266 -0.4433
 4134SOL    HW123864   1.272   1.374  17.379  0.5439 -3.5454 -0.1751
 4134SOL    HW223865   1.369   1.398  17.269 -0.7213  0.7425 -1.8950
 4135SOL     OW23866   3.140   2.040   6.606 -0.3858  0.1760 -0.0600
 4135SOL    HW123867   3.080   2.042   6.681 -0.2169  2.1243  0.0219
 4135SOL    HW223868   3.191   2.121   6.612 -0.5757  0.1874  1.5049
 4136SOL     OW23869   3.290   4.002   3.394  0.1874 -0.9784  0.6534
 4136SOL    HW123870   3.205   4.033   3.363  1.5348  2.3282  0.3517
 4136SOL    HW223871   3.326   3.988   3.306  0.8446 -1.1439  0.9464
 4137SOL     OW23872   1.457   3.436   8.163 -1.0217 -0.2129  0.0101
 4137SOL    HW123873   1.483   3.501   8.097 -2.2843  0.3883  0.0855
 4137SOL    HW223874   1.528   3.372   8.161 -0.5335  0.3602 -0.8987
 4138SOL     OW23875   2.006   1.123  12.055 -0.2656 -0.0427 -0.4454
 4138SOL    HW123876   1.948   1.153  12.125  0.0864 -1.6494  0.5450
 4138SOL    HW223877   1.946   1.118  11.981  0.9234 -0.2833 -1.3905
 4139SOL     OW23878   2.070   2.999  13.973  0.0204 -0.3532  0.8429
 4139SOL    HW123879   2.026   2.943  13.909 -0.6623  4.0254 -2.4799
 4139SOL    HW223880   2.113   2.931  14.026 -0.5191 -0.7305  0.7984
 4140SOL     OW23881   1.744   4.395   1.809  0.3507 -0.0558 -0.0963
 4140SOL    HW123882   1.710   4.372   1.723 -0.5130  0.6004  0.0685
 4140SOL    HW223883   1.801   4.468   1.783  0.5700  0.3173  1.4262
 4141SOL     OW23884   0.390   3.457   4.446 -0.2037  0.2483 -1.0318
 4141SOL    HW123885   0.366   3.550   4.443 -0.4339  0.1721 -1.5847
 4141SOL    HW223886   0.440   3.455   4.364 -2.5150 -1.7162 -2.3956
 4142SOL     OW23887   1.325   3.987  10.330  0.1340 -0.6354  0.3492
 4142SOL    HW123888   1.259   3.919  10.345  0.1119 -0.7672 -0.3083
 4142SOL    HW223889   1.405   3.936  10.339 -0.3766 -1.5699 -0.3311
 4143SOL     OW23890   0.424   4.172   0.433  0.2687 -0.2791 -0.3047
 4143SOL    HW123891   0.332   4.156   0.415 -0.1858  2.0895 -0.1075
 4143SOL    HW223892   0.429   4.267   0.435  0.3942 -0.3112  1.4234
 4144SOL     OW23893   1.761   0.435   3.379  0.6220 -0.5446 -0.0351
 4144SOL    HW123894   1.727   0.496   3.444  0.1689  0.1308 -0.9080
 4144SOL    HW223895   1.691   0.370   3.365  1.1963 -1.2345  0.3333
 4145SOL     OW23896   1.912   3.934  10.842 -0.4034  0.4233  0.5076
 4145SOL    HW123897   1.888   3.853  10.796 -0.3818  1.2038 -0.8724
 4145SOL    HW223898   1.896   3.997  10.772 -1.8425 -0.0149  0.4527
 4146SOL     OW23899   0.887   2.569   7.729 -0.2935 -0.7566 -0.3193
 4146SOL    HW123900   0.871   2.662   7.746 -0.7925 -0.3605 -2.9876
 4146SOL    HW223901   0.982   2.566   7.721 -0.3294 -0.4472 -0.9285
 4147SOL     OW23902   3.981   2.688   6.461  0.5439  0.4408  0.9530
 4147SOL    HW123903   3.982   2.676   6.556  1.8045 -0.1674  0.8574
 4147SOL    HW223904   4.055   2.746   6.443  0.8731 -0.8286 -1.7373
 4148SOL     OW23905   0.992   3.305   5.905  0.5185 -0.1345  0.2508
 4148SOL    HW123906   0.960   3.367   5.839 -0.0555  0.2027  0.8461
 4148SOL    HW223907   0.916   3.288   5.961  0.1996  0.7423  0.0817
 4149SOL     OW23908   4.105   3.977   5.590  0.4968 -0.1521  0.9186
 4149SOL    HW123909   4.126   3.936   5.673  1.8262 -1.6212 -0.1324
 4149SOL    HW223910   4.140   4.066   5.593  0.8762 -0.3656  2.5649
 4150SOL     OW23911   0.141   3.934   4.569  0.0396 -0.0290  0.3123
 4150SOL    HW123912   0.134   3.846   4.605 -1.0639 -0.2339 -0.4197
 4150SOL    HW223913   0.234   3.946   4.589  0.1011  0.3680 -0.1953
 4151SOL     OW23914   4.428   2.638  14.977 -0.3640 -0.3420  0.0581
 4151SOL    HW123915   4.366   2.643  15.049  3.1098  2.1381  2.8927
 4151SOL    HW223916   4.476   2.557  14.997 -1.3389 -0.8516  0.2972
 4152SOL     OW23917   0.321   2.733   8.084  0.2609 -0.3605  0.5082
 4152SOL    HW123918   0.233   2.769   8.091  0.3459  0.1956 -1.4468
 4152SOL    HW223919   0.350   2.738   8.175  3.4075  0.1231 -0.5058
 4153SOL     OW23920   4.470   2.839   8.600 -0.6388 -0.3774  0.4525
 4153SOL    HW123921   4.564   2.820   8.593 -0.6126  0.2292 -1.0348
 4153SOL    HW223922   4.442   2.761   8.552 -2.9753 -0.9797  2.8196
 4154SOL     OW23923   4.415   3.235  16.441  0.3019  0.5825  0.0651
 4154SOL    HW123924   4.435   3.303  16.505 -3.6527  2.0211 -0.2060
 4154SOL    HW223925   4.319   3.240  16.443  0.1793 -2.7031  2.1945
 4155SOL     OW23926   4.568   1.494   8.510  0.1114  0.7999  0.1823
 4155SOL    HW123927   4.630   1.562   8.535  1.3722 -1.2069  2.6115
 4155SOL    HW223928   4.525   1.533   8.434 -0.0834 -0.6389 -0.4394
 4156SOL     OW23929   3.427   3.556   5.686  0.1325  0.0855  0.1620
 4156SOL    HW123930   3.410   3.601   5.768 -1.1012  0.6070 -0.3731
 4156SOL    HW223931   3.430   3.632   5.628  1.0864  0.1255  0.2761
 4157SOL     OW23932   3.800   3.692   9.675  0.2910  0.0822  0.2182
 4157SOL    HW123933   3.841   3.639   9.606  2.0930  0.1371  1.2335
 4157SOL    HW223934   3.849   3.675   9.756  0.9059  1.7770  0.1934
 4158SOL     OW23935   4.136   0.271   4.308  0.2427  0.9177  0.1871
 4158SOL    HW123936   4.150   0.364   4.291 -0.4717  0.6492 -1.9500
 4158SOL    HW223937   4.104   0.273   4.398 -2.5587 -2.6181 -0.7307
 4159SOL     OW23938   3.037   2.284   6.271  0.2738 -0.1041  0.4907
 4159SOL    HW123939   3.024   2.226   6.196  4.0020 -0.8859  0.4754
 4159SOL    HW223940   3.035   2.367   6.223  1.0450  0.1555  0.9064
 4160SOL     OW23941   3.485   1.818   2.256  0.0162 -0.5708  0.0681
 4160SOL    HW123942   3.557   1.871   2.289 -0.3678  0.9414 -1.5145
 4160SOL    HW223943   3.538   1.764   2.198  2.3339  1.6210  0.1315
 4161SOL     OW23944   0.088   3.003   6.274  0.0379 -0.7017 -0.1975
 4161SOL    HW123945   0.047   3.004   6.360  0.4692  1.0170 -0.0091
 4161SOL    HW223946   0.076   2.910   6.258  1.0214 -0.8096 -0.2770
 4162SOL     OW23947   3.534   4.495   2.603 -0.5615 -0.5070 -0.0080
 4162SOL    HW123948   3.543   4.526   2.693  1.3351  0.9829 -0.7136
 4162SOL    HW223949   3.449   4.452   2.595 -0.0614 -1.4006 -0.5307
 4163SOL     OW23950   0.459   3.484  15.132  0.2250  0.0739  0.1747
 4163SOL    HW123951   0.524   3.425  15.095 -0.2671 -0.6253  0.4238
 4163SOL    HW223952   0.497   3.563  15.093  2.3329 -0.6065  0.8504
 4164SOL     OW23953   2.955   1.534   1.807 -0.0741 -0.2694  0.2696
 4164SOL    HW123954   2.896   1.597   1.766 -0.4617 -0.4737  0.5098
 4164SOL    HW223955   2.983   1.488   1.728  1.2416 -0.5377  0.8824
 4165SOL     OW23956   0.909   3.996   2.459  0.3179 -0.3406 -0.4780
 4165SOL    HW123957   0.935   4.020   2.371  0.5265 -0.3096 -0.4090
 4165SOL    HW223958   0.978   4.051   2.496  0.2299 -0.5760  0.0421
 4166SOL     OW23959   4.481   3.861   8.470 -0.3532  0.2765  0.4207
 4166SOL    HW123960   4.462   3.872   8.377 -0.7083  0.2860  0.4941
 4166SOL    HW223961   4.567   3.820   8.461  0.6225  2.1709  1.1663
 4167SOL     OW23962   0.433   0.319   6.158 -0.2775 -0.4414 -0.1513
 4167SOL    HW123963   0.504   0.329   6.095 -2.2826 -1.2624 -2.5458
 4167SOL    HW223964   0.388   0.403   6.144  0.8039  0.4271  1.6384
 4168SOL     OW23965   2.424   1.167   3.293 -0.2299 -0.3966 -0.8650
 4168SOL    HW123966   2.412   1.122   3.377  0.6314 -0.0110 -0.5273
 4168SOL    HW223967   2.418   1.098   3.227  1.9446  0.4957 -2.0160
 4169SOL     OW23968   2.999   4.164   6.695 -0.0027 -0.2638 -0.2659
 4169SOL    HW123969   2.984   4.230   6.628 -0.2106  0.8370  0.8503
 4169SOL    HW223970   3.067   4.209   6.746 -0.6103 -1.1086  1.2943
 4170SOL     OW23971   2.854   2.278   7.978  0.2934  1.0128  0.1593
 4170SOL    HW123972   2.903   2.325   7.911 -1.6438  1.0468 -1.1991
 4170SOL    HW223973   2.776   2.332   7.967  0.1985  1.0005  0.7349
 4171SOL     OW23974   3.327   3.063   8.857  0.8385  0.0547 -0.0330
 4171SOL    HW123975   3.257   3.029   8.913  0.1829 -1.0806 -1.5367
 4171SOL    HW223976   3.398   3.010   8.894  2.2648  0.0085 -2.8145
 4172SOL     OW23977   0.800   1.242  13.696  0.2744  0.8736 -0.1397
 4172SOL    HW123978   0.876   1.231  13.753 -1.0001  2.1564  1.8358
 4172SOL    HW223979   0.783   1.336  13.701  1.5297  1.2049 -2.1736
 4173SOL     OW23980   2.825   1.700  11.789  0.2490  0.4851 -0.1902
 4173SOL    HW123981   2.885   1.625  11.792  1.1551  1.1852 -0.5360
 4173SOL    HW223982   2.873   1.760  11.732  0.8182  0.1154 -0.1025
 4174SOL     OW23983   0.109   0.602  16.136 -0.2379 -0.2791 -0.1741
 4174SOL    HW123984   0.163   0.676  16.108 -0.1829  0.5759  2.1605
 4174SOL    HW223985   0.114   0.558  16.052 -1.1533 -0.1473 -0.2976
 4175SOL     OW23986   2.604   3.563   9.118  0.1837 -0.6136 -0.0941
 4175SOL    HW123987   2.556   3.608   9.049 -1.0861 -0.8193  0.6495
 4175SOL    HW223988   2.557   3.593   9.196  0.8746  2.8454 -1.0102
 4176SOL     OW23989   1.145   1.572  10.839  0.1944 -0.1381 -0.3974
 4176SOL    HW123990   1.106   1.486  10.825  2.1300 -1.1737  0.6931
 4176SOL    HW223991   1.171   1.597  10.750  1.7208  2.2443  0.7044
 4177SOL     OW23992   0.953   1.031   9.015 -0.1335 -0.0780  0.5867
 4177SOL    HW123993   0.936   1.076   8.933  1.8075 -1.9770 -0.8795
 4177SOL    HW223994   1.016   1.092   9.054 -1.5057  1.2296  0.7344
 4178SOL     OW23995   3.674   3.541   6.863 -0.3350 -0.4999 -0.7107
 4178SOL    HW123996   3.698   3.504   6.948  2.1502 -1.0091 -1.6568
 4178SOL    HW223997   3.596   3.490   6.842 -1.0212  0.7223 -1.1277
 4179SOL     OW23998   0.056   0.633   8.135  0.0019  0.3672  1.0312
 4179SOL    HW123999   4.701   0.684   8.125 -0.0486  0.0657 -0.0310
 4179SOL    HW224000   0.115   0.674   8.072 -1.5926  0.0980 -0.6433
 4180SOL     OW24001   3.738   0.828  13.580 -0.0569 -0.0948 -0.5786
 4180SOL    HW124002   3.808   0.864  13.634  0.7412 -1.9484 -0.3826
 4180SOL    HW224003   3.736   0.733  13.590 -0.0366  0.1097  1.3059
 4181SOL     OW24004   1.886   3.766   6.741 -0.3577  0.2002  0.7630
 4181SOL    HW124005   1.930   3.702   6.797 -0.4493  0.7881  1.5173
 4181SOL    HW224006   1.929   3.848   6.765  2.5438 -0.5005 -2.0879
 4182SOL     OW24007   3.333   0.119   8.782 -0.0711  0.0119  0.5709
 4182SOL    HW124008   3.413   0.138   8.830  1.5285  0.3616 -2.2505
 4182SOL    HW224009   3.292   0.206   8.779 -2.6801 -1.3455 -3.0804
 4183SOL     OW24010   2.023   0.653   5.974  0.2189 -0.0094  0.1631
 4183SOL    HW124011   2.024   0.724   6.038 -3.3858 -1.2225  1.5536
 4183SOL    HW224012   2.112   0.621   5.990 -0.3296 -0.8062  1.6967
 4184SOL     OW24013   4.424   0.033   7.953  0.0525  0.6567 -0.0359
 4184SOL    HW124014   4.506   0.062   7.992  0.6914  2.2154 -2.5055
 4184SOL    HW224015   4.360   0.079   8.008  0.9435  2.3984 -0.4425
 4185SOL     OW24016   3.034   3.557  15.914  0.0415  0.0036 -0.0488
 4185SOL    HW124017   3.102   3.491  15.902 -0.9789 -1.3933  1.8919
 4185SOL    HW224018   2.953   3.518  15.880  0.3100 -0.0466 -0.6349
 4186SOL     OW24019   0.779   1.398  14.076 -0.0547 -0.2122 -0.2027
 4186SOL    HW124020   0.744   1.455  14.007 -0.4831 -0.7477 -0.4270
 4186SOL    HW224021   0.861   1.370  14.034 -1.5868 -1.4354 -2.4138
 4187SOL     OW24022   0.629   4.281   3.885 -0.0962 -0.2348 -0.1724
 4187SOL    HW124023   0.640   4.254   3.793  0.2420  0.3094 -0.2878
 4187SOL    HW224024   0.550   4.232   3.909 -0.4398 -0.3032 -1.4273
 4188SOL     OW24025   0.863   4.211   4.047  0.4094 -0.5997  0.2939
 4188SOL    HW124026   0.826   4.123   4.040  0.9963 -0.6981 -1.5123
 4188SOL    HW224027   0.792   4.262   4.008 -0.9144 -1.5962  1.3846
 4189SOL     OW24028   3.865   1.861   1.999 -0.1924  0.3215  0.3208
 4189SOL    HW124029   3.861   1.955   1.985  1.5182  0.1763 -1.1460
 4189SOL    HW224030   3.793   1.829   1.945  1.1018 -1.9867 -0.0561
 4190SOL     OW24031   3.974   3.935   4.473  0.9313  0.3987  0.2140
 4190SOL    HW124032   3.926   3.982   4.405 -1.2099 -1.5591  0.3785
 4190SOL    HW224033   3.983   3.853   4.423  2.5869  1.0102 -0.4903
 4191SOL     OW24034   3.569   0.005  11.595  0.1572  0.1630 -0.0246
 4191SOL    HW124035   3.589   0.053  11.514  1.0753 -0.4498 -0.1577
 4191SOL    HW224036   3.600   4.640  11.584 -1.8861 -0.8087  2.2759
 4192SOL     OW24037   1.681   1.281   5.343  0.0059 -0.2174 -0.2114
 4192SOL    HW124038   1.712   1.293   5.433 -1.4830  2.4872 -0.0388
 4192SOL    HW224039   1.625   1.206   5.360 -1.2265  0.8349  0.4073
 4193SOL     OW24040   0.805   2.957   5.469 -0.6128  0.3381  0.1103
 4193SOL    HW124041   0.770   3.001   5.391  1.2049 -0.1745 -1.0020
 4193SOL    HW224042   0.894   2.992   5.473 -1.1482  1.6952  0.1979
 4194SOL     OW24043   2.406   1.362   8.770 -0.2936  0.0271  0.5383
 4194SOL    HW124044   2.343   1.425   8.734 -0.4285  0.0839  0.8794
 4194SOL    HW224045   2.477   1.425   8.767  1.6142 -2.0816  1.3652
 4195SOL     OW24046   0.386   0.266   8.690  1.3898  0.5314  0.4584
 4195SOL    HW124047   0.426   0.352   8.677 -1.7813  2.1095  1.0527
 4195SOL    HW224048   0.447   0.211   8.738 -0.0806 -0.1882  1.4962
 4196SOL     OW24049   2.624   4.297   2.905 -0.5757 -0.4502  0.0109
 4196SOL    HW124050   2.638   4.218   2.957 -0.0264 -2.4125 -3.1133
 4196SOL    HW224051   2.600   4.357   2.976 -0.4712  0.5585 -0.8117
 4197SOL     OW24052   1.925   3.106   6.120 -0.2675  0.0025 -0.1363
 4197SOL    HW124053   1.845   3.076   6.078 -0.6827 -1.4540  1.6959
 4197SOL    HW224054   1.990   3.056   6.070 -0.2051 -0.6659  0.6105
 4198SOL     OW24055   4.042   3.224   4.768  0.0000 -0.3166 -0.3972
 4198SOL    HW124056   4.125   3.220   4.816 -0.2140  0.9174  0.0505
 4198SOL    HW224057   3.988   3.263   4.836  2.1528  0.9769  0.5722
 4199SOL     OW24058   0.201   1.871   2.976 -0.0724 -0.5198  0.0251
 4199SOL    HW124059   0.250   1.834   2.903 -0.8873 -1.5711  0.0119
 4199SOL    HW224060   0.232   1.961   2.966 -0.3526 -0.1844  2.1172
 4200SOL     OW24061   4.149   4.720   6.649 -0.0617  0.5420  0.3685
 4200SOL    HW124062   4.219   0.016   6.587 -0.5520  0.9956 -0.0215
 4200SOL    HW224063   4.193   4.656   6.706  0.9525  1.5521  0.7164
 4201SOL     OW24064   4.669   3.833   6.802  0.2767  0.6452 -0.1763
 4201SOL    HW124065   4.581   3.859   6.776  1.1644  1.7424 -2.0543
 4201SOL    HW224066   4.699   3.898   6.865  2.0343 -1.2163  0.9390
 4202SOL     OW24067   2.628   2.332   8.966  0.2128 -0.3771 -0.2363
 4202SOL    HW124068   2.558   2.296   9.020 -0.1277 -0.6886 -0.8869
 4202SOL    HW224069   2.691   2.357   9.034  1.3984  0.3756 -1.6026
 4203SOL     OW24070   3.567   3.029   5.556 -0.4882  0.4711 -0.6747
 4203SOL    HW124071   3.645   3.068   5.596 -2.6176  2.0013  2.0361
 4203SOL    HW224072   3.597   2.968   5.490  0.4358  0.6151 -0.3893
 4204SOL     OW24073   1.045   0.199  15.549  0.1934 -0.6812 -0.0450
 4204SOL    HW124074   1.015   0.144  15.620 -1.6085  1.4263  0.8242
 4204SOL    HW224075   1.047   0.286  15.589  0.7442 -0.6202 -0.2035
 4205SOL     OW24076   3.735   2.096   7.180 -0.6155 -0.7414  0.5123
 4205SOL    HW124077   3.823   2.103   7.215 -0.9358 -0.1177  1.1975
 4205SOL    HW224078   3.754   2.058   7.094 -0.0089 -0.6193  0.5929
 4206SOL     OW24079   0.762   4.290   6.671 -0.0843 -0.3120  0.4298
 4206SOL    HW124080   0.739   4.321   6.759  0.8223  2.5888 -0.3580
 4206SOL    HW224081   0.846   4.337   6.666  0.1106 -1.0174 -3.2282
 4207SOL     OW24082   2.239   1.641   3.970  0.5272  0.5193 -0.1114
 4207SOL    HW124083   2.162   1.627   3.915  1.2406  2.3403 -1.5610
 4207SOL    HW224084   2.198   1.634   4.057  0.2461 -0.8885 -0.3515
 4208SOL     OW24085   3.735   3.489   6.580  0.5605 -0.1328  0.0208
 4208SOL    HW124086   3.698   3.498   6.668  0.7868 -0.8447  0.1890
 4208SOL    HW224087   3.711   3.575   6.547 -1.5953  0.2886  2.6737
 4209SOL     OW24088   4.520   2.927   9.120  0.4495 -0.9732 -0.5195
 4209SOL    HW124089   4.471   2.914   9.201 -0.6292 -3.1901 -1.5095
 4209SOL    HW224090   4.477   3.002   9.079  1.1075 -1.2174 -1.6814
 4210SOL     OW24091   1.142   1.814   7.790  0.0937  0.2091  1.1027
 4210SOL    HW124092   1.204   1.785   7.857  1.8965  1.1182 -0.1751
 4210SOL    HW224093   1.063   1.818   7.844  0.3276  0.4124  1.4347
 4211SOL     OW24094   0.046   4.137  11.074 -0.1001  0.7262  0.4451
 4211SOL    HW124095   0.067   4.180  11.157 -1.0951  2.2700 -0.0797
 4211SOL    HW224096   0.109   4.174  11.012 -0.3263  0.7540  0.2287
 4212SOL     OW24097   0.320   0.707   8.271 -0.1905  0.1151  0.3250
 4212SOL    HW124098   0.310   0.622   8.227 -0.0980  0.8018 -1.0173
 4212SOL    HW224099   0.415   0.716   8.263 -0.2158 -0.5972 -0.8606
 4213SOL     OW24100   3.875   1.878  10.882  0.1991 -0.3360  0.0910
 4213SOL    HW124101   3.848   1.900  10.971 -2.2468 -0.0156 -0.7221
 4213SOL    HW224102   3.893   1.786  10.902  1.3691 -0.3057 -0.8254
 4214SOL     OW24103   0.831   1.414  15.531  0.8265  0.2584  0.6257
 4214SOL    HW124104   0.912   1.414  15.582  1.9878  0.7188 -1.2243
 4214SOL    HW224105   0.835   1.508  15.516 -0.2130  0.1623 -0.2456
 4215SOL     OW24106   0.399   0.565   8.647 -0.4930  0.3746 -0.2075
 4215SOL    HW124107   0.439   0.646   8.617 -0.9057  0.6257 -0.0702
 4215SOL    HW224108   0.349   0.601   8.720 -0.0374  0.5474  0.0199
 4216SOL     OW24109   4.697   0.127   8.992  0.5926 -0.4735 -0.0920
 4216SOL    HW124110   4.607   0.114   8.963  0.9152 -0.6598 -1.0199
 4216SOL    HW224111   4.719   0.206   8.943  1.3712 -0.8757 -0.4014
 4217SOL     OW24112   3.306   0.758   8.139 -0.9400  0.0859 -0.1429
 4217SOL    HW124113   3.374   0.730   8.078 -0.4246 -1.6885  1.2634
 4217SOL    HW224114   3.320   0.853   8.137  0.9657 -0.1894 -0.5986
 4218SOL     OW24115   2.145   1.471   0.165  0.0753 -0.4012 -0.0895
 4218SOL    HW124116   2.123   1.540   0.102 -2.5084 -1.5177 -0.4011
 4218SOL    HW224117   2.103   1.499   0.246  0.6780 -0.8978  0.3912
 4219SOL     OW24118   3.647   3.583   6.093  0.1344  0.7587 -0.1087
 4219SOL    HW124119   3.649   3.503   6.040 -0.9157 -0.3451  1.5323
 4219SOL    HW224120   3.738   3.599   6.117  0.5404  0.9834 -1.7572
 4220SOL     OW24121   4.042   1.321   6.307  0.3958 -0.0955 -0.0647
 4220SOL    HW124122   3.980   1.283   6.370 -0.1376  1.7920  0.5461
 4220SOL    HW224123   3.985   1.349   6.234 -0.6141  1.7786  1.4444
 4221SOL     OW24124   1.504   2.777   2.455  0.0338  0.4378  0.2881
 4221SOL    HW124125   1.506   2.726   2.536  1.6901 -0.7148 -0.4738
 4221SOL    HW224126   1.585   2.748   2.415 -0.9441 -0.6969 -0.8684
 4222SOL     OW24127   1.844   2.466   2.345 -0.2397 -0.0169 -0.2222
 4222SOL    HW124128   1.906   2.395   2.324 -1.5496 -2.0074  2.6476
 4222SOL    HW224129   1.835   2.488   2.252 -0.7969 -0.7134 -0.3311
 4223SOL     OW24130   1.361   1.726   1.162  0.0445  0.0311 -0.5222
 4223SOL    HW124131   1.274   1.705   1.196 -0.1304  1.1416 -0.3060
 4223SOL    HW224132   1.415   1.772   1.226  2.0590 -1.7155 -0.9278
 4224SOL     OW24133   0.945   0.835   4.463 -0.2659  0.0035  0.4248
 4224SOL    HW124134   0.917   0.746   4.487  0.1126 -0.9299 -2.5342
 4224SOL    HW224135   0.961   0.842   4.369  0.4681 -1.2974  0.4402
 4225SOL     OW24136   3.335   2.154   6.331  0.1157 -0.2017 -0.2526
 4225SOL    HW124137   3.251   2.180   6.293  0.1741  0.4805  0.0906
 4225SOL    HW224138   3.344   2.064   6.300 -2.1163  0.2660 -2.3382
 4226SOL     OW24139   1.383   0.664   7.875  0.0874  0.1902  0.0161
 4226SOL    HW124140   1.340   0.627   7.798 -0.9685  1.2716  0.0908
 4226SOL    HW224141   1.403   0.591   7.933 -1.2864  0.7828  1.2230
 4227SOL     OW24142   4.084   1.519   8.008 -0.3752 -0.2103 -0.4708
 4227SOL    HW124143   4.063   1.612   8.010 -2.0646 -0.6280  1.3476
 4227SOL    HW224144   4.177   1.522   7.984 -0.2649 -1.9165 -0.2750
 4228SOL     OW24145   2.306   3.738   4.380 -0.1040  0.4243 -0.9950
 4228SOL    HW124146   2.215   3.718   4.401  0.6046 -1.2963  0.5072
 4228SOL    HW224147   2.298   3.775   4.292 -0.3384  0.2841 -1.0328
 4229SOL     OW24148   2.263   2.564  12.119 -0.1006  0.2871  0.1558
 4229SOL    HW124149   2.265   2.655  12.089 -1.4740  0.1819 -0.2649
 4229SOL    HW224150   2.306   2.512  12.051 -1.0812 -2.9613  2.0039
 4230SOL     OW24151   3.578   3.407   4.979  0.2306  0.4416 -0.0482
 4230SOL    HW124152   3.526   3.446   4.908  1.6575  0.1354 -1.2711
 4230SOL    HW224153   3.507   3.384   5.038 -0.2296  0.4331 -0.6065
 4231SOL     OW24154   2.071   0.423   8.520 -0.5699 -0.4935 -0.6753
 4231SOL    HW124155   2.159   0.387   8.529 -1.2196 -2.0647 -0.6596
 4231SOL    HW224156   2.062   0.484   8.594 -2.0496 -0.7480 -0.6285
 4232SOL     OW24157   0.246   2.729   6.993 -0.3461  0.0412 -0.3169
 4232SOL    HW124158   0.167   2.722   6.938  0.5611 -1.3947 -1.4484
 4232SOL    HW224159   0.306   2.669   6.948  0.7234 -0.7408  2.1861
 4233SOL     OW24160   2.909   3.553   1.814 -0.7176 -0.0743  0.0743
 4233SOL    HW124161   2.858   3.533   1.892  2.4919 -0.0336  2.2090
 4233SOL    HW224162   2.861   3.630   1.782 -0.7474 -1.1547 -2.5184
 4234SOL     OW24163   0.963   3.434   1.449 -0.1265 -0.3052  0.0081
 4234SOL    HW124164   0.885   3.380   1.463  0.0428 -0.1578  1.6136
 4234SOL    HW224165   0.957   3.492   1.525  2.0635 -1.9382  1.4492
 4235SOL     OW24166   1.763   1.004   2.117 -0.5422 -0.4248  0.1155
 4235SOL    HW124167   1.675   1.040   2.124  0.3339  1.5025  1.2929
 4235SOL    HW224168   1.801   1.038   2.198  0.2621 -2.3082  0.5554
 4236SOL     OW24169   2.126   2.133  13.204  0.4498 -0.4318 -0.0308
 4236SOL    HW124170   2.039   2.095  13.190  0.3846 -0.4915  0.5235
 4236SOL    HW224171   2.181   2.067  13.162  0.7379 -0.4848  0.4299
 4237SOL     OW24172   2.503   1.814   2.834  0.0104  0.5070 -0.5988
 4237SOL    HW124173   2.520   1.759   2.911  0.6797 -1.0685 -1.8759
 4237SOL    HW224174   2.537   1.899   2.862 -0.5259  0.2945  0.7067
 4238SOL     OW24175   2.083   3.236   7.804  0.1655 -0.1080  0.4567
 4238SOL    HW124176   2.146   3.187   7.857 -0.4306 -0.1618  1.1155
 4238SOL    HW224177   2.044   3.160   7.761  1.0833 -0.9476  1.0973
 4239SOL     OW24178   1.434   4.372   0.565 -0.1478  0.1745  0.1840
 4239SOL    HW124179   1.432   4.355   0.471 -1.7361 -1.4734  0.5209
 4239SOL    HW224180   1.513   4.322   0.585  0.4043  1.1554  0.4366
 4240SOL     OW24181   4.571   2.388   6.199 -0.1951 -0.2241 -0.2381
 4240SOL    HW124182   4.540   2.354   6.115  1.7833 -1.2962 -0.5451
 4240SOL    HW224183   4.638   2.322   6.218  0.9525  0.7198 -0.9988
 4241SOL     OW24184   2.833   3.173   4.359  0.2822  0.3774 -0.3209
 4241SOL    HW124185   2.838   3.089   4.314  1.5707 -0.0040  0.5332
 4241SOL    HW224186   2.747   3.206   4.333  0.5610  1.4997  0.2101
 4242SOL     OW24187   0.056   4.378   5.285  0.2983  0.2595  0.3115
 4242SOL    HW124188   0.066   4.283   5.293  1.0444  0.4772  1.8369
 4242SOL    HW224189   0.144   4.407   5.310  0.3307  1.1078 -0.7677
 4243SOL     OW24190   0.104   3.469  13.049 -0.2309  1.1450 -0.0098
 4243SOL    HW124191   0.128   3.478  13.142 -1.2986  0.3849  0.3457
 4243SOL    HW224192   0.183   3.510  13.014  1.0451 -0.9710  0.4414
 4244SOL     OW24193   2.835   4.595  12.010 -0.9204  0.1209 -0.4038
 4244SOL    HW124194   2.911   4.650  12.029 -2.0952  1.7821 -0.5054
 4244SOL    HW224195   2.868   4.524  11.954  1.7695 -1.0508  2.6723
 4245SOL     OW24196   2.856   0.706  10.579 -0.3458 -0.3634 -0.0836
 4245SOL    HW124197   2.822   0.735  10.494 -1.5798  0.3077  0.6286
 4245SOL    HW224198   2.846   0.612  10.564  2.7546 -0.3404 -2.1570
 4246SOL     OW24199   0.554   3.891   6.370  0.0354 -0.1905 -0.5081
 4246SOL    HW124200   0.460   3.892   6.387  0.0769 -0.3914 -0.2615
 4246SOL    HW224201   0.589   3.977   6.392  1.5186 -1.0334  0.3857
 4247SOL     OW24202   0.276   0.864  11.441 -0.2090  0.1759 -0.3690
 4247SOL    HW124203   0.206   0.878  11.504 -0.1468  1.5099 -0.5940
 4247SOL    HW224204   0.343   0.909  11.493 -2.0600  0.9869  1.3221
 4248SOL     OW24205   3.310   1.647   4.733  0.1792  0.1915 -0.4751
 4248SOL    HW124206   3.285   1.575   4.676 -1.0509 -0.6751  1.1373
 4248SOL    HW224207   3.326   1.598   4.814  0.2686  0.0015 -0.6092
 4249SOL     OW24208   3.083   2.749   3.062  0.1431  0.7119  0.4067
 4249SOL    HW124209   3.017   2.793   3.008 -0.4032 -0.9843 -0.3099
 4249SOL    HW224210   3.062   2.788   3.147  0.1490 -0.5499  0.9814
 4250SOL     OW24211   0.577   3.384   5.684 -0.6678 -0.7459 -0.0882
 4250SOL    HW124212   0.589   3.443   5.610 -1.6423 -0.9821 -0.4288
 4250SOL    HW224213   0.525   3.431   5.749  0.3281 -0.6769  0.6580
 4251SOL     OW24214   3.263   1.872   5.491  0.1910  0.2368  0.1625
 4251SOL    HW124215   3.195   1.878   5.424  0.6514 -1.7513 -0.4514
 4251SOL    HW224216   3.318   1.795   5.477  0.2116  0.2003  0.4329
 4252SOL     OW24217   1.721   0.981  10.466  0.3648  0.5376 -0.2135
 4252SOL    HW124218   1.668   0.901  10.471  1.8983 -0.5049 -0.5282
 4252SOL    HW224219   1.748   0.980  10.557  1.3313 -2.1821 -0.5389
 4253SOL     OW24220   1.089   3.467   5.458  0.3480  0.3958 -0.1347
 4253SOL    HW124221   1.174   3.508   5.442  0.7269 -0.4152 -0.1959
 4253SOL    HW224222   1.102   3.374   5.476  0.5294  0.2278 -1.1183
 4254SOL     OW24223   4.227   4.086  14.617 -0.5101 -0.6578  0.1916
 4254SOL    HW124224   4.271   4.124  14.541  1.1400 -1.6434  0.6596
 4254SOL    HW224225   4.290   4.016  14.630 -0.4935 -0.3309  1.9094
 4255SOL     OW24226   0.129   0.139   8.372  0.5167  0.0525  0.1511
 4255SOL    HW124227   0.037   0.151   8.348  0.2744 -0.7713  0.6769
 4255SOL    HW224228   0.161   0.229   8.374 -0.2770  0.3061  1.3205
 4256SOL     OW24229   4.465   3.819   3.645  0.1056  0.0430  0.1802
 4256SOL    HW124230   4.465   3.724   3.652 -3.1277 -0.0901 -1.4255
 4256SOL    HW224231   4.541   3.826   3.586 -0.2171  0.4928 -0.1865
 4257SOL     OW24232   3.800   2.900   4.189  0.0314  0.1717 -0.1528
 4257SOL    HW124233   3.836   2.864   4.270  1.2690 -0.0318 -0.7864
 4257SOL    HW224234   3.880   2.897   4.136 -0.1380  2.1132 -0.5294
 4258SOL     OW24235   4.350   2.846   2.413  0.1630 -0.5560 -0.5688
 4258SOL    HW124236   4.407   2.781   2.454  1.6502  0.8955 -0.3294
 4258SOL    HW224237   4.406   2.913   2.373  1.4278 -0.8657  0.6868
 4259SOL     OW24238   2.945   0.041   8.282 -0.2094  0.5337  0.2747
 4259SOL    HW124239   3.017   4.708   8.256  1.2918  1.2822  2.8078
 4259SOL    HW224240   2.888   0.039   8.205  1.9075  1.5786 -1.3191
 4260SOL     OW24241   0.426   0.149   0.348 -0.2580  0.9323  0.5626
 4260SOL    HW124242   0.334   0.128   0.329  0.0314 -0.6383  0.9501
 4260SOL    HW224243   0.454   0.163   0.257 -0.9670  0.4573  0.2724
 4261SOL     OW24244   1.736   0.800  10.760 -0.7597 -0.8736 -0.1660
 4261SOL    HW124245   1.803   0.817  10.827  0.3657  1.3922 -1.8533
 4261SOL    HW224246   1.780   0.737  10.704 -0.3718  0.2469 -1.1249
 4262SOL     OW24247   4.279   3.299  12.974 -0.0559 -0.7804  0.1035
 4262SOL    HW124248   4.216   3.356  13.017  2.8631  0.6373  2.5039
 4262SOL    HW224249   4.252   3.211  13.000  1.3992 -1.6330 -1.1855
 4263SOL     OW24250   0.635   2.093   0.297 -0.5684  0.0956 -0.2505
 4263SOL    HW124251   0.628   2.074   0.204 -1.6602  1.3537 -0.4126
 4263SOL    HW224252   0.581   2.171   0.302 -0.3016  0.2718 -0.0763
 4264SOL     OW24253   1.903   0.699   3.509  0.2910 -0.8373  0.4096
 4264SOL    HW124254   1.859   0.628   3.557 -1.5118  1.5273  2.2533
 4264SOL    HW224255   1.861   0.779   3.539 -1.1298 -0.6742 -2.0371
 4265SOL     OW24256   0.594   4.160   6.497 -0.3383  0.6164 -0.3395
 4265SOL    HW124257   0.640   4.227   6.549  0.6309 -0.7054  0.5204
 4265SOL    HW224258   0.634   4.187   6.414 -0.6337  1.0013 -0.3552
 4266SOL     OW24259   3.996   0.155   9.145  0.1452  0.4632  0.0011
 4266SOL    HW124260   4.074   0.129   9.195 -1.1086  0.2137  1.8110
 4266SOL    HW224261   3.945   0.091   9.194 -1.1905  1.2021 -0.4342
 4267SOL     OW24262   2.341   3.713   3.129  0.4868 -0.3988 -0.1780
 4267SOL    HW124263   2.364   3.697   3.037  2.2592 -5.2078  1.1117
 4267SOL    HW224264   2.428   3.714   3.168  2.0902 -1.1529 -3.7288
 4268SOL     OW24265   2.141   3.469   6.264 -0.7729 -0.1395  0.6770
 4268SOL    HW124266   2.074   3.400   6.264  1.1000 -1.9788  0.9971
 4268SOL    HW224267   2.173   3.465   6.174 -1.3793  1.2439  0.4010
 4269SOL     OW24268   2.312   4.008   5.965  0.9199  0.2065  0.2588
 4269SOL    HW124269   2.254   3.945   6.007  0.1722  1.2568  0.7981
 4269SOL    HW224270   2.395   3.964   5.950  0.6782  0.4671 -1.8862
 4270SOL     OW24271   1.619   2.576   6.043 -0.0299  0.1054 -0.2188
 4270SOL    HW124272   1.604   2.484   6.066  0.8967  0.1517  0.5699
 4270SOL    HW224273   1.625   2.608   6.133 -0.1066 -2.7037  0.7879
 4271SOL     OW24274   4.352   4.630   8.771  0.2611 -0.1119  0.6701
 4271SOL    HW124275   4.424   4.628   8.708  0.0903  0.3374  0.4615
 4271SOL    HW224276   4.296   4.555   8.748  0.2303 -0.0768  0.6290
 4272SOL     OW24277   1.039   1.461   3.372 -0.2677  0.6639 -0.3707
 4272SOL    HW124278   1.115   1.515   3.350 -0.6579  1.6907  0.7908
 4272SOL    HW224279   1.035   1.405   3.295 -0.0057  0.2395 -0.0784
 4273SOL     OW24280   4.556   4.217  11.663 -0.6093 -0.5700  0.1287
 4273SOL    HW124281   4.509   4.258  11.735 -0.1222 -0.3839  0.3398
 4273SOL    HW224282   4.532   4.125  11.670  1.6475 -1.3820 -2.7266
 4274SOL     OW24283   1.832   1.531   8.620  0.3601 -0.1498 -0.1143
 4274SOL    HW124284   1.757   1.489   8.662  1.1053 -2.2923 -0.9501
 4274SOL    HW224285   1.796   1.550   8.533  2.3251 -0.2193 -0.9265
 4275SOL     OW24286   3.837   1.236   8.721  0.4414 -0.7732  0.1879
 4275SOL    HW124287   3.930   1.234   8.701 -0.2377 -2.5366 -2.7237
 4275SOL    HW224288   3.847   1.242   8.816  0.7653 -2.2549  0.2454
 4276SOL     OW24289   1.343   2.405   3.247 -0.4191  0.3087 -0.3573
 4276SOL    HW124290   1.420   2.357   3.278 -0.6965  0.3235  0.3452
 4276SOL    HW224291   1.280   2.361   3.303 -0.6000 -1.3060 -1.8370
 4277SOL     OW24292   3.877   4.300   3.545 -0.1657 -0.2081 -0.2265
 4277SOL    HW124293   3.965   4.287   3.582 -0.0578  0.8000 -0.1185
 4277SOL    HW224294   3.825   4.331   3.619 -1.3528 -0.9817 -0.7507
 4278SOL     OW24295   1.864   3.843  14.108 -0.7203  0.0363 -0.7486
 4278SOL    HW124296   1.895   3.931  14.131 -0.2961 -0.1147 -0.7544
 4278SOL    HW224297   1.906   3.791  14.176  1.8956  0.8990 -1.6882
 4279SOL     OW24298   0.777   3.482   0.001 -0.2553 -0.0836 -0.2078
 4279SOL    HW124299   0.797   3.421  17.631  1.1832 -0.3413  0.4200
 4279SOL    HW224300   0.739   3.558  17.658 -0.4302  0.2122  0.4477
 4280SOL     OW24301   3.502   3.311   5.372  0.2458  0.7529 -0.5287
 4280SOL    HW124302   3.551   3.257   5.311 -2.1848 -1.5200 -0.4624
 4280SOL    HW224303   3.550   3.394   5.374 -0.4224  1.0579  2.2235
 4281SOL     OW24304   0.587   1.562   2.873  0.1613 -0.2969 -0.1523
 4281SOL    HW124305   0.494   1.538   2.880 -0.5405  2.3488 -0.4766
 4281SOL    HW224306   0.575   1.656   2.888 -0.3454 -0.6158  1.4543
 4282SOL     OW24307   1.020   3.296  14.985  0.0045  0.0153  0.3038
 4282SOL    HW124308   1.088   3.279  14.919  0.6225  0.3655  0.8598
 4282SOL    HW224309   0.955   3.237  14.947 -0.1143 -0.5293  1.3558
 4283SOL     OW24310   0.900   2.096   7.777  0.1138  0.6047 -0.1610
 4283SOL    HW124311   0.889   2.002   7.786 -0.3707  0.6171 -0.6296
 4283SOL    HW224312   0.810   2.112   7.749 -0.2137  0.7868  0.9865
 4284SOL     OW24313   4.309   0.981  13.061 -0.1055 -0.5386  0.1566
 4284SOL    HW124314   4.358   1.001  12.981  0.1239 -1.1284  0.1506
 4284SOL    HW224315   4.220   0.964  13.031 -0.3565  0.5990  0.2707
 4285SOL     OW24316   1.164   1.891  12.194 -0.3283 -0.3502 -0.0316
 4285SOL    HW124317   1.211   1.830  12.137  1.1464  1.2490 -0.5283
 4285SOL    HW224318   1.231   1.896  12.262 -2.7536  1.5375  2.2156
 4286SOL     OW24319   2.483   0.964   6.777 -0.5666  0.0482  0.1359
 4286SOL    HW124320   2.561   0.924   6.739  0.0503 -0.5504  2.0139
 4286SOL    HW224321   2.507   0.962   6.870  0.1245  1.2518 -0.0078
 4287SOL     OW24322   3.978   0.250   5.610 -0.9278  0.1649 -0.6118
 4287SOL    HW124323   3.999   0.344   5.608  0.0391 -0.0523 -0.5953
 4287SOL    HW224324   4.025   0.211   5.683 -0.8472 -0.4505 -0.9956
 4288SOL     OW24325   3.524   1.578  11.245  0.2718  0.6367  0.2253
 4288SOL    HW124326   3.547   1.649  11.186  0.7901 -1.0098 -1.5545
 4288SOL    HW224327   3.480   1.521  11.182  0.6972  0.7654 -0.1869
 4289SOL     OW24328   2.304   0.223   8.577 -0.0513  0.5698  0.0199
 4289SOL    HW124329   2.374   0.159   8.591 -0.4320  0.2928  0.6480
 4289SOL    HW224330   2.343   0.300   8.619 -0.1262  0.1567  0.8453
 4290SOL     OW24331   2.870   0.451   5.233  1.1749 -0.6419  0.4479
 4290SOL    HW124332   2.937   0.484   5.293  0.3921  0.3229  0.7959
 4290SOL    HW224333   2.902   0.364   5.210  0.0413 -1.0998  0.5931
 4291SOL     OW24334   1.746   2.579  10.306  0.6042  0.4629  0.0710
 4291SOL    HW124335   1.658   2.544  10.290 -0.1344  2.6175 -0.6857
 4291SOL    HW224336   1.721   2.664  10.343  3.3327  1.5712 -0.6027
 4292SOL     OW24337   3.575   2.139   7.795 -0.4666  0.2337  0.3374
 4292SOL    HW124338   3.519   2.174   7.725 -0.1234 -1.3021 -0.7034
 4292SOL    HW224339   3.522   2.077   7.844  1.4716 -1.0165  0.8657
 4293SOL     OW24340   0.893   1.734  10.721 -0.0667  0.2327 -0.0818
 4293SOL    HW124341   0.875   1.649  10.680  1.5210 -0.2403  0.1730
 4293SOL    HW224342   0.925   1.784  10.646 -1.2918 -1.5636 -1.8154
 4294SOL     OW24343   2.733   0.401   6.423  0.5500  0.0476  0.4093
 4294SOL    HW124344   2.827   0.383   6.420  0.4544 -0.4630  0.3674
 4294SOL    HW224345   2.703   0.414   6.333  0.3315 -0.2854  0.4310
 4295SOL     OW24346   4.386   3.415   1.618 -0.4477  0.2730 -0.0961
 4295SOL    HW124347   4.339   3.352   1.673 -0.7925 -1.2981 -2.1526
 4295SOL    HW224348   4.333   3.406   1.539 -0.4384  0.5970 -0.1388
 4296SOL     OW24349   1.825   4.233   0.087  0.2871  0.4407 -0.7838
 4296SOL    HW124350   1.911   4.262   0.056  0.8099  0.6452  0.8664
 4296SOL    HW224351   1.838   4.248   0.180  2.3039 -1.6863 -0.7325
 4297SOL     OW24352   0.238   4.114   9.103 -0.3276  0.7959  0.9175
 4297SOL    HW124353   0.295   4.153   9.170 -0.0334  1.1522  0.4625
 4297SOL    HW224354   0.183   4.192   9.093 -1.2200  0.3400  2.2193
 4298SOL     OW24355   4.176   2.777   9.148  0.5586 -0.0547  0.3639
 4298SOL    HW124356   4.253   2.803   9.197  0.7059 -1.2270  0.7559
 4298SOL    HW224357   4.104   2.807   9.204  0.2737  0.3807 -0.2288
 4299SOL     OW24358   4.557   1.982   4.356  0.0137  0.2083 -0.2824
 4299SOL    HW124359   4.578   1.943   4.441 -1.3434  0.1780  0.0538
 4299SOL    HW224360   4.537   1.904   4.305 -0.1796  1.3872 -2.0210
 4300SOL     OW24361   3.022   2.100   3.222  0.7231 -0.2061 -0.1181
 4300SOL    HW124362   2.941   2.087   3.271  0.9476 -1.3619 -0.0411
 4300SOL    HW224363   3.072   2.029   3.263  2.3344  0.2936 -1.2299
 4301SOL     OW24364   4.288   4.248   1.162 -0.2600 -0.0633 -0.0165
 4301SOL    HW124365   4.216   4.279   1.217  0.3879  1.1352  0.1657
 4301SOL    HW224366   4.358   4.312   1.177  0.8746 -2.0877  3.2518
 4302SOL     OW24367   2.278   1.817   7.657  0.1173  0.2904 -0.3602
 4302SOL    HW124368   2.320   1.840   7.740  1.2973  0.3930 -0.9823
 4302SOL    HW224369   2.298   1.893   7.601  2.8011 -0.9443 -1.0929
 4303SOL     OW24370   2.530   4.390  10.009  0.4339  0.7556 -0.1226
 4303SOL    HW124371   2.530   4.483  10.034 -0.1030  0.8225 -0.3819
 4303SOL    HW224372   2.527   4.345  10.094  0.9723  0.9428 -0.0002
 4304SOL     OW24373   0.601   1.049   2.577  0.7446 -0.0602  0.0801
 4304SOL    HW124374   0.533   0.988   2.549  0.9843 -0.3149  0.0445
 4304SOL    HW224375   0.642   1.018   2.658  0.2026  0.1661  0.4390
 4305SOL     OW24376   0.963   4.238   8.805 -0.1438  0.8765 -0.0041
 4305SOL    HW124377   0.885   4.266   8.756 -0.9605 -1.0503  0.1949
 4305SOL    HW224378   1.020   4.313   8.783 -0.2245  1.1375  0.6743
 4306SOL     OW24379   3.180   2.659  15.935  0.3271  0.8360 -0.0738
 4306SOL    HW124380   3.267   2.657  15.895  0.8515 -0.0940  1.1116
 4306SOL    HW224381   3.152   2.729  15.875 -1.2267 -0.9537 -1.4468
 4307SOL     OW24382   3.002   1.329   5.509 -0.2964  0.4699 -0.2198
 4307SOL    HW124383   2.953   1.305   5.430  1.2967 -0.7498 -0.8272
 4307SOL    HW224384   3.003   1.424   5.496  1.1287  0.3098 -1.2504
 4308SOL     OW24385   1.779   2.583   6.527 -0.0392 -0.3992 -0.1717
 4308SOL    HW124386   1.769   2.495   6.564  2.8818 -0.2271  1.0636
 4308SOL    HW224387   1.819   2.630   6.600 -2.5538  2.1397 -0.4315
 4309SOL     OW24388   1.954   3.499   7.943 -0.0306 -0.2367  0.3208
 4309SOL    HW124389   1.926   3.498   8.034  0.4416 -4.6863  0.4186
 4309SOL    HW224390   1.947   3.592   7.921  0.9038  0.3330  2.5217
 4310SOL     OW24391   0.911   3.635   8.901  0.7185 -0.6503 -0.2571
 4310SOL    HW124392   0.865   3.655   8.819  1.0907 -1.1172 -0.5786
 4310SOL    HW224393   0.847   3.572   8.934  1.6403 -0.2405  2.2703
 4311SOL     OW24394   1.026   1.100   6.422 -0.0861  0.0985 -0.0299
 4311SOL    HW124395   1.039   1.088   6.516  0.4340  1.4304  0.0614
 4311SOL    HW224396   1.110   1.055   6.408  0.3357  1.1373 -0.7963
 4312SOL     OW24397   3.348   0.997   7.374 -0.1438  0.1702  0.4126
 4312SOL    HW124398   3.313   1.038   7.453  0.8636  1.7248  0.0573
 4312SOL    HW224399   3.389   0.918   7.410  1.5745  0.4778 -0.8566
 4313SOL     OW24400   3.551   1.000  13.167 -0.0434  0.2038  0.2223
 4313SOL    HW124401   3.461   0.970  13.153  0.2333 -0.3168 -0.4793
 4313SOL    HW224402   3.528   1.089  13.193 -1.2879  0.2674 -1.1068
 4314SOL     OW24403   2.981   3.852   3.409 -0.0905 -0.1444  0.0696
 4314SOL    HW124404   2.908   3.825   3.464 -2.7531 -0.5480 -3.6867
 4314SOL    HW224405   2.994   3.943   3.435 -1.1204 -0.1715  0.6726
 4315SOL     OW24406   2.003   1.917   4.879  0.4874 -0.8589 -0.0443
 4315SOL    HW124407   1.960   1.867   4.949 -3.3128  2.2167 -0.1730
 4315SOL    HW224408   2.027   1.841   4.826 -2.3668 -2.7239  1.3415
 4316SOL     OW24409   1.083   0.175   2.491  0.1785 -0.2639  0.0283
 4316SOL    HW124410   0.995   0.212   2.478  0.3758 -0.0960 -0.8196
 4316SOL    HW224411   1.079   0.110   2.561  2.7152 -1.1045 -0.6196
 4317SOL     OW24412   4.567   0.722   5.527 -0.0352 -0.6714 -0.3457
 4317SOL    HW124413   4.652   0.685   5.553  0.5887  2.1301  1.5816
 4317SOL    HW224414   4.581   0.816   5.536 -0.8225 -0.5445 -0.4311
 4318SOL     OW24415   0.999   1.875   1.939  0.6105  0.2736  0.1199
 4318SOL    HW124416   1.038   1.794   1.907  1.8415  0.7857  0.3071
 4318SOL    HW224417   0.986   1.935   1.865  2.9175 -0.2038 -0.6929
 4319SOL     OW24418   4.290   3.676  10.986  0.5390 -0.1840  0.4774
 4319SOL    HW124419   4.332   3.655  10.903  0.2837 -0.9746  0.5467
 4319SOL    HW224420   4.291   3.771  10.978  0.5957 -0.2890 -0.6855
 4320SOL     OW24421   1.079   1.523  10.190  0.1465  0.1697 -0.2154
 4320SOL    HW124422   1.173   1.504  10.181 -0.3257 -2.8049  0.8940
 4320SOL    HW224423   1.042   1.476  10.115  0.8550 -1.8407  0.6786
 4321SOL     OW24424   1.043   3.111   7.256  0.3750 -0.1176  0.5137
 4321SOL    HW124425   0.981   3.055   7.303 -0.8516 -0.5761 -1.6563
 4321SOL    HW224426   1.067   3.165   7.331 -2.0881 -1.0509  1.9996
 4322SOL     OW24427   1.328   3.347   6.465  0.3524  0.1461 -0.0726
 4322SOL    HW124428   1.356   3.438   6.457  1.9916 -0.3900 -0.3718
 4322SOL    HW224429   1.294   3.325   6.379  0.8864  0.5451 -0.3890
 4323SOL     OW24430   2.501   0.581   5.811 -0.6263  0.0776  0.1469
 4323SOL    HW124431   2.412   0.552   5.827 -0.1337  0.9069  4.4572
 4323SOL    HW224432   2.496   0.606   5.719  1.3325  1.0761  0.2891
 4324SOL     OW24433   2.861   0.156   6.209 -0.5989 -0.3098  0.3095
 4324SOL    HW124434   2.773   0.130   6.236 -1.5280  2.7215  0.1943
 4324SOL    HW224435   2.888   0.077   6.163  0.4852  0.8267 -0.9915
 4325SOL     OW24436   3.626   2.195   2.252  0.6477  0.1091  0.1310
 4325SOL    HW124437   3.663   2.224   2.335 -0.8829 -1.2550  1.2785
 4325SOL    HW224438   3.607   2.275   2.204 -0.3811  1.6843  3.1586
 4326SOL     OW24439   1.606   4.002   6.140 -0.5823 -0.2500  0.1397
 4326SOL    HW124440   1.679   4.063   6.126 -0.6069 -0.7590 -2.2576
 4326SOL    HW224441   1.613   3.990   6.234  1.3118  0.7018  0.1253
 4327SOL     OW24442   0.016   3.853  13.731  0.0714  0.0482  0.1345
 4327SOL    HW124443   4.708   3.764  13.739  0.9927 -0.4851 -1.9272
 4327SOL    HW224444   4.693   3.879  13.653  2.4439  4.8712  0.3207
 4328SOL     OW24445   1.877   3.915   2.453  0.1005 -0.0969 -0.4239
 4328SOL    HW124446   1.854   3.826   2.429  0.0099 -0.0453 -0.5274
 4328SOL    HW224447   1.863   3.904   2.547  0.5466 -0.5741 -0.4114
 4329SOL     OW24448   4.723   4.425   7.926 -0.0565 -0.3102  0.1688
 4329SOL    HW124449   4.703   4.338   7.892 -2.5383  1.0615 -1.8137
 4329SOL    HW224450   0.092   4.430   7.944 -0.2591 -1.6653  1.6699
 4330SOL     OW24451   1.547   1.401   2.358 -0.2968 -0.3887 -0.2677
 4330SOL    HW124452   1.588   1.417   2.272  0.4089  0.7229  0.2720
 4330SOL    HW224453   1.468   1.453   2.343 -0.4190 -0.4431  0.1967
 4331SOL     OW24454   1.772   1.179  17.258 -0.0754  0.1230 -0.3932
 4331SOL    HW124455   1.688   1.166  17.214 -0.8965  1.1076  0.8893
 4331SOL    HW224456   1.753   1.144  17.346 -0.7691 -1.7480 -1.2770
 4332SOL     OW24457   3.623   1.318   4.266 -0.0178 -0.0274  0.3334
 4332SOL    HW124458   3.549   1.328   4.325 -1.0826  0.5212 -1.1092
 4332SOL    HW224459   3.620   1.401   4.219  0.0271 -0.3952 -0.3063
 4333SOL     OW24460   2.797   2.247   3.790  0.1224  0.1223  0.3795
 4333SOL    HW124461   2.775   2.320   3.732 -3.2007  1.4195  3.3256
 4333SOL    HW224462   2.766   2.275   3.876  2.5669  0.1727  1.2619
 4334SOL     OW24463   1.213   3.513  11.600  0.7780 -0.2951  0.1411
 4334SOL    HW124464   1.246   3.426  11.626 -2.6908 -1.7141 -0.1716
 4334SOL    HW224465   1.172   3.486  11.518  3.8666 -1.7451 -0.9537
 4335SOL     OW24466   0.087   3.280   7.361 -0.1247 -0.1028 -0.9922
 4335SOL    HW124467   0.110   3.364   7.322 -0.4353 -0.6366 -2.3548
 4335SOL    HW224468   4.720   3.297   7.379 -0.0636  0.5995 -1.3429
 4336SOL     OW24469   3.949   2.417   7.190 -0.0096  0.0716 -0.2705
 4336SOL    HW124470   4.001   2.428   7.270 -0.0693  1.2264 -0.3910
 4336SOL    HW224471   3.945   2.509   7.164  0.8110  0.2983  0.4249
 4337SOL     OW24472   3.001   1.117   6.602  0.6270 -0.2264 -0.2483
 4337SOL    HW124473   3.047   1.193   6.565 -0.3615 -0.2364 -1.4828
 4337SOL    HW224474   2.911   1.134   6.577  0.6386 -4.1848 -2.9803
 4338SOL     OW24475   4.281   4.206   8.339  0.2042 -0.3277 -0.3355
 4338SOL    HW124476   4.245   4.170   8.420  2.7357 -2.3685 -0.1047
 4338SOL    HW224477   4.286   4.299   8.362 -0.0154 -0.5138  0.4636
 4339SOL     OW24478   3.432   4.038   6.898 -0.3427 -0.3831  0.1813
 4339SOL    HW124479   3.462   3.984   6.824 -0.9476  2.1618 -1.9033
 4339SOL    HW224480   3.510   4.046   6.952 -1.1991  0.6707  1.2357
 4340SOL     OW24481   0.983   0.731   2.623 -0.5754 -0.2218  0.5233
 4340SOL    HW124482   0.937   0.667   2.677 -0.8908 -0.1114  0.3825
 4340SOL    HW224483   1.014   0.657   2.570 -1.5381 -0.3236  0.1082
 4341SOL     OW24484   4.356   4.288   7.013 -0.2979 -0.0885 -0.0418
 4341SOL    HW124485   4.395   4.207   7.046 -3.1280 -0.7312  1.7758
 4341SOL    HW224486   4.360   4.273   6.919  0.7731  2.1500 -0.3567
 4342SOL     OW24487   3.188   2.617   5.645  0.0281 -0.4421 -0.3031
 4342SOL    HW124488   3.196   2.547   5.580 -1.0423 -0.2477 -0.6545
 4342SOL    HW224489   3.231   2.683   5.591 -0.8379  1.0089  0.8020
 4343SOL     OW24490   4.581   0.262   1.853  0.0308 -0.0268  0.1164
 4343SOL    HW124491   4.638   0.298   1.785 -1.5595  0.2751 -1.0449
 4343SOL    HW224492   4.505   0.273   1.796 -0.6704  0.4368  1.1364
 4344SOL     OW24493   2.867   0.956   9.629 -0.5017 -0.5854  0.2391
 4344SOL    HW124494   2.956   0.989   9.617  0.1185 -1.3265  2.7694
 4344SOL    HW224495   2.884   0.883   9.689 -0.5156 -0.1499  0.7765
 4345SOL     OW24496   1.614   2.739   9.931 -0.1485  0.3966  0.4477
 4345SOL    HW124497   1.523   2.766   9.916 -1.2949 -2.7795  1.8144
 4345SOL    HW224498   1.645   2.821   9.971 -0.5106  0.1499  1.2430
 4346SOL     OW24499   2.758   3.548   6.829  0.1383  0.2564  0.4418
 4346SOL    HW124500   2.824   3.535   6.762 -0.8312 -1.2261 -0.2401
 4346SOL    HW224501   2.691   3.491   6.792 -1.0492  0.9277  1.5534
 4347SOL     OW24502   3.020   3.428  15.462  0.4017 -0.4846  0.2379
 4347SOL    HW124503   2.980   3.400  15.380  0.2605  0.0848  0.1145
 4347SOL    HW224504   3.102   3.459  15.425 -0.1075 -1.5766 -1.8079
 4348SOL     OW24505   4.585   2.732   3.573  0.5975 -0.4542 -0.3880
 4348SOL    HW124506   4.503   2.777   3.590  1.7410  1.5607 -0.2035
 4348SOL    HW224507   4.653   2.793   3.601  1.2495 -0.8712 -1.0682
 4349SOL     OW24508   0.848   2.407  10.448 -0.1859  0.2114 -0.8399
 4349SOL    HW124509   0.933   2.430  10.409  0.2675  0.2567  0.1913
 4349SOL    HW224510   0.833   2.485  10.500  0.1212  0.5642 -1.2834
 4350SOL     OW24511   0.012   4.039   3.231  0.7697 -0.4247  0.3490
 4350SOL    HW124512   4.654   4.024   3.186  1.9485 -0.6047 -1.7748
 4350SOL    HW224513   4.723   4.130   3.259  1.0787  0.6136 -2.8563
 4351SOL     OW24514   0.885   0.553   5.645 -0.3132 -0.4444 -0.1226
 4351SOL    HW124515   0.878   0.632   5.592 -0.3530 -0.9614 -0.8847
 4351SOL    HW224516   0.977   0.561   5.672 -0.1465 -0.1247 -0.7843
 4352SOL     OW24517   3.731   4.635   2.460 -0.0262  0.2181  0.6034
 4352SOL    HW124518   3.658   4.589   2.500  0.1818 -0.9860 -0.3785
 4352SOL    HW224519   3.742   4.572   2.389 -2.8065  0.5823 -0.1410
 4353SOL     OW24520   0.214   3.177  16.611 -0.4820 -0.0582  0.1271
 4353SOL    HW124521   0.277   3.133  16.553  0.2400  1.7292 -0.4390
 4353SOL    HW224522   0.152   3.104  16.611  1.1450 -1.4468 -1.2354
 4354SOL     OW24523   3.340   3.082   6.876  0.2397 -0.4591 -0.4857
 4354SOL    HW124524   3.249   3.057   6.895  0.1610  0.5112  0.4055
 4354SOL    HW224525   3.383   2.997   6.866 -2.3616 -1.8017 -0.4336
 4355SOL     OW24526   4.013   1.832   6.411 -0.0795 -0.5265 -0.1267
 4355SOL    HW124527   4.025   1.760   6.473  1.3009 -0.9631 -0.8863
 4355SOL    HW224528   4.049   1.793   6.331  2.4839 -0.9976  1.2542
 4356SOL     OW24529   0.416   2.872   2.708  0.1486  0.1712 -0.1738
 4356SOL    HW124530   0.350   2.941   2.702  0.2792  0.1660 -1.8877
 4356SOL    HW224531   0.363   2.801   2.674  1.6737 -1.0270 -0.0422
 4357SOL     OW24532   0.791   1.812   7.116  0.0116 -0.3037  0.0237
 4357SOL    HW124533   0.750   1.898   7.123  1.4105  0.1670  2.2926
 4357SOL    HW224534   0.843   1.816   7.196  0.6322 -0.0474 -0.3958
 4358SOL     OW24535   4.445   2.948   3.678 -0.0100  0.0764  0.1324
 4358SOL    HW124536   4.357   2.971   3.707 -0.3708  0.3282 -1.1340
 4358SOL    HW224537   4.487   3.031   3.656  0.6077  0.6413  3.5999
 4359SOL     OW24538   0.920   1.971   9.581 -0.2356 -0.2349 -0.3335
 4359SOL    HW124539   0.915   2.064   9.604  1.1384  0.0587 -1.2512
 4359SOL    HW224540   1.002   1.949   9.625 -0.5478  0.8549  0.8221
 4360SOL     OW24541   2.001   4.015   7.613  0.7844 -0.0691  0.1382
 4360SOL    HW124542   2.047   4.030   7.696 -0.9582 -2.4326  1.5482
 4360SOL    HW224543   1.983   4.104   7.583 -0.0460  0.2413  1.5819
 4361SOL     OW24544   2.706   2.482   5.606  1.0750  0.2386 -0.5831
 4361SOL    HW124545   2.632   2.534   5.639  0.3897 -1.0105 -0.1287
 4361SOL    HW224546   2.775   2.534   5.647  1.3514  0.8250 -1.8113
 4362SOL     OW24547   0.928   1.708  12.464 -0.5571  0.2245 -0.1149
 4362SOL    HW124548   0.909   1.785  12.410 -1.6447 -0.1150 -0.2158
 4362SOL    HW224549   1.019   1.719  12.491 -0.3869 -2.4351  0.4648
 4363SOL     OW24550   3.225   2.512   2.536  0.3623  0.1410  0.5324
 4363SOL    HW124551   3.155   2.464   2.491  1.1234  0.0659 -0.5774
 4363SOL    HW224552   3.208   2.501   2.629 -0.1335 -1.5246  0.2372
 4364SOL     OW24553   4.634   4.260   8.840  0.2993  0.1623 -0.1999
 4364SOL    HW124554   4.565   4.321   8.815 -0.1002  0.6082  1.9623
 4364SOL    HW224555   4.596   4.182   8.799  2.7979 -1.0034 -0.2822
 4365SOL     OW24556   0.080   3.683   3.075  0.2443 -0.4855  0.0556
 4365SOL    HW124557   0.121   3.755   3.123 -0.7038 -1.0533  1.7247
 4365SOL    HW224558   0.014   3.647   3.134  0.7287 -1.5069 -0.0103
 4366SOL     OW24559   2.760   3.493   5.291 -0.1763  0.2124 -0.2170
 4366SOL    HW124560   2.719   3.432   5.229  1.5066  0.1194 -1.2115
 4366SOL    HW224561   2.683   3.545   5.316  0.5653  1.1515  0.1049
 4367SOL     OW24562   1.695   0.659   8.044  0.6621 -0.7040  0.3817
 4367SOL    HW124563   1.747   0.723   8.093 -0.0192  0.4124 -0.3558
 4367SOL    HW224564   1.728   0.664   7.955  0.0914 -1.5760  0.1283
 4368SOL     OW24565   1.284   4.130   3.327  0.6136  0.4273  0.1692
 4368SOL    HW124566   1.310   4.042   3.301 -0.3372 -0.5012  2.3174
 4368SOL    HW224567   1.356   4.171   3.376  0.7023 -0.2029  0.5620
 4369SOL     OW24568   4.397   3.560   0.783  0.4214  0.0205  0.4821
 4369SOL    HW124569   4.430   3.628   0.841  0.0732  1.0701 -0.5608
 4369SOL    HW224570   4.305   3.552   0.809  0.2203 -0.0039 -0.2301
 4370SOL     OW24571   0.894   4.436  11.626 -0.1259  0.2660  0.3800
 4370SOL    HW124572   0.836   4.397  11.692 -1.1083  0.1521 -0.5548
 4370SOL    HW224573   0.858   4.404  11.544  0.0227 -0.8458  0.7484
 4371SOL     OW24574   2.889   1.373   8.477  0.8674 -0.3768 -0.6546
 4371SOL    HW124575   2.863   1.288   8.510  0.1988  0.2195  0.3306
 4371SOL    HW224576   2.983   1.354   8.475  1.1279  1.0509 -2.8995
 4372SOL     OW24577   1.683   4.547   4.827 -0.0655 -0.4540  0.4393
 4372SOL    HW124578   1.623   4.596   4.883  1.5143  0.1084  1.6560
 4372SOL    HW224579   1.627   4.474   4.803 -1.8136  0.6341  1.1678
 4373SOL     OW24580   1.218   0.547   0.217  0.1323 -0.1762  0.5642
 4373SOL    HW124581   1.146   0.579   0.163  0.5964  2.0746  1.2800
 4373SOL    HW224582   1.193   0.454   0.218 -1.7678  0.3465  0.1238
 4374SOL     OW24583   2.822   3.909   4.461  0.4530  0.0425 -0.3400
 4374SOL    HW124584   2.836   3.821   4.495 -1.0951  0.5205  1.5654
 4374SOL    HW224585   2.774   3.953   4.531  0.3001 -0.6851  0.0074
 4375SOL     OW24586   4.033   2.773   0.232 -0.2520  0.1096  0.4208
 4375SOL    HW124587   3.940   2.777   0.209  0.2816  1.4615 -1.5219
 4375SOL    HW224588   4.042   2.834   0.305 -2.3320 -2.0937  2.5131
 4376SOL     OW24589   4.066   4.374   8.537  0.1518  0.1598  0.3163
 4376SOL    HW124590   4.127   4.304   8.560  1.4424  1.1151 -0.1884
 4376SOL    HW224591   4.015   4.381   8.618 -2.9182 -1.8611 -1.4757
 4377SOL     OW24592   2.670   1.044   3.075  0.5785 -0.0909 -0.7181
 4377SOL    HW124593   2.602   1.110   3.060  0.2114 -0.7327 -1.8859
 4377SOL    HW224594   2.628   0.981   3.134 -2.8811  1.8879 -1.1031
 4378SOL     OW24595   1.513   4.510   3.259  0.0177  0.6863 -0.0643
 4378SOL    HW124596   1.544   4.516   3.168 -1.5290 -0.7729 -0.6991
 4378SOL    HW224597   1.581   4.458   3.302  0.3570  1.2146  0.0271
 4379SOL     OW24598   0.800   0.470   5.281  1.0074  0.4563 -0.3527
 4379SOL    HW124599   0.748   0.414   5.223  1.9194  1.3807 -2.0797
 4379SOL    HW224600   0.766   0.445   5.367 -1.7983  3.4912 -0.5789
 4380SOL     OW24601   2.729   4.350  14.835  0.3099 -0.9143 -0.2737
 4380SOL    HW124602   2.820   4.347  14.805  0.9372  0.2135  1.4887
 4380SOL    HW224603   2.717   4.407  14.759  0.2734  0.8946  1.0855
 4381SOL     OW24604   3.487   0.185  13.131 -0.2280 -0.0831  0.1565
 4381SOL    HW124605   3.462   0.168  13.040 -1.1374  2.0382 -0.0098
 4381SOL    HW224606   3.579   0.205  13.114 -0.8054  0.7326 -2.0793
 4382SOL     OW24607   3.420   0.042   3.642 -0.5588 -0.7326 -0.3737
 4382SOL    HW124608   3.396   0.126   3.601 -1.1477 -0.3765  0.6974
 4382SOL    HW224609   3.514   0.026   3.645 -0.1876  1.3306 -1.1127
 4383SOL     OW24610   4.474   4.138   2.410  0.3434 -0.3929 -0.1180
 4383SOL    HW124611   4.532   4.153   2.335 -1.7813 -2.5107 -2.2043
 4383SOL    HW224612   4.421   4.060   2.392  0.1231 -0.0533 -0.9799
 4384SOL     OW24613   3.134   3.289   9.638 -0.4281 -0.5576  0.0203
 4384SOL    HW124614   3.150   3.357   9.704 -0.4424  0.5943 -1.1787
 4384SOL    HW224615   3.094   3.336   9.565 -2.2510 -1.0654  0.6864
 4385SOL     OW24616   4.155   4.626  16.260 -0.0477  0.6423 -0.4432
 4385SOL    HW124617   4.077   4.671  16.293  1.2587  1.3130  1.6449
 4385SOL    HW224618   4.171   4.675  16.179  3.4625 -2.0158 -1.3569
 4386SOL     OW24619   0.181   1.859  10.208  0.4428 -0.5473  0.0159
 4386SOL    HW124620   0.240   1.902  10.269 -1.4975  2.4804 -0.2236
 4386SOL    HW224621   0.230   1.777  10.200 -1.9661 -2.1865  1.9486
 4387SOL     OW24622   0.574   2.194   2.601 -0.1588 -0.0892 -0.0431
 4387SOL    HW124623   0.645   2.237   2.554  0.9190 -1.0759  0.6886
 4387SOL    HW224624   0.516   2.269   2.613  1.5126  1.1372  0.2210
 4388SOL     OW24625   0.431   4.161   2.669 -0.4616  0.0511  0.7953
 4388SOL    HW124626   0.403   4.251   2.685 -1.7613 -0.3604  0.7996
 4388SOL    HW224627   0.354   4.113   2.699  0.1826 -1.3490  0.2207
 4389SOL     OW24628   1.307   2.624   5.416  1.1609 -0.0560  0.1531
 4389SOL    HW124629   1.225   2.633   5.464  0.8405 -0.8100 -0.2513
 4389SOL    HW224630   1.319   2.718   5.405  2.7688 -0.1215  1.4240
 4390SOL     OW24631   2.627   0.170   2.422  0.4055 -0.1718  0.1448
 4390SOL    HW124632   2.533   0.187   2.419  0.3744 -0.4841 -0.8175
 4390SOL    HW224633   2.665   0.247   2.464 -0.8054 -0.7585  2.3331
 4391SOL     OW24634   2.738   2.064   7.385  0.2544  0.3234  0.0977
 4391SOL    HW124635   2.740   2.130   7.454  1.7445  1.4526 -1.0229
 4391SOL    HW224636   2.712   2.122   7.313 -0.1946 -1.1853 -0.9582
 4392SOL     OW24637   1.562   4.365   5.722 -0.2194  0.5080  0.1954
 4392SOL    HW124638   1.576   4.384   5.815 -1.6724 -1.9383  0.9423
 4392SOL    HW224639   1.585   4.446   5.679 -0.5602 -0.0653 -1.0529
 4393SOL     OW24640   3.894   3.802   3.965  0.0687  0.3566  0.2991
 4393SOL    HW124641   3.985   3.811   3.994  1.1738  0.1870 -3.1203
 4393SOL    HW224642   3.868   3.713   3.990 -1.1876  1.1579  1.7995
 4394SOL     OW24643   0.918   1.859  14.783 -0.2920  0.5090  0.0816
 4394SOL    HW124644   0.903   1.935  14.727 -0.9052  0.8733  0.7457
 4394SOL    HW224645   0.837   1.809  14.778 -0.4495  0.7413  0.3582
 4395SOL     OW24646   0.800   0.010   5.968  0.1817  0.2143 -0.0036
 4395SOL    HW124647   0.727   0.002   5.907 -0.5151 -0.0018  0.8566
 4395SOL    HW224648   0.845   4.651   5.968  1.8018  1.0830  0.6634
 4396SOL     OW24649   3.508   0.698   8.672  0.1378 -0.4519 -0.2631
 4396SOL    HW124650   3.439   0.728   8.612  0.6723  1.0434 -0.1430
 4396SOL    HW224651   3.587   0.725   8.625 -1.9828  2.1242 -2.3858
 4397SOL     OW24652   0.655   0.180   1.811  0.1102 -0.1201  0.0971
 4397SOL    HW124653   0.699   0.219   1.736 -0.6906  0.5137 -0.0400
 4397SOL    HW224654   0.564   0.199   1.788  0.0819 -1.0967 -0.6082
 4398SOL     OW24655   3.626   0.973   8.894 -0.0979 -0.2861  0.2139
 4398SOL    HW124656   3.648   0.897   8.947  0.4061 -0.9040 -0.8821
 4398SOL    HW224657   3.714   1.006   8.878 -1.0573  0.7688 -2.8689
 4399SOL     OW24658   3.178   0.802  14.391 -1.1553  0.2386 -0.1597
 4399SOL    HW124659   3.266   0.814  14.354 -0.9879 -2.8804 -0.8105
 4399SOL    HW224660   3.173   0.707  14.395 -0.5750  0.2343  0.4945
 4400SOL     OW24661   3.424   0.880  17.044  0.3139  0.5373  0.1130
 4400SOL    HW124662   3.367   0.881  16.967  3.0177  1.9034 -1.8729
 4400SOL    HW224663   3.446   0.974  17.045  0.9549  0.3902 -0.6092
 4401SOL     OW24664   2.882   2.363   2.854 -0.2945 -0.8156  0.1604
 4401SOL    HW124665   2.792   2.334   2.868 -0.6543 -0.9079 -2.2579
 4401SOL    HW224666   2.935   2.315   2.917  0.4440 -0.3453 -0.1013
 4402SOL     OW24667   1.329   0.149   1.073  0.3265  0.7330 -0.1502
 4402SOL    HW124668   1.408   0.204   1.078  0.7322 -0.0307  1.7755
 4402SOL    HW224669   1.357   0.084   1.008 -3.8769 -0.9339 -0.2621
 4403SOL     OW24670   3.898   1.767  11.352  0.1617  0.4322 -0.2889
 4403SOL    HW124671   3.828   1.732  11.408 -0.4716 -0.6826 -1.7791
 4403SOL    HW224672   3.873   1.710  11.279  1.3392 -1.3266  0.6982
 4404SOL     OW24673   0.982   0.594   0.783  0.0793  0.0677  0.5644
 4404SOL    HW124674   1.003   0.566   0.872 -0.5579 -0.7312  0.4693
 4404SOL    HW224675   1.067   0.631   0.761  0.7374 -1.4711  0.4721
 4405SOL     OW24676   3.083   1.916  13.078 -0.3069 -0.5797 -0.1243
 4405SOL    HW124677   3.139   1.972  13.132  0.8294 -1.8315  0.0021
 4405SOL    HW224678   3.136   1.836  13.081  0.1219 -0.2972 -0.1568
 4406SOL     OW24679   2.723   3.961   9.353  0.1684 -0.3946  0.0536
 4406SOL    HW124680   2.669   3.883   9.340 -0.4778 -0.3111  2.2503
 4406SOL    HW224681   2.666   4.000   9.420  0.0546  0.9987 -0.8648
 4407SOL     OW24682   4.724   3.436   3.804  0.3786  0.3962  0.1498
 4407SOL    HW124683   0.066   3.378   3.840 -0.6740  0.3781  2.0855
 4407SOL    HW224684   0.051   3.499   3.753 -0.6799  1.2906  0.1797
 4408SOL     OW24685   0.004   1.885  15.089  0.0987  0.0912  0.2754
 4408SOL    HW124686   0.019   1.896  14.995 -2.7755 -0.1274 -0.2321
 4408SOL    HW224687   0.024   1.792  15.099  2.2799  0.4278 -1.0012
 4409SOL     OW24688   1.104   4.239  10.038 -0.5345 -0.1399 -0.1578
 4409SOL    HW124689   1.099   4.222  10.132  0.7248  0.5387  0.0328
 4409SOL    HW224690   1.016   4.275  10.024 -1.2062 -0.8088  2.3301
 4410SOL     OW24691   4.055   3.937   7.886  0.3333 -0.7083 -0.1242
 4410SOL    HW124692   4.031   3.890   7.806  0.0059 -0.4452 -0.1797
 4410SOL    HW224693   4.122   3.877   7.919 -1.3063 -2.8634 -0.6711
 4411SOL     OW24694   4.498   0.884   9.752  0.4201 -0.2998  0.0488
 4411SOL    HW124695   4.577   0.869   9.804 -0.0892 -1.4107  0.5077
 4411SOL    HW224696   4.529   0.930   9.674  1.0928 -1.5985 -0.4379
 4412SOL     OW24697   4.723   2.503   8.002 -0.0692  0.2892  0.7181
 4412SOL    HW124698   4.635   2.522   8.034  0.1229 -0.9742  2.0485
 4412SOL    HW224699   0.004   2.567   7.932 -0.2962 -1.0755 -0.5629
 4413SOL     OW24700   4.408   1.236  10.465  0.1974  0.2241  0.3938
 4413SOL    HW124701   4.476   1.249  10.531 -0.0911  0.1612  0.7049
 4413SOL    HW224702   4.378   1.326  10.457 -2.6869 -0.8296 -0.9980
 4414SOL     OW24703   1.011   4.604   7.656  0.3143 -0.5366 -0.0615
 4414SOL    HW124704   0.927   4.595   7.611 -0.5174  2.1187  0.9578
 4414SOL    HW224705   1.064   4.646   7.588 -1.9911  0.2215 -1.4207
 4415SOL     OW24706   1.082   4.152  10.291 -0.1805  0.6277 -0.1109
 4415SOL    HW124707   1.144   4.087  10.325  0.5655  0.2958 -2.1393
 4415SOL    HW224708   1.101   4.229  10.345  1.7907  0.1665 -0.1202
 4416SOL     OW24709   3.123   4.569  13.169 -0.0791  0.0039 -0.0514
 4416SOL    HW124710   3.149   4.655  13.202 -3.0075  1.0654 -0.4877
 4416SOL    HW224711   3.210   4.536  13.147  0.0862  1.2406 -1.2622
 4417SOL     OW24712   1.444   4.040   6.538 -0.1417 -0.3321 -0.7465
 4417SOL    HW124713   1.373   4.070   6.481  0.5045 -0.1405 -1.4451
 4417SOL    HW224714   1.409   3.992   6.613 -0.0162 -2.5458 -2.0992
 4418SOL     OW24715   4.373   1.226   2.648 -0.1592  0.2732 -0.2552
 4418SOL    HW124716   4.404   1.229   2.558 -1.5943 -0.0866 -0.7546
 4418SOL    HW224717   4.333   1.310   2.670  0.1949  0.4578 -0.3173
 4419SOL     OW24718   0.705   2.860   6.630 -0.2638  0.0031  0.4960
 4419SOL    HW124719   0.636   2.893   6.687  0.8667  0.4589  1.6073
 4419SOL    HW224720   0.739   2.788   6.682  2.6349  1.1731  0.2449
 4420SOL     OW24721   3.320   3.862   7.485 -0.0153  0.2717  0.8227
 4420SOL    HW124722   3.232   3.858   7.523 -0.5085 -2.1558 -0.5712
 4420SOL    HW224723   3.372   3.926   7.533  2.9098 -0.1098 -1.8717
 4421SOL     OW24724   2.703   4.310   0.449 -0.1747  0.1134 -0.3137
 4421SOL    HW124725   2.638   4.339   0.385  0.5859  0.4179 -0.9389
 4421SOL    HW224726   2.762   4.274   0.383 -0.1850 -1.4248  0.5140
 4422SOL     OW24727   0.691   0.432   3.597  0.1512  0.0231  0.6549
 4422SOL    HW124728   0.596   0.440   3.608 -0.1608 -0.5319 -1.5324
 4422SOL    HW224729   0.718   0.521   3.575 -1.2229  0.9158  2.6526
 4423SOL     OW24730   1.476   2.309   7.109 -0.2814  0.5822 -0.1096
 4423SOL    HW124731   1.500   2.355   7.029  2.0354 -0.2145  0.1149
 4423SOL    HW224732   1.461   2.376   7.175 -0.8041  0.5021 -0.1474
 4424SOL     OW24733   2.744   2.710  16.566  0.1425 -0.5680  0.7474
 4424SOL    HW124734   2.821   2.767  16.563 -0.4702  0.1941 -0.7143
 4424SOL    HW224735   2.702   2.735  16.648  2.7749  1.6264  1.4361
 4425SOL     OW24736   3.322   3.937  12.711 -0.1855  0.0466  0.4840
 4425SOL    HW124737   3.283   4.013  12.667 -0.1826  0.6083  1.4471
 4425SOL    HW224738   3.412   3.969  12.711 -0.3234  0.4443 -1.0390
 4426SOL     OW24739   0.724   0.584  10.071  0.6281 -0.0838  0.1590
 4426SOL    HW124740   0.678   0.621  10.146  1.4062 -0.7122  0.9490
 4426SOL    HW224741   0.735   0.495  10.107 -0.9404 -1.4274 -2.6743
 4427SOL     OW24742   1.360   3.350   7.289 -0.7456 -0.0582 -0.6596
 4427SOL    HW124743   1.380   3.260   7.265 -1.6503 -0.8597  1.6320
 4427SOL    HW224744   1.403   3.354   7.375 -0.4520 -1.2414 -0.7566
 4428SOL     OW24745   4.136   0.586   6.693  0.5232 -0.0983 -0.1845
 4428SOL    HW124746   4.112   0.493   6.694 -1.1559  0.3348  1.4984
 4428SOL    HW224747   4.080   0.605   6.619  1.4588  1.8966 -0.3613
 4429SOL     OW24748   1.824   4.260   6.465  0.1427 -0.0849 -0.3620
 4429SOL    HW124749   1.895   4.306   6.421 -0.8057  0.3563 -1.4191
 4429SOL    HW224750   1.756   4.327   6.467  1.3750  1.0985  1.7472
 4430SOL     OW24751   0.392   1.684   8.168  0.1164  0.3876  0.3471
 4430SOL    HW124752   0.415   1.678   8.076  0.0506 -0.3240  0.3767
 4430SOL    HW224753   0.474   1.659   8.212 -0.4399 -2.5310 -0.3203
 4431SOL     OW24754   3.542   1.578   2.538  0.0869  0.1821 -0.4590
 4431SOL    HW124755   3.601   1.651   2.517  1.9428 -0.6593  1.8318
 4431SOL    HW224756   3.499   1.562   2.454 -0.5190 -3.0590  0.4715
 4432SOL     OW24757   1.963   4.200   5.067 -0.0997 -0.1491  0.4647
 4432SOL    HW124758   1.921   4.286   5.068  1.3131  0.5977 -1.6589
 4432SOL    HW224759   1.945   4.175   5.157  0.8107  0.6603  0.8707
 4433SOL     OW24760   1.098   1.706  15.059  0.3621 -0.1739  0.2297
 4433SOL    HW124761   1.045   1.704  14.979 -0.1123 -2.3485  0.6091
 4433SOL    HW224762   1.059   1.643  15.119 -1.0566  0.3425 -0.1649
 4434SOL     OW24763   0.830   2.392   4.125  0.1449 -0.5909  0.2544
 4434SOL    HW124764   0.786   2.467   4.084  0.3203 -0.1363  0.9029
 4434SOL    HW224765   0.799   2.398   4.215 -1.1304  1.6903 -0.3351
 4435SOL     OW24766   1.232   4.127   2.068 -0.6689  0.0116 -0.0769
 4435SOL    HW124767   1.203   4.111   1.979 -1.8481 -0.8508  0.4544
 4435SOL    HW224768   1.247   4.039   2.102 -0.2826 -1.1403 -3.3236
 4436SOL     OW24769   1.063   1.507   2.468  0.4565  0.2370 -0.0398
 4436SOL    HW124770   1.108   1.520   2.551  1.5600  2.1776 -0.9227
 4436SOL    HW224771   1.059   1.599   2.442  0.3018 -0.6079 -3.0674
 4437SOL     OW24772   4.544   0.999   5.988  0.1965  0.2390 -0.3683
 4437SOL    HW124773   4.575   0.957   5.908  1.5197 -1.1364  0.8540
 4437SOL    HW224774   4.626   1.002   6.038 -0.2554  1.6102  0.3003
 4438SOL     OW24775   2.385   3.089   4.219  0.0049  0.3140 -0.5943
 4438SOL    HW124776   2.312   3.108   4.159  0.6039 -1.4747 -1.9028
 4438SOL    HW224777   2.374   2.995   4.233  1.7829  0.4500  1.7067
 4439SOL     OW24778   2.869   4.575  13.076  0.3974 -0.5376  0.0342
 4439SOL    HW124779   2.889   4.626  12.997  0.3481 -0.3810  0.1231
 4439SOL    HW224780   2.953   4.572  13.121 -0.4247  0.9746  1.6631
 4440SOL     OW24781   2.398   0.407  16.762  0.3439  0.1923 -0.3132
 4440SOL    HW124782   2.356   0.323  16.742  1.1227  0.0108 -1.1738
 4440SOL    HW224783   2.397   0.454  16.678 -0.4745  1.6346  0.4900
 4441SOL     OW24784   1.228   4.169   7.654 -0.7347 -0.1783  0.6882
 4441SOL    HW124785   1.173   4.247   7.660 -0.3006 -0.0813  3.4499
 4441SOL    HW224786   1.313   4.208   7.674  0.1801 -1.7604 -0.1654
 4442SOL     OW24787   4.604   1.917   4.629  0.1790  0.2450  0.2134
 4442SOL    HW124788   4.673   1.974   4.663 -1.0759  1.3655  0.9127
 4442SOL    HW224789   4.554   1.906   4.710  0.1741  1.6846  0.4056
 4443SOL     OW24790   0.629   3.596   7.523  0.1292 -0.0667 -0.1676
 4443SOL    HW124791   0.596   3.507   7.513  0.8090 -0.2834 -0.5063
 4443SOL    HW224792   0.718   3.572   7.494  0.3656 -0.4302  0.8385
 4444SOL     OW24793   2.795   1.961   3.752  0.0301 -0.1044 -0.0438
 4444SOL    HW124794   2.829   1.914   3.828 -2.8641 -0.3304  1.1159
 4444SOL    HW224795   2.792   2.050   3.788  0.8940 -0.1874  0.2268
 4445SOL     OW24796   2.905   3.957   3.959  0.0819  0.3342 -0.1782
 4445SOL    HW124797   2.945   3.889   4.014  0.0576 -0.7666 -1.5242
 4445SOL    HW224798   2.900   4.032   4.018 -1.7023 -2.2503  2.9482
 4446SOL     OW24799   4.663   0.122   6.683  0.4612  0.1762  0.2137
 4446SOL    HW124800   4.696   0.206   6.652  2.0541 -0.9093 -1.0409
 4446SOL    HW224801   4.575   0.155   6.705  0.9673  2.3026 -0.9672
 4447SOL     OW24802   3.315   1.869   5.969 -0.1434  0.2905 -0.0696
 4447SOL    HW124803   3.243   1.813   5.996 -0.8781  0.0977 -2.3829
 4447SOL    HW224804   3.284   1.902   5.885  2.0418  1.9231 -0.2390
 4448SOL     OW24805   1.787   1.259  14.757 -0.8819 -0.0543 -0.2010
 4448SOL    HW124806   1.786   1.284  14.850  0.2296  0.3121 -0.2876
 4448SOL    HW224807   1.880   1.242  14.741 -0.8515 -2.1299  2.1312
 4449SOL     OW24808   1.348   1.753   1.563 -0.0333 -0.1667 -0.7731
 4449SOL    HW124809   1.400   1.823   1.523  0.2426 -0.3383 -0.7175
 4449SOL    HW224810   1.297   1.728   1.486 -0.3152  0.7564 -0.8906
 4450SOL     OW24811   1.326   2.368   7.468  0.0955  0.2637  0.0664
 4450SOL    HW124812   1.405   2.378   7.522  0.5398 -0.0087 -0.5319
 4450SOL    HW224813   1.365   2.412   7.392  0.1984 -1.8143 -1.0625
 4451SOL     OW24814   4.134   2.061   8.317  0.1922  0.1731  0.4352
 4451SOL    HW124815   4.105   1.971   8.330  0.2842  0.2501  1.2162
 4451SOL    HW224816   4.219   2.045   8.279  0.1986  1.6314 -0.1640
 4452SOL     OW24817   0.300   4.327   4.108 -0.2260 -0.6289  0.0722
 4452SOL    HW124818   0.302   4.311   4.202  2.8100  0.2605  0.1544
 4452SOL    HW224819   0.213   4.367   4.098 -0.1446 -0.8912 -1.8157
 4453SOL     OW24820   4.625   4.520  14.476  0.5338  0.0087  0.3748
 4453SOL    HW124821   4.661   4.519  14.565  0.9169  0.3167  0.2237
 4453SOL    HW224822   4.560   4.451  14.489  1.1169 -0.7856 -1.0085
 4454SOL     OW24823   2.861   0.389   2.390 -0.3086  0.0110 -0.7222
 4454SOL    HW124824   2.932   0.400   2.453 -0.3555 -0.9181 -0.5007
 4454SOL    HW224825   2.892   0.343   2.312 -0.4494 -1.3055 -0.0077
 4455SOL     OW24826   1.256   2.082   4.041  0.4555  0.2089  0.4739
 4455SOL    HW124827   1.342   2.119   4.022  0.4403 -0.1714 -0.3436
 4455SOL    HW224828   1.270   1.997   3.999 -0.7162  0.2753 -0.0777
 4456SOL     OW24829   4.694   3.378   8.971  0.0052 -0.3747  0.0350
 4456SOL    HW124830   0.034   3.439   9.006  2.4594 -3.1717  0.3030
 4456SOL    HW224831   4.642   3.360   9.049 -0.0706  3.2506  0.8074
 4457SOL     OW24832   2.786   4.121   1.031  0.3191  0.1271  0.6386
 4457SOL    HW124833   2.856   4.071   1.072  0.1037  1.3208  2.4725
 4457SOL    HW224834   2.832   4.193   0.989  1.3786 -0.0546  1.5052
 4458SOL     OW24835   4.027   0.972   8.621  0.5222  0.2866  0.6157
 4458SOL    HW124836   4.000   1.039   8.558  0.6617 -0.0803  0.1636
 4458SOL    HW224837   4.095   0.923   8.574  0.7421  1.0641  0.1267
 4459SOL     OW24838   0.372   0.629   9.265  0.4858 -0.6210  0.1447
 4459SOL    HW124839   0.431   0.702   9.280 -0.4092  0.3271 -0.9116
 4459SOL    HW224840   0.322   0.630   9.346 -0.2245  0.7348 -0.3068
 4460SOL     OW24841   4.601   2.634  12.667 -0.0740 -0.1635  0.7108
 4460SOL    HW124842   4.631   2.598  12.751 -1.2387 -0.9835  0.7665
 4460SOL    HW224843   4.658   2.593  12.601 -0.0152  0.5806  0.2983
 4461SOL     OW24844   3.564   3.501   2.625  0.1812  0.0804  0.1835
 4461SOL    HW124845   3.564   3.595   2.610  0.5895  0.0877  0.2503
 4461SOL    HW224846   3.591   3.498   2.717 -0.6763 -0.0704  0.4399
 4462SOL     OW24847   3.637   1.274   5.263 -0.7271 -0.4883  0.4258
 4462SOL    HW124848   3.598   1.344   5.211  0.9772 -0.3533 -0.6749
 4462SOL    HW224849   3.727   1.299   5.244 -0.8111 -0.7091 -0.2607
 4463SOL     OW24850   1.053   4.336  10.534 -0.0188 -0.1373 -0.2215
 4463SOL    HW124851   1.076   4.425  10.561  0.0941 -0.6696  1.4308
 4463SOL    HW224852   1.142   4.305  10.545 -0.3654 -1.5754 -1.4759
 4464SOL     OW24853   4.676   0.081   8.029  0.1110  0.5642  0.1190
 4464SOL    HW124854   4.710   0.122   7.950 -0.1458 -0.0679 -0.3136
 4464SOL    HW224855   0.011   0.008   8.046 -2.0819 -0.8733  1.7721
 4465SOL     OW24856   1.310   2.587  12.878 -0.0972 -0.0260 -0.5775
 4465SOL    HW124857   1.304   2.674  12.919  0.1713 -0.9168  1.3435
 4465SOL    HW224858   1.350   2.601  12.792 -0.9158 -0.5373 -1.0387
 4466SOL     OW24859   3.300   2.464   2.104  0.3363  0.2271  0.1714
 4466SOL    HW124860   3.385   2.506   2.118  0.9349 -0.8404 -0.3183
 4466SOL    HW224861   3.321   2.373   2.083 -0.2193  0.7143 -2.4305
 4467SOL     OW24862   1.313   1.527   8.298  0.0606  0.0045  0.0813
 4467SOL    HW124863   1.236   1.553   8.249 -0.8425 -0.8077  1.0677
 4467SOL    HW224864   1.278   1.458   8.354  1.8317  1.9342  3.6443
 4468SOL     OW24865   2.527   3.062   4.521 -0.0152  0.3721 -0.6672
 4468SOL    HW124866   2.521   3.062   4.425  1.2500  3.5757 -0.7236
 4468SOL    HW224867   2.607   3.012   4.538  0.2018  0.2605 -2.0165
 4469SOL     OW24868   0.356   2.120   5.509 -0.0446  0.1982 -0.4161
 4469SOL    HW124869   0.348   2.073   5.426  1.5764 -0.6538 -0.0902
 4469SOL    HW224870   0.439   2.164   5.491  0.7926 -0.4544  1.9347
 4470SOL     OW24871   4.422   0.455   4.499 -0.2356  1.0463 -0.5546
 4470SOL    HW124872   4.501   0.425   4.544 -1.5126 -1.3472  0.1409
 4470SOL    HW224873   4.394   0.378   4.450  0.6315 -0.4921  1.3510
 4471SOL     OW24874   2.714   3.255  10.811 -0.0326 -0.3408 -0.2196
 4471SOL    HW124875   2.805   3.283  10.798 -0.3739  0.8051 -0.1712
 4471SOL    HW224876   2.718   3.239  10.905  0.1694  1.0514  0.0036
 4472SOL     OW24877   1.456   1.366  10.380 -0.6493  0.3534  0.0869
 4472SOL    HW124878   1.544   1.332  10.361 -0.6707 -1.1792  2.7078
 4472SOL    HW224879   1.416   1.366  10.293 -0.2104  0.2413 -0.1174
 4473SOL     OW24880   2.619   4.170  16.725 -0.0090  0.4992 -0.1530
 4473SOL    HW124881   2.676   4.247  16.722  1.4801 -0.5813  0.3053
 4473SOL    HW224882   2.560   4.210  16.661 -0.6806 -0.3866 -0.0841
 4474SOL     OW24883   2.021   4.388   6.353 -0.1269  0.2615  0.1056
 4474SOL    HW124884   2.041   4.438   6.274 -0.1256 -2.1136 -1.3883
 4474SOL    HW224885   2.111   4.381   6.384 -0.1939 -0.8031  0.0731
 4475SOL     OW24886   2.719   0.403  13.570 -0.6649  0.7742 -0.1780
 4475SOL    HW124887   2.629   0.413  13.601 -1.2114  2.6606 -2.3483
 4475SOL    HW224888   2.724   0.455  13.490 -0.9371  0.2506 -0.5356
 4476SOL     OW24889   1.185   3.694   8.558  0.2951  0.4389  0.3253
 4476SOL    HW124890   1.168   3.686   8.652 -0.1374 -0.8421  0.1391
 4476SOL    HW224891   1.098   3.684   8.519 -0.1744 -4.1005  2.5472
 4477SOL     OW24892   0.233   2.874   1.377  0.1721  0.4774  0.4824
 4477SOL    HW124893   0.154   2.832   1.343 -0.4726 -0.7713  3.5113
 4477SOL    HW224894   0.218   2.959   1.334 -0.3584  0.3087  0.3277
 4478SOL     OW24895   0.773   2.759   4.975 -0.4912 -0.0542 -0.3054
 4478SOL    HW124896   0.778   2.680   5.030 -0.9661  1.4907  1.9754
 4478SOL    HW224897   0.862   2.778   4.946 -0.1274 -1.0540  0.1430
 4479SOL     OW24898   1.750   2.243   4.661  0.1061 -0.1677 -0.4291
 4479SOL    HW124899   1.754   2.150   4.639  0.1094  0.2507 -2.2497
 4479SOL    HW224900   1.655   2.254   4.648  0.0878 -0.1142 -0.2419
 4480SOL     OW24901   2.285   2.217  17.350 -0.3656 -0.6621  0.5915
 4480SOL    HW124902   2.317   2.257  17.431 -1.7404 -0.0031  0.8099
 4480SOL    HW224903   2.297   2.291  17.290 -1.2101  0.4417  1.7794
 4481SOL     OW24904   1.119   4.613  10.540 -0.0695 -0.5303  0.3613
 4481SOL    HW124905   1.137   4.595  10.632  1.5853  0.6297  0.2640
 4481SOL    HW224906   1.158   4.701  10.536 -0.6553 -0.2570  0.7203
 4482SOL     OW24907   0.069   3.814   4.985  0.1922 -0.0359  0.1420
 4482SOL    HW124908   4.722   3.856   4.939 -0.3792 -1.3834 -0.1932
 4482SOL    HW224909   0.131   3.885   4.999  0.2084  0.1174 -0.7121
 4483SOL     OW24910   4.148   0.680  11.393 -0.0184 -0.1976  0.2634
 4483SOL    HW124911   4.100   0.760  11.370 -1.5278 -1.2524 -0.2488
 4483SOL    HW224912   4.113   0.646  11.475 -2.0309 -0.3358 -0.6561
 4484SOL     OW24913   0.103   0.678   7.327 -0.0901 -0.1053  0.3252
 4484SOL    HW124914   0.021   0.663   7.375  1.6824 -2.3143  2.5982
 4484SOL    HW224915   0.164   0.676   7.400 -0.1379 -0.9772  0.3354
 4485SOL     OW24916   0.535   0.339  10.640  0.5398  0.3166  0.1964
 4485SOL    HW124917   0.616   0.363  10.684  0.5022  1.1149 -0.1740
 4485SOL    HW224918   0.484   0.419  10.651 -2.9155 -2.2573  2.6998
 4486SOL     OW24919   2.152   4.067   3.655 -0.5040  0.7851 -0.1331
 4486SOL    HW124920   2.230   4.022   3.687 -1.9881 -0.8612  1.1933
 4486SOL    HW224921   2.137   4.051   3.562 -3.0971 -2.4336  0.8341
 4487SOL     OW24922   2.878   2.009  13.974 -0.5396  0.2309 -0.5321
 4487SOL    HW124923   2.926   2.033  13.894 -0.5919 -1.0718 -0.9606
 4487SOL    HW224924   2.946   2.018  14.040  0.5197  0.1443 -1.6122
 4488SOL     OW24925   0.581   1.285   3.342  0.2284 -0.1449  0.0790
 4488SOL    HW124926   0.511   1.316   3.285  1.3273  1.2833 -0.5093
 4488SOL    HW224927   0.539   1.289   3.428 -0.0765 -0.5556 -0.0562
 4489SOL     OW24928   1.523   3.468  15.804  0.0099  0.4427  0.3036
 4489SOL    HW124929   1.616   3.467  15.780  0.3388  0.6088  1.5570
 4489SOL    HW224930   1.485   3.424  15.728 -1.1897  1.3606  0.3729
 4490SOL     OW24931   4.140   4.258  10.927  0.0600 -0.2908  0.3837
 4490SOL    HW124932   4.051   4.224  10.935  0.1013 -0.7163 -0.9094
 4490SOL    HW224933   4.127   4.353  10.925  0.5365 -0.2378 -0.4682
 4491SOL     OW24934   1.165   3.506  16.178 -0.0747 -0.1655 -0.2926
 4491SOL    HW124935   1.192   3.519  16.087  0.3528 -0.0710 -0.1480
 4491SOL    HW224936   1.073   3.526  16.161 -0.3860  0.3638  2.0146
 4492SOL     OW24937   2.065   3.814   1.764  0.5127  0.0072 -0.2782
 4492SOL    HW124938   2.040   3.907   1.764  1.1503  0.1816 -1.6215
 4492SOL    HW224939   2.038   3.780   1.678 -0.0792 -1.1694  0.3858
 4493SOL     OW24940   1.359   2.185   2.545  0.1951  0.4557 -0.5527
 4493SOL    HW124941   1.410   2.238   2.483  0.5915  1.0862  0.3130
 4493SOL    HW224942   1.267   2.206   2.529  0.0670  0.4810  0.2181
 4494SOL     OW24943   3.450   2.316   5.685  0.8298  0.4888  0.1076
 4494SOL    HW124944   3.456   2.222   5.664  1.5264  0.5107  0.2008
 4494SOL    HW224945   3.392   2.351   5.618  0.8385  0.3907  0.0476
 4495SOL     OW24946   3.410   3.502   4.795  0.1956 -0.3522  0.0490
 4495SOL    HW124947   3.324   3.468   4.771  0.4194 -0.0385 -1.2314
 4495SOL    HW224948   3.437   3.544   4.713  0.0123 -0.1356  0.0990
 4496SOL     OW24949   1.254   0.705  10.052  0.7283  0.1854  0.1427
 4496SOL    HW124950   1.163   0.716  10.024  0.8044 -0.8501 -0.4942
 4496SOL    HW224951   1.298   0.713   9.967 -1.4033  0.7513 -0.9059
 4497SOL     OW24952   2.860   1.916   2.698  0.3709  0.3090 -0.4649
 4497SOL    HW124953   2.806   1.852   2.743  0.2315  1.0071  0.3589
 4497SOL    HW224954   2.904   1.951   2.776 -1.8798  1.2558  0.3595
 4498SOL     OW24955   0.645   0.912   9.887 -0.3346  0.1680  0.6288
 4498SOL    HW124956   0.656   0.839   9.826  0.1535  1.5066 -0.8530
 4498SOL    HW224957   0.652   0.866   9.971  0.6944  0.7687  0.8686
 4499SOL     OW24958   1.616   4.485   6.206 -0.2072 -0.0902 -0.8955
 4499SOL    HW124959   1.520   4.484   6.210 -0.2013  1.0840 -0.6817
 4499SOL    HW224960   1.636   4.427   6.280 -2.2502 -1.6867 -1.5787
 4500SOL     OW24961   4.204   2.813   2.107 -0.0939 -0.3474 -0.1856
 4500SOL    HW124962   4.165   2.858   2.182  0.0975 -2.1799  1.0221
 4500SOL    HW224963   4.223   2.889   2.052  0.2434 -0.5992 -0.4206
 4501SOL     OW24964   0.336   3.316   8.675 -0.4719 -0.7695  0.5082
 4501SOL    HW124965   0.332   3.411   8.684  0.1548 -0.6284 -0.7469
 4501SOL    HW224966   0.242   3.298   8.678 -0.5080 -0.4918  1.0552
 4502SOL     OW24967   3.209   4.046  16.572 -0.3367 -0.0441  0.5840
 4502SOL    HW124968   3.258   4.068  16.493 -0.9455 -1.6458 -0.2477
 4502SOL    HW224969   3.267   3.999  16.631 -1.8475 -1.6597  0.8115
 4503SOL     OW24970   2.067   0.151   6.071  0.3912  0.1770  0.2756
 4503SOL    HW124971   2.095   0.204   5.997 -0.0950  0.9420  0.6415
 4503SOL    HW224972   2.145   0.109   6.109 -0.7016 -0.0741  2.2815
 4504SOL     OW24973   4.132   1.734  13.717  0.1537 -0.2183 -0.7483
 4504SOL    HW124974   4.173   1.802  13.770 -3.4611  2.8361 -1.9292
 4504SOL    HW224975   4.095   1.792  13.651 -0.5862 -0.5063 -0.5960
 4505SOL     OW24976   1.205   4.206   1.241  0.8763  0.5752 -0.3834
 4505SOL    HW124977   1.267   4.272   1.209  0.0363  1.6506  0.2144
 4505SOL    HW224978   1.123   4.255   1.248  1.3107  1.2120  0.2483
 4506SOL     OW24979   0.139   2.849   7.483 -0.5182  0.0697 -0.5633
 4506SOL    HW124980   0.151   2.935   7.523  0.8593 -0.8713  1.0574
 4506SOL    HW224981   0.230   2.828   7.464 -0.4234 -1.4118  1.5719
 4507SOL     OW24982   1.453   2.174  16.336 -0.1032  0.6780  0.4642
 4507SOL    HW124983   1.540   2.134  16.335 -1.1014 -1.4198 -1.5233
 4507SOL    HW224984   1.398   2.096  16.343  0.9949 -0.0398  1.1268
 4508SOL     OW24985   2.842   0.737   7.988 -0.3620  0.2495 -0.3337
 4508SOL    HW124986   2.918   0.703   8.035 -0.3402  2.5283  1.3100
 4508SOL    HW224987   2.880   0.790   7.918  0.6333 -1.0481 -0.7729
 4509SOL     OW24988   0.261   0.599  15.144  0.6993 -0.8636  0.1213
 4509SOL    HW124989   0.293   0.556  15.223  1.9365  1.9809  1.1719
 4509SOL    HW224990   0.337   0.587  15.086 -1.3668 -0.7577 -2.6280
 4510SOL     OW24991   4.114   1.764   4.965 -0.2372  0.1791 -0.0952
 4510SOL    HW124992   4.114   1.857   4.940  0.8191 -0.4199 -2.3193
 4510SOL    HW224993   4.104   1.727   4.877  0.3629 -0.7962  0.2462
 4511SOL     OW24994   2.927   0.198   1.861 -0.5242 -0.2153 -0.3815
 4511SOL    HW124995   2.965   0.265   1.918 -0.7035 -0.5271  0.1002
 4511SOL    HW224996   3.007   0.157   1.829 -1.2947 -0.9258 -1.3875
 4512SOL     OW24997   2.718   2.006   7.018 -0.2347  0.0208  0.4803
 4512SOL    HW124998   2.690   2.074   7.080 -0.2258  1.7135 -1.3801
 4512SOL    HW224999   2.640   1.952   7.018 -0.8688  0.9343  0.4620
 4513SOL     OW25000   1.884   1.339  15.548  0.5186 -0.4089 -0.2804
 4513SOL    HW125001   1.885   1.433  15.566  3.5209 -0.7266  1.2642
 4513SOL    HW225002   1.975   1.312  15.549  0.8301  0.6700  0.7064
 4514SOL     OW25003   0.299   0.512   3.224 -0.2662 -0.4438  0.4165
 4514SOL    HW125004   0.343   0.428   3.236  0.5743 -0.3509 -2.0645
 4514SOL    HW225005   0.213   0.485   3.193 -0.4976  1.7019 -0.8128
 4515SOL     OW25006   4.233   1.513  14.255  0.4282  0.0315 -0.3017
 4515SOL    HW125007   4.191   1.449  14.312  2.5514 -2.0553 -1.0885
 4515SOL    HW225008   4.176   1.519  14.178 -0.3035  0.3777  0.2737
 4516SOL     OW25009   0.892   1.321   4.695  0.0572  0.2688 -0.3855
 4516SOL    HW125010   0.898   1.274   4.612  0.6587 -0.2557 -0.0465
 4516SOL    HW225011   0.822   1.274   4.741 -0.7923  2.7087  0.7831
 4517SOL     OW25012   1.419   0.629   1.848 -0.7054  0.2623  0.0732
 4517SOL    HW125013   1.477   0.672   1.786  1.0652 -2.2438 -0.0235
 4517SOL    HW225014   1.378   0.698   1.900  0.9045  1.0489  0.2698
 4518SOL     OW25015   2.082   3.432   5.121  0.1274  0.7095  0.3125
 4518SOL    HW125016   2.080   3.393   5.208  0.9182 -0.8718 -0.3674
 4518SOL    HW225017   1.988   3.438   5.105  0.1775 -1.5909 -0.8731
 4519SOL     OW25018   0.107   3.466  11.204 -0.1231  0.0715 -0.2712
 4519SOL    HW125019   0.148   3.415  11.134  2.0706  0.1578  0.9431
 4519SOL    HW225020   0.027   3.502  11.166 -2.2695 -1.0514  3.1603
 4520SOL     OW25021   0.804   2.474   9.354 -0.5287 -0.6517 -0.4523
 4520SOL    HW125022   0.713   2.454   9.378 -0.7167 -0.8726 -1.3762
 4520SOL    HW225023   0.840   2.386   9.348  1.1790  0.0147  0.1174
 4521SOL     OW25024   3.068   4.062   1.005  0.1690  0.6236  0.2322
 4521SOL    HW125025   3.036   3.977   1.034  1.0627  0.2861  0.2362
 4521SOL    HW225026   3.098   4.044   0.916  0.3124 -2.3415  0.8926
 4522SOL     OW25027   2.080   4.385  11.205 -0.1930  0.4224  0.0867
 4522SOL    HW125028   2.067   4.355  11.115 -0.9778 -1.2188  0.7422
 4522SOL    HW225029   2.126   4.307  11.236 -0.4510  1.1297  2.2496
 4523SOL     OW25030   1.793   2.041   7.820 -0.6312  0.2362 -0.4982
 4523SOL    HW125031   1.825   1.952   7.828 -1.0927  0.3106  2.0878
 4523SOL    HW225032   1.879   2.067   7.786  1.0840 -0.0555  3.5720
 4524SOL     OW25033   3.693   3.981  11.086  0.9293 -0.4389  0.4622
 4524SOL    HW125034   3.705   3.977  11.181  0.2308  0.2245  0.5798
 4524SOL    HW225035   3.762   4.041  11.058  0.5795 -0.3389 -0.1937
 4525SOL     OW25036   3.416   3.231  15.626 -0.8119 -0.1252 -0.5078
 4525SOL    HW125037   3.431   3.292  15.699 -1.1203 -0.4138 -0.2041
 4525SOL    HW225038   3.471   3.265  15.555 -0.6583  2.2166  0.7300
 4526SOL     OW25039   4.314   0.027   6.432  0.0953  0.2642  0.0661
 4526SOL    HW125040   4.392   0.026   6.377  0.5743 -1.6550  0.7986
 4526SOL    HW225041   4.271   4.675   6.396  0.0176 -0.0397  0.8039
 4527SOL     OW25042   3.567   3.291   6.050  0.5531  0.2412 -0.1024
 4527SOL    HW125043   3.658   3.264   6.045  0.7818  0.8759  0.7300
 4527SOL    HW225044   3.550   3.295   5.956 -1.6828 -0.8092  0.2393
 4528SOL     OW25045   4.022   4.513  14.135  0.3371 -0.7591 -0.0757
 4528SOL    HW125046   4.100   4.479  14.179 -0.6693  0.1997  2.4285
 4528SOL    HW225047   4.052   4.594  14.093  0.9294 -1.8628 -1.8147
 4529SOL     OW25048   0.116   1.325   2.984  0.4457  0.0758  0.6196
 4529SOL    HW125049   0.070   1.241   2.991 -1.0027  0.8861  0.7448
 4529SOL    HW225050   0.063   1.370   2.919  2.7940  1.1877 -0.5277
 4530SOL     OW25051   4.550   4.527  10.300  0.0381  0.1806  0.0748
 4530SOL    HW125052   4.465   4.552  10.335  0.2877  0.2551  0.6248
 4530SOL    HW225053   4.545   4.432  10.286 -0.0058  0.4062 -1.4518
 4531SOL     OW25054   3.443   4.500   8.310 -0.2941  0.0218 -0.6952
 4531SOL    HW125055   3.405   4.433   8.366  2.0893  0.2168  1.1826
 4531SOL    HW225056   3.494   4.551   8.374 -0.0953 -0.5870 -0.3692
 4532SOL     OW25057   3.826   1.515   4.671  0.1272  0.4946 -0.3224
 4532SOL    HW125058   3.745   1.566   4.669  0.4529  1.1069  1.9380
 4532SOL    HW225059   3.818   1.465   4.752  0.6095 -0.4098 -0.8346
 4533SOL     OW25060   3.102   3.654   3.278 -0.5087  0.5385  0.4507
 4533SOL    HW125061   3.045   3.716   3.323 -1.6047 -0.0007 -0.2122
 4533SOL    HW225062   3.140   3.624   3.361 -1.0158  0.5299  0.6823
 4534SOL     OW25063   4.506   3.518   6.648 -0.6036 -0.0899  0.0503
 4534SOL    HW125064   4.577   3.461   6.619  0.3192 -0.3357  2.8365
 4534SOL    HW225065   4.513   3.585   6.580  0.4823  1.3038  1.5461
 4535SOL     OW25066   0.505   1.898   3.201 -0.3748 -0.1427 -0.2644
 4535SOL    HW125067   0.519   1.819   3.254 -3.6346 -0.0126  0.7588
 4535SOL    HW225068   0.536   1.868   3.116  0.3317  0.9027 -0.3789
 4536SOL     OW25069   0.197   1.837  16.086 -0.5919 -0.1912 -0.3437
 4536SOL    HW125070   0.156   1.785  16.017  1.6414  0.1991 -1.9747
 4536SOL    HW225071   0.282   1.862  16.050 -0.3719  0.6766  0.7787
 4537SOL     OW25072   1.913   1.581  15.669 -0.2642 -0.2148 -0.1274
 4537SOL    HW125073   1.907   1.538  15.754 -0.3807  2.0453  1.0121
 4537SOL    HW225074   1.858   1.659  15.679 -0.9621 -0.8541  1.0955
 4538SOL     OW25075   0.207   4.379  15.267  0.6399  0.0205  0.2861
 4538SOL    HW125076   0.246   4.419  15.189  1.5238 -0.7477  0.3395
 4538SOL    HW225077   0.227   4.443  15.336 -1.5845 -0.2024  1.1464
 4539SOL     OW25078   3.343   3.424  16.914  0.0629 -0.1088  0.3968
 4539SOL    HW125079   3.392   3.390  16.839  0.9789  0.5447  0.6897
 4539SOL    HW225080   3.256   3.396  16.888  0.3264 -1.2439  0.7343
 4540SOL     OW25081   4.226   4.407  14.274 -0.1653  0.1946  0.4436
 4540SOL    HW125082   4.254   4.315  14.271  1.5500  0.7051  0.9856
 4540SOL    HW225083   4.267   4.443  14.353  0.9102  0.7873 -0.3922
 4541SOL     OW25084   2.206   0.651   7.350 -0.4891  0.6409  0.4340
 4541SOL    HW125085   2.289   0.606   7.363  0.4175  1.8219 -1.2777
 4541SOL    HW225086   2.172   0.668   7.438  0.4262  1.2520  0.6639
 4542SOL     OW25087   3.188   1.261   7.101 -0.0840  0.5594 -0.0660
 4542SOL    HW125088   3.136   1.189   7.138 -1.1129  1.3775  0.0537
 4542SOL    HW225089   3.191   1.252   7.006  0.4851  1.1220 -0.1016
 4543SOL     OW25090   0.672   2.722   3.072  0.0306  0.3650  0.3676
 4543SOL    HW125091   0.593   2.777   3.076 -0.5299 -0.3004 -1.5180
 4543SOL    HW225092   0.736   2.772   3.021 -0.3477  0.4068 -0.0746
 4544SOL     OW25093   1.783   2.896   2.160 -0.3845  0.1343 -0.8437
 4544SOL    HW125094   1.874   2.875   2.140  0.1521 -0.2454  2.0700
 4544SOL    HW225095   1.759   2.827   2.221 -0.1394 -1.6539 -2.7688
 4545SOL     OW25096   3.841   2.456   8.716  0.0524 -0.1591  0.2652
 4545SOL    HW125097   3.881   2.543   8.714 -0.5743  0.1972  3.4893
 4545SOL    HW225098   3.760   2.476   8.762 -0.4378 -0.1822 -0.5751
 4546SOL     OW25099   0.278   2.055   4.106  0.0401 -0.1678 -0.4896
 4546SOL    HW125100   0.282   2.130   4.047  0.1806  1.2650  1.3416
 4546SOL    HW225101   0.199   2.072   4.157 -0.5824  0.2354 -1.5836
 4547SOL     OW25102   0.414   3.771  16.308 -0.1192  0.5206  0.1938
 4547SOL    HW125103   0.441   3.707  16.374 -2.4995 -0.4005  0.3009
 4547SOL    HW225104   0.496   3.776  16.258 -1.2371 -1.5251 -1.8748
 4548SOL     OW25105   4.708   2.861  12.497 -0.1842  0.4701 -0.1339
 4548SOL    HW125106   0.076   2.873  12.513 -0.2581  1.4292 -0.4272
 4548SOL    HW225107   4.693   2.806  12.574  0.1453 -1.8298 -1.7202
 4549SOL     OW25108   1.447   1.192   1.186  0.2787  0.3292 -0.4080
 4549SOL    HW125109   1.385   1.119   1.194  0.7455 -0.0799 -0.5040
 4549SOL    HW225110   1.461   1.195   1.091 -0.8294 -2.2279 -0.6668
 4550SOL     OW25111   0.507   4.441   5.030 -0.6785 -0.1794 -0.3335
 4550SOL    HW125112   0.558   4.434   4.949 -0.3399  4.9250 -0.5147
 4550SOL    HW225113   0.547   4.372   5.083  0.6505 -0.2767 -1.4487
 4551SOL     OW25114   4.001   2.107  15.951  0.1475  0.5949  0.1053
 4551SOL    HW125115   4.051   2.089  15.871  1.4542 -0.7366  1.2299
 4551SOL    HW225116   3.920   2.064  15.924  1.3471 -2.5751  1.5833
 4552SOL     OW25117   4.650   2.184   7.550 -0.1276  0.1683 -0.2299
 4552SOL    HW125118   4.680   2.099   7.518  1.5872  0.4345  0.7309
 4552SOL    HW225119   0.012   2.203   7.585 -0.0579 -0.2262 -0.1860
 4553SOL     OW25120   4.558   2.847   6.934  0.5955 -0.0653 -0.0365
 4553SOL    HW125121   4.567   2.845   7.029 -1.2935  1.2709  0.1797
 4553SOL    HW225122   4.475   2.799   6.932  0.5886 -0.0103 -1.1144
 4554SOL     OW25123   2.697   3.351  12.879 -0.1113 -0.0880 -0.2156
 4554SOL    HW125124   2.605   3.347  12.853  0.1467  0.4378 -1.2517
 4554SOL    HW225125   2.709   3.445  12.888  0.2173 -0.1767  0.2590
 4555SOL     OW25126   1.548   4.622  16.787  0.2156 -0.2113  0.2204
 4555SOL    HW125127   1.470   4.625  16.842  0.5100 -0.6547  0.6721
 4555SOL    HW225128   1.490   4.633  16.712 -2.6376 -1.9173  2.2129
 4556SOL     OW25129   0.861   4.394  10.365 -0.2677  0.2376 -0.5894
 4556SOL    HW125130   0.926   4.361  10.428  0.4138  1.8992 -0.4173
 4556SOL    HW225131   0.794   4.372  10.430  0.6375  0.5760  0.4642
 4557SOL     OW25132   1.826   3.523   9.926  0.1501 -0.4136  0.4492
 4557SOL    HW125133   1.744   3.522   9.975 -0.1350  1.3059  0.0089
 4557SOL    HW225134   1.898   3.521   9.989  0.2463  0.2329  0.3587
 4558SOL     OW25135   4.080   3.212   6.855  0.2769  0.0934  0.6995
 4558SOL    HW125136   4.135   3.240   6.782 -0.5211 -1.8232 -0.6389
 4558SOL    HW225137   4.090   3.290   6.910 -1.5223  2.7279 -2.7226
 4559SOL     OW25138   1.506   3.145   8.470 -0.0728  0.2337  0.2851
 4559SOL    HW125139   1.442   3.127   8.538  0.3112 -0.5879  0.4287
 4559SOL    HW225140   1.523   3.238   8.485  1.1306 -0.0889  0.9123
 4560SOL     OW25141   0.628   2.648   7.030 -0.9276  0.4479  0.2523
 4560SOL    HW125142   0.571   2.572   7.041 -1.3225  0.7696  0.4621
 4560SOL    HW225143   0.697   2.630   7.094  0.1426 -1.6497 -1.5022
 4561SOL     OW25144   2.812   1.687   6.033 -0.4955  0.1899  0.1924
 4561SOL    HW125145   2.755   1.691   6.109 -0.2879 -2.6237  0.4974
 4561SOL    HW225146   2.747   1.694   5.963  0.9945 -0.0478 -1.2136
 4562SOL     OW25147   3.310   3.616  14.527 -0.1887 -0.6568 -0.1590
 4562SOL    HW125148   3.249   3.554  14.485 -0.7467  0.1238 -0.5078
 4562SOL    HW225149   3.343   3.575  14.607  0.8616  1.7412  0.6109
 4563SOL     OW25150   4.124   4.132   5.302  0.0542 -0.7217  0.1026
 4563SOL    HW125151   4.061   4.151   5.371 -0.4681 -0.6705 -0.3806
 4563SOL    HW225152   4.093   4.044   5.283  0.8979 -0.0009 -4.8074
 4564SOL     OW25153   4.339   3.360   3.804 -0.3485 -0.0147 -0.1416
 4564SOL    HW125154   4.352   3.340   3.896  0.0100  0.8527 -0.0075
 4564SOL    HW225155   4.245   3.353   3.790 -0.3224 -0.2495 -0.2031
 4565SOL     OW25156   0.129   3.397  16.725  0.3916 -0.1079 -0.0621
 4565SOL    HW125157   0.166   3.318  16.685  1.0488 -0.6292  1.5593
 4565SOL    HW225158   0.080   3.358  16.797 -0.7289 -0.2763 -0.9275
 4566SOL     OW25159   4.440   0.748   5.273 -0.1932 -0.6075 -0.1263
 4566SOL    HW125160   4.497   0.810   5.228 -0.7917  2.0849  2.7991
 4566SOL    HW225161   4.479   0.729   5.358  0.0947 -0.6939 -0.2786
 4567SOL     OW25162   1.575   3.639   8.504 -0.4283  0.0829 -0.2778
 4567SOL    HW125163   1.519   3.691   8.446  0.2847  0.1552 -0.9110
 4567SOL    HW225164   1.634   3.706   8.538 -2.3647  1.0611  1.1358
 4568SOL     OW25165   3.107   0.932   5.088 -0.7379 -0.4436 -0.2707
 4568SOL    HW125166   3.042   0.889   5.143 -1.5273 -0.3348 -1.1189
 4568SOL    HW225167   3.166   0.976   5.149 -0.7264 -0.3187 -0.3711
 4569SOL     OW25168   2.248   2.290   1.483  0.2638 -0.2214  0.4600
 4569SOL    HW125169   2.201   2.372   1.496 -0.4869 -0.4333 -0.8873
 4569SOL    HW225170   2.260   2.287   1.388  1.2907 -0.2420  0.5899
 4570SOL     OW25171   2.161   2.626  10.267  0.6492  0.3026  0.0561
 4570SOL    HW125172   2.074   2.590  10.251  0.6766  0.3122 -0.1109
 4570SOL    HW225173   2.207   2.543  10.258  0.5078  0.3654 -1.2054
 4571SOL     OW25174   2.176   1.957   1.233 -0.1137  0.2124 -0.0281
 4571SOL    HW125175   2.114   1.923   1.169  1.4805 -0.1080 -1.4177
 4571SOL    HW225176   2.117   1.968   1.307  1.0488  1.1266  0.7499
 4572SOL     OW25177   0.128   4.180  16.273 -0.4182 -0.2894  0.3954
 4572SOL    HW125178   0.165   4.208  16.189  0.7313 -0.7812  0.7445
 4572SOL    HW225179   0.136   4.085  16.275 -1.4381 -0.3208  2.7063
 4573SOL     OW25180   2.401   0.497   2.964  0.1535  0.7217 -0.1598
 4573SOL    HW125181   2.323   0.475   3.016  0.0457 -0.9374 -1.0286
 4573SOL    HW225182   2.427   0.410   2.934 -1.2540 -0.2159  1.3753
 4574SOL     OW25183   3.629   3.157   6.554 -0.0812 -0.1364 -0.0731
 4574SOL    HW125184   3.663   3.183   6.469 -0.2216  0.5866  0.0904
 4574SOL    HW225185   3.693   3.187   6.619 -1.2544 -0.0393  1.0436
 4575SOL     OW25186   2.338   0.021   4.246 -0.4796 -0.1215 -0.4054
 4575SOL    HW125187   2.261   4.696   4.219 -1.0720 -0.1994  1.4685
 4575SOL    HW225188   2.382   4.682   4.303  0.6376 -0.3018 -1.4654
 4576SOL     OW25189   3.333   0.564  16.864  0.6971 -0.3018 -0.0889
 4576SOL    HW125190   3.256   0.619  16.875  0.0833 -1.3137  0.7423
 4576SOL    HW225191   3.363   0.548  16.953  0.5675 -0.8583 -0.1459
 4577SOL     OW25192   0.190   2.517  16.272 -0.8044 -0.0423  0.5905
 4577SOL    HW125193   0.124   2.448  16.278  0.1735 -1.0382 -0.2571
 4577SOL    HW225194   0.176   2.545  16.182  1.0410  0.2287  0.3848
 4578SOL     OW25195   2.903   1.243   3.020  0.3725 -0.4181 -0.3938
 4578SOL    HW125196   2.847   1.170   3.046 -1.8123  1.2165 -0.4338
 4578SOL    HW225197   2.989   1.202   3.008  0.5052 -0.1492 -0.3581
 4579SOL     OW25198   0.165   3.814  13.353  0.0741  0.2836 -0.2079
 4579SOL    HW125199   0.182   3.905  13.377  0.6094 -0.2468  1.3798
 4579SOL    HW225200   0.234   3.801  13.289 -0.4510 -0.6824 -0.5717
 4580SOL     OW25201   2.443   4.161   4.952  0.3059 -0.1239 -0.2720
 4580SOL    HW125202   2.432   4.067   4.967 -0.6092  0.0631  0.2833
 4580SOL    HW225203   2.505   4.156   4.880  0.8976  2.7866  0.0322
 4581SOL     OW25204   4.683   4.084   7.222 -0.1499  0.5118  0.2897
 4581SOL    HW125205   4.685   4.004   7.275  2.0484  1.2042  1.2831
 4581SOL    HW225206   0.029   4.126   7.271  1.4874  0.5983 -2.1444
 4582SOL     OW25207   2.537   1.877   7.467 -0.1748  0.0361 -0.6339
 4582SOL    HW125208   2.607   1.938   7.444  1.6995 -1.1076  2.1360
 4582SOL    HW225209   2.458   1.928   7.448 -0.1965  0.3570  0.3179
 4583SOL     OW25210   4.436   0.119   8.907 -0.4677  0.2534 -0.9919
 4583SOL    HW125211   4.413   0.051   8.844 -2.3379 -0.1583  0.1691
 4583SOL    HW225212   4.348   0.149   8.928 -0.4020 -0.1187 -0.2033
 4584SOL     OW25213   4.613   2.132   5.755 -0.3026  0.7082 -0.3525
 4584SOL    HW125214   4.665   2.197   5.803 -0.7417  0.5001  0.3930
 4584SOL    HW225215   4.664   2.102   5.679  0.0246  0.5798 -0.0867
 4585SOL     OW25216   1.863   4.211   8.568  0.0573  0.4191 -0.0482
 4585SOL    HW125217   1.771   4.212   8.592  0.3438  0.3332  1.0618
 4585SOL    HW225218   1.862   4.142   8.502  3.3996  1.1700 -0.9141
 4586SOL     OW25219   0.455   1.581   3.845 -0.7212  0.1992 -0.4350
 4586SOL    HW125220   0.497   1.496   3.831 -1.0599  0.0165 -0.3495
 4586SOL    HW225221   0.506   1.644   3.794 -0.7475 -0.0929 -0.8178
 4587SOL     OW25222   2.506   0.374   7.553 -0.7743 -0.2807 -0.4240
 4587SOL    HW125223   2.489   0.369   7.647 -0.3158 -3.8293 -0.5147
 4587SOL    HW225224   2.520   0.281   7.534 -1.1651  0.3145 -3.6500
 4588SOL     OW25225   4.552   3.188  14.721 -0.1076  0.1761 -1.1386
 4588SOL    HW125226   4.506   3.272  14.712  2.6763  1.9519  1.4955
 4588SOL    HW225227   4.480   3.134  14.755  1.6223 -0.2478  1.8408
 4589SOL     OW25228   3.067   4.708   7.244 -0.3489  0.1780 -0.2852
 4589SOL    HW125229   3.073   4.615   7.264  1.4183  0.2450 -0.5055
 4589SOL    HW225230   3.058   4.704   7.148  2.4401 -1.5955 -0.4925
 4590SOL     OW25231   1.147   3.748   1.585  0.0467  0.0209  0.3722
 4590SOL    HW125232   1.058   3.712   1.584 -0.0383  0.2766 -1.4987
 4590SOL    HW225233   1.145   3.838   1.553 -0.5242  0.2620  1.0828
 4591SOL     OW25234   3.022   2.961   9.434 -0.1276 -0.3346 -0.0560
 4591SOL    HW125235   3.051   2.981   9.523 -0.8707  1.3048 -0.1820
 4591SOL    HW225236   2.955   2.897   9.456 -2.2028  1.1146 -2.2499
 4592SOL     OW25237   0.221   1.880  11.502 -0.0250  0.3604 -0.2598
 4592SOL    HW125238   0.176   1.878  11.587  1.9719 -3.7772  0.6959
 4592SOL    HW225239   0.201   1.970  11.475 -0.5960  0.3096 -0.0060
 4593SOL     OW25240   2.948   2.732   7.314 -0.1574  0.4026  0.3241
 4593SOL    HW125241   3.039   2.705   7.301 -0.2724  1.2843 -2.2122
 4593SOL    HW225242   2.964   2.810   7.367 -1.5606  0.6685  0.3632
 4594SOL     OW25243   0.596   1.085  15.394 -0.3647 -0.3937  0.7216
 4594SOL    HW125244   0.552   1.006  15.426 -2.2274  1.6373  3.2513
 4594SOL    HW225245   0.530   1.152  15.412 -1.4948 -0.8513 -1.6954
 4595SOL     OW25246   1.652   4.167   7.350  0.1615  0.3095  0.3110
 4595SOL    HW125247   1.650   4.075   7.375 -0.3298  0.2510  0.0416
 4595SOL    HW225248   1.644   4.162   7.255 -1.9534 -3.3493  0.6843
 4596SOL     OW25249   2.421   4.567   8.055  0.1293  0.2505  0.5263
 4596SOL    HW125250   2.332   4.600   8.069  0.1505  0.8318 -0.7376
 4596SOL    HW225251   2.466   4.646   8.085  1.6992  0.8762 -3.5203
 4597SOL     OW25252   1.614   3.236   2.356 -0.0920  0.3970 -0.2907
 4597SOL    HW125253   1.531   3.214   2.397  0.4299 -2.5534 -0.7932
 4597SOL    HW225254   1.576   3.242   2.269 -1.8317  1.0831  0.5137
 4598SOL     OW25255   0.327   3.749   7.801 -0.2635  0.0475 -0.6009
 4598SOL    HW125256   0.387   3.823   7.789  1.2449 -0.8900  1.1396
 4598SOL    HW225257   0.298   3.764   7.891  0.4198 -1.7948 -0.0743
 4599SOL     OW25258   4.473   3.583   4.876  0.3241 -0.5135  0.0159
 4599SOL    HW125259   4.425   3.501   4.869 -0.4729  0.0574 -1.0424
 4599SOL    HW225260   4.484   3.596   4.782  2.0105  0.9207  0.3989
 4600SOL     OW25261   4.097   4.630   4.140 -0.1747 -0.1240 -0.2904
 4600SOL    HW125262   4.053   4.715   4.128 -1.4685 -0.7350  0.0763
 4600SOL    HW225263   4.054   4.602   4.221  0.8663  0.6526  0.5283
 4601SOL     OW25264   1.320   3.399   2.002 -0.7512 -0.1899  0.8827
 4601SOL    HW125265   1.354   3.352   2.077 -0.0932 -0.6800  0.2733
 4601SOL    HW225266   1.251   3.452   2.042 -1.6976 -0.2617 -0.6538
 4602SOL     OW25267   3.799   3.931   2.090  0.2699  0.8523 -0.6670
 4602SOL    HW125268   3.849   3.877   2.029  0.6613 -0.2724  0.6584
 4602SOL    HW225269   3.744   3.862   2.125 -0.0582  1.3489 -0.1947
 4603SOL     OW25270   4.393   0.134   5.056 -0.0183 -0.3358 -0.0401
 4603SOL    HW125271   4.346   0.204   5.101  1.5945  0.9012 -0.2617
 4603SOL    HW225272   4.479   0.172   5.039 -1.6977  2.7271 -1.6821
 4604SOL     OW25273   2.283   0.527   6.023  0.6673  0.3639 -0.7991
 4604SOL    HW125274   2.318   0.600   6.073 -2.1704  0.4407  1.1096
 4604SOL    HW225275   2.296   0.465   6.096 -2.0130 -0.2059 -0.8033
 4605SOL     OW25276   1.736   0.682   8.765 -0.8133 -0.5365  0.7412
 4605SOL    HW125277   1.703   0.596   8.790  1.6861 -1.6085  0.3413
 4605SOL    HW225278   1.709   0.731   8.842  0.2228  1.0116  0.1193
 4606SOL     OW25279   3.443   4.649  13.443  0.3385 -0.1193 -0.4721
 4606SOL    HW125280   3.383   4.692  13.381 -1.6226  1.3927  2.4903
 4606SOL    HW225281   3.384   4.618  13.512  2.0581 -0.5409  0.8027
 4607SOL     OW25282   2.164   1.231  15.570 -0.4192 -0.0650  0.6755
 4607SOL    HW125283   2.204   1.152  15.606 -2.4033 -0.5178  1.9130
 4607SOL    HW225284   2.156   1.281  15.651 -0.6918 -0.4656  0.8953
 4608SOL     OW25285   4.134   2.055   6.173 -0.5380  0.3215 -0.0503
 4608SOL    HW125286   4.226   2.079   6.190  0.0483 -0.5001 -2.0454
 4608SOL    HW225287   4.115   1.982   6.232 -0.3722 -1.3464 -2.0630
 4609SOL     OW25288   4.205   2.795   8.040  0.3369  0.2116  0.2323
 4609SOL    HW125289   4.230   2.837   8.122  0.1007 -2.4330  1.6362
 4609SOL    HW225290   4.113   2.784   8.064 -0.4920  1.1835 -2.4662
 4610SOL     OW25291   2.514   0.891  15.513  0.3090 -0.1029 -0.6750
 4610SOL    HW125292   2.465   0.828  15.461  1.8382 -1.9665  0.1418
 4610SOL    HW225293   2.539   0.838  15.588 -1.7422  1.5353  1.1394
 4611SOL     OW25294   2.153   2.862  15.812 -0.3070  0.2014 -0.0731
 4611SOL    HW125295   2.211   2.794  15.779  0.8755  0.2842  1.8332
 4611SOL    HW225296   2.071   2.831  15.774 -0.4735 -0.6664  1.0180
 4612SOL     OW25297   2.877   1.119  13.147 -0.1191  0.2306 -0.1343
 4612SOL    HW125298   2.878   1.024  13.158  3.5527  0.2892  0.1077
 4612SOL    HW225299   2.909   1.127  13.057 -0.9802 -0.0825 -0.4659
 4613SOL     OW25300   1.340   0.460   1.042  0.3665  0.0842  0.0270
 4613SOL    HW125301   1.327   0.433   1.133 -0.6065 -0.4270 -0.2663
 4613SOL    HW225302   1.415   0.403   1.026 -0.1253 -1.2274  2.2409
 4614SOL     OW25303   2.021   3.585  15.332  0.7955 -0.1972 -0.4401
 4614SOL    HW125304   1.932   3.567  15.361  0.9134  2.3805  1.5560
 4614SOL    HW225305   2.011   3.628  15.246  2.4176 -0.9460 -1.0006
 4615SOL     OW25306   1.640   4.319  12.498 -0.2633  0.0309  1.1476
 4615SOL    HW125307   1.585   4.245  12.473 -1.1103  1.4711 -1.2574
 4615SOL    HW225308   1.598   4.343  12.580 -1.1955 -3.3096  1.6409
 4616SOL     OW25309   1.801   0.858   3.183 -0.3480 -0.0180 -0.7238
 4616SOL    HW125310   1.848   0.895   3.258 -2.8783  0.6536  0.5444
 4616SOL    HW225311   1.866   0.791   3.165 -0.7565 -1.0530  1.6731
 4617SOL     OW25312   4.506   1.445   1.109  0.2890 -0.9217 -0.1993
 4617SOL    HW125313   4.521   1.532   1.073 -1.2992 -0.4651  0.2496
 4617SOL    HW225314   4.564   1.389   1.058  1.8643  1.5718 -1.1080
 4618SOL     OW25315   2.278   4.384  17.591  0.4330  0.2759 -0.1314
 4618SOL    HW125316   2.227   4.464  17.602  2.4870  1.9055 -2.2977
 4618SOL    HW225317   2.232   4.320  17.645  0.1231 -0.2178 -0.9792
 4619SOL     OW25318   2.052   1.127  17.579 -0.2766 -0.2037  0.5088
 4619SOL    HW125319   2.076   1.143  17.670 -1.3264  2.9234  0.2295
 4619SOL    HW225320   2.129   1.136  17.523  0.5599  0.3145  1.7438
 4620SOL     OW25321   2.858   0.206   1.195  0.0046  0.1718  0.2791
 4620SOL    HW125322   2.939   0.254   1.179  0.2657  0.4330  2.2923
 4620SOL    HW225323   2.892   0.121   1.223  0.3323  0.6460  1.3271
 4621SOL     OW25324   0.843   2.192   8.985 -0.1147  0.6219  0.3001
 4621SOL    HW125325   0.788   2.119   9.013  1.0758  0.5153  2.3494
 4621SOL    HW225326   0.793   2.235   8.916 -1.4492  0.9181  1.4589
 4622SOL     OW25327   3.827   0.651   3.998 -0.6762 -0.0671 -0.2466
 4622SOL    HW125328   3.847   0.603   3.918 -1.4540 -1.0608  0.1525
 4622SOL    HW225329   3.868   0.591   4.060  1.9251  0.9959 -0.9354
 4623SOL     OW25330   4.680   0.978   8.147 -0.7171  0.4882 -0.0287
 4623SOL    HW125331   4.606   0.920   8.133 -0.6887  0.4863 -0.1724
 4623SOL    HW225332   4.663   1.029   8.226  3.2083  0.9564  0.5315
 4624SOL     OW25333   4.502   4.685   2.922 -0.4215  0.4139  0.4827
 4624SOL    HW125334   4.480   4.719   3.009  1.8780  0.4309  1.0495
 4624SOL    HW225335   4.456   0.021   2.864 -3.0454 -0.2281  1.8724
 4625SOL     OW25336   3.595   1.801  16.821 -0.1835  0.5757  0.0905
 4625SOL    HW125337   3.604   1.857  16.744 -0.1798  0.0369 -0.3060
 4625SOL    HW225338   3.660   1.735  16.796  2.3269  3.0132  0.1798
 4626SOL     OW25339   4.315   1.597   7.431  0.3566  0.2638  0.5876
 4626SOL    HW125340   4.248   1.657   7.399 -1.2471 -2.0518 -0.3362
 4626SOL    HW225341   4.385   1.661   7.446  2.2275 -1.4984 -0.7063
 4627SOL     OW25342   0.559   2.151   9.888  0.2940  0.1807  0.1817
 4627SOL    HW125343   0.582   2.221   9.828 -0.7371  1.0957  0.8435
 4627SOL    HW225344   0.599   2.079   9.840  0.0635 -0.2439  0.6110
 4628SOL     OW25345   3.408   3.148   8.377 -0.1494  0.6464  0.1854
 4628SOL    HW125346   3.485   3.102   8.412 -0.4813  1.2796  1.7643
 4628SOL    HW225347   3.450   3.190   8.302 -3.6494  1.5339 -1.2556
 4629SOL     OW25348   4.620   0.628  15.918 -0.4087 -0.6629 -0.7244
 4629SOL    HW125349   4.605   0.723  15.918 -0.1717 -0.6270 -0.3733
 4629SOL    HW225350   4.571   0.601  15.996 -0.1937  1.0063  0.0008
 4630SOL     OW25351   4.054   1.910  10.431 -0.7293 -0.0777 -0.4878
 4630SOL    HW125352   4.082   1.915  10.340  2.9179  0.7528  0.6931
 4630SOL    HW225353   4.060   2.003  10.452 -1.3435 -0.2085  0.2935
 4631SOL     OW25354   0.011   2.521   2.950  0.1806 -0.1884 -0.3036
 4631SOL    HW125355   0.065   2.482   2.882 -0.0084 -0.2525 -0.4162
 4631SOL    HW225356   0.068   2.499   3.024 -1.7084 -2.6759  0.3992
 4632SOL     OW25357   0.811   1.645  10.318  0.1931 -0.2163  0.1863
 4632SOL    HW125358   0.806   1.554  10.286  0.2452 -0.4693  0.9096
 4632SOL    HW225359   0.748   1.683  10.257  0.2221 -0.4454  0.0105
 4633SOL     OW25360   0.814   0.900   8.052  0.0308  0.3809  0.4822
 4633SOL    HW125361   0.896   0.849   8.053 -0.1047  0.1188 -0.8472
 4633SOL    HW225362   0.835   0.984   8.093  0.9189 -0.7315  2.3186
 4634SOL     OW25363   0.744   4.709  15.363 -0.0883  0.4280 -0.5170
 4634SOL    HW125364   0.761   4.672  15.449 -2.6418  0.1418 -0.1179
 4634SOL    HW225365   0.651   0.006  15.370 -1.0770 -3.8580 -0.4130
 4635SOL     OW25366   1.663   2.099   6.399  0.0275 -0.0495  0.4094
 4635SOL    HW125367   1.598   2.169   6.409 -0.0509 -0.0923  0.2007
 4635SOL    HW225368   1.743   2.146   6.421  0.4646 -1.0395  0.9057
 4636SOL     OW25369   2.098   3.770  16.022  0.0871 -0.4488  0.2393
 4636SOL    HW125370   2.019   3.737  16.065 -0.4636  0.3211 -0.1772
 4636SOL    HW225371   2.165   3.718  16.066 -1.0255 -1.6240  0.5608
 4637SOL     OW25372   2.755   4.604  10.461  0.0243 -0.6970  0.3164
 4637SOL    HW125373   2.799   4.676  10.416 -0.7906 -0.5883 -0.2996
 4637SOL    HW225374   2.822   4.536  10.467  1.3548  0.6064  0.2522
 4638SOL     OW25375   2.478   4.468  10.310 -0.2131 -0.0868 -0.1261
 4638SOL    HW125376   2.434   4.526  10.372  2.4245  1.4624  0.3209
 4638SOL    HW225377   2.451   4.380  10.334  2.3187 -1.4111 -2.0833
 4639SOL     OW25378   1.945   3.474   7.152  0.5021  0.2423  0.5063
 4639SOL    HW125379   1.885   3.474   7.226  0.6200  0.1438  0.6024
 4639SOL    HW225380   2.007   3.543   7.176  0.2545 -0.0747  2.0384
 4640SOL     OW25381   2.071   1.341  11.704 -0.4412  0.1635 -0.3390
 4640SOL    HW125382   2.069   1.403  11.631 -0.6207 -2.8787 -2.9055
 4640SOL    HW225383   1.979   1.315  11.701  0.1738 -1.8844 -1.4123
 4641SOL     OW25384   3.678   3.695   8.261 -0.4015 -0.0137  0.3069
 4641SOL    HW125385   3.598   3.725   8.217 -1.5396 -0.3027  2.1817
 4641SOL    HW225386   3.682   3.760   8.331  1.7773  0.7284 -0.5477
 4642SOL     OW25387   4.711   1.194   3.306  0.6092  0.3462 -0.2755
 4642SOL    HW125388   0.001   1.161   3.394 -1.5807 -0.2580 -0.1192
 4642SOL    HW225389   0.032   1.140   3.243 -0.4342 -1.3926  0.4593
 4643SOL     OW25390   0.894   3.542   1.104 -0.2200 -0.1036  0.4429
 4643SOL    HW125391   0.955   3.487   1.055 -0.0629 -0.2312  0.7797
 4643SOL    HW225392   0.825   3.476   1.108 -0.1437 -0.3322 -1.9105
 4644SOL     OW25393   3.638   1.888   3.753 -0.0889  0.2769  0.7044
 4644SOL    HW125394   3.710   1.941   3.721  1.3482 -2.2244 -0.2040
 4644SOL    HW225395   3.616   1.954   3.819  3.7822  0.3455  1.9231
 4645SOL     OW25396   0.772   3.611   1.910 -0.2250  0.2265 -0.3676
 4645SOL    HW125397   0.686   3.615   1.867 -0.5903 -0.4941  0.3067
 4645SOL    HW225398   0.765   3.645   1.999 -0.1592  0.7002 -0.5406
 4646SOL     OW25399   3.789   1.127   1.133 -0.2379 -0.0837 -0.3954
 4646SOL    HW125400   3.716   1.151   1.076 -2.0509 -1.7065  1.2607
 4646SOL    HW225401   3.865   1.136   1.076 -0.4854  2.2257 -0.3698
 4647SOL     OW25402   3.476   1.875   5.008  0.0837  0.6425  0.4367
 4647SOL    HW125403   3.484   1.786   5.043 -4.5926  1.5913  3.7878
 4647SOL    HW225404   3.566   1.889   4.976 -0.7371 -0.6173 -2.4458
 4648SOL     OW25405   4.630   0.253   8.242 -0.1420  0.2281 -0.4860
 4648SOL    HW125406   4.695   0.314   8.210  1.5613 -0.7737  1.0967
 4648SOL    HW225407   4.629   0.200   8.162  0.1375 -1.5270  0.6662
 4649SOL     OW25408   2.269   1.128   7.635 -0.1118  0.2435  0.5899
 4649SOL    HW125409   2.330   1.154   7.704  1.8070  0.8332 -1.3434
 4649SOL    HW225410   2.281   1.033   7.632 -2.9763 -0.0459 -1.9834
 4650SOL     OW25411   4.377   4.121  13.475 -0.0904  0.6267  0.0737
 4650SOL    HW125412   4.286   4.127  13.444  0.2136 -0.7059 -1.0862
 4650SOL    HW225413   4.422   4.198  13.441 -1.5862  2.3653  2.0297
 4651SOL     OW25414   0.067   0.758  10.998  0.6906  0.0139 -0.2003
 4651SOL    HW125415   4.722   0.715  11.048 -1.4010  2.1852 -1.2661
 4651SOL    HW225416   0.042   0.759  10.905 -1.0089  2.0147  0.2761
 4652SOL     OW25417   0.697   4.103   3.644 -0.3838  0.2138 -0.1107
 4652SOL    HW125418   0.643   4.143   3.576  0.6319  1.3239 -0.2608
 4652SOL    HW225419   0.784   4.106   3.605  0.2000  1.6069  1.3361
 4653SOL     OW25420   4.343   1.723  12.198 -0.1329  0.3112  0.3972
 4653SOL    HW125421   4.299   1.639  12.212  0.7471  0.2920  2.9748
 4653SOL    HW225422   4.431   1.710  12.233 -1.2642 -1.4451  2.6481
 4654SOL     OW25423   3.028   2.094   4.663  0.1045  0.0749  0.1976
 4654SOL    HW125424   3.110   2.053   4.633 -0.6516 -0.3320 -1.3121
 4654SOL    HW225425   3.022   2.067   4.755  0.5139  0.4458  0.3331
 4655SOL     OW25426   1.409   2.807   6.057  0.4489 -0.2507  0.3349
 4655SOL    HW125427   1.378   2.773   6.141  1.0007  0.2713  0.7478
 4655SOL    HW225428   1.453   2.732   6.019  1.2827  1.2960 -1.7270
 4656SOL     OW25429   1.521   0.592  10.693 -0.0930 -0.7192  0.3128
 4656SOL    HW125430   1.589   0.658  10.704  1.0667 -1.7564 -0.5944
 4656SOL    HW225431   1.464   0.611  10.768 -1.1688 -1.0855 -0.4061
 4657SOL     OW25432   0.526   4.699  15.650  0.2416 -0.6290 -0.5097
 4657SOL    HW125433   0.488   4.611  15.659 -1.1466  0.1941  1.6161
 4657SOL    HW225434   0.621   4.687  15.644  0.4180 -0.8079  2.4861
 4658SOL     OW25435   3.021   4.021   8.508  0.1394  0.1833 -0.4598
 4658SOL    HW125436   2.996   3.955   8.573  0.5797  0.6050  0.1281
 4658SOL    HW225437   2.958   4.090   8.528  1.8809  0.6014  3.4870
 4659SOL     OW25438   4.170   2.211   1.783 -0.7588  0.4753 -0.4112
 4659SOL    HW125439   4.095   2.161   1.751  0.1125  0.2371 -2.0991
 4659SOL    HW225440   4.161   2.294   1.737 -0.8156 -0.5454 -2.2418
 4660SOL     OW25441   3.040   0.511  15.877  0.6410  0.6925 -0.0749
 4660SOL    HW125442   3.000   0.493  15.962 -1.4132 -0.8803 -1.3727
 4660SOL    HW225443   3.118   0.559  15.904  1.0492  0.6902 -1.2580
 4661SOL     OW25444   4.504   2.513   8.752 -0.0007  0.3508 -0.7546
 4661SOL    HW125445   4.587   2.502   8.705 -0.1182 -0.2310 -0.8340
 4661SOL    HW225446   4.443   2.471   8.692 -0.6219  0.3572 -0.1229
 4662SOL     OW25447   2.188   1.050   1.927  0.5205  0.7357  0.4834
 4662SOL    HW125448   2.261   1.109   1.947  1.3083 -0.0724  0.0252
 4662SOL    HW225449   2.138   1.108   1.869  0.0657  0.4601  0.6026
 4663SOL     OW25450   1.758   1.907   7.505 -0.8703  0.3324 -0.3606
 4663SOL    HW125451   1.813   1.830   7.514  0.0603  0.8258 -1.9454
 4663SOL    HW225452   1.707   1.902   7.586  0.3968  0.2925  0.4344
 4664SOL     OW25453   2.730   0.382   0.581 -0.3679  0.4003 -0.0011
 4664SOL    HW125454   2.738   0.465   0.628  2.4944 -0.0082  0.1947
 4664SOL    HW225455   2.748   0.327   0.657  1.2727 -1.1660 -1.5139
 4665SOL     OW25456   3.212   4.139   3.986  0.0220 -0.3865  0.0664
 4665SOL    HW125457   3.230   4.049   4.015  0.1068 -0.3213  0.2148
 4665SOL    HW225458   3.301   4.169   4.000  0.0949 -0.4885 -0.1846
 4666SOL     OW25459   1.899   3.479   8.222 -0.4460  0.2636  0.3549
 4666SOL    HW125460   1.843   3.467   8.298  1.1801 -1.9872  1.1935
 4666SOL    HW225461   1.956   3.402   8.222 -2.2201 -1.0757 -0.5551
 4667SOL     OW25462   3.340   1.506   5.925 -0.3608 -0.6565  0.5361
 4667SOL    HW125463   3.369   1.556   5.849  0.8500 -0.1039  1.3592
 4667SOL    HW225464   3.403   1.434   5.920 -1.1811 -1.3410  0.1143
 4668SOL     OW25465   3.214   4.226   4.395  0.1384  0.5540 -0.8776
 4668SOL    HW125466   3.231   4.173   4.473  1.0113  1.8481 -0.1963
 4668SOL    HW225467   3.137   4.186   4.353  1.4974 -0.6270 -2.2348
 4669SOL     OW25468   4.340   4.719  14.322  0.1024  0.4160  0.1871
 4669SOL    HW125469   4.261   0.030  14.364 -1.0787 -0.5259 -1.2453
 4669SOL    HW225470   4.356   4.637  14.368  1.7594  0.7829  0.2659
 4670SOL     OW25471   3.614   1.580   5.638 -0.0666  0.0087  0.4009
 4670SOL    HW125472   3.697   1.561   5.595 -0.4101  0.5078 -0.4779
 4670SOL    HW225473   3.638   1.662   5.681 -1.1007  0.4204  0.2054
 4671SOL     OW25474   1.839   0.660   4.260  0.4228 -0.3480  0.0716
 4671SOL    HW125475   1.768   0.682   4.200  0.4815  0.3332  0.2451
 4671SOL    HW225476   1.886   0.743   4.263 -0.1477 -0.1486  3.3900
 4672SOL     OW25477   2.436   0.400  13.520 -0.3174  0.4962 -0.9132
 4672SOL    HW125478   2.470   0.434  13.437  1.7160 -0.5135 -0.4881
 4672SOL    HW225479   2.468   0.310  13.521  0.2591  0.6926 -1.1520
 4673SOL     OW25480   1.055   4.002   1.826 -0.0817 -0.3323 -0.7294
 4673SOL    HW125481   0.990   4.059   1.787 -0.1904  0.4271  0.5555
 4673SOL    HW225482   0.999   3.967   1.895 -0.1879  1.7284  0.2496
 4674SOL     OW25483   0.903   0.049  11.667  0.5344  0.1369 -0.1500
 4674SOL    HW125484   0.930   0.085  11.583 -3.1011 -1.0874 -1.8740
 4674SOL    HW225485   0.976   0.084  11.717  1.9929 -0.9995 -1.5109
 4675SOL     OW25486   3.303   3.299   6.414 -0.2351  0.5328  0.0164
 4675SOL    HW125487   3.380   3.247   6.437 -1.2198 -0.5739  0.8703
 4675SOL    HW225488   3.298   3.296   6.319 -0.8055 -2.4070  0.1171
 4676SOL     OW25489   3.184   4.359   6.714 -0.7911  0.5293  0.0524
 4676SOL    HW125490   3.263   4.306   6.718 -0.7848  0.6496  1.3681
 4676SOL    HW225491   3.196   4.401   6.628  2.2557  1.8721  1.1250
 4677SOL     OW25492   1.664   0.397   7.915  0.1542 -0.0620 -0.3185
 4677SOL    HW125493   1.745   0.448   7.917  1.8509 -2.7226 -1.3467
 4677SOL    HW225494   1.614   0.437   7.986  1.9497  1.8766 -0.1485
 4678SOL     OW25495   2.618   1.024   9.552  0.2292 -0.3394 -0.2715
 4678SOL    HW125496   2.702   0.987   9.578  0.1483 -0.2603  0.0949
 4678SOL    HW225497   2.560   0.955   9.585  1.4940 -0.9473  0.6361
 4679SOL     OW25498   4.166   0.271   5.189 -0.1267  0.1587  0.2315
 4679SOL    HW125499   4.195   0.255   5.279 -0.1306  2.4572  0.6312
 4679SOL    HW225500   4.170   0.366   5.195 -1.3510  0.1649  0.9466
 4680SOL     OW25501   0.507   1.166   6.090  1.2625  0.8927 -0.0916
 4680SOL    HW125502   0.515   1.171   6.186 -3.0465 -1.9569  0.4195
 4680SOL    HW225503   0.593   1.201   6.065  1.3854  0.0020 -0.9135
 4681SOL     OW25504   1.618   1.794   3.324 -0.6411  0.0518 -0.4474
 4681SOL    HW125505   1.540   1.742   3.342 -0.6593  0.4108  0.4987
 4681SOL    HW225506   1.591   1.821   3.237  0.6408 -0.8198 -1.1192
 4682SOL     OW25507   1.013   3.442  10.325  0.0470  0.3950  0.6723
 4682SOL    HW125508   0.965   3.373  10.278  0.9788 -1.0352  1.8041
 4682SOL    HW225509   1.093   3.391  10.338 -0.2721 -0.0846  0.7697
 4683SOL     OW25510   0.968   2.804   3.611 -0.0401 -0.1595 -0.7933
 4683SOL    HW125511   1.002   2.722   3.576 -1.2964 -1.2103  0.4529
 4683SOL    HW225512   0.933   2.847   3.533 -0.5270 -0.0082 -0.4936
 4684SOL     OW25513   2.343   3.163   1.238 -0.2811 -0.1389 -0.8652
 4684SOL    HW125514   2.271   3.110   1.272  0.4814  0.5465  1.8092
 4684SOL    HW225515   2.389   3.171   1.321  0.5538  0.6948 -1.4083
 4685SOL     OW25516   2.581   0.412   5.216 -0.2051  0.1501  0.4119
 4685SOL    HW125517   2.672   0.424   5.190 -0.3122 -3.7881 -1.7673
 4685SOL    HW225518   2.531   0.460   5.151  2.7454  0.7472 -1.4109
 4686SOL     OW25519   3.842   2.513   4.559  0.2571 -0.6444  0.3023
 4686SOL    HW125520   3.877   2.529   4.471  0.8331 -2.1644  0.2566
 4686SOL    HW225521   3.778   2.447   4.533 -1.3822  1.5764 -1.3643
 4687SOL     OW25522   1.340   4.399  10.120  0.4311  0.3537 -0.0708
 4687SOL    HW125523   1.276   4.418  10.188 -1.2851 -0.1388 -1.5548
 4687SOL    HW225524   1.354   4.492  10.104  0.6735  0.0717 -1.5133
 4688SOL     OW25525   0.634   4.691   6.678  0.2323  0.4027 -0.7702
 4688SOL    HW125526   0.627   4.688   6.774  0.7362 -0.1361 -0.7536
 4688SOL    HW225527   0.541   4.709   6.664 -0.3661 -1.9112  0.2346
 4689SOL     OW25528   0.100   3.452   4.267  0.3292  0.5064 -0.2204
 4689SOL    HW125529   0.141   3.495   4.342 -1.4572  0.5289  0.7382
 4689SOL    HW225530   0.072   3.530   4.218  2.2446  1.8091  0.7397
 4690SOL     OW25531   2.808   3.362   8.919 -0.1912 -0.2457 -0.4561
 4690SOL    HW125532   2.808   3.454   8.893 -0.5597  0.1591  0.9552
 4690SOL    HW225533   2.898   3.346   8.948  0.2106  0.2333 -1.4404
 4691SOL     OW25534   0.462   3.734   6.731  0.8753 -0.5028  0.5436
 4691SOL    HW125535   0.545   3.774   6.705  1.4788  0.0208  3.2482
 4691SOL    HW225536   0.413   3.736   6.649  2.3706  1.1476 -0.2979
 4692SOL     OW25537   4.313   2.782   3.302  0.2872 -0.3924 -0.0202
 4692SOL    HW125538   4.252   2.734   3.244 -1.8476  0.7287  1.2831
 4692SOL    HW225539   4.264   2.864   3.310  1.4910  0.3463 -0.3738
 4693SOL     OW25540   1.671   2.304   1.423 -0.2634  0.3857 -0.3847
 4693SOL    HW125541   1.579   2.280   1.437 -0.1323  0.8907  1.3179
 4693SOL    HW225542   1.667   2.369   1.353 -2.0710  1.6075  0.8418
 4694SOL     OW25543   4.643   0.770  15.357  0.2474  0.1023  0.4121
 4694SOL    HW125544   4.605   0.828  15.291 -1.5229 -0.9522  0.5055
 4694SOL    HW225545   4.676   0.703  15.297  0.3440 -1.1100  1.8250
 4695SOL     OW25546   4.639   1.123   8.875  0.2411 -0.3985 -0.1357
 4695SOL    HW125547   4.659   1.192   8.811 -2.3033 -1.1830 -1.7815
 4695SOL    HW225548   4.583   1.164   8.940 -0.7358 -0.9045 -0.6584
 4696SOL     OW25549   3.511   2.645  14.020 -0.5040 -0.0174  0.0957
 4696SOL    HW125550   3.442   2.709  13.999  2.3651  3.8605  2.4436
 4696SOL    HW225551   3.509   2.595  13.939  1.5088  2.5800 -1.5605
 4697SOL     OW25552   2.135   4.691   7.062  0.2714  0.1217 -0.8394
 4697SOL    HW125553   2.195   4.629   7.021  1.8439  1.3048 -0.3359
 4697SOL    HW225554   2.169   0.048   7.027  3.0417 -0.6631 -0.0217
 4698SOL     OW25555   4.163   1.826  10.176  0.3834  0.1575 -0.2523
 4698SOL    HW125556   4.247   1.839  10.132  0.9016 -0.0024  0.6824
 4698SOL    HW225557   4.174   1.732  10.192 -0.8980 -0.2947 -2.0371
 4699SOL     OW25558   0.289   0.957  17.641  0.8062 -0.0001  0.6946
 4699SOL    HW125559   0.218   0.896  17.620  0.0230  0.8279  0.9648
 4699SOL    HW225560   0.239   1.016  17.697  0.1295  0.3382 -0.2725
 4700SOL     OW25561   2.503   1.105  12.648 -0.3287  0.1913 -0.2177
 4700SOL    HW125562   2.545   1.189  12.630  0.8882 -0.5123 -0.7251
 4700SOL    HW225563   2.430   1.102  12.586  0.7231  1.2039 -1.5190
 4701SOL     OW25564   1.368   0.942   7.993  0.1485  0.2262  0.3494
 4701SOL    HW125565   1.411   0.857   7.983 -0.9809 -0.4437  1.1751
 4701SOL    HW225566   1.304   0.931   8.063  1.2425 -0.0273  1.3061
 4702SOL     OW25567   3.791   0.470   3.314 -0.1093 -0.0308  0.3946
 4702SOL    HW125568   3.812   0.378   3.297  1.9991  0.5268  0.0022
 4702SOL    HW225569   3.781   0.468   3.410  1.5153 -2.5733  0.5262
 4703SOL     OW25570   4.038   1.834  15.300 -0.0298 -0.2047 -0.5847
 4703SOL    HW125571   4.098   1.897  15.339 -0.0636 -1.3565  1.3431
 4703SOL    HW225572   3.966   1.848  15.361  0.5325 -1.5831  0.3760
 4704SOL     OW25573   2.688   0.093  15.224  0.1775  0.5095  0.4883
 4704SOL    HW125574   2.603   0.069  15.185  1.7927 -2.9174 -0.9581
 4704SOL    HW225575   2.671   0.186  15.241  1.0900  0.7758 -0.0596
 4705SOL     OW25576   2.125   2.965   7.359  0.2263  0.2255 -0.0879
 4705SOL    HW125577   2.097   2.990   7.271 -0.3467  1.3403  0.4095
 4705SOL    HW225578   2.093   3.036   7.415  3.0310  1.0905  0.4151
 4706SOL     OW25579   1.402   1.092   5.977  0.4056 -0.4421  0.3005
 4706SOL    HW125580   1.422   1.108   6.070  0.1301 -2.1043  0.6523
 4706SOL    HW225581   1.375   1.000   5.982  0.2277 -0.3316  1.5519
 4707SOL     OW25582   4.025   1.049   7.249 -0.6145  0.0084  0.2428
 4707SOL    HW125583   3.997   1.009   7.167  2.5380 -0.5818 -0.5043
 4707SOL    HW225584   3.971   1.129   7.245  0.8117  0.9934  0.8975
 4708SOL     OW25585   3.222   3.100   3.564 -0.3706 -0.2901 -0.0433
 4708SOL    HW125586   3.188   3.173   3.512 -0.2953 -0.3967 -0.2408
 4708SOL    HW225587   3.257   3.042   3.497 -0.6089  0.6341 -0.9648
 4709SOL     OW25588   0.639   3.513   8.305  0.2094 -0.1826  0.0028
 4709SOL    HW125589   0.682   3.443   8.257 -3.1524 -2.3169  0.1307
 4709SOL    HW225590   0.681   3.512   8.391  0.4086  0.8012 -0.0773
 4710SOL     OW25591   1.681   3.052  11.809  0.1880 -0.1309  0.1034
 4710SOL    HW125592   1.630   3.062  11.728 -0.1062  0.7818  0.4026
 4710SOL    HW225593   1.737   2.978  11.786 -0.3167  0.6552 -3.6999
 4711SOL     OW25594   3.939   2.730   6.026  0.4553 -0.7049 -0.1287
 4711SOL    HW125595   3.899   2.671   6.090  0.0472 -0.9850 -0.6341
 4711SOL    HW225596   3.974   2.797   6.084 -1.8116 -0.8654  1.4528
 4712SOL     OW25597   2.045   3.207   2.863 -0.3616  0.4653 -0.2391
 4712SOL    HW125598   1.982   3.278   2.874 -1.6289 -0.6637 -0.1325
 4712SOL    HW225599   2.083   3.236   2.780 -0.6386  1.9731  0.1777
 4713SOL     OW25600   3.430   2.179   7.561  0.1173 -0.2688  0.4876
 4713SOL    HW125601   3.487   2.164   7.485 -0.5791  2.8094 -0.6410
 4713SOL    HW225602   3.343   2.179   7.521  0.3855 -1.2358 -0.1266
 4714SOL     OW25603   4.263   4.615   0.295 -0.5494 -0.0156 -0.0634
 4714SOL    HW125604   4.307   4.531   0.287  3.0392  1.8386  0.0929
 4714SOL    HW225605   4.299   4.668   0.223 -0.1970  0.8563  0.7412
 4715SOL     OW25606   3.011   0.790   7.040  0.4074 -0.3746 -0.2753
 4715SOL    HW125607   3.040   0.869   7.085  2.8099 -1.7415  0.6035
 4715SOL    HW225608   3.075   0.723   7.067  0.4321 -1.2017 -2.3604
 4716SOL     OW25609   4.262   2.396   9.455 -0.4475 -0.8297  0.6117
 4716SOL    HW125610   4.221   2.435   9.377  0.4505  0.7423  0.9415
 4716SOL    HW225611   4.186   2.391   9.513 -0.3802 -0.6777  0.7120
 4717SOL     OW25612   0.755   1.166   2.977 -0.0641  0.7357  0.3074
 4717SOL    HW125613   0.772   1.215   2.896  0.0162 -1.7079 -1.1585
 4717SOL    HW225614   0.714   1.092   2.932 -3.0955  2.2708  0.5510
 4718SOL     OW25615   1.227   1.823  10.312 -0.0582  0.2373  0.4006
 4718SOL    HW125616   1.309   1.787  10.344 -0.2342  0.2639  0.8836
 4718SOL    HW225617   1.258   1.909  10.281  4.5705 -0.6849  2.5629
 4719SOL     OW25618   3.467   0.664   4.266 -0.4696  0.8299  0.0152
 4719SOL    HW125619   3.405   0.598   4.299  2.1229 -0.4696  2.3732
 4719SOL    HW225620   3.527   0.686   4.337 -0.5622 -1.2397  0.7332
 4720SOL     OW25621   2.329   2.805   3.929 -0.8570 -0.6640  0.2969
 4720SOL    HW125622   2.383   2.766   3.998  0.5190 -0.2684 -0.5551
 4720SOL    HW225623   2.267   2.734   3.911  1.2316 -1.9387 -1.9570
 4721SOL     OW25624   0.960   1.814   5.332 -0.6283  1.2681  0.1210
 4721SOL    HW125625   1.018   1.740   5.315 -1.9343  1.4841 -5.0444
 4721SOL    HW225626   0.987   1.834   5.422 -0.5348 -0.2929  0.4454
 4722SOL     OW25627   1.316   4.356   5.879 -0.3874 -0.3177  0.4537
 4722SOL    HW125628   1.372   4.393   5.811  0.3005  0.7825  1.5962
 4722SOL    HW225629   1.374   4.320   5.946  0.0360  1.2901  0.9598
 4723SOL     OW25630   2.518   1.224   2.961 -0.0875  0.2139  0.6381
 4723SOL    HW125631   2.532   1.173   2.881 -0.1483 -0.8719  1.3181
 4723SOL    HW225632   2.425   1.248   2.954 -0.0305 -0.3145 -2.1669
 4724SOL     OW25633   2.179   3.480   5.976  0.1828  0.0253 -0.0246
 4724SOL    HW125634   2.182   3.565   5.933 -0.5795  0.3596  0.5902
 4724SOL    HW225635   2.192   3.416   5.905 -3.5494  0.6500 -1.2755
 4725SOL     OW25636   0.550   3.793   4.886  0.4107 -0.2887 -0.1714
 4725SOL    HW125637   0.572   3.707   4.850 -0.5104  0.2427 -1.9965
 4725SOL    HW225638   0.491   3.758   4.952  1.5607 -1.3935  0.2798
 4726SOL     OW25639   2.291   1.829   2.170  0.6751 -0.1680 -0.6662
 4726SOL    HW125640   2.354   1.842   2.099 -0.2769 -0.5453 -1.5950
 4726SOL    HW225641   2.207   1.842   2.125  0.5803 -1.8004 -0.9608
 4727SOL     OW25642   1.382   0.889  12.464  1.1660 -0.4034 -0.0871
 4727SOL    HW125643   1.444   0.835  12.514  0.5675 -0.8485  0.1815
 4727SOL    HW225644   1.435   0.961  12.430 -1.2879  1.3851 -0.1191
 4728SOL     OW25645   0.731   2.174   3.604  0.1740  0.4845 -0.5333
 4728SOL    HW125646   0.708   2.111   3.536 -1.5128  0.2986  0.1976
 4728SOL    HW225647   0.668   2.159   3.675  1.6577 -0.5272  0.5606
 4729SOL     OW25648   4.173   0.314   6.501  0.0962 -0.0280  0.6436
 4729SOL    HW125649   4.235   0.260   6.451 -0.2044  0.2587 -0.0386
 4729SOL    HW225650   4.102   0.250   6.508  1.4116 -1.4263  1.3110
 4730SOL     OW25651   1.394   1.703   2.590  0.0717 -0.0027  0.0124
 4730SOL    HW125652   1.406   1.798   2.602  0.0224 -0.4023  3.3290
 4730SOL    HW225653   1.473   1.659   2.621  0.0561 -0.2489 -0.2998
 4731SOL     OW25654   1.094   3.171   7.872  0.3879  0.4865  0.1110
 4731SOL    HW125655   1.179   3.196   7.908  0.3576 -1.6611  1.7168
 4731SOL    HW225656   1.044   3.147   7.950  0.4825  0.8618  0.2874
 4732SOL     OW25657   2.883   2.393   8.271  0.1722 -0.4532 -0.1031
 4732SOL    HW125658   2.885   2.347   8.187 -0.0314 -0.1211 -0.2892
 4732SOL    HW225659   2.825   2.329   8.312  2.2829 -1.2808  1.5985
 4733SOL     OW25660   3.228   0.658  15.124 -0.4220  0.0650  0.2930
 4733SOL    HW125661   3.188   0.732  15.079 -2.9673 -0.8178  1.1222
 4733SOL    HW225662   3.179   0.645  15.205 -1.3062 -0.0827 -0.2678
 4734SOL     OW25663   3.009   1.843   9.025 -0.3649  0.0689  0.7831
 4734SOL    HW125664   2.966   1.929   9.018  0.6861  0.5515  0.2828
 4734SOL    HW225665   3.060   1.847   8.944 -0.6314  0.4599  0.6297
 4735SOL     OW25666   1.596   1.493   8.156  0.2266 -0.0509 -0.2243
 4735SOL    HW125667   1.632   1.535   8.078  0.8737 -2.6203 -1.3239
 4735SOL    HW225668   1.537   1.435   8.108  0.3741 -0.2341 -0.1871
 4736SOL     OW25669   2.258   1.882   5.316 -0.8522 -0.2415  0.7342
 4736SOL    HW125670   2.280   1.798   5.275 -1.4767  0.2665 -0.6237
 4736SOL    HW225671   2.278   1.952   5.254  1.4497 -2.3042 -0.8393
 4737SOL     OW25672   2.039   2.278   2.270  0.3012  0.4239 -0.3095
 4737SOL    HW125673   1.997   2.193   2.284 -0.5215  1.1594  1.6206
 4737SOL    HW225674   2.029   2.284   2.175 -0.8057  0.9616 -0.1596
 4738SOL     OW25675   4.712   0.501   9.062  0.1171 -0.0020  0.0407
 4738SOL    HW125676   4.635   0.448   9.042  1.2203 -1.4140 -0.5849
 4738SOL    HW225677   0.055   0.439   9.091 -1.1716 -1.4873 -0.1147
 4739SOL     OW25678   2.292   2.785   2.736  0.2698  0.1704 -0.1626
 4739SOL    HW125679   2.252   2.776   2.649 -0.2448  1.7832 -0.0915
 4739SOL    HW225680   2.345   2.865   2.727  0.3820  0.1720  0.5312
 4740SOL     OW25681   1.515   2.106   3.681 -0.4018  0.3307  0.6797
 4740SOL    HW125682   1.438   2.062   3.645 -0.7440 -0.1823  2.0385
 4740SOL    HW225683   1.494   2.147   3.765  0.9692 -2.4945  2.3962
 4741SOL     OW25684   2.425   1.891   7.876 -0.5203 -0.1712 -0.2847
 4741SOL    HW125685   2.504   1.891   7.822  0.3423  0.4731  0.9539
 4741SOL    HW225686   2.444   1.973   7.922  0.3664 -0.8765  0.6103
 4742SOL     OW25687   3.617   1.399   8.702 -0.3331  0.3922 -0.5733
 4742SOL    HW125688   3.682   1.328   8.692  2.2763  2.6452  0.5167
 4742SOL    HW225689   3.584   1.395   8.612 -2.3107  1.7352  0.1097
 4743SOL     OW25690   3.975   3.559   2.603 -0.6568  0.2187  0.1117
 4743SOL    HW125691   3.921   3.626   2.562 -1.0675 -0.2184 -0.0580
 4743SOL    HW225692   4.038   3.615   2.649 -0.0442 -1.6257  1.4918
 4744SOL     OW25693   0.280   2.770   4.505 -0.4874 -0.2208  0.0619
 4744SOL    HW125694   0.245   2.847   4.550 -2.1395 -0.9059 -0.0499
 4744SOL    HW225695   0.199   2.720   4.493  0.1393 -0.9401 -1.1859
 4745SOL     OW25696   2.481   0.219   6.234 -0.2663  0.3948  0.4579
 4745SOL    HW125697   2.395   0.263   6.240 -0.5686 -0.3093  1.3261
 4745SOL    HW225698   2.540   0.289   6.205  0.8726 -0.6512  0.2837
 4746SOL     OW25699   1.561   1.293   7.047  0.2324  0.2097 -0.2294
 4746SOL    HW125700   1.621   1.224   7.019  1.8615  0.3592  2.8348
 4746SOL    HW225701   1.557   1.351   6.971  1.0440  1.0136  0.3450
 4747SOL     OW25702   0.437   0.486   7.666 -0.5559 -0.2578  0.3974
 4747SOL    HW125703   0.387   0.422   7.617  2.9690 -0.7431 -2.5300
 4747SOL    HW225704   0.524   0.451   7.650 -2.2696 -3.5358 -1.6346
 4748SOL     OW25705   2.893   0.967   5.923 -0.3796  0.0610 -0.1244
 4748SOL    HW125706   2.838   1.021   5.979 -0.9917 -0.2875 -0.3942
 4748SOL    HW225707   2.835   0.891   5.916 -0.9423  0.4591  0.2182
 4749SOL     OW25708   1.931   2.251   8.484  1.1110 -0.0594 -0.1844
 4749SOL    HW125709   1.870   2.214   8.421 -0.8975  1.7854  0.6755
 4749SOL    HW225710   1.882   2.329   8.510  4.2884  2.8167 -2.7507
 4750SOL     OW25711   2.071   1.167  14.726 -0.4374 -0.7589 -0.1168
 4750SOL    HW125712   2.104   1.090  14.680  0.5444 -0.7035  0.4991
 4750SOL    HW225713   2.148   1.223  14.736 -0.7713  0.0541 -2.1435
 4751SOL     OW25714   0.576   4.713   4.396 -0.4638  0.2194 -0.6567
 4751SOL    HW125715   0.582   0.049   4.323  0.1939  1.0617  0.0968
 4751SOL    HW225716   0.488   0.009   4.427 -0.7672  0.9417 -2.0214
 4752SOL     OW25717   0.099   1.768   1.253 -0.2034 -0.2113 -0.7316
 4752SOL    HW125718   0.092   1.680   1.290 -1.0000 -0.7218 -2.0738
 4752SOL    HW225719   0.194   1.766   1.238 -0.1815  0.2996 -0.6456
 4753SOL     OW25720   1.808   4.714   1.318  0.0418  0.0801 -0.3533
 4753SOL    HW125721   1.815   0.016   1.410 -2.4405  1.4195 -0.5576
 4753SOL    HW225722   1.817   4.619   1.327 -0.3256 -0.0400 -1.2271
 4754SOL     OW25723   4.512   3.577   4.132  0.5138  0.5859  0.5707
 4754SOL    HW125724   4.459   3.620   4.065 -0.9514 -1.5585  0.3759
 4754SOL    HW225725   4.596   3.622   4.121  1.0766 -0.4718  0.5837
 4755SOL     OW25726   4.196   0.696  13.959  0.0292 -0.0298  0.0098
 4755SOL    HW125727   4.233   0.679  13.872  2.3300 -0.8813  1.1634
 4755SOL    HW225728   4.106   0.667  13.946  0.2550 -0.8893  0.3146
 4756SOL     OW25729   3.404   4.591   2.957  0.1462 -0.2376  0.5881
 4756SOL    HW125730   3.327   4.594   2.900  1.7074  4.0486 -1.2567
 4756SOL    HW225731   3.393   4.501   2.988 -0.3492 -0.0488  0.9540
 4757SOL     OW25732   0.974   2.244   2.214  0.3980 -0.3036  0.2107
 4757SOL    HW125733   0.927   2.162   2.203  0.4989 -0.2338 -0.7341
 4757SOL    HW225734   0.944   2.266   2.302 -0.8696 -0.8229 -0.0893
 4758SOL     OW25735   0.571   4.231   7.166  0.0187  0.4650 -0.0549
 4758SOL    HW125736   0.584   4.137   7.154 -2.4483  0.0153  0.8401
 4758SOL    HW225737   0.491   4.221   7.216 -0.4577  1.7060 -0.5751
 4759SOL     OW25738   4.257   4.414   7.252  0.2141 -0.1902  0.2621
 4759SOL    HW125739   4.340   4.385   7.290  0.1664 -0.5793  0.0672
 4759SOL    HW225740   4.256   4.367   7.169 -1.7462 -0.2227  0.3180
 4760SOL     OW25741   2.722   0.596   6.790 -0.1200 -0.1193  1.0510
 4760SOL    HW125742   2.731   0.631   6.878 -0.8356 -0.3029  1.1996
 4760SOL    HW225743   2.716   0.678   6.740  2.0667 -1.9519 -2.2393
 4761SOL     OW25744   0.898   2.475  16.152 -0.1410  0.3116 -0.0458
 4761SOL    HW125745   0.923   2.385  16.175  1.3926  0.9336  0.7877
 4761SOL    HW225746   0.826   2.485  16.214  1.6501  1.8493  1.7955
 4762SOL     OW25747   3.599   2.771  14.702  0.0597  0.0151  0.1737
 4762SOL    HW125748   3.681   2.724  14.718  0.7296  0.9565 -0.4796
 4762SOL    HW225749   3.580   2.798  14.792  1.1286  0.9196  0.1323
 4763SOL     OW25750   0.987   1.218  13.976 -0.4119  0.7332  0.0778
 4763SOL    HW125751   1.039   1.193  14.052  0.9255 -0.7356 -1.3227
 4763SOL    HW225752   1.048   1.224  13.902 -2.2394  1.0136 -1.4230
 4764SOL     OW25753   4.502   0.578  16.556  0.5742  0.0126 -0.0898
 4764SOL    HW125754   4.544   0.503  16.597 -1.9229 -2.1831 -1.6114
 4764SOL    HW225755   4.558   0.588  16.479 -1.6239  0.6844 -1.6003
 4765SOL     OW25756   4.131   3.489   8.087 -0.0274  0.0420 -0.0158
 4765SOL    HW125757   4.157   3.440   8.165 -0.5319  0.2301  0.2718
 4765SOL    HW225758   4.038   3.471   8.097 -0.0122  0.1047  0.2328
 4766SOL     OW25759   2.461   3.775   7.011  0.6177 -0.7128  0.1686
 4766SOL    HW125760   2.472   3.857   7.059  1.6002  1.0144 -2.9710
 4766SOL    HW225761   2.544   3.772   6.963  0.9231  0.2888  0.6259
 4767SOL     OW25762   1.079   0.044   6.799 -0.2415  0.2890 -0.5777
 4767SOL    HW125763   1.043   4.709   6.865 -0.4971  0.2097 -0.7900
 4767SOL    HW225764   1.153   4.713   6.776 -0.5533 -1.0131  1.5462
 4768SOL     OW25765   1.162   2.291   7.118  0.0411  0.3240  0.3140
 4768SOL    HW125766   1.126   2.325   7.200  1.7171  2.5572  0.0981
 4768SOL    HW225767   1.210   2.214   7.151  0.1304  0.4893  0.5726
 4769SOL     OW25768   3.478   1.245   7.303  0.3919 -0.2724 -0.4360
 4769SOL    HW125769   3.446   1.162   7.337 -1.3544 -0.1018 -1.6710
 4769SOL    HW225770   3.428   1.253   7.222  1.3882 -1.6936 -1.1770
 4770SOL     OW25771   1.152   0.504   9.591  0.3033 -0.0046 -1.0897
 4770SOL    HW125772   1.117   0.417   9.569  0.2447 -0.0957 -0.6279
 4770SOL    HW225773   1.152   0.539   9.502 -1.7310  2.0831 -0.2962
 4771SOL     OW25774   2.704   4.612   2.467  0.2048 -0.1188  0.6824
 4771SOL    HW125775   2.783   4.617   2.521  0.8457 -0.3192 -0.2250
 4771SOL    HW225776   2.712   4.690   2.412  2.2119 -0.5650  0.3336
 4772SOL     OW25777   3.156   0.238  13.574 -0.0505 -0.3296 -0.2434
 4772SOL    HW125778   3.062   0.232  13.593  0.1748 -0.0193  0.9332
 4772SOL    HW225779   3.151   0.256  13.480 -0.2038 -1.4111 -0.4476
 4773SOL     OW25780   4.248   0.584   3.264 -0.2544  0.3931 -1.1144
 4773SOL    HW125781   4.155   0.580   3.286  0.1365 -2.1499  0.1311
 4773SOL    HW225782   4.252   0.646   3.191  0.4910  1.3036 -0.2986
 4774SOL     OW25783   4.266   3.081   5.729 -0.4549 -0.0861  0.3328
 4774SOL    HW125784   4.238   3.014   5.791  0.5218  0.2938  1.1691
 4774SOL    HW225785   4.354   3.053   5.704 -0.7642 -0.6906 -0.1078
 4775SOL     OW25786   1.296   0.445   2.007  0.7435 -0.1617  0.1691
 4775SOL    HW125787   1.361   0.497   1.958 -0.9252  0.9359 -0.8739
 4775SOL    HW225788   1.308   0.360   1.965  3.9046  0.6244 -0.5550
 4776SOL     OW25789   1.791   1.688   6.463  0.0275 -0.1743  0.0647
 4776SOL    HW125790   1.844   1.629   6.409 -1.1484 -0.6499 -0.5684
 4776SOL    HW225791   1.751   1.640   6.535  0.3047  1.0664  1.0486
 4777SOL     OW25792   3.325   1.436  14.655  0.0626  0.3736 -0.0554
 4777SOL    HW125793   3.239   1.442  14.613 -0.3140 -1.4109  0.4759
 4777SOL    HW225794   3.317   1.365  14.718  3.5532  2.4072  2.6850
 4778SOL     OW25795   0.796   4.440  12.125  0.5103 -0.2952  0.1131
 4778SOL    HW125796   0.884   4.426  12.160 -0.0552 -1.5891  1.0220
 4778SOL    HW225797   0.743   4.369  12.162  0.2583 -0.1365  0.0576
 4779SOL     OW25798   1.064   4.718   4.819 -0.2994 -0.3951  0.3571
 4779SOL    HW125799   1.122   4.655   4.862  0.2397  1.2785  2.1169
 4779SOL    HW225800   1.124   0.015   4.748  1.6840  0.2603  2.2105
 4780SOL     OW25801   2.684   0.502   2.098 -0.0664  0.2099  0.0250
 4780SOL    HW125802   2.779   0.515   2.093 -0.1218 -0.8042 -3.4784
 4780SOL    HW225803   2.667   0.497   2.192 -1.6458 -1.7421 -0.3634
 4781SOL     OW25804   3.722   1.017   5.606  0.1640 -0.6849 -0.4355
 4781SOL    HW125805   3.726   1.034   5.700  0.0101 -0.5548 -0.4515
 4781SOL    HW225806   3.657   1.082   5.578  0.7313 -0.7013 -1.7898
 4782SOL     OW25807   2.989   0.419   0.447  0.1542 -0.2113 -0.8843
 4782SOL    HW125808   3.058   0.366   0.406 -0.2318 -0.7435 -0.8453
 4782SOL    HW225809   3.027   0.490   0.498 -0.2390 -0.9695  0.4397
 4783SOL     OW25810   1.236   0.623   5.146  0.0960 -0.2162  0.1609
 4783SOL    HW125811   1.301   0.693   5.137 -1.1391  0.6029 -2.3518
 4783SOL    HW225812   1.233   0.631   5.241  1.1020 -2.1994  0.3501
 4784SOL     OW25813   0.702   3.708   1.052 -0.3586  0.2378  0.2053
 4784SOL    HW125814   0.766   3.644   1.083  0.7230  1.4719  0.5294
 4784SOL    HW225815   0.755   3.783   1.027 -0.6362  0.6470  0.8282
 4785SOL     OW25816   0.614   2.355  16.571  0.0689 -0.2490  0.4132
 4785SOL    HW125817   0.587   2.315  16.654  0.1849 -0.2094  0.4685
 4785SOL    HW225818   0.533   2.399  16.544 -1.0151 -0.2218  3.7348
 4786SOL     OW25819   0.175   3.543   8.451  0.1965 -0.1860 -0.0854
 4786SOL    HW125820   0.254   3.524   8.401 -0.0567 -2.8201  0.5251
 4786SOL    HW225821   0.199   3.541   8.544  0.3303 -0.8569 -0.1379
 4787SOL     OW25822   0.385   3.306   3.095  0.1163  0.1060 -0.1202
 4787SOL    HW125823   0.330   3.374   3.056  1.4731  1.7237  0.7986
 4787SOL    HW225824   0.427   3.357   3.164 -0.6109  0.1410  0.2987
 4788SOL     OW25825   1.916   0.014   6.383 -0.3174 -0.0940  0.9081
 4788SOL    HW125826   2.002   0.056   6.389 -0.5046  0.4989 -0.5018
 4788SOL    HW225827   1.910   4.680   6.458 -1.8935  1.2095  1.7952
 4789SOL     OW25828   0.718   0.565  14.705  0.0390  0.2373  0.7114
 4789SOL    HW125829   0.630   0.543  14.737  0.0079  0.0765  0.5155
 4789SOL    HW225830   0.699   0.591  14.615  1.1719 -0.2217  0.3414
 4790SOL     OW25831   4.665   3.251   2.253  0.4462  0.6539 -0.0905
 4790SOL    HW125832   4.701   3.259   2.165  1.7951  0.7376  0.4781
 4790SOL    HW225833   0.020   3.242   2.304 -0.3291 -0.6404  0.8755
 4791SOL     OW25834   1.876   2.220   7.341 -0.3076 -0.4002 -0.2245
 4791SOL    HW125835   1.871   2.269   7.259  0.9132 -0.7214 -0.5013
 4791SOL    HW225836   1.970   2.209   7.360  0.1005 -0.3293 -2.2490
 4792SOL     OW25837   3.235   2.645   6.185  0.2580  0.5385 -0.0065
 4792SOL    HW125838   3.328   2.646   6.160  0.0985 -1.0728 -0.6731
 4792SOL    HW225839   3.228   2.726   6.236  0.1031 -1.0424  2.4968
 4793SOL     OW25840   3.734   1.808   4.469 -0.2058 -0.3108 -0.9453
 4793SOL    HW125841   3.818   1.765   4.453  0.0715 -0.1201 -0.0300
 4793SOL    HW225842   3.688   1.735   4.511  0.7554 -1.5966 -2.1375
 4794SOL     OW25843   3.367   1.251   1.453  0.1181 -0.1794 -0.2280
 4794SOL    HW125844   3.435   1.314   1.429  1.4712 -1.4074  0.3820
 4794SOL    HW225845   3.304   1.280   1.387 -1.3136 -0.3052  1.0964
 4795SOL     OW25846   3.998   2.943   9.285 -0.6218 -0.4313  0.7555
 4795SOL    HW125847   3.930   2.926   9.351  0.4256 -0.8489  1.7331
 4795SOL    HW225848   4.062   2.987   9.341 -0.2995 -1.8001  1.4818
 4796SOL     OW25849   0.409   0.193   0.615  0.2366 -0.3320  0.3691
 4796SOL    HW125850   0.373   0.282   0.614 -0.5582 -0.6621 -0.1408
 4796SOL    HW225851   0.424   0.175   0.523  0.9652  0.3150  0.3577
 4797SOL     OW25852   3.513   0.356  16.793  0.8840  0.4037  0.3049
 4797SOL    HW125853   3.493   0.449  16.800 -0.0869  0.2430 -0.3456
 4797SOL    HW225854   3.426   0.318  16.800  1.1730 -0.6806 -2.0061
 4798SOL     OW25855   3.500   3.856   6.452  0.1488 -0.6151  0.2581
 4798SOL    HW125856   3.533   3.909   6.524  0.2764 -0.9270  0.4276
 4798SOL    HW225857   3.582   3.824   6.416  1.6154  0.2824  2.8053
 4799SOL     OW25858   0.386   2.336  12.580 -0.2469  0.1460  0.9735
 4799SOL    HW125859   0.369   2.427  12.557 -0.0857 -0.0166  0.2199
 4799SOL    HW225860   0.442   2.332  12.658 -1.0425  1.0275  1.5898
 4800SOL     OW25861   4.099   0.068   7.218  0.3784  0.1806  0.0935
 4800SOL    HW125862   4.045   0.138   7.181 -0.7625 -0.5097  0.4861
 4800SOL    HW225863   4.183   0.086   7.174  0.7118  1.2644  1.1618
 4801SOL     OW25864   2.539   2.253   1.298  0.1081  0.1271 -0.1486
 4801SOL    HW125865   2.487   2.189   1.345 -1.1652  1.1134 -0.2221
 4801SOL    HW225866   2.588   2.283   1.375  0.3020 -1.7647  0.4629
 4802SOL     OW25867   2.817   4.291   2.475  0.0406  0.1516  0.1933
 4802SOL    HW125868   2.758   4.297   2.400 -0.5088  0.5920  0.6623
 4802SOL    HW225869   2.746   4.265   2.534  0.3564 -0.0297  0.4919
 4803SOL     OW25870   3.142   2.684   2.091 -0.4499 -0.6369  0.5661
 4803SOL    HW125871   3.199   2.607   2.091 -2.0731 -1.8387  0.1184
 4803SOL    HW225872   3.163   2.717   2.178 -2.6910  0.8564  0.5489
 4804SOL     OW25873   3.256   1.286   2.492  0.0754 -0.0525  0.0807
 4804SOL    HW125874   3.186   1.254   2.436 -0.5240  1.3586  0.0175
 4804SOL    HW225875   3.274   1.211   2.549 -0.0141  0.7913  1.2384
 4805SOL     OW25876   0.118   1.820  15.818 -0.2401  0.1178  0.1558
 4805SOL    HW125877   0.076   1.843  15.735 -1.5581 -1.6907  0.3369
 4805SOL    HW225878   0.189   1.885  15.810 -1.8734  1.7494 -1.0613
 4806SOL     OW25879   4.397   3.664  14.008  0.1411  0.2180  0.1759
 4806SOL    HW125880   4.323   3.629  14.058  0.5077 -1.6639 -0.6146
 4806SOL    HW225881   4.468   3.606  14.034  0.4479  0.0157 -1.1211
 4807SOL     OW25882   4.291   3.734  15.128 -0.1308 -0.2870 -0.0166
 4807SOL    HW125883   4.207   3.692  15.109 -1.6605  1.7967  2.1593
 4807SOL    HW225884   4.321   3.757  15.040  1.4914 -1.7752  0.1664
 4808SOL     OW25885   4.213   0.691   5.540  0.0215  0.3291  0.2408
 4808SOL    HW125886   4.213   0.787   5.534  0.4717  0.2487 -1.1368
 4808SOL    HW225887   4.307   0.679   5.554 -0.5568 -0.1604  3.5801
 4809SOL     OW25888   3.200   4.260   6.100 -0.0337  0.0349 -0.2140
 4809SOL    HW125889   3.285   4.259   6.055  0.8881  0.2416  1.5223
 4809SOL    HW225890   3.204   4.180   6.151 -0.3057  0.0445 -0.1812
 4810SOL     OW25891   3.198   0.031   9.711  0.1479 -0.0354  0.1578
 4810SOL    HW125892   3.106   0.054   9.696  0.4311  0.1342 -1.2826
 4810SOL    HW225893   3.196   4.693   9.783  1.0236 -0.7705 -0.4539
 4811SOL     OW25894   3.864   3.948   2.387 -0.1478  0.4718 -0.0129
 4811SOL    HW125895   3.934   3.985   2.442  1.0024  0.5107 -1.4923
 4811SOL    HW225896   3.910   3.929   2.305  1.4332 -0.3857  1.0766
 4812SOL     OW25897   1.496   0.221   3.814  0.1237 -0.1673  0.4430
 4812SOL    HW125898   1.463   0.271   3.888 -2.2293 -0.7026 -0.2501
 4812SOL    HW225899   1.453   0.262   3.738  0.8423 -0.2423 -0.0059
 4813SOL     OW25900   0.442   1.067   9.806  0.4279  0.7258  0.2933
 4813SOL    HW125901   0.399   1.016   9.737  2.2304 -2.9289  1.9341
 4813SOL    HW225902   0.501   1.005   9.848 -0.2402  1.7887  2.7875
 4814SOL     OW25903   3.978   4.170  10.658 -0.0046  0.1178  0.2286
 4814SOL    HW125904   4.063   4.125  10.656 -0.1927 -0.3116  1.8814
 4814SOL    HW225905   4.015   4.257  10.643 -0.5578  0.2029 -0.6271
 4815SOL     OW25906   3.482   1.290   6.265  0.6162  0.5719  0.1954
 4815SOL    HW125907   3.483   1.253   6.177 -0.8864  1.9135 -0.3828
 4815SOL    HW225908   3.564   1.253   6.298  1.1746  1.6428  0.0207
 4816SOL     OW25909   1.192   2.278   9.083 -0.1011  1.1632 -0.2511
 4816SOL    HW125910   1.177   2.323   8.999 -0.8508  0.9232 -0.2516
 4816SOL    HW225911   1.129   2.207   9.068  1.1018  0.0778 -0.1408
 4817SOL     OW25912   3.697   2.119   0.013  0.1885 -0.4143  1.7129
 4817SOL    HW125913   3.615   2.136   0.058 -1.2488 -1.2078 -0.6359
 4817SOL    HW225914   3.675   2.049  17.654 -1.3488  0.8850  0.7751
 4818SOL     OW25915   1.346   0.317  11.895  0.0508 -0.7037 -0.1617
 4818SOL    HW125916   1.367   0.244  11.954 -0.2335 -2.0078 -1.6510
 4818SOL    HW225917   1.434   0.339  11.867 -0.4225  1.4334  0.0225
 4819SOL     OW25918   1.820   1.186   5.636  0.1338  0.2569 -0.0256
 4819SOL    HW125919   1.893   1.191   5.698  0.9346 -0.5499 -0.9115
 4819SOL    HW225920   1.818   1.092   5.617 -0.0193  0.3436 -0.4299
 4820SOL     OW25921   1.325   3.010   6.791 -0.5655  0.5032 -0.1612
 4820SOL    HW125922   1.244   3.062   6.782 -1.3054 -0.9382 -2.0134
 4820SOL    HW225923   1.371   3.044   6.714  0.1626 -0.9684 -0.3711
 4821SOL     OW25924   4.512   3.425   0.586 -0.8150 -0.2332 -0.4336
 4821SOL    HW125925   4.493   3.332   0.599 -0.2333 -0.0120  1.9521
 4821SOL    HW225926   4.450   3.466   0.647  0.3122  1.6339 -0.5709
 4822SOL     OW25927   1.118   1.184  13.748  0.3912  0.0361  0.1014
 4822SOL    HW125928   1.170   1.109  13.717  2.4633  0.8550  1.5401
 4822SOL    HW225929   1.106   1.236  13.668 -0.4249 -0.8719 -0.3736
 4823SOL     OW25930   3.753   0.459   4.407  0.1417 -1.1488 -0.1890
 4823SOL    HW125931   3.701   0.421   4.478 -1.5421  1.1229 -0.1988
 4823SOL    HW225932   3.839   0.470   4.448 -1.3955  0.4315  2.6300
 4824SOL     OW25933   1.558   3.832   7.754  0.1873 -0.2842  0.5955
 4824SOL    HW125934   1.488   3.835   7.688  0.4240 -0.8961  0.3187
 4824SOL    HW225935   1.637   3.809   7.704 -0.7647  0.4093 -1.2510
 4825SOL     OW25936   1.956   3.235   6.783  0.1712 -0.3585 -0.8004
 4825SOL    HW125937   1.942   3.208   6.692  1.3803 -1.9712 -0.5096
 4825SOL    HW225938   1.877   3.201   6.826  0.8432 -2.0350 -0.8958
 4826SOL     OW25939   2.191   2.828  14.849  0.0713  0.3693 -0.2645
 4826SOL    HW125940   2.194   2.875  14.765  2.7753 -0.8540 -0.8693
 4826SOL    HW225941   2.194   2.734  14.831 -0.4385  0.2883  0.0877
 4827SOL     OW25942   3.977   0.708   4.487 -0.1812  0.8349 -0.5505
 4827SOL    HW125943   3.992   0.729   4.579  0.8209  0.6556 -0.6782
 4827SOL    HW225944   3.964   0.791   4.441 -0.2189  1.1651  0.0529
 4828SOL     OW25945   1.881   0.841   6.921 -0.2727 -0.3535 -0.4802
 4828SOL    HW125946   1.908   0.854   6.830  1.5212 -1.1654 -0.0502
 4828SOL    HW225947   1.796   0.797   6.920 -0.7270  0.5050 -0.2735
 4829SOL     OW25948   2.600   3.835   6.703  0.2419  0.2621  0.0469
 4829SOL    HW125949   2.560   3.795   6.626  2.6388 -0.2301 -0.9456
 4829SOL    HW225950   2.525   3.888   6.731 -1.0273 -0.8070 -1.2862
 4830SOL     OW25951   3.563   1.641   0.450  0.4214 -0.3495 -0.0054
 4830SOL    HW125952   3.570   1.734   0.471 -2.5593 -0.2860  0.6764
 4830SOL    HW225953   3.619   1.597   0.515  1.3530 -2.1527 -2.0382
 4831SOL     OW25954   1.748   3.084  14.833  0.2159  0.2144  0.2003
 4831SOL    HW125955   1.679   3.107  14.771 -0.6919 -1.0746  0.7284
 4831SOL    HW225956   1.812   3.048  14.771 -1.8699 -0.3555 -1.6064
 4832SOL     OW25957   0.423   3.047  16.477  0.4191 -0.6088 -0.1740
 4832SOL    HW125958   0.514   3.074  16.487  0.3045  0.1825 -1.2962
 4832SOL    HW225959   0.419   3.024  16.384  1.8361  0.2989 -0.4467
 4833SOL     OW25960   1.186   4.346   9.784 -0.4475  0.3576  0.8953
 4833SOL    HW125961   1.126   4.368   9.713  0.0800  0.8721  0.6072
 4833SOL    HW225962   1.139   4.368   9.865 -0.3359 -1.8591  1.5510
 4834SOL     OW25963   2.964   2.860   9.056  0.0106  0.2472  0.1507
 4834SOL    HW125964   2.913   2.853   8.976 -0.5679  1.7560  0.3830
 4834SOL    HW225965   3.005   2.774   9.049 -0.6176  0.0309 -0.8831
 4835SOL     OW25966   3.814   0.352  16.073 -0.0732  0.6132 -0.3463
 4835SOL    HW125967   3.819   0.287  16.004  1.4049  3.1714 -2.6568
 4835SOL    HW225968   3.845   0.310  16.153 -0.8039  1.6397  0.4790
 4836SOL     OW25969   2.681   2.791   2.162 -0.3449 -0.0281  0.6664
 4836SOL    HW125970   2.742   2.745   2.220  1.0969  0.2872 -0.6241
 4836SOL    HW225971   2.735   2.792   2.083  0.1758  2.5315  1.0604
 4837SOL     OW25972   1.875   4.428   5.181 -0.2729 -0.0465 -0.0577
 4837SOL    HW125973   1.807   4.495   5.186 -0.0402  0.2714 -1.2002
 4837SOL    HW225974   1.902   4.425   5.273  0.5074 -2.1739 -0.3488
 4838SOL     OW25975   4.377   1.774   6.200 -0.3667  0.3151 -0.2492
 4838SOL    HW125976   4.401   1.843   6.262 -0.5417  0.0260  0.1394
 4838SOL    HW225977   4.432   1.803   6.127  0.3281  0.2629  0.2620
 4839SOL     OW25978   4.429   4.339  14.647  0.3697 -0.0445 -0.1414
 4839SOL    HW125979   4.490   4.357  14.719 -1.6225  2.1775  1.0346
 4839SOL    HW225980   4.359   4.302  14.701  0.4988  0.3553  0.3025
 4840SOL     OW25981   3.705   2.652   5.888 -0.1671  0.4007 -0.2075
 4840SOL    HW125982   3.785   2.700   5.907 -0.5644  0.5951  0.9369
 4840SOL    HW225983   3.707   2.586   5.957 -0.7081  1.3022  0.6595
 4841SOL     OW25984   2.338   4.286   0.831  0.0805  0.2345 -0.2037
 4841SOL    HW125985   2.292   4.371   0.831 -0.3035  0.0382 -2.3252
 4841SOL    HW225986   2.270   4.221   0.814  1.8242 -2.0128  1.5127
 4842SOL     OW25987   1.102   0.063  15.320  0.1923  0.1229 -0.1548
 4842SOL    HW125988   1.182   0.022  15.355 -1.8907 -2.4496  1.5474
 4842SOL    HW225989   1.077   0.120  15.393  0.8501  0.3684 -0.1194
 4843SOL     OW25990   3.311   4.342   2.676  0.5143  0.5576 -0.4129
 4843SOL    HW125991   3.234   4.373   2.627  0.5535  0.0927 -0.7644
 4843SOL    HW225992   3.274   4.275   2.734  1.7070  0.3875  0.1421
 4844SOL     OW25993   0.856   3.514  15.053  0.9006  0.2161 -0.5629
 4844SOL    HW125994   0.773   3.466  15.054  0.9135  0.1335 -3.8140
 4844SOL    HW225995   0.916   3.453  15.010 -0.1079 -1.3151  0.1987
 4845SOL     OW25996   2.108   1.383   3.301 -0.2402 -0.7271  0.0409
 4845SOL    HW125997   2.093   1.447   3.232  2.1061  0.4141  0.5651
 4845SOL    HW225998   2.043   1.316   3.279  1.7691 -1.5426 -3.3839
 4846SOL     OW25999   2.371   0.708  17.340 -0.3792  0.1399  0.0857
 4846SOL    HW126000   2.385   0.615  17.355  0.6611  0.5648  1.7480
 4846SOL    HW226001   2.385   0.720  17.246  1.4245  1.5087  0.5444
 4847SOL     OW26002   1.257   0.234   5.729 -0.3447  0.5132 -0.1772
 4847SOL    HW126003   1.242   0.213   5.637  1.7068 -0.7118 -0.2247
 4847SOL    HW226004   1.170   0.264   5.756  0.0835 -1.1113  2.9841
 4848SOL     OW26005   0.542   0.188   6.363 -0.1557  0.8711  0.0777
 4848SOL    HW126006   0.584   0.258   6.412  2.9186 -0.9012  0.0172
 4848SOL    HW226007   0.492   0.241   6.301 -0.6494 -0.9148 -1.0730
 4849SOL     OW26008   2.176   0.277  14.781 -0.0443  0.3621 -0.1253
 4849SOL    HW126009   2.134   0.203  14.736 -1.0936 -0.6220  2.4543
 4849SOL    HW226010   2.150   0.353  14.731  1.1604  1.3464  0.7501
 4850SOL     OW26011   4.071   3.607  15.062 -0.4977 -0.3141 -0.2108
 4850SOL    HW126012   4.102   3.545  15.128  4.7460  0.7969 -1.6337
 4850SOL    HW226013   3.999   3.565  15.015  0.7752 -0.5696 -1.9315
 4851SOL     OW26014   3.700   0.837  16.339  0.1453  0.1469 -0.2640
 4851SOL    HW126015   3.719   0.765  16.279 -1.6646  2.1095 -3.1706
 4851SOL    HW226016   3.664   0.786  16.412  0.3807  0.6186  0.1796
 4852SOL     OW26017   2.097   2.269   9.148  0.3423  0.2682  0.3523
 4852SOL    HW126018   2.032   2.314   9.095 -0.1109 -1.8155 -0.8465
 4852SOL    HW226019   2.046   2.191   9.169 -0.7722  1.6263  2.5855
 4853SOL     OW26020   1.777   0.628   0.967 -0.1022 -0.0836 -0.5481
 4853SOL    HW126021   1.786   0.606   0.874  0.9204 -0.1109 -0.4392
 4853SOL    HW226022   1.686   0.657   0.968 -0.5649 -1.5108 -1.2669
 4854SOL     OW26023   1.453   2.863  17.572  0.0719  0.2273  0.2359
 4854SOL    HW126024   1.484   2.935  17.627 -0.5687  0.6554  0.0302
 4854SOL    HW226025   1.385   2.915  17.529  0.5896  0.3708 -0.3989
 4855SOL     OW26026   0.984   2.474  13.290  0.4788 -0.6154  0.1858
 4855SOL    HW126027   0.974   2.386  13.255  0.1597 -0.3140 -0.4681
 4855SOL    HW226028   0.974   2.444  13.380  0.5616  0.7340  0.6516
 4856SOL     OW26029   2.392   3.487   4.415  0.1986 -0.3505  0.4829
 4856SOL    HW126030   2.356   3.571   4.387  1.0791 -0.3725 -0.6990
 4856SOL    HW226031   2.313   3.434   4.413 -0.4121  0.5404  0.9714
 4857SOL     OW26032   3.548   1.661   9.135  0.4803  0.3989  0.4422
 4857SOL    HW126033   3.588   1.655   9.048  1.1686  3.5526  0.5745
 4857SOL    HW226034   3.454   1.659   9.117  0.5723 -1.7024  0.1406
 4858SOL     OW26035   1.027   4.203  16.237 -0.6651 -0.2948  0.6126
 4858SOL    HW126036   0.937   4.170  16.246 -0.5663 -1.0170 -1.0246
 4858SOL    HW226037   1.066   4.154  16.309  0.4062 -2.0370 -1.1525
 4859SOL     OW26038   2.976   3.019   4.769 -0.0656  0.4111 -0.0869
 4859SOL    HW126039   2.906   3.073   4.808 -1.0011 -0.1949 -0.9323
 4859SOL    HW226040   3.007   3.079   4.702  0.4835 -1.9863 -1.9603
 4860SOL     OW26041   3.695   0.948   7.648 -0.0692  0.0006  0.3306
 4860SOL    HW126042   3.716   0.856   7.665  0.5211 -0.0637 -0.7407
 4860SOL    HW226043   3.781   0.983   7.672  0.0342 -0.0360  0.0109
 4861SOL     OW26044   0.221   3.258   8.216 -0.0104  0.4054 -0.5223
 4861SOL    HW126045   0.299   3.205   8.197  0.0710 -0.2899  1.7845
 4861SOL    HW226046   0.174   3.193   8.269 -2.7011  1.1285 -2.0213
 4862SOL     OW26047   0.580   2.672  10.746  0.2834 -0.0675  0.0032
 4862SOL    HW126048   0.583   2.590  10.697 -1.7109 -0.2055  0.1337
 4862SOL    HW226049   0.487   2.691  10.732 -0.3665 -3.0843  0.1605
 4863SOL     OW26050   3.218   2.197   8.306 -0.0390 -0.4550  0.4360
 4863SOL    HW126051   3.175   2.141   8.241  0.3212  0.1402 -0.3146
 4863SOL    HW226052   3.307   2.189   8.273  0.0727 -1.3615  0.9512
 4864SOL     OW26053   0.319   1.843  12.488  0.6229 -0.3499 -0.0952
 4864SOL    HW126054   0.294   1.932  12.509 -1.6373 -1.0916  0.3040
 4864SOL    HW226055   0.405   1.833  12.530  0.3625 -1.7452  0.1280
 4865SOL     OW26056   1.627   2.608  12.397  0.0153 -0.1053 -0.1465
 4865SOL    HW126057   1.612   2.517  12.370 -2.6365  0.1811  0.3322
 4865SOL    HW226058   1.541   2.621  12.436  0.3902 -0.3362  0.7581
 4866SOL     OW26059   1.998   2.827   2.414  0.5947 -0.4110  0.0743
 4866SOL    HW126060   2.028   2.841   2.324 -0.5229  0.6825 -0.1275
 4866SOL    HW226061   2.084   2.798   2.445  0.4380 -0.0026  0.8642
 4867SOL     OW26062   1.526   3.471  13.460 -0.2628  0.4630  0.4696
 4867SOL    HW126063   1.597   3.500  13.518 -2.3638  1.4737  2.5102
 4867SOL    HW226064   1.451   3.520  13.492 -1.5653  0.0758 -2.0407
 4868SOL     OW26065   3.625   1.649   5.064 -0.5984  0.1906 -0.2528
 4868SOL    HW126066   3.670   1.576   5.022  1.1206  1.5344 -0.7589
 4868SOL    HW226067   3.696   1.713   5.072 -1.7802  1.4737  0.0156
 4869SOL     OW26068   2.991   2.300   8.702  0.6276 -0.2677  0.4464
 4869SOL    HW126069   3.031   2.307   8.616 -0.8179 -1.6464 -0.3441
 4869SOL    HW226070   3.024   2.379   8.745 -0.2224  0.9197 -1.0768
 4870SOL     OW26071   4.526   0.207  13.882 -0.8083  0.2734 -0.6506
 4870SOL    HW126072   4.567   0.294  13.883  0.0565 -0.2005  3.4735
 4870SOL    HW226073   4.597   0.153  13.848 -1.8341 -1.7602  0.4721
 4871SOL     OW26074   0.574   2.465   7.749  0.0683 -0.4512 -0.2221
 4871SOL    HW126075   0.488   2.503   7.769 -0.2921 -1.7750  0.8172
 4871SOL    HW226076   0.623   2.473   7.831  0.4304 -0.7124 -0.4129
 4872SOL     OW26077   3.764   2.936  16.785 -0.0087 -0.0861  0.1985
 4872SOL    HW126078   3.832   2.907  16.846 -0.3748 -1.6718 -0.1356
 4872SOL    HW226079   3.731   2.854  16.748  2.5660 -0.3980 -1.4245
 4873SOL     OW26080   3.850   4.061  17.449 -0.7291  0.1447 -0.2904
 4873SOL    HW126081   3.815   3.988  17.500 -1.0382  0.3749 -0.1794
 4873SOL    HW226082   3.932   4.018  17.425 -0.9351  0.2687 -1.2133
 4874SOL     OW26083   0.809   0.044   0.585 -0.0772  0.1171 -0.7266
 4874SOL    HW126084   0.739   4.721   0.541  2.0542 -1.5035 -2.3541
 4874SOL    HW226085   0.889   0.006   0.548 -0.0672 -0.5863  0.0214
 4875SOL     OW26086   2.033   0.803  14.069 -0.1898  0.2271 -0.3176
 4875SOL    HW126087   2.014   0.720  14.027  0.4443 -0.6209  1.0671
 4875SOL    HW226088   1.959   0.857  14.040 -2.6003 -1.0748  3.3670
 4876SOL     OW26089   2.885   2.243   5.187 -0.1595 -0.5884  0.5247
 4876SOL    HW126090   2.871   2.252   5.281 -0.4641 -1.2809  0.5478
 4876SOL    HW226091   2.976   2.212   5.195  1.1261  3.3312  0.7794
 4877SOL     OW26092   2.743   3.522  15.572  0.1431 -0.5210 -0.3955
 4877SOL    HW126093   2.829   3.495  15.542  1.5792  0.9140  2.3746
 4877SOL    HW226094   2.731   3.488  15.661 -1.4727  0.0768 -0.3857
 4878SOL     OW26095   1.867   3.126   1.708  0.0643 -0.7722 -0.2436
 4878SOL    HW126096   1.949   3.084   1.733 -1.5889 -1.5985  3.7449
 4878SOL    HW226097   1.899   3.212   1.682 -0.6066 -0.0993  1.1628
 4879SOL     OW26098   0.658   1.526   0.073  0.7933 -0.4629 -0.6606
 4879SOL    HW126099   0.695   1.601   0.119 -0.6245  0.2425 -0.6777
 4879SOL    HW226100   0.666   1.451   0.132 -3.6054 -1.1834 -0.9721
 4880SOL     OW26101   0.681   1.361   9.463  0.2610 -0.2309  0.2048
 4880SOL    HW126102   0.597   1.336   9.423  0.1354 -0.5967  0.6874
 4880SOL    HW226103   0.667   1.331   9.553  0.3531 -0.8524  0.0131
 4881SOL     OW26104   4.434   1.826   7.715  0.3818 -0.2383  0.6364
 4881SOL    HW126105   4.416   1.919   7.701 -1.5896 -0.7280 -0.2133
 4881SOL    HW226106   4.466   1.824   7.805 -0.4657  0.0347  0.9424
 4882SOL     OW26107   2.671   1.506   2.769  0.1126 -0.0540  0.3035
 4882SOL    HW126108   2.581   1.480   2.789 -0.1819  0.0121 -0.9447
 4882SOL    HW226109   2.663   1.597   2.798  0.3444  0.4871 -1.3798
 4883SOL     OW26110   1.772   1.673   0.046  0.0813 -0.0047 -0.2706
 4883SOL    HW126111   1.852   1.725   0.042 -0.0899  0.1955 -1.2770
 4883SOL    HW226112   1.731   1.714  17.671  0.1023 -0.5073 -0.5476
 4884SOL     OW26113   4.402   4.076  12.693  0.0858  0.3660  0.3391
 4884SOL    HW126114   4.437   4.092  12.605 -1.9108  0.8259 -0.3558
 4884SOL    HW226115   4.395   4.164  12.730  0.5345  1.1208 -1.3547
 4885SOL     OW26116   2.737   1.592   7.104 -0.2741 -0.2151  0.3056
 4885SOL    HW126117   2.757   1.656   7.172  0.4682  0.7349 -0.8253
 4885SOL    HW226118   2.807   1.529   7.120  0.5137  0.1632 -1.6863
 4886SOL     OW26119   2.418   1.445   2.794 -0.4391  0.2767  0.1353
 4886SOL    HW126120   2.406   1.472   2.703  1.6081 -0.7249 -0.4383
 4886SOL    HW226121   2.332   1.411   2.817 -0.2008 -1.3409 -1.3196
 4887SOL     OW26122   3.573   4.705   8.731 -0.4642  0.1981 -0.7528
 4887SOL    HW126123   3.625   0.040   8.784  1.3215  0.2308 -2.5467
 4887SOL    HW226124   3.486   0.019   8.742  0.2666  1.9866 -1.4104
 4888SOL     OW26125   2.524   3.562   6.177  0.2087 -0.5997 -0.2266
 4888SOL    HW126126   2.459   3.632   6.185  2.1636  0.7969  3.0955
 4888SOL    HW226127   2.571   3.576   6.259  0.2985 -1.8086 -0.0644
 4889SOL     OW26128   3.595   3.977   8.129  0.0971  0.6747 -0.6011
 4889SOL    HW126129   3.689   3.979   8.146 -0.1676  0.7610  0.8040
 4889SOL    HW226130   3.590   3.980   8.033 -0.3174 -0.4080 -0.6138
 4890SOL     OW26131   0.963   4.531   4.316 -0.5853 -0.6863 -0.0813
 4890SOL    HW126132   1.014   4.492   4.245  2.4079  0.4422  1.4336
 4890SOL    HW226133   0.926   4.452   4.355  0.1989 -1.6227 -1.2269
 4891SOL     OW26134   0.643   0.308   0.748  0.0133  0.0315  0.0059
 4891SOL    HW126135   0.625   0.267   0.832 -2.4627  0.6855 -0.2199
 4891SOL    HW226136   0.562   0.294   0.699 -0.3757  0.5525  0.4944
 4892SOL     OW26137   1.142   0.634  11.636  1.3336  0.0693 -0.0401
 4892SOL    HW126138   1.101   0.716  11.664  0.2719 -0.2848 -0.5472
 4892SOL    HW226139   1.146   0.592  11.722  0.1232 -1.5754 -0.7604
 4893SOL     OW26140   0.449   4.408   6.644 -0.6436 -0.2734  0.0135
 4893SOL    HW126141   0.394   4.486   6.647 -0.0223  0.3033 -3.4197
 4893SOL    HW226142   0.530   4.434   6.599  0.0402  2.0096  2.5790
 4894SOL     OW26143   0.092   0.396   7.221 -0.0042  0.1301  0.1934
 4894SOL    HW126144   0.117   0.482   7.255  0.1072  0.2602 -0.2108
 4894SOL    HW226145   0.023   0.363   7.279 -0.5468  1.1437  0.1310
 4895SOL     OW26146   0.951   0.990   9.975 -0.3445 -0.4003  0.5327
 4895SOL    HW126147   0.968   0.939   9.896 -0.8045  3.2543 -1.9060
 4895SOL    HW226148   0.971   0.932  10.049 -0.0249 -1.0482 -0.0569
 4896SOL     OW26149   1.423   1.603   6.582  0.3767 -0.4547 -0.5643
 4896SOL    HW126150   1.513   1.587   6.608  0.3139 -1.3211 -0.9014
 4896SOL    HW226151   1.420   1.697   6.600  1.8726 -0.5709  0.2814
 4897SOL     OW26152   0.922   0.363  14.639  0.5395 -0.0200 -0.0918
 4897SOL    HW126153   0.897   0.372  14.547  0.0157 -3.0501 -0.2544
 4897SOL    HW226154   0.988   0.295  14.625  0.8374  0.1617  0.4098
 4898SOL     OW26155   0.291   2.558   9.390 -0.0121 -0.1642 -0.0187
 4898SOL    HW126156   0.364   2.619   9.381 -0.3822  0.3305  0.3407
 4898SOL    HW226157   0.241   2.608   9.455 -0.6054  0.3170 -0.8374
 4899SOL     OW26158   3.629   2.404   2.055 -0.2025  0.4345 -0.1156
 4899SOL    HW126159   3.619   2.489   2.012 -0.2976  0.2456 -0.4676
 4899SOL    HW226160   3.710   2.420   2.103  0.7716 -3.3847 -0.4903
 4900SOL     OW26161   1.932   4.412   2.597  0.2788  0.3900 -0.1110
 4900SOL    HW126162   2.027   4.406   2.588  0.3685  0.0164  1.1698
 4900SOL    HW226163   1.908   4.336   2.650 -0.8175  0.2275 -0.8451
 4901SOL     OW26164   0.681   0.293   0.402  0.0789  0.3620  0.3714
 4901SOL    HW126165   0.599   0.250   0.379  1.4479 -1.8242 -0.3493
 4901SOL    HW226166   0.715   0.240   0.474 -0.7556  1.1887  1.3933
 4902SOL     OW26167   0.677   2.684   5.808  0.6318 -0.2963  0.0046
 4902SOL    HW126168   0.739   2.703   5.879  1.6105  1.4808 -1.3154
 4902SOL    HW226169   0.682   2.768   5.762 -0.6478  0.5126  1.3164
 4903SOL     OW26170   1.979   1.525   1.224  0.0641 -0.4334 -0.3604
 4903SOL    HW126171   1.963   1.455   1.287 -1.2203  0.6549  0.5125
 4903SOL    HW226172   2.059   1.564   1.260 -1.3509 -0.4576  2.8033
 4904SOL     OW26173   3.122   4.707   3.523 -0.5226  0.4566 -0.2599
 4904SOL    HW126174   3.081   4.703   3.437  0.9690  0.3526 -0.9659
 4904SOL    HW226175   3.207   4.673   3.495 -0.3072  0.4374  0.4047
 4905SOL     OW26176   1.057   1.221   9.852 -0.1241 -0.3818 -0.0565
 4905SOL    HW126177   0.997   1.188   9.785  0.2352  0.5190 -0.8211
 4905SOL    HW226178   1.083   1.137   9.890 -0.2023 -0.1877  0.4297
 4906SOL     OW26179   2.902   0.002   8.695  0.3135 -0.4754 -0.0870
 4906SOL    HW126180   2.990   4.717   8.731  0.3130 -3.7224 -1.0030
 4906SOL    HW226181   2.917   0.085   8.649  0.8186  0.2813  1.4157
 4907SOL     OW26182   4.280   4.200   7.627 -0.3224  0.1485 -0.8138
 4907SOL    HW126183   4.186   4.219   7.621  0.0757  3.3031  3.7373
 4907SOL    HW226184   4.298   4.183   7.719  0.1215  1.1901 -0.7144
 4908SOL     OW26185   3.408   3.950   3.164  0.1767 -0.4754 -0.0255
 4908SOL    HW126186   3.417   3.978   3.073  0.9982  2.1457  0.8577
 4908SOL    HW226187   3.495   3.951   3.204  0.0529 -1.6429  0.2734
 4909SOL     OW26188   0.154   0.517   2.420 -0.0408 -0.2637 -0.0542
 4909SOL    HW126189   0.082   0.573   2.446  0.0236 -1.1042  1.9426
 4909SOL    HW226190   0.151   0.509   2.324 -0.5780 -1.6207  0.0778
 4910SOL     OW26191   0.324   3.493   0.110 -0.1554 -0.3543  0.2472
 4910SOL    HW126192   0.391   3.468   0.174 -1.4972 -1.2385  1.3235
 4910SOL    HW226193   0.381   3.509   0.035  1.5461  0.9512  1.8164
 4911SOL     OW26194   1.410   4.631  16.569 -0.2614  0.3549  0.5354
 4911SOL    HW126195   1.423   4.692  16.496 -1.3387  0.4048  0.3792
 4911SOL    HW226196   1.372   4.564  16.512 -2.2924  0.2003  2.0636
 4912SOL     OW26197   3.132   2.737   6.960  0.2245 -0.2266 -0.4136
 4912SOL    HW126198   3.108   2.816   6.912  0.6408 -0.5111 -1.1021
 4912SOL    HW226199   3.142   2.677   6.885  0.0001 -1.0233  0.1957
 4913SOL     OW26200   3.782   0.611   3.716 -0.4517  0.4074  0.2796
 4913SOL    HW126201   3.741   0.602   3.630 -1.8334  1.6435  0.7912
 4913SOL    HW226202   3.805   0.704   3.709  2.2143 -0.3831 -1.2095
 4914SOL     OW26203   4.111   4.425   3.961 -0.3332 -0.0965 -0.2658
 4914SOL    HW126204   4.101   4.354   4.024  2.1235 -0.7042 -0.5449
 4914SOL    HW226205   4.119   4.505   4.014  1.8652 -0.2669 -0.3383
 4915SOL     OW26206   2.160   3.280   2.636  0.3966  0.3372  0.5283
 4915SOL    HW126207   2.220   3.332   2.582  1.8156 -1.8478  0.0054
 4915SOL    HW226208   2.114   3.222   2.576  1.0275 -0.9720  1.3197
 4916SOL     OW26209   1.757   3.317   7.863 -0.1470 -0.1905  0.0088
 4916SOL    HW126210   1.798   3.398   7.894 -1.2024  0.3811 -0.1045
 4916SOL    HW226211   1.743   3.269   7.945  2.3368  1.3291  1.3431
 4917SOL     OW26212   3.236   0.293   9.819 -0.5540 -0.0183 -0.6358
 4917SOL    HW126213   3.305   0.349   9.783 -0.3231  0.1043  0.0027
 4917SOL    HW226214   3.260   0.214   9.770  0.9126 -0.0370  0.1040
 4918SOL     OW26215   3.238   3.515  14.112  0.2173  0.1448  0.4357
 4918SOL    HW126216   3.298   3.573  14.066  1.1935 -1.8042 -0.7482
 4918SOL    HW226217   3.215   3.451  14.044 -0.1017  0.8320 -0.1044
 4919SOL     OW26218   1.275   1.796  12.830  0.5657 -0.2787  0.2736
 4919SOL    HW126219   1.185   1.766  12.818  1.6313 -2.9021 -1.2190
 4919SOL    HW226220   1.288   1.873  12.776 -4.3182  0.6302  0.4351
 4920SOL     OW26221   2.736   2.946   5.852  0.9428  0.3908  0.3369
 4920SOL    HW126222   2.729   2.958   5.947 -3.3836 -1.1154  0.2126
 4920SOL    HW226223   2.829   2.925   5.852  0.8921  0.1908 -1.2069
 4921SOL     OW26224   4.177   1.376   4.812 -1.0172  0.1410 -0.2615
 4921SOL    HW126225   4.235   1.320   4.761  0.5839  2.6155 -1.1553
 4921SOL    HW226226   4.095   1.334   4.787 -1.4112 -0.6124  2.3204
 4922SOL     OW26227   3.685   4.686   1.724  0.2036  0.1361  0.4955
 4922SOL    HW126228   3.621   4.650   1.663  3.4295 -2.3917 -1.3840
 4922SOL    HW226229   3.701   4.607   1.776 -1.6351 -0.3561  0.3074
 4923SOL     OW26230   1.007   4.020   4.588  0.4134  0.0641  0.3429
 4923SOL    HW126231   1.078   4.056   4.642  0.5237 -1.1425  1.0259
 4923SOL    HW226232   1.054   3.997   4.508  0.9980  1.6564  0.2223
 4924SOL     OW26233   3.392   2.113   2.818  0.7293  0.0906 -0.2423
 4924SOL    HW126234   3.321   2.078   2.766  2.0659 -0.1173 -1.9300
 4924SOL    HW226235   3.462   2.127   2.754 -1.4830  2.5715 -2.0889
 4925SOL     OW26236   2.241   4.240   6.116 -0.5979 -0.3609  0.2073
 4925SOL    HW126237   2.282   4.173   6.061 -0.3294  0.5526 -0.7088
 4925SOL    HW226238   2.308   4.254   6.183  1.1049  0.7859 -1.7154
 4926SOL     OW26239   0.755   0.351  10.184 -0.3212 -0.0981  0.4347
 4926SOL    HW126240   0.762   0.257  10.199 -0.8022 -0.7319 -3.2742
 4926SOL    HW226241   0.845   0.381  10.198 -0.6534  0.5411  1.2601
 4927SOL     OW26242   3.375   1.544   6.277 -0.0547 -0.2817  0.0581
 4927SOL    HW126243   3.435   1.596   6.224 -1.4264  0.8585 -0.3766
 4927SOL    HW226244   3.422   1.463   6.295  0.6673  0.0475 -0.3191
 4928SOL     OW26245   0.187   2.611   3.175 -0.0251  0.2485  0.1204
 4928SOL    HW126246   0.185   2.706   3.189  0.9444  0.7708 -3.0749
 4928SOL    HW226247   0.278   2.597   3.148 -0.2402  1.3694 -1.1942
 4929SOL     OW26248   0.716   0.596   9.379  0.1023 -0.4299  0.3408
 4929SOL    HW126249   0.650   0.662   9.359 -2.7028 -2.6268  2.3757
 4929SOL    HW226250   0.668   0.561   9.454  0.1380  1.1072  1.0937
 4930SOL     OW26251   2.404   1.776   8.835  0.0029  0.0442 -0.2917
 4930SOL    HW126252   2.392   1.836   8.761 -0.8899  0.4914  0.2083
 4930SOL    HW226253   2.499   1.763   8.835  0.0418  0.3082  0.1616
 4931SOL     OW26254   3.612   0.595   7.696  0.0421 -0.2022  0.9274
 4931SOL    HW126255   3.537   0.537   7.708 -0.7063  0.5976  0.0647
 4931SOL    HW226256   3.682   0.530   7.687 -0.6593 -0.8822  0.4212
 4932SOL     OW26257   1.305   0.164   7.838 -0.2531  1.0504  0.2513
 4932SOL    HW126258   1.291   0.216   7.917 -0.3828 -1.0163  1.5975
 4932SOL    HW226259   1.231   0.108   7.860  0.4345  0.1441  0.2663
 4933SOL     OW26260   3.632   1.126   8.541 -0.0032 -0.1083  0.4303
 4933SOL    HW126261   3.654   1.033   8.547  1.8212  0.2576 -0.5554
 4933SOL    HW226262   3.681   1.154   8.618 -0.3752 -0.7274  0.8867
 4934SOL     OW26263   0.910   2.241   9.274  0.2891 -0.3899 -0.1386
 4934SOL    HW126264   0.897   2.246   9.179  2.2708  0.2173 -0.3724
 4934SOL    HW226265   0.964   2.162   9.272 -1.2921 -1.4797 -0.3788
 4935SOL     OW26266   2.127   1.977   8.389 -0.2582 -0.1909 -0.2333
 4935SOL    HW126267   2.057   1.934   8.439 -1.3412  0.9458 -0.7806
 4935SOL    HW226268   2.133   2.064   8.428  1.6712 -0.7515  0.7123
 4936SOL     OW26269   1.090   3.750   8.197  0.6983 -0.6540 -0.2272
 4936SOL    HW126270   1.045   3.705   8.268  1.0696  1.3023  1.2488
 4936SOL    HW226271   1.064   3.838   8.222  0.3723 -0.3233 -1.6867
 4937SOL     OW26272   1.760   3.780   9.329  0.2419 -0.4605  0.3765
 4937SOL    HW126273   1.741   3.841   9.258 -0.3738 -1.7637 -0.5882
 4937SOL    HW226274   1.852   3.797   9.348  0.3211 -0.8463  0.3436
 4938SOL     OW26275   0.650   0.892  14.392 -0.0164  0.2209 -0.4485
 4938SOL    HW126276   0.602   0.974  14.404 -2.2049 -0.9024 -1.4763
 4938SOL    HW226277   0.678   0.919  14.304 -2.1761 -2.1202 -1.8289
 4939SOL     OW26278   0.288   2.653   2.611  0.0189  0.5431 -0.0111
 4939SOL    HW126279   0.343   2.599   2.554 -1.5122 -1.7722  0.7112
 4939SOL    HW226280   0.209   2.650   2.557 -0.2365  2.9573  0.2212
 4940SOL     OW26281   2.801   3.716   8.101  0.3529  0.0065  0.7116
 4940SOL    HW126282   2.709   3.688   8.099 -0.1330  1.5590  0.7490
 4940SOL    HW226283   2.798   3.797   8.153 -0.7478  0.9709 -0.8604
 4941SOL     OW26284   2.075   1.342   3.037 -0.3904  0.0784  0.0056
 4941SOL    HW126285   2.117   1.309   2.958  1.0970 -2.2375  1.7953
 4941SOL    HW226286   2.014   1.270   3.056  0.2458 -1.2450 -3.0307
 4942SOL     OW26287   4.476   3.371   3.399 -0.2747  0.4801  0.1418
 4942SOL    HW126288   4.392   3.370   3.351 -0.2896  0.9498  0.1544
 4942SOL    HW226289   4.518   3.290   3.371 -0.2329 -0.0206  1.6617
 4943SOL     OW26290   1.437   2.545   1.484 -0.1303  0.4032  0.3828
 4943SOL    HW126291   1.423   2.495   1.403  1.6529 -0.8707  0.8386
 4943SOL    HW226292   1.422   2.632   1.448  1.3493  0.0319 -1.1520
 4944SOL     OW26293   4.508   4.497   2.566  0.0377  0.5149  0.1007
 4944SOL    HW126294   4.573   4.558   2.531  0.4956 -0.8271 -1.3906
 4944SOL    HW226295   4.556   4.458   2.639 -0.5237  0.3887  0.3996
 4945SOL     OW26296   3.582   1.623   4.633  0.2861 -0.0473 -0.0444
 4945SOL    HW126297   3.555   1.561   4.566 -3.1248 -1.3236  2.4453
 4945SOL    HW226298   3.499   1.653   4.672  0.5970  0.4346  0.2472
 4946SOL     OW26299   2.306   2.967   6.336 -1.3227  0.7608  0.1082
 4946SOL    HW126300   2.240   2.950   6.403 -1.4274 -1.8884 -0.6769
 4946SOL    HW226301   2.297   2.887   6.284 -2.2457  1.4479 -0.7875
 4947SOL     OW26302   4.288   4.523  14.514 -0.2082  0.2866 -0.4250
 4947SOL    HW126303   4.216   4.534  14.576  1.6657  0.3359  1.7789
 4947SOL    HW226304   4.336   4.454  14.561  1.1440  0.8381 -1.0064
 4948SOL     OW26305   4.356   2.135   9.391 -0.3691 -0.0487  0.8801
 4948SOL    HW126306   4.263   2.114   9.379  0.3603 -2.0868 -1.2547
 4948SOL    HW226307   4.343   2.229   9.405  0.2414  0.3615 -1.2103
 4949SOL     OW26308   0.650   4.666  11.603  0.1226  0.5816  0.2978
 4949SOL    HW126309   0.736   4.682  11.641  0.5669 -0.3931 -0.2764
 4949SOL    HW226310   0.669   4.670  11.509 -0.8620  2.5061  0.1910
 4950SOL     OW26311   4.021   2.975   4.598  0.0028  0.2572 -0.1309
 4950SOL    HW126312   4.075   3.028   4.657  3.1886 -1.3311 -1.6472
 4950SOL    HW226313   4.024   3.037   4.526  0.0405 -0.8846 -1.1116
 4951SOL     OW26314   1.345   2.070  10.348  0.1646 -0.4340  0.4374
 4951SOL    HW126315   1.305   2.067  10.434  0.0659  1.1911  0.4493
 4951SOL    HW226316   1.439   2.073  10.364  0.1579  0.3496  0.3438
 4952SOL     OW26317   0.613   0.076   5.740  0.1736  0.0284  0.4429
 4952SOL    HW126318   0.559   0.051   5.666  0.4019 -1.3495  0.7452
 4952SOL    HW226319   0.682   0.136   5.711 -0.0819  0.4402  0.6812
 4953SOL     OW26320   0.944   0.391   7.834 -0.2670  0.3895  0.1926
 4953SOL    HW126321   0.871   0.341   7.796  0.6948 -0.8106 -0.0911
 4953SOL    HW226322   0.926   0.479   7.803  0.0239  1.0367  1.9068
 4954SOL     OW26323   0.120   3.972   4.154  0.0321 -0.7831 -0.2459
 4954SOL    HW126324   0.061   3.987   4.228 -0.4695  0.0204 -0.8079
 4954SOL    HW226325   0.204   4.006   4.186 -1.3276  1.5104  0.8570
 4955SOL     OW26326   0.262   1.601  12.120  0.6488 -0.0481  0.0829
 4955SOL    HW126327   0.321   1.575  12.191 -0.8197  0.3928  1.4517
 4955SOL    HW226328   0.192   1.627  12.179  0.8336 -0.3646  0.4358
 4956SOL     OW26329   1.978   3.772   7.909  0.1966 -0.3291  0.3268
 4956SOL    HW126330   2.044   3.840   7.919 -1.6741  1.2071  2.0890
 4956SOL    HW226331   1.896   3.820   7.895 -0.3980 -1.7226 -1.0657
 4957SOL     OW26332   0.368   3.463   5.205  0.4522  0.4293 -0.1458
 4957SOL    HW126333   0.285   3.416   5.209  0.4656  0.4041 -0.1596
 4957SOL    HW226334   0.380   3.469   5.299 -0.9643 -0.3070  0.0792
 4958SOL     OW26335   4.255   3.439   5.746 -0.2325  0.1922  1.1781
 4958SOL    HW126336   4.204   3.394   5.679 -0.3834  1.3441  0.5086
 4958SOL    HW226337   4.198   3.516   5.750 -0.4593  0.0722  0.2511
 4959SOL     OW26338   4.249   1.018   2.291  0.3037 -0.5060 -0.0988
 4959SOL    HW126339   4.221   0.959   2.361  2.5173 -1.2336  0.1741
 4959SOL    HW226340   4.213   0.968   2.217  1.0149  0.2314 -0.9445
 4960SOL     OW26341   4.557   1.632   5.659  0.1235 -0.0352  0.1752
 4960SOL    HW126342   4.586   1.616   5.569 -0.9603  1.4031 -0.4330
 4960SOL    HW226343   4.628   1.691   5.685  0.6972  0.0057 -1.4709
 4961SOL     OW26344   2.169   2.725   9.970  0.8169 -0.9296 -0.2861
 4961SOL    HW126345   2.242   2.667   9.948  1.7717 -0.7324  2.3319
 4961SOL    HW226346   2.116   2.662  10.020 -1.0374  0.0906 -0.9702
 4962SOL     OW26347   2.434   2.353   2.300 -0.2308  0.1632 -0.0431
 4962SOL    HW126348   2.391   2.325   2.219  4.4676 -0.0550 -2.4329
 4962SOL    HW226349   2.524   2.328   2.278 -0.6830 -0.1800 -1.4800
 4963SOL     OW26350   2.091   2.033  11.690 -0.4995 -0.0453 -0.4166
 4963SOL    HW126351   2.097   1.948  11.647  3.6134  0.7513 -1.4527
 4963SOL    HW226352   2.027   2.018  11.760 -0.2271 -1.6246 -0.5055
 4964SOL     OW26353   3.358   2.964   6.031 -0.1288 -0.7467 -0.1092
 4964SOL    HW126354   3.311   2.893   5.987  0.3730 -1.0750 -0.1235
 4964SOL    HW226355   3.453   2.951   6.028 -0.1805 -0.9166 -1.0450
 4965SOL     OW26356   2.492   4.377   8.627 -0.7676  0.0739  0.9816
 4965SOL    HW126357   2.475   4.297   8.678 -1.1120  1.1525  2.5766
 4965SOL    HW226358   2.480   4.440   8.698 -1.6624  0.9806  0.0303
 4966SOL     OW26359   3.891   4.083  11.822  0.6829  0.1651 -0.1358
 4966SOL    HW126360   3.835   4.143  11.872 -0.9575 -1.0767 -0.5124
 4966SOL    HW226361   3.974   4.093  11.869 -0.1721 -0.1410  1.4410
 4967SOL     OW26362   2.157   1.941   2.528 -0.5750  0.0400 -0.0925
 4967SOL    HW126363   2.141   1.859   2.481  0.5780  0.5530 -1.3813
 4967SOL    HW226364   2.252   1.943   2.529 -0.5410 -1.5047 -1.0335
 4968SOL     OW26365   3.818   0.688   0.417 -0.2581 -0.0903 -0.4605
 4968SOL    HW126366   3.870   0.661   0.493 -0.2235  0.2699 -0.3582
 4968SOL    HW226367   3.799   0.601   0.380 -0.3076  0.0769 -0.8251
 4969SOL     OW26368   0.444   2.464  12.971 -0.2904 -0.3790 -0.9391
 4969SOL    HW126369   0.462   2.400  12.902  1.3069 -0.9582  0.0247
 4969SOL    HW226370   0.527   2.459  13.018 -1.6625 -1.3450  1.3589
 4970SOL     OW26371   2.697   4.562   1.705  0.3010 -0.0629  0.5465
 4970SOL    HW126372   2.657   4.587   1.622  2.3357 -0.9914 -0.7268
 4970SOL    HW226373   2.721   4.646   1.743  0.1654 -0.3343  1.2318
 4971SOL     OW26374   0.760   1.051   0.803 -0.3496 -0.2189 -0.3818
 4971SOL    HW126375   0.841   1.048   0.753  1.4224  2.0928  2.3170
 4971SOL    HW226376   0.708   1.113   0.752  1.3920  0.4734 -1.3204
 4972SOL     OW26377   2.042   2.220  15.303  0.1717  0.5413 -0.2950
 4972SOL    HW126378   2.095   2.141  15.298  0.2463  0.5437  0.4359
 4972SOL    HW226379   2.109   2.282  15.276  2.7515 -1.0759  2.3860
 4973SOL     OW26380   0.811   4.410   8.657  0.5714  0.0787 -0.3152
 4973SOL    HW126381   0.825   4.504   8.642  0.2413 -0.0980 -1.7322
 4973SOL    HW226382   0.717   4.428   8.670  0.4627 -2.5824  2.5245
 4974SOL     OW26383   0.929   0.554   7.500 -0.2072 -0.0680 -0.0134
 4974SOL    HW126384   0.986   0.575   7.574  0.8896  0.2966 -0.9533
 4974SOL    HW226385   0.998   0.512   7.449 -0.6603 -0.3992 -0.3526
 4975SOL     OW26386   3.988   1.589  10.013 -0.0495  0.0740 -0.1245
 4975SOL    HW126387   4.072   1.554  10.043 -0.2152  0.3817  0.7241
 4975SOL    HW226388   3.972   1.523   9.946 -2.8248 -0.6525  1.2239
 4976SOL     OW26389   3.254   0.493   4.952  0.0849  0.3169  0.4847
 4976SOL    HW126390   3.194   0.441   5.004  1.5004 -1.8664 -0.0469
 4976SOL    HW226391   3.214   0.578   4.970 -1.2708 -0.7509  2.4759
 4977SOL     OW26392   4.305   1.823   5.640  0.2407  0.1982 -0.0781
 4977SOL    HW126393   4.398   1.811   5.620  0.2337 -0.0972  0.0743
 4977SOL    HW226394   4.290   1.778   5.723  0.4826  1.9188  0.8938
 4978SOL     OW26395   0.711   2.194   7.222  0.0077 -0.0943 -0.2929
 4978SOL    HW126396   0.792   2.197   7.171  1.5957 -0.7574  2.2008
 4978SOL    HW226397   0.655   2.268   7.197 -2.1601 -1.0895  1.6213
 4979SOL     OW26398   0.477   3.189   1.868  0.4782 -0.0612 -0.0982
 4979SOL    HW126399   0.553   3.248   1.873  0.3659 -0.0236  1.3952
 4979SOL    HW226400   0.500   3.111   1.919  1.4570  0.5293  0.3801
 4980SOL     OW26401   0.317   0.248  15.004  0.0988  0.0649  0.0323
 4980SOL    HW126402   0.324   0.198  14.922  0.4217  0.4622 -0.1859
 4980SOL    HW226403   0.336   0.178  15.066 -1.2931 -0.9405 -0.6825
 4981SOL     OW26404   0.487   0.965  11.556  0.0689  0.3798 -0.3451
 4981SOL    HW126405   0.483   0.958  11.652  1.5191 -3.0316 -0.5206
 4981SOL    HW226406   0.551   1.036  11.555  2.4178 -1.7166  0.8567
 4982SOL     OW26407   2.347   1.078   5.094  0.4213 -0.0492  0.0845
 4982SOL    HW126408   2.405   1.068   5.169  0.2203  1.0781  0.3987
 4982SOL    HW226409   2.272   1.023   5.113  2.4445 -2.1148  2.1099
 4983SOL     OW26410   3.664   2.372  16.802  0.7630 -0.0092  0.1149
 4983SOL    HW126411   3.615   2.363  16.883  0.3972  2.0579  0.1334
 4983SOL    HW226412   3.707   2.455  16.823 -1.2433  0.7351  1.2656
 4984SOL     OW26413   0.689   0.880   6.718  0.0690  0.4611 -0.1683
 4984SOL    HW126414   0.594   0.869   6.725  0.2190 -1.8951 -1.8405
 4984SOL    HW226415   0.704   0.908   6.628  0.4098  0.5014 -0.0989
 4985SOL     OW26416   2.743   0.920  17.589  0.2919 -0.4216 -0.8634
 4985SOL    HW126417   2.678   0.871  17.539 -0.3808  2.1766 -2.5641
 4985SOL    HW226418   2.818   0.919  17.528  1.5925  2.3735  0.6926
 4986SOL     OW26419   1.694   1.711   5.801 -0.5075 -0.3121 -0.0088
 4986SOL    HW126420   1.709   1.617   5.789  0.6589 -0.0537 -0.6027
 4986SOL    HW226421   1.726   1.725   5.890  1.1702 -0.0308 -0.6553
 4987SOL     OW26422   2.384   3.484   6.433  0.1110  0.4165  0.0370
 4987SOL    HW126423   2.334   3.480   6.352  0.4075  3.0150 -0.2628
 4987SOL    HW226424   2.313   3.492   6.497 -0.4384 -0.9357 -0.3991
 4988SOL     OW26425   3.503   2.234   1.121  0.0135 -0.2177  0.2561
 4988SOL    HW126426   3.433   2.182   1.083  0.0277  0.0490 -0.1428
 4988SOL    HW226427   3.571   2.224   1.054  0.0916 -3.4703  0.8483
 4989SOL     OW26428   4.155   0.455  16.553  0.7693 -0.0625 -0.1766
 4989SOL    HW126429   4.170   0.367  16.518  0.6399 -0.1830  0.0702
 4989SOL    HW226430   4.071   0.486  16.521  0.3677  0.1302  1.1012
 4990SOL     OW26431   2.118   2.931   4.801  0.5203 -0.0130 -0.0808
 4990SOL    HW126432   2.047   2.916   4.739  2.9274  0.3737 -2.9035
 4990SOL    HW226433   2.177   2.974   4.739 -1.7838  1.3253 -1.3326
 4991SOL     OW26434   4.399   2.610   6.939  0.6418 -0.1753  0.1510
 4991SOL    HW126435   4.398   2.522   6.975 -1.1726 -0.1781  0.0825
 4991SOL    HW226436   4.459   2.598   6.865 -0.3044  0.0977 -0.6733
 4992SOL     OW26437   1.239   3.734   5.012 -0.1179  0.1488 -0.2229
 4992SOL    HW126438   1.260   3.717   4.920  0.1941 -1.3522  0.1321
 4992SOL    HW226439   1.144   3.727   5.004 -0.0866 -1.9452  1.2778
 4993SOL     OW26440   4.696   4.366  16.442 -0.4719 -0.2031 -0.5851
 4993SOL    HW126441   0.032   4.319  16.385 -0.9306 -0.6488 -0.7151
 4993SOL    HW226442   4.721   4.334  16.528 -0.0381  2.1193  0.1314
 4994SOL     OW26443   0.563   0.169   4.862  0.6021 -0.1081  0.2403
 4994SOL    HW126444   0.580   0.260   4.838 -2.0747  0.0101 -1.1920
 4994SOL    HW226445   0.636   0.128   4.816  0.1414 -0.6907  0.0228
 4995SOL     OW26446   0.479   2.850   5.408 -0.0399 -0.1734 -0.5788
 4995SOL    HW126447   0.559   2.883   5.368  0.0663  0.3704  0.0711
 4995SOL    HW226448   0.426   2.913   5.359  0.0215  0.3438  0.0113
 4996SOL     OW26449   0.686   1.644   4.436 -0.1487 -0.1607  0.2190
 4996SOL    HW126450   0.733   1.669   4.356  1.6414  2.6344  2.1140
 4996SOL    HW226451   0.764   1.627   4.489 -0.9354 -0.0111  1.4118
 4997SOL     OW26452   1.278   2.019   1.906 -0.5002 -0.1044 -0.4672
 4997SOL    HW126453   1.327   2.036   1.986 -1.4190  0.8508 -0.0992
 4997SOL    HW226454   1.208   2.084   1.914  0.5353  1.1125 -1.2098
 4998SOL     OW26455   2.960   1.779   3.884  0.3993 -0.0850  0.0985
 4998SOL    HW126456   3.044   1.811   3.917  0.7095  0.0351 -0.8275
 4998SOL    HW226457   2.924   1.759   3.971 -2.3790  1.4655 -0.7075
 4999SOL     OW26458   3.783   3.341   2.555 -0.5090 -0.7975 -0.0566
 4999SOL    HW126459   3.843   3.415   2.568  0.6207 -1.3783 -1.9839
 4999SOL    HW226460   3.707   3.392   2.584 -1.9330 -1.5277 -2.4393
 5000SOL     OW26461   1.044   4.018   8.936  0.8395  0.1061 -0.7076
 5000SOL    HW126462   1.026   4.104   8.896  0.2790  0.5768  0.5687
 5000SOL    HW226463   0.983   4.022   9.010  2.4510 -1.6231  0.6896
 5001SOL     OW26464   3.223   4.045   2.708 -0.1764 -0.8645 -0.5853
 5001SOL    HW126465   3.163   4.080   2.641  0.4297  0.0890 -0.6237
 5001SOL    HW226466   3.286   3.998   2.653 -0.6601 -0.8025 -1.2003
 5002SOL     OW26467   3.287   1.796   3.904  0.0636  0.2739  1.0367
 5002SOL    HW126468   3.285   1.747   3.822 -1.5130 -0.9398  1.7924
 5002SOL    HW226469   3.330   1.733   3.962 -1.7755 -0.0565  2.0591
 5003SOL     OW26470   1.825   0.287   6.767 -0.8050 -0.3746  0.0221
 5003SOL    HW126471   1.763   0.217   6.749  0.0575 -0.9220 -0.8289
 5003SOL    HW226472   1.900   0.247   6.723  0.9665  1.3388  1.4823
 5004SOL     OW26473   2.528   1.360   0.853 -0.0562  0.0535 -0.0497
 5004SOL    HW126474   2.433   1.359   0.862 -0.0516  2.3642  0.3689
 5004SOL    HW226475   2.534   1.358   0.757 -0.2296 -0.6322 -0.0420
 5005SOL     OW26476   2.760   4.212  13.458  0.0752 -0.1981  0.6550
 5005SOL    HW126477   2.739   4.232  13.367  4.7961  0.6650 -0.2253
 5005SOL    HW226478   2.688   4.152  13.478 -1.1386  0.9279 -0.3613
 5006SOL     OW26479   4.578   0.634   6.547  0.1792  0.0746  0.0264
 5006SOL    HW126480   4.631   0.606   6.473 -0.4707  0.3710 -0.5521
 5006SOL    HW226481   4.523   0.559   6.567  1.5836 -0.4869  1.8473
 5007SOL     OW26482   2.279   2.963   0.355  0.0090 -0.3344 -0.0844
 5007SOL    HW126483   2.352   3.006   0.400 -1.5002  0.9340  1.1405
 5007SOL    HW226484   2.306   2.963   0.263 -0.0106 -0.1043 -0.0901
 5008SOL     OW26485   0.836   0.818   7.346 -0.3722 -0.2824  0.4440
 5008SOL    HW126486   0.923   0.848   7.371 -0.8663  0.4028  1.3493
 5008SOL    HW226487   0.841   0.724   7.365 -2.1652 -0.6423 -0.8224
 5009SOL     OW26488   0.529   0.850   7.980 -0.2256 -0.2916  0.3839
 5009SOL    HW126489   0.618   0.877   7.955 -0.3240  0.0853  0.4350
 5009SOL    HW226490   0.530   0.755   7.971 -0.5314 -0.3609  1.1124
 5010SOL     OW26491   0.192   3.220   2.398  0.5278 -0.1885  0.4402
 5010SOL    HW126492   0.249   3.283   2.442  0.8495  0.1232 -0.4186
 5010SOL    HW226493   0.242   3.139   2.412  1.8991  0.7653  0.9919
 5011SOL     OW26494   0.673   4.694  13.770  0.5222  0.6137  0.0440
 5011SOL    HW126495   0.760   4.669  13.737  1.1398  0.8758  1.5074
 5011SOL    HW226496   0.666   4.652  13.856 -2.8121 -0.1905 -0.6165
 5012SOL     OW26497   3.560   4.254   8.649  0.4440 -0.2594  0.2332
 5012SOL    HW126498   3.605   4.206   8.579  0.3524  0.2779 -0.1925
 5012SOL    HW226499   3.506   4.183   8.684 -1.8673  2.1807  1.6717
 5013SOL     OW26500   3.706   2.317   4.432 -0.5919  0.4055 -0.0283
 5013SOL    HW126501   3.699   2.228   4.399 -0.6647  0.8960 -1.3375
 5013SOL    HW226502   3.646   2.366   4.377 -0.1837  1.5329  0.5270
 5014SOL     OW26503   1.269   4.556   6.775  0.2201 -0.3156 -0.0119
 5014SOL    HW126504   1.313   4.483   6.730  0.4683  0.5026 -1.0999
 5014SOL    HW226505   1.337   4.573   6.840 -0.5726 -0.5363  0.8802
 5015SOL     OW26506   1.816   3.292  13.681  0.2457  0.3700  0.8282
 5015SOL    HW126507   1.888   3.232  13.659  1.0878  1.3857  0.7759
 5015SOL    HW226508   1.749   3.225  13.675  0.7602 -0.1431  0.8473
 5016SOL     OW26509   3.721   0.089  14.826  0.2011 -0.7041 -0.2494
 5016SOL    HW126510   3.681   0.007  14.796  0.2662 -0.9280  0.2773
 5016SOL    HW226511   3.691   0.087  14.916 -2.4714 -0.3575 -1.1296
 5017SOL     OW26512   4.032   0.892   8.099 -0.8239  0.0254 -0.3946
 5017SOL    HW126513   4.106   0.940   8.064  0.3639 -2.9264 -1.8788
 5017SOL    HW226514   4.056   0.800   8.086 -0.4891 -0.0149  0.5146
 5018SOL     OW26515   0.427   1.344  12.988 -0.1778  0.3349  0.5101
 5018SOL    HW126516   0.402   1.254  12.972  1.7451 -0.0089 -0.6087
 5018SOL    HW226517   0.363   1.369  13.054 -0.5493  2.0500 -0.4850
 5019SOL     OW26518   0.235   2.688   5.947  0.0956  0.5190  0.0764
 5019SOL    HW126519   0.240   2.632   6.024  0.9536  2.8408  1.7256
 5019SOL    HW226520   0.147   2.666   5.917  0.9736 -0.9149 -1.4690
 5020SOL     OW26521   4.332   2.524   2.497  0.3449  0.1363  0.1503
 5020SOL    HW126522   4.347   2.546   2.589  1.8973  2.0228 -0.5466
 5020SOL    HW226523   4.418   2.492   2.467 -0.3448 -1.4938 -0.0783
 5021SOL     OW26524   1.290   3.100   3.454  0.3481  0.0819 -0.5852
 5021SOL    HW126525   1.376   3.130   3.425  0.1456 -0.4837 -1.8056
 5021SOL    HW226526   1.315   3.021   3.502 -0.7487 -0.0577 -0.2327
 5022SOL     OW26527   4.408   2.371   5.605  0.7090 -0.8018  0.1546
 5022SOL    HW126528   4.369   2.293   5.644 -0.0904 -1.0166 -1.0571
 5022SOL    HW226529   4.419   2.334   5.517  1.5930  0.8179 -0.4199
 5023SOL     OW26530   2.705   1.837   3.125  0.0221  0.4895 -0.2454
 5023SOL    HW126531   2.658   1.808   3.203 -1.3206  0.4815 -1.0567
 5023SOL    HW226532   2.697   1.932   3.132  0.4042  0.4477  0.8163
 5024SOL     OW26533   3.948   1.102   4.682 -0.0290  0.1044  0.3981
 5024SOL    HW126534   3.935   1.121   4.589  1.0248  3.1150  0.8826
 5024SOL    HW226535   3.967   1.008   4.687  2.2067  0.3905 -3.2114
 5025SOL     OW26536   0.181   0.082   6.844 -0.1879  0.2018  0.0764
 5025SOL    HW126537   0.241   0.156   6.842  1.3115 -1.0373 -1.6588
 5025SOL    HW226538   0.098   0.121   6.817 -1.7380 -2.2292  1.2985
 5026SOL     OW26539   0.391   1.805   2.743 -0.6325 -0.1171  0.6394
 5026SOL    HW126540   0.420   1.810   2.652  0.6632 -0.4868  1.0437
 5026SOL    HW226541   0.432   1.884   2.778  0.2574 -0.1602 -0.3212
 5027SOL     OW26542   3.521   1.917  11.498 -0.2660 -0.5883  0.3391
 5027SOL    HW126543   3.573   1.839  11.480  0.1285 -0.2702  0.1270
 5027SOL    HW226544   3.471   1.878  11.570  0.3515 -0.6865  0.7126
 5028SOL     OW26545   4.305   2.370   6.643 -0.5035  0.5535  0.0231
 5028SOL    HW126546   4.211   2.364   6.629 -0.5481  5.0664 -1.5261
 5028SOL    HW226547   4.329   2.447   6.591 -2.0278  0.0389 -1.4326
 5029SOL     OW26548   2.696   2.805  11.365  0.2140 -0.0718  0.3681
 5029SOL    HW126549   2.653   2.782  11.447  0.4505  0.5846  0.6740
 5029SOL    HW226550   2.689   2.899  11.381 -1.4273  0.6355 -4.5715
 5030SOL     OW26551   0.253   0.937   9.309 -0.1069  0.1925 -0.3625
 5030SOL    HW126552   0.193   0.867   9.285  2.0780 -2.0076  0.6335
 5030SOL    HW226553   0.214   0.964   9.392 -2.0713 -0.0605 -1.2224
 5031SOL     OW26554   0.524   0.505   9.595  0.2875  0.0025 -0.2605
 5031SOL    HW126555   0.471   0.434   9.560  0.7194 -1.5568  2.2754
 5031SOL    HW226556   0.507   0.484   9.687  2.7512  1.9789  0.6554
 5032SOL     OW26557   3.362   2.928   9.763  0.5611 -0.2541 -0.9430
 5032SOL    HW126558   3.341   2.836   9.782 -1.1171  0.0403 -1.4228
 5032SOL    HW226559   3.425   2.948   9.832 -0.6227  0.7576 -0.1541
 5033SOL     OW26560   4.055   0.781   8.834 -0.2343 -0.1116 -0.4155
 5033SOL    HW126561   4.009   0.836   8.770 -1.0008  0.1243  0.3315
 5033SOL    HW226562   4.131   0.757   8.782 -0.1010 -0.7942  0.0978
 5034SOL     OW26563   2.830   2.098   2.467  0.0142 -0.5001  0.4852
 5034SOL    HW126564   2.859   2.014   2.503 -1.5063 -1.6823 -1.0793
 5034SOL    HW226565   2.909   2.146   2.494  1.0503 -1.6563 -0.5064
 5035SOL     OW26566   4.165   1.360   3.140 -0.0888  0.4269 -0.1988
 5035SOL    HW126567   4.138   1.425   3.075 -1.5932 -0.2683 -0.2739
 5035SOL    HW226568   4.081   1.321   3.162 -0.1995 -0.0586 -1.4259
 5036SOL     OW26569   0.916   1.465   2.025  0.3050 -0.6911  0.0478
 5036SOL    HW126570   1.006   1.451   1.994  1.2634 -0.1208  2.5658
 5036SOL    HW226571   0.927   1.547   2.072  0.0778 -0.6144 -0.0324
 5037SOL     OW26572   1.769   2.227   1.942  0.1030  0.0391 -0.4757
 5037SOL    HW126573   1.744   2.153   1.886  0.0015 -2.1841  2.4982
 5037SOL    HW226574   1.726   2.295   1.891  0.2709 -0.3053 -1.0807
 5038SOL     OW26575   4.081   3.804   3.628 -0.5865  0.1830  0.8847
 5038SOL    HW126576   4.133   3.744   3.681 -0.5930 -0.4455  0.1740
 5038SOL    HW226577   4.090   3.875   3.692 -2.3454 -1.1306  2.5985
 5039SOL     OW26578   2.386   4.668  17.529 -0.0930 -0.0096 -0.4487
 5039SOL    HW126579   2.294   4.692  17.540 -0.5099 -2.4309  1.1883
 5039SOL    HW226580   2.388   4.583  17.572 -1.3737 -1.0212 -2.4001
 5040SOL     OW26581   4.023   3.851   7.340  0.2100 -0.0236 -0.0319
 5040SOL    HW126582   3.999   3.896   7.421  4.1342 -0.0869  1.1734
 5040SOL    HW226583   4.117   3.869   7.331 -0.3105  1.4686 -2.4032
 5041SOL     OW26584   2.351   1.052   7.208 -0.1548  0.1327  0.5963
 5041SOL    HW126585   2.322   1.142   7.197 -0.1582 -0.0153 -0.5357
 5041SOL    HW226586   2.417   1.045   7.140  0.6442  3.2450  1.0522
 5042SOL     OW26587   4.173   1.686   5.351  0.4046  0.5601  0.4680
 5042SOL    HW126588   4.136   1.763   5.395 -1.1836  0.5498 -0.8607
 5042SOL    HW226589   4.114   1.671   5.277  1.1215  0.4021 -0.0752
 5043SOL     OW26590   1.669   2.329   1.704 -0.0764  0.5896 -0.6747
 5043SOL    HW126591   1.749   2.288   1.671 -1.2690 -1.1538 -1.3726
 5043SOL    HW226592   1.605   2.262   1.682  1.0491 -0.2674 -1.3590
 5044SOL     OW26593   0.429   2.512  16.435  0.6315  0.0188 -0.0641
 5044SOL    HW126594   0.403   2.562  16.512  1.8168  0.4219  0.0723
 5044SOL    HW226595   0.347   2.513  16.386  0.4283 -1.3719  0.2561
 5045SOL     OW26596   2.739   3.618   4.875 -0.1993 -0.0289 -0.0208
 5045SOL    HW126597   2.680   3.543   4.888 -2.1850  1.6247  0.4982
 5045SOL    HW226598   2.684   3.676   4.928 -0.5417 -2.2538  2.0672
 5046SOL     OW26599   4.517   3.370   5.722  0.1269 -0.0001  0.0437
 5046SOL    HW126600   4.426   3.399   5.729  0.1340 -0.1388  0.8093
 5046SOL    HW226601   4.560   3.454   5.738 -0.3995 -0.1642  2.3249
 5047SOL     OW26602   3.885   2.893   8.410 -0.3029  0.3612 -0.1454
 5047SOL    HW126603   3.940   2.961   8.448 -0.3299  0.1948  0.1924
 5047SOL    HW226604   3.828   2.880   8.486 -2.1821  0.2328 -1.5678
 5048SOL     OW26605   0.193   1.208   2.287  0.0545 -0.2711  0.2458
 5048SOL    HW126606   0.195   1.232   2.195 -2.4326 -2.2499 -0.2941
 5048SOL    HW226607   0.284   1.189   2.310  0.8887  1.3977 -1.7117
 5049SOL     OW26608   3.317   2.859   6.328 -0.2897  0.3865  0.9842
 5049SOL    HW126609   3.373   2.918   6.279  0.9596  0.0654  2.0133
 5049SOL    HW226610   3.318   2.893   6.418 -1.0870  0.6166  0.9013
 5050SOL     OW26611   0.854   0.110   6.608  0.6103 -0.3781 -0.0407
 5050SOL    HW126612   0.780   0.053   6.588 -0.3021  0.1979  1.7605
 5050SOL    HW226613   0.913   0.045   6.645  0.1984 -1.4247 -1.2221
 5051SOL     OW26614   2.610   3.800  15.263  0.3748 -0.2415 -0.0901
 5051SOL    HW126615   2.669   3.852  15.318 -0.7579  3.4009 -2.3043
 5051SOL    HW226616   2.601   3.717  15.310  1.7780 -0.3550 -0.0118
 5052SOL     OW26617   3.571   0.047   4.946 -0.4183 -0.2976 -0.2465
 5052SOL    HW126618   3.512   0.123   4.941 -1.2280 -0.9710 -0.9100
 5052SOL    HW226619   3.659   0.082   4.934 -0.4339 -0.0850  0.2578
 5053SOL     OW26620   2.362   4.055  11.150 -0.3070 -0.6271 -0.2618
 5053SOL    HW126621   2.409   4.006  11.218 -0.1998 -0.1617 -0.0016
 5053SOL    HW226622   2.346   4.131  11.206 -0.4419 -0.1669 -0.9305
 5054SOL     OW26623   0.000   3.601   0.608  0.5906  0.1911  0.1150
 5054SOL    HW126624   0.023   3.615   0.700 -0.7315 -0.8344  0.6022
 5054SOL    HW226625   4.648   3.547   0.620  1.1301 -0.1815  1.8583
 5055SOL     OW26626   3.358   2.784   7.085 -0.1084  0.2817  0.3139
 5055SOL    HW126627   3.269   2.767   7.055  0.4822  0.0811 -1.2957
 5055SOL    HW226628   3.356   2.879   7.095  0.0800  0.3972 -0.8246
 5056SOL     OW26629   3.577   1.836  14.438 -0.5854  0.4227  0.6433
 5056SOL    HW126630   3.556   1.842  14.344 -2.5121  2.6409  1.2189
 5056SOL    HW226631   3.550   1.746  14.456  0.4186 -0.5178 -2.6064
 5057SOL     OW26632   4.077   1.487   8.331 -0.4460  0.4758 -0.5508
 5057SOL    HW126633   4.057   1.579   8.315 -0.1980  0.3599 -1.5345
 5057SOL    HW226634   4.159   1.484   8.281  0.3096  1.6816  0.6254
 5058SOL     OW26635   0.123   0.848   3.693 -0.5761 -0.0581 -0.1592
 5058SOL    HW126636   0.101   0.927   3.743 -0.8447  1.9987 -3.4852
 5058SOL    HW226637   0.151   0.789   3.762 -0.0764 -1.1675 -1.3092
 5059SOL     OW26638   1.081   2.062   4.612 -0.5048  0.1737 -0.6112
 5059SOL    HW126639   1.140   1.987   4.618 -0.0468  0.4203 -2.0236
 5059SOL    HW226640   1.087   2.095   4.702 -1.3956  3.1728 -1.6411
 5060SOL     OW26641   2.416   4.204   8.291 -0.1245  0.1105  0.0474
 5060SOL    HW126642   2.326   4.232   8.276  0.2857  2.1872  1.5071
 5060SOL    HW226643   2.453   4.275   8.343  1.9825  0.1926 -1.5877
 5061SOL     OW26644   1.970   3.119   4.969  0.2670  0.0037 -0.7199
 5061SOL    HW126645   2.038   3.053   4.956  0.5069  0.3276 -1.1128
 5061SOL    HW226646   1.946   3.113   5.062  2.7778  1.9634  0.0736
 5062SOL     OW26647   0.007   3.186   5.801 -0.1021 -0.5225 -0.2343
 5062SOL    HW126648   4.677   3.263   5.806 -1.5516 -1.6042  0.2839
 5062SOL    HW226649   4.711   3.142   5.883  0.0149 -2.2979 -1.1516
 5063SOL     OW26650   4.146   2.499   1.738 -0.6676 -0.4251  0.2419
 5063SOL    HW126651   4.075   2.478   1.678  1.0801  0.1337 -2.0285
 5063SOL    HW226652   4.086   2.522   1.809 -0.3786  1.9393 -0.2846
 5064SOL     OW26653   2.033   3.724  15.095 -0.0826  0.5336 -0.0773
 5064SOL    HW126654   2.049   3.682  15.010  0.2406 -0.6737  0.5737
 5064SOL    HW226655   2.110   3.780  15.104 -1.1809  2.4913 -3.1437
 5065SOL     OW26656   2.261   2.482   8.630 -0.0617 -0.1120  0.3180
 5065SOL    HW126657   2.246   2.560   8.684  1.0965  1.6788 -1.9387
 5065SOL    HW226658   2.356   2.477   8.645 -0.2429 -0.4618  1.3765
 5066SOL     OW26659   2.872   0.809  10.818 -0.5718 -0.1807  0.4261
 5066SOL    HW126660   2.860   0.789  10.725 -0.4330 -2.0898  0.8024
 5066SOL    HW226661   2.855   0.723  10.858  1.3771 -0.4962  0.5732
 5067SOL     OW26662   3.585   1.402   6.750 -0.0866 -0.0832  0.5339
 5067SOL    HW126663   3.618   1.462   6.683 -2.3529  0.5556 -0.0268
 5067SOL    HW226664   3.527   1.347   6.697  0.0173 -0.0861  0.4211
 5068SOL     OW26665   2.980   2.777  17.428 -0.2478  0.0075 -0.2460
 5068SOL    HW126666   3.044   2.848  17.440 -0.2006 -0.1350  0.3410
 5068SOL    HW226667   2.919   2.771  17.502 -0.6041  1.4445 -0.4247
 5069SOL     OW26668   0.687   2.875  10.629  0.1407  0.0619  0.1382
 5069SOL    HW126669   0.774   2.838  10.614 -0.9262 -1.4637 -2.3882
 5069SOL    HW226670   0.660   2.805  10.687 -1.0730  0.5904  0.2199
 5070SOL     OW26671   1.249   0.689   0.444  0.0889 -0.1318 -0.1778
 5070SOL    HW126672   1.343   0.698   0.433  0.1003 -0.1155 -0.0598
 5070SOL    HW226673   1.241   0.623   0.375  0.9070 -1.0024  0.5705
 5071SOL     OW26674   1.219   4.015   5.192 -0.2209 -0.1576  0.4670
 5071SOL    HW126675   1.230   3.933   5.143 -1.6801 -0.2626  0.3073
 5071SOL    HW226676   1.125   4.032   5.188 -0.0558  0.0301 -2.7462
 5072SOL     OW26677   2.751   2.306   6.909  0.0148 -0.3667 -0.2898
 5072SOL    HW126678   2.746   2.284   7.002 -1.8122  0.4627 -0.1970
 5072SOL    HW226679   2.795   2.391   6.922  2.5636 -1.5540 -1.1776
 5073SOL     OW26680   3.665   0.464   2.748  0.2448  0.5795 -0.0423
 5073SOL    HW126681   3.658   0.559   2.737  1.2397  0.8320  1.4932
 5073SOL    HW226682   3.712   0.439   2.668  0.0391  1.5636 -0.4846
 5074SOL     OW26683   0.464   1.834  15.954  0.0658 -0.4569  0.5065
 5074SOL    HW126684   0.421   1.877  15.880  0.0734 -0.8462  0.2742
 5074SOL    HW226685   0.453   1.742  15.930  1.7818 -0.0749 -1.7539
 5075SOL     OW26686   2.526   3.857   2.766 -0.1261 -0.1052  0.3967
 5075SOL    HW126687   2.507   3.770   2.800 -2.1719 -0.8408 -2.6070
 5075SOL    HW226688   2.497   3.856   2.675  1.2186 -1.5331 -0.0118
 5076SOL     OW26689   1.843   0.405   1.445 -0.6591 -0.0953  1.0175
 5076SOL    HW126690   1.817   0.483   1.494  0.4059  2.7963 -3.0162
 5076SOL    HW226691   1.771   0.403   1.382 -1.6063 -2.4718  2.1664
 5077SOL     OW26692   4.336   0.081   4.230  0.0241 -0.3238  0.5204
 5077SOL    HW126693   4.324   0.145   4.160 -0.2575 -0.3888  0.5071
 5077SOL    HW226694   4.272   0.014   4.207  0.2974 -1.3586  2.7434
 5078SOL     OW26695   3.496   2.256  15.611  0.2359  0.0694 -0.5015
 5078SOL    HW126696   3.512   2.332  15.555  2.9449  1.5531  2.2688
 5078SOL    HW226697   3.503   2.301  15.695 -0.2243  0.5963 -0.7471
 5079SOL     OW26698   4.439   1.265  14.400  0.0050 -0.1544  0.2204
 5079SOL    HW126699   4.513   1.231  14.450 -0.6677 -0.1580  1.2329
 5079SOL    HW226700   4.474   1.293  14.316 -3.6628  3.2897 -0.1709
 5080SOL     OW26701   0.384   3.517  14.244 -0.6273  0.3717  0.1385
 5080SOL    HW126702   0.339   3.587  14.291 -2.1089 -0.0889 -0.6188
 5080SOL    HW226703   0.371   3.432  14.286  0.3800 -1.4469 -3.1531
 5081SOL     OW26704   1.841   3.975   8.348 -0.5067 -0.3062 -0.5381
 5081SOL    HW126705   1.826   4.034   8.274  1.4034  0.0310 -0.6661
 5081SOL    HW226706   1.850   3.890   8.304  0.1698 -1.5125  1.9548
 5082SOL     OW26707   3.357   4.505   3.916 -0.4881 -0.4591 -0.6789
 5082SOL    HW126708   3.373   4.573   3.982 -1.6938 -1.4278  0.6140
 5082SOL    HW226709   3.262   4.502   3.911 -0.3837 -0.1797 -2.9785
 5083SOL     OW26710   1.311   0.139   1.910  0.1702 -0.4268 -0.0200
 5083SOL    HW126711   1.234   0.146   1.967 -1.4055 -2.9117 -1.8887
 5083SOL    HW226712   1.363   0.073   1.956  0.0198  0.1715  0.9996
 5084SOL     OW26713   1.563   0.475   5.868  0.4622 -0.2815 -0.1167
 5084SOL    HW126714   1.613   0.398   5.839 -0.0007 -0.7558  0.3540
 5084SOL    HW226715   1.632   0.512   5.923 -1.1648  2.4306  0.0944
 5085SOL     OW26716   0.758   1.078   8.784  0.3104  0.2341  0.2265
 5085SOL    HW126717   0.690   1.055   8.847 -0.1648 -1.4415 -0.8925
 5085SOL    HW226718   0.708   1.132   8.723 -0.4127  1.4354  1.8796
 5086SOL     OW26719   2.057   1.261   5.140  0.0079 -0.0974  0.4243
 5086SOL    HW126720   2.137   1.216   5.113  1.0601  0.7862  2.0733
 5086SOL    HW226721   2.033   1.215   5.221 -1.1612  0.0219  0.1526
 5087SOL     OW26722   1.342   4.504   7.691 -0.2170 -0.0658 -0.3979
 5087SOL    HW126723   1.287   4.571   7.651  0.4323  1.5020  1.3190
 5087SOL    HW226724   1.371   4.450   7.618 -0.5333  1.5904 -1.7510
 5088SOL     OW26725   0.648   3.469   0.649  0.2231 -0.7509 -0.3552
 5088SOL    HW126726   0.673   3.509   0.566 -0.9874 -0.7261 -0.7138
 5088SOL    HW226727   0.731   3.473   0.696 -0.2254  1.1049  0.2722
 5089SOL     OW26728   4.199   4.017  16.542  0.1881 -0.1888 -0.0568
 5089SOL    HW126729   4.238   4.030  16.628  1.2438 -1.4404 -0.3538
 5089SOL    HW226730   4.262   4.059  16.483 -1.3308  1.3577 -0.5713
 5090SOL     OW26731   1.032   0.515   4.094 -0.3148  0.2946  0.3621
 5090SOL    HW126732   1.079   0.449   4.146 -0.1924  1.2675  1.4828
 5090SOL    HW226733   1.082   0.590   4.125  0.2060 -0.1269  0.5469
 5091SOL     OW26734   2.940   2.654   6.392 -0.1805  0.6479 -0.5564
 5091SOL    HW126735   2.937   2.750   6.386  1.7496  0.5926 -2.2956
 5091SOL    HW226736   3.020   2.626   6.436 -0.8482  1.2424  1.0495
 5092SOL     OW26737   4.133   2.748  17.690 -0.0334  0.2900 -0.4183
 5092SOL    HW126738   4.146   2.654  17.681  1.1746  0.2864  1.3428
 5092SOL    HW226739   4.075   2.753   0.064  0.7556  2.2682  0.0694
 5093SOL     OW26740   0.188   3.832   3.259 -0.1438 -0.3640  0.1989
 5093SOL    HW126741   0.266   3.879   3.229  0.0732 -0.7031  0.2345
 5093SOL    HW226742   0.140   3.905   3.298 -0.2416  0.6408 -1.7773
 5094SOL     OW26743   2.500   2.742   8.787 -0.1873 -0.1163 -0.2453
 5094SOL    HW126744   2.540   2.656   8.772  0.0834 -0.4633  2.6232
 5094SOL    HW226745   2.531   2.761   8.875 -0.5254 -0.8626  0.0354
 5095SOL     OW26746   2.173   1.712  11.859 -0.1505  0.6694  0.5811
 5095SOL    HW126747   2.207   1.715  11.949  2.1472 -2.4884 -0.1747
 5095SOL    HW226748   2.119   1.791  11.864 -0.6287  0.3745  0.0499
 5096SOL     OW26749   4.673   1.927  12.368  0.5662  0.1319 -0.1584
 5096SOL    HW126750   4.715   1.999  12.415 -1.4706  0.3058  1.3708
 5096SOL    HW226751   4.579   1.944  12.375  0.6399  1.6312 -3.0354
 5097SOL     OW26752   3.134   2.908  16.878  0.7930  0.3469 -0.2680
 5097SOL    HW126753   3.225   2.937  16.875  0.3855  1.7494  0.8893
 5097SOL    HW226754   3.093   2.988  16.847  2.0159  1.6751  1.5152
 5098SOL     OW26755   3.222   3.019   7.148 -0.2710 -0.2339 -0.0272
 5098SOL    HW126756   3.153   3.015   7.214 -1.4013  4.0910 -0.9114
 5098SOL    HW226757   3.169   3.037   7.070  1.4730 -0.6567 -1.3127
 5099SOL     OW26758   1.812   3.473  12.782  0.0176  0.4795 -0.5670
 5099SOL    HW126759   1.733   3.527  12.778  0.1389  0.6753 -0.3255
 5099SOL    HW226760   1.823   3.450  12.690 -0.1775 -1.3489 -0.1376
 5100SOL     OW26761   3.243   3.701   9.603 -0.0041  0.0086 -0.8426
 5100SOL    HW126762   3.182   3.634   9.573 -1.0663  0.4660  0.3197
 5100SOL    HW226763   3.329   3.664   9.582  0.2582 -0.6295  1.3843
 5101SOL     OW26764   4.497   3.469   0.330  0.0324  0.2374 -0.0968
 5101SOL    HW126765   4.530   3.471   0.419  1.9204 -0.9552 -0.7676
 5101SOL    HW226766   4.428   3.535   0.326  0.0395  0.1669 -1.4885
 5102SOL     OW26767   0.728   2.803   8.593  0.1984  0.0783 -0.3439
 5102SOL    HW126768   0.797   2.840   8.538  0.6980  0.6772  0.6809
 5102SOL    HW226769   0.733   2.858   8.671 -0.3477 -0.4343  0.0512
 5103SOL     OW26770   3.476   3.553   9.646 -0.2451  0.5245 -0.0508
 5103SOL    HW126771   3.544   3.488   9.632  0.9954  1.6525  0.7800
 5103SOL    HW226772   3.437   3.515   9.725  0.8780 -0.7197 -0.1042
 5104SOL     OW26773   1.377   2.570   4.556 -0.4650  0.1995  0.0355
 5104SOL    HW126774   1.346   2.660   4.546 -0.6509  0.2404  1.0180
 5104SOL    HW226775   1.331   2.525   4.485 -1.5864  0.3802  0.6501
 5105SOL     OW26776   0.400   0.189  14.224  0.4010  0.1560 -0.1570
 5105SOL    HW126777   0.489   0.156  14.215  0.2629  0.0872 -1.3283
 5105SOL    HW226778   0.393   0.242  14.304  0.9386  0.9576 -0.6452
 5106SOL     OW26779   4.408   2.339   8.201 -0.5613 -0.0134 -0.4264
 5106SOL    HW126780   4.459   2.328   8.121 -2.6127 -0.5249 -1.6680
 5106SOL    HW226781   4.340   2.397   8.166 -0.0320  0.5629 -0.4962
 5107SOL     OW26782   3.654   1.176   7.043  0.2209 -0.7539  0.3524
 5107SOL    HW126783   3.658   1.253   6.986  0.2875 -1.4648 -0.6061
 5107SOL    HW226784   3.635   1.222   7.124  3.0568  1.1529 -0.0401
 5108SOL     OW26785   1.158   3.374  13.408 -0.6255 -0.4636  0.0336
 5108SOL    HW126786   1.205   3.361  13.490 -2.1031  1.3242  1.1737
 5108SOL    HW226787   1.144   3.287  13.371  0.1464 -0.0998 -1.1002
 5109SOL     OW26788   4.498   4.294   7.299 -0.1667 -0.4363  0.1108
 5109SOL    HW126789   4.530   4.204   7.309 -0.4064 -0.7186 -1.7370
 5109SOL    HW226790   4.571   4.325   7.246  0.3982 -1.3163  0.3574
 5110SOL     OW26791   2.104   1.511   8.304  0.4395  0.5257  0.4932
 5110SOL    HW126792   2.106   1.502   8.400  2.8829  1.2407  0.4972
 5110SOL    HW226793   2.129   1.423   8.276  1.3258  1.1374 -0.6138
 5111SOL     OW26794   3.273   2.193   1.938 -0.1108  0.2157 -0.0213
 5111SOL    HW126795   3.293   2.136   2.013  0.2667 -0.5775 -0.7231
 5111SOL    HW226796   3.333   2.158   1.873 -2.6803 -0.3405 -2.0826
 5112SOL     OW26797   0.001   0.101  10.321  0.3325 -0.3957 -0.1578
 5112SOL    HW126798   4.642   0.118  10.278  0.4817  2.9538  0.8452
 5112SOL    HW226799   0.014   0.191  10.352 -1.2957 -0.1763 -0.1282
 5113SOL     OW26800   3.031   2.978   5.854  0.0576 -0.0792  0.6800
 5113SOL    HW126801   3.109   2.923   5.857  0.6296  0.5961 -2.2575
 5113SOL    HW226802   3.020   2.996   5.947 -0.2498  2.6275  0.1275
 5114SOL     OW26803   1.388   0.578  16.846  0.1401 -0.2709 -0.1579
 5114SOL    HW126804   1.448   0.503  16.855  1.8296  1.0200 -0.6953
 5114SOL    HW226805   1.328   0.548  16.778 -0.2885 -0.6386  0.3765
 5115SOL     OW26806   3.709   3.933  11.356  0.1554  0.2234 -0.0484
 5115SOL    HW126807   3.662   3.850  11.349 -0.7446  0.5941  1.7584
 5115SOL    HW226808   3.773   3.922  11.426  2.1123  0.0277 -1.8667
 5116SOL     OW26809   1.571   3.486   3.252 -0.0488 -0.2739  0.7961
 5116SOL    HW126810   1.641   3.427   3.278  2.7246  2.4896 -0.4745
 5116SOL    HW226811   1.630   3.560   3.242 -1.0706  0.9006  3.3763
 5117SOL     OW26812   1.426   0.660  12.644 -0.2744  0.3847 -0.0081
 5117SOL    HW126813   1.458   0.573  12.621 -0.7120 -0.0526  1.0267
 5117SOL    HW226814   1.383   0.640  12.727 -0.6344  1.7747  0.1421
 5118SOL     OW26815   0.884   3.122  11.952  0.3182  0.4575  0.3319
 5118SOL    HW126816   0.964   3.143  11.904 -1.3115  1.5107 -1.9569
 5118SOL    HW226817   0.842   3.069  11.884 -0.2512 -1.3824  2.1094
 5119SOL     OW26818   4.159   2.842   4.948  0.2412 -0.6780 -0.2768
 5119SOL    HW126819   4.203   2.796   5.020 -0.4550  0.8662  1.1415
 5119SOL    HW226820   4.232   2.840   4.887 -1.1041 -0.0105 -1.9244
 5120SOL     OW26821   3.862   1.787   5.055 -0.1381 -0.0582 -0.4148
 5120SOL    HW126822   3.954   1.797   5.030  0.5877 -1.6809  1.5706
 5120SOL    HW226823   3.834   1.834   4.977 -1.2845  3.7956  2.3627
 5121SOL     OW26824   2.890   3.836   9.744  0.6714  0.4612 -0.0997
 5121SOL    HW126825   2.872   3.773   9.674  0.1154  0.6305 -0.1087
 5121SOL    HW226826   2.821   3.830   9.810 -0.7878 -0.1100 -1.6703
 5122SOL     OW26827   1.467   0.808   5.320  0.1881 -0.0503 -0.2363
 5122SOL    HW126828   1.533   0.767   5.264 -0.5781 -1.1441 -0.3494
 5122SOL    HW226829   1.521   0.795   5.398  0.1621 -0.0417 -0.2169
 5123SOL     OW26830   3.639   3.161  14.409 -0.2923  1.0625  0.2093
 5123SOL    HW126831   3.667   3.101  14.341  0.2896  0.5984  0.8658
 5123SOL    HW226832   3.572   3.210  14.360 -0.3067  1.0738  0.2405
 5124SOL     OW26833   1.414   3.201   4.628  0.5401  0.0979 -0.1982
 5124SOL    HW126834   1.387   3.275   4.683  0.4815 -0.0389 -0.0418
 5124SOL    HW226835   1.493   3.170   4.673  0.0892  0.5723  0.9282
 5125SOL     OW26836   1.152   0.334   7.660  0.1813 -0.9973  0.2996
 5125SOL    HW126837   1.063   0.350   7.689  0.0041  0.8874 -1.2945
 5125SOL    HW226838   1.185   0.280   7.732  0.4180 -0.8890  0.2715
 5126SOL     OW26839   3.786   4.258   5.810  0.0505 -0.1927 -0.3489
 5126SOL    HW126840   3.696   4.238   5.782  0.4331 -3.0184  0.3805
 5126SOL    HW226841   3.796   4.332   5.751 -0.4346 -0.5127 -0.8294
 5127SOL     OW26842   2.888   3.508   3.158 -0.2581 -0.0919  0.4796
 5127SOL    HW126843   2.940   3.454   3.098  0.6255 -1.2583  2.2699
 5127SOL    HW226844   2.959   3.557   3.198  1.8962 -2.8236  0.0054
 5128SOL     OW26845   0.158   2.774   3.875 -0.2835  0.2413  0.0464
 5128SOL    HW126846   0.253   2.786   3.863 -0.5131  0.3120 -1.6480
 5128SOL    HW226847   0.166   2.770   3.971 -0.8597 -0.3054  0.0743
 5129SOL     OW26848   1.212   3.558   5.700 -0.0856 -0.5938 -0.2868
 5129SOL    HW126849   1.129   3.524   5.668 -0.4088  0.0978 -0.1754
 5129SOL    HW226850   1.247   3.584   5.615  0.2450  0.1226  0.0757
 5130SOL     OW26851   3.227   1.293   2.168  0.4581 -0.2666 -0.1100
 5130SOL    HW126852   3.268   1.214   2.132  0.1426  0.3656 -1.8448
 5130SOL    HW226853   3.181   1.255   2.243 -1.7936  2.2652 -0.2137
 5131SOL     OW26854   4.435   0.411   4.796  0.0162  0.3123  0.4765
 5131SOL    HW126855   4.412   0.360   4.718  1.2978  1.3779 -0.6149
 5131SOL    HW226856   4.368   0.479   4.802 -0.6307 -0.4240  1.5832
 5132SOL     OW26857   2.769   3.324   7.912 -0.5140  0.6423 -0.1762
 5132SOL    HW126858   2.843   3.328   7.973 -1.5662  0.3264  1.1292
 5132SOL    HW226859   2.791   3.396   7.853  1.1544  0.5788  0.3701
 5133SOL     OW26860   2.323   0.447   2.263 -0.9954 -0.0447 -0.1516
 5133SOL    HW126861   2.303   0.444   2.170 -0.4789 -1.2698 -0.2206
 5133SOL    HW226862   2.419   0.443   2.267 -0.9215  2.1702  0.3448
 5134SOL     OW26863   2.023   3.721   1.293  0.6620  0.3461  0.0534
 5134SOL    HW126864   2.090   3.653   1.286  0.3818  0.0833 -0.0740
 5134SOL    HW226865   2.083   3.793   1.274 -0.0280  0.7748 -0.4836
 5135SOL     OW26866   2.881   0.494   0.166  0.0986 -0.0922  0.4571
 5135SOL    HW126867   2.976   0.488   0.164  0.0985  0.8814 -2.0994
 5135SOL    HW226868   2.860   0.573   0.117 -0.9919  0.1618  1.3370
 5136SOL     OW26869   1.198   3.566   4.645 -0.3612 -0.3895  0.0615
 5136SOL    HW126870   1.269   3.624   4.673 -0.6783 -1.4273  3.0327
 5136SOL    HW226871   1.229   3.562   4.554 -0.0385  0.4259  0.1363
 5137SOL     OW26872   0.399   3.972   5.617 -0.5064 -0.6855  0.1967
 5137SOL    HW126873   0.381   4.013   5.532 -0.3489  1.1916  1.0608
 5137SOL    HW226874   0.488   4.007   5.627  0.8840 -4.7048  1.7077
 5138SOL     OW26875   1.247   3.613   0.529  0.4611 -0.1048 -0.3279
 5138SOL    HW126876   1.239   3.698   0.484  0.3034  1.8889  3.4432
 5138SOL    HW226877   1.315   3.574   0.475 -0.7595  0.9299 -2.6447
 5139SOL     OW26878   0.831   2.584   7.196 -0.0869  0.3480  0.7442
 5139SOL    HW126879   0.801   2.597   7.286  1.2107  1.7919  0.9897
 5139SOL    HW226880   0.902   2.524   7.220  0.8361  1.5938  1.1560
 5140SOL     OW26881   0.973   2.605   5.723 -0.2234  0.4206  0.3453
 5140SOL    HW126882   0.891   2.593   5.675  0.3661 -1.3586 -0.2197
 5140SOL    HW226883   1.020   2.526   5.694 -1.7245  1.0014 -3.5432
 5141SOL     OW26884   3.487   2.861   1.236 -0.1763  0.4293 -0.3747
 5141SOL    HW126885   3.544   2.869   1.160  0.7753  1.0823  0.4075
 5141SOL    HW226886   3.420   2.806   1.196 -0.5443  0.8117 -0.2803
 5142SOL     OW26887   0.271   0.615  14.590  0.2565  0.5863 -0.2687
 5142SOL    HW126888   0.346   0.590  14.644  1.8833 -2.1359 -3.7678
 5142SOL    HW226889   0.199   0.612  14.653  0.7737  2.8667  0.4078
 5143SOL     OW26890   0.558   4.389   4.779 -0.3895 -0.1893 -0.6318
 5143SOL    HW126891   0.615   4.425   4.710  3.3826 -0.2392  2.4693
 5143SOL    HW226892   0.578   4.296   4.767  0.4842  0.2429 -2.6681
 5144SOL     OW26893   4.067   0.903   2.983 -0.4025 -0.1173  0.1085
 5144SOL    HW126894   4.128   0.920   3.055 -1.5666  2.2810  0.5359
 5144SOL    HW226895   3.991   0.955   3.008  1.1889  1.8795  0.7406
 5145SOL     OW26896   1.705   4.072   3.376 -0.3638 -0.4635  0.4556
 5145SOL    HW126897   1.695   4.043   3.466 -0.1655  0.7066  0.8571
 5145SOL    HW226898   1.671   3.995   3.330  1.1519 -0.2112 -1.0965
 5146SOL     OW26899   2.030   3.600   0.423 -0.1125  0.5813  0.0429
 5146SOL    HW126900   2.118   3.569   0.443  1.0943  3.0876 -1.3088
 5146SOL    HW226901   1.986   3.566   0.501  0.0338 -2.3919 -1.1428
 5147SOL     OW26902   3.798   3.701   2.455 -0.8848 -0.3231 -0.2588
 5147SOL    HW126903   3.710   3.718   2.489 -0.1556  1.2090  0.8428
 5147SOL    HW226904   3.823   3.789   2.429 -0.5604 -0.3630 -0.0839
 5148SOL     OW26905   2.515   1.099   9.297 -0.4288 -0.2013  0.5127
 5148SOL    HW126906   2.573   1.072   9.225  1.7470  0.6557  1.9348
 5148SOL    HW226907   2.567   1.087   9.376 -1.0371 -0.9234  0.7937
 5149SOL     OW26908   0.321   1.628  11.427 -0.1358 -0.1743  0.3079
 5149SOL    HW126909   0.266   1.625  11.349 -0.6275  0.8517  0.6215
 5149SOL    HW226910   0.270   1.686  11.483 -1.1971 -0.4164 -0.4119
 5150SOL     OW26911   1.994   1.060   3.824  0.3367  0.1596  0.5941
 5150SOL    HW126912   1.961   1.139   3.781 -0.2045 -0.1699  0.3982
 5150SOL    HW226913   1.985   1.081   3.917  0.5114 -1.3837  0.9600
 5151SOL     OW26914   3.204   3.359  15.919  0.1170  0.0925 -0.4004
 5151SOL    HW126915   3.226   3.304  15.995 -1.2859 -1.9643 -1.4974
 5151SOL    HW226916   3.285   3.375  15.872  0.6640  0.1040  0.5401
 5152SOL     OW26917   0.705   1.950   9.785 -0.1995  0.7263 -0.2012
 5152SOL    HW126918   0.635   1.889   9.760 -1.3977  2.1334 -0.2478
 5152SOL    HW226919   0.774   1.931   9.720 -0.1002  0.5372 -0.0410
 5153SOL     OW26920   1.077   2.031  15.046 -0.4132 -0.1843  0.3144
 5153SOL    HW126921   1.159   2.066  15.079 -0.1240 -1.0572  0.5177
 5153SOL    HW226922   1.103   2.012  14.956 -0.1107  2.1145 -0.0818
 5154SOL     OW26923   4.532   2.614   7.593 -0.0537  0.1784 -0.5067
 5154SOL    HW126924   4.599   2.607   7.526  3.0657 -0.4871  2.6969
 5154SOL    HW226925   4.513   2.707   7.584  2.8165  0.8162  0.0466
 5155SOL     OW26926   4.540   0.725   3.907 -0.2149 -0.1073  0.1312
 5155SOL    HW126927   4.572   0.774   3.982  2.9608 -1.3885 -0.4061
 5155SOL    HW226928   4.450   0.702   3.932  0.5120 -1.9450  1.0178
 5156SOL     OW26929   3.659   1.525   4.024 -0.2487  0.0194  0.0989
 5156SOL    HW126930   3.628   1.567   3.943 -0.4766  0.3298  0.3471
 5156SOL    HW226931   3.636   1.595   4.085 -0.4627 -0.0253  0.0728
 5157SOL     OW26932   0.697   0.908   5.994  0.2823  0.0933 -0.1921
 5157SOL    HW126933   0.693   0.934   5.903  1.0343 -1.4368 -0.6695
 5157SOL    HW226934   0.774   0.951   6.032  1.4120  0.9831 -3.4767
 5158SOL     OW26935   2.149   0.696   0.947  0.5536  0.0429  0.3681
 5158SOL    HW126936   2.165   0.786   0.919 -0.7112 -0.2216 -1.1998
 5158SOL    HW226937   2.200   0.701   1.028  2.2806 -0.9620 -0.6771
 5159SOL     OW26938   2.041   4.327   4.039  0.0687  0.5486 -0.1948
 5159SOL    HW126939   2.024   4.407   3.989 -3.7112 -0.1670 -0.0233
 5159SOL    HW226940   2.003   4.347   4.125 -0.2008  0.7403 -0.3571
 5160SOL     OW26941   1.548   4.388  17.476 -0.4476  0.3492 -0.3682
 5160SOL    HW126942   1.501   4.453  17.424  0.0929  2.2843  1.5572
 5160SOL    HW226943   1.631   4.391  17.427  0.4352 -1.6516  0.9916
 5161SOL     OW26944   2.327   3.113   2.908 -0.4819  0.3202  0.0136
 5161SOL    HW126945   2.360   3.105   2.818 -0.9189  0.9745 -0.2043
 5161SOL    HW226946   2.318   3.025   2.944 -0.9016  0.9686  1.5040
 5162SOL     OW26947   2.416   3.103   9.793  0.3909 -0.0239 -0.1698
 5162SOL    HW126948   2.335   3.148   9.768 -0.3314 -0.3130  1.6516
 5162SOL    HW226949   2.382   3.061   9.872  0.4693  1.9042  0.9037
 5163SOL     OW26950   2.379   2.690   6.268  0.0364 -0.3236  0.7293
 5163SOL    HW126951   2.407   2.694   6.360 -1.1258  1.0678  1.0320
 5163SOL    HW226952   2.394   2.596   6.262  0.5466 -0.0824 -1.6156
 5164SOL     OW26953   3.129   2.507   7.351 -0.3085  0.0911 -0.4663
 5164SOL    HW126954   3.206   2.545   7.393 -1.2828  0.9898  0.4907
 5164SOL    HW226955   3.174   2.429   7.319  0.0823  1.5526 -3.4955
 5165SOL     OW26956   0.531   1.355   4.650 -0.2798  0.2860 -0.5356
 5165SOL    HW126957   0.538   1.260   4.641 -0.0061  0.2415  0.1625
 5165SOL    HW226958   0.597   1.371   4.582  0.9172 -2.3215 -0.0050
 5166SOL     OW26959   1.929   3.236  13.972 -0.1297 -0.2967 -0.4960
 5166SOL    HW126960   1.955   3.147  13.995  0.4498 -1.3574 -5.2491
 5166SOL    HW226961   1.962   3.244  13.882 -0.3496 -1.1233 -0.6539
 5167SOL     OW26962   3.231   3.939  10.570  0.5336  0.2907  0.3148
 5167SOL    HW126963   3.174   3.953  10.646 -1.8385  0.1867 -1.4322
 5167SOL    HW226964   3.297   3.875  10.596  0.7851 -0.0161 -1.0882
 5168SOL     OW26965   3.124   3.025   9.700 -0.3843  0.3399  0.5266
 5168SOL    HW126966   3.128   3.120   9.692 -0.5212  0.3155  0.1804
 5168SOL    HW226967   3.215   3.001   9.719 -0.9092 -1.3310  1.0033
 5169SOL     OW26968   3.327   3.984  10.301  0.0504  0.5760 -0.0059
 5169SOL    HW126969   3.332   3.973  10.396  1.1629  0.6668 -0.0467
 5169SOL    HW226970   3.279   3.906  10.274 -0.1375  0.6715  0.0563
 5170SOL     OW26971   0.840   3.108   5.105  0.0802 -0.5041 -0.4186
 5170SOL    HW126972   0.794   3.098   5.022  0.9588  0.7144 -1.0370
 5170SOL    HW226973   0.932   3.112   5.082  0.0587  1.0308 -0.2638
 5171SOL     OW26974   2.605   1.124   1.826  0.2201 -0.4419 -0.1622
 5171SOL    HW126975   2.695   1.092   1.839  0.2908  0.3023  1.1845
 5171SOL    HW226976   2.623   1.160   1.739  1.8090 -2.2055 -0.5632
 5172SOL     OW26977   3.923   2.338   0.119  0.2924 -0.5762  0.3662
 5172SOL    HW126978   3.902   2.258   0.070 -2.5812 -0.3300  1.2071
 5172SOL    HW226979   3.861   2.406   0.093  1.2203 -0.1671 -0.7653
 5173SOL     OW26980   3.978   3.980   6.741 -0.7181 -0.2250  0.2556
 5173SOL    HW126981   3.899   3.926   6.738 -0.7252 -0.2353  0.6635
 5173SOL    HW226982   4.035   3.932   6.802 -0.1418 -0.3248 -0.3632
 5174SOL     OW26983   3.737   0.563  13.655  0.2084 -0.1033  0.3038
 5174SOL    HW126984   3.767   0.481  13.692  0.3628  0.2343  0.9297
 5174SOL    HW226985   3.643   0.549  13.663 -0.5735  3.7585 -1.9427
 5175SOL     OW26986   0.230   0.695   4.205  0.1166 -0.7928  0.3969
 5175SOL    HW126987   0.205   0.783   4.234  2.8475 -0.7123  2.5636
 5175SOL    HW226988   0.195   0.636   4.273 -0.6460  0.3897  1.0287
 5176SOL     OW26989   4.612   2.247   7.976 -0.3942 -0.0244  0.1570
 5176SOL    HW126990   4.676   2.178   7.993  0.0345  0.1118 -0.9010
 5176SOL    HW226991   4.678   2.317   7.979 -0.3900  0.0141 -0.7938
 5177SOL     OW26992   2.474   3.434   8.049 -0.1207 -0.4644  0.7265
 5177SOL    HW126993   2.495   3.484   8.128 -0.4299 -1.7211  1.5960
 5177SOL    HW226994   2.452   3.500   7.982  0.0161 -0.2645  0.8793
 5178SOL     OW26995   0.651   0.619   3.995 -0.0845 -0.6513  0.2463
 5178SOL    HW126996   0.591   0.547   4.011 -0.1937 -0.3941  1.0112
 5178SOL    HW226997   0.720   0.581   4.048  1.3235 -0.2775 -1.3234
 5179SOL     OW26998   3.380   2.692  13.583 -0.2540  0.5498  0.6820
 5179SOL    HW126999   3.382   2.695  13.487 -1.2338  0.2084  0.6533
 5179SOL    HW227000   3.329   2.769  13.608  0.0682  1.2575 -0.8215
 5180SOL     OW27001   2.429   1.072   4.069 -0.1202 -0.2733  0.2440
 5180SOL    HW127002   2.352   1.022   4.042  0.8005 -1.7806  0.4394
 5180SOL    HW227003   2.454   1.114   3.986 -1.5789  1.0223  0.4593
 5181SOL     OW27004   2.368   3.487   5.746 -0.5383  0.0494 -0.0228
 5181SOL    HW127005   2.363   3.516   5.655 -1.8866 -1.6905 -0.5011
 5181SOL    HW227006   2.302   3.420   5.759  2.3737 -2.9644 -0.5658
 5182SOL     OW27007   1.788   4.400   7.384 -0.1622  0.2095  0.0858
 5182SOL    HW127008   1.747   4.314   7.375  0.6407 -0.1293 -0.4324
 5182SOL    HW227009   1.844   4.401   7.306 -1.9039 -2.7673 -1.1759
 5183SOL     OW27010   1.248   2.767   0.938  0.4199 -0.2560 -0.0215
 5183SOL    HW127011   1.215   2.690   0.892  2.2897  0.1810 -2.1124
 5183SOL    HW227012   1.342   2.766   0.919 -0.1339 -1.3121 -2.5682
 5184SOL     OW27013   0.269   2.522   7.489  0.2203 -0.5097  0.1429
 5184SOL    HW127014   0.333   2.586   7.520  0.4238  0.1843 -1.6829
 5184SOL    HW227015   0.208   2.578   7.441  2.1330 -0.5460 -2.3660
 5185SOL     OW27016   0.047   0.004   1.357  0.1788 -0.0618 -0.3892
 5185SOL    HW127017   0.115   4.676   1.400 -0.1526 -0.0102  0.1968
 5185SOL    HW227018   0.071   4.708   1.266  1.0998  1.7077 -0.5667
 5186SOL     OW27019   2.163   3.723   5.811  0.1532  0.1955 -0.2823
 5186SOL    HW127020   2.227   3.793   5.827  0.9203 -0.7787  0.8884
 5186SOL    HW227021   2.175   3.707   5.717  0.6102 -1.0934 -0.0008
 5187SOL     OW27022   2.237   1.744   6.287 -0.0541 -0.5404 -0.0087
 5187SOL    HW127023   2.204   1.769   6.374  2.2695 -0.0611  0.7265
 5187SOL    HW227024   2.158   1.698   6.258 -0.5260 -0.7482  1.5882
 5188SOL     OW27025   0.014   0.130  16.546 -0.0118  0.0808  0.3336
 5188SOL    HW127026   0.032   0.207  16.491  1.5224 -1.0711 -0.7629
 5188SOL    HW227027   4.659   0.171  16.579  1.0150  1.4272  1.1364
 5189SOL     OW27028   2.435   0.545   8.543 -0.5050  0.0345  1.3816
 5189SOL    HW127029   2.387   0.610   8.594 -2.0072  0.2960 -0.3722
 5189SOL    HW227030   2.513   0.590   8.509 -1.4561 -0.5573 -1.6023
 5190SOL     OW27031   0.664   4.655  10.002  0.1914 -0.1340  0.4301
 5190SOL    HW127032   0.682   0.023   9.987  0.8076 -0.0797  1.5168
 5190SOL    HW227033   0.680   4.640  10.095 -0.9764 -2.1298  0.3135
 5191SOL     OW27034   3.847   1.523   5.491  0.0389  0.1669  0.2707
 5191SOL    HW127035   3.856   1.602   5.439  0.6812  0.7374  1.2459
 5191SOL    HW227036   3.896   1.456   5.444 -1.1421 -0.3557 -0.2101
 5192SOL     OW27037   1.105   2.237  14.617  0.2224  0.1284 -0.0085
 5192SOL    HW127038   1.134   2.302  14.553 -1.5973  0.4505 -0.5074
 5192SOL    HW227039   1.022   2.277  14.643 -0.3071 -0.7130 -0.4147
 5193SOL     OW27040   0.512   4.412   2.165  0.1549 -0.1853 -0.3011
 5193SOL    HW127041   0.505   4.461   2.247 -4.6359 -1.8687  0.2584
 5193SOL    HW227042   0.499   4.480   2.099 -0.8436  1.5090  1.6343
 5194SOL     OW27043   4.428   4.102   8.136  0.2973  0.1033 -0.6686
 5194SOL    HW127044   4.373   4.125   8.212  1.1528  0.3822 -0.1314
 5194SOL    HW227045   4.425   4.010   8.162 -1.0263 -0.0823 -1.4543
 5195SOL     OW27046   3.037   4.385   2.321  0.1638  1.0839  0.0741
 5195SOL    HW127047   2.963   4.337   2.356 -0.5812  2.3186  0.1930
 5195SOL    HW227048   3.012   4.415   2.233  0.4960 -0.4666 -0.5457
 5196SOL     OW27049   3.993   2.145   3.703  0.2060  0.3145 -0.9319
 5196SOL    HW127050   4.036   2.061   3.683 -2.7279 -0.8652 -2.3327
 5196SOL    HW227051   4.074   2.193   3.720 -0.3608  1.3406 -1.1627
 5197SOL     OW27052   3.985   0.535  15.934 -0.1066  0.5394 -0.0267
 5197SOL    HW127053   4.024   0.484  15.863 -0.9723 -0.1474 -0.0084
 5197SOL    HW227054   3.933   0.467  15.977  2.0754 -0.8357  0.4639
 5198SOL     OW27055   2.433   1.354   6.955  0.9577  0.2969 -0.4426
 5198SOL    HW127056   2.375   1.354   7.031  0.9289  0.2902 -0.4645
 5198SOL    HW227057   2.475   1.439   6.971  2.4194 -0.3762 -0.6825
 5199SOL     OW27058   2.190   0.308   4.030 -0.1542 -0.2994 -0.0030
 5199SOL    HW127059   2.132   0.242   4.070  0.1804 -0.9910 -0.6600
 5199SOL    HW227060   2.204   0.264   3.946 -0.5960  0.4775 -0.4784
 5200SOL     OW27061   0.400   4.267   4.485 -0.2415  0.1111 -0.0582
 5200SOL    HW127062   0.456   4.278   4.561 -0.0120 -0.0361 -0.2076
 5200SOL    HW227063   0.442   4.332   4.428 -0.9136  0.0439 -0.6253
 5201SOL     OW27064   3.610   4.132   2.099 -0.1903  0.3784 -0.0418
 5201SOL    HW127065   3.678   4.065   2.100 -0.7681 -0.1704  2.8617
 5201SOL    HW227066   3.577   4.131   2.009  2.1673  1.4262 -0.9199
 5202SOL     OW27067   4.150   1.594   9.157 -0.0666  0.0198 -0.0353
 5202SOL    HW127068   4.228   1.649   9.162 -0.0034 -0.1261  0.5213
 5202SOL    HW227069   4.082   1.659   9.174  0.3739  0.5291 -0.1989
 5203SOL     OW27070   2.073   4.529  12.782  0.6392 -0.7327  0.1096
 5203SOL    HW127071   2.001   4.476  12.750 -0.9772 -0.1853  2.8625
 5203SOL    HW227072   2.069   4.513  12.876  0.2353  3.8052  0.8717
 5204SOL     OW27073   1.122   0.607   6.603 -0.2546  0.3606  0.0874
 5204SOL    HW127074   1.056   0.542   6.580 -0.8969  1.0048  0.1128
 5204SOL    HW227075   1.070   0.673   6.648 -1.0639 -2.0399  2.6410
 5205SOL     OW27076   0.862   3.155   6.320 -0.4334  0.2216  0.2597
 5205SOL    HW127077   0.911   3.120   6.245 -0.0802  0.3081  0.4503
 5205SOL    HW227078   0.876   3.087   6.386 -2.7431 -0.8215 -0.3154
 5206SOL     OW27079   2.965   2.739   8.039 -0.3168  0.1134  0.4417
 5206SOL    HW127080   2.887   2.743   7.984  0.0953  1.0661 -0.0772
 5206SOL    HW227081   2.923   2.728   8.124 -1.6250  0.3499 -0.1750
 5207SOL     OW27082   1.765   1.264  10.380  0.5743  0.6296 -0.3718
 5207SOL    HW127083   1.738   1.177  10.350  1.6809  0.3156 -0.4458
 5207SOL    HW227084   1.859   1.245  10.381  0.4531  0.0317 -0.3480
 5208SOL     OW27085   0.004   1.297  17.385 -0.0578 -0.8677  0.0718
 5208SOL    HW127086   4.670   1.239  17.337  0.4152 -1.3239  0.0467
 5208SOL    HW227087   4.657   1.352  17.415  0.7309  0.0068  0.3550
 5209SOL     OW27088   2.947   2.238   7.620 -0.0982  0.2875 -0.1693
 5209SOL    HW127089   2.861   2.276   7.602 -0.6621 -0.4033  1.0791
 5209SOL    HW227090   2.917   2.158   7.663 -0.2630 -0.6428 -1.9942
 5210SOL     OW27091   4.550   4.072   5.097  0.4572 -0.3782 -0.5303
 5210SOL    HW127092   4.507   3.990   5.123  1.9433 -0.5568  1.4268
 5210SOL    HW227093   4.546   4.053   5.004 -2.4219 -0.3202 -0.4148
 5211SOL     OW27094   0.719   0.375   1.580  0.2162  0.3849 -0.1084
 5211SOL    HW127095   0.739   0.366   1.487  0.3237 -0.7026  0.0162
 5211SOL    HW227096   0.662   0.450   1.596  1.8254  1.9555 -1.7435
 5212SOL     OW27097   2.350   1.014   4.542  0.2397 -0.2776 -0.4056
 5212SOL    HW127098   2.333   0.956   4.616  0.4124 -0.8962 -0.8530
 5212SOL    HW227099   2.430   0.986   4.496 -0.1366 -1.1352 -0.5305
 5213SOL     OW27100   3.534   3.300  12.566  0.5777 -0.0402  0.4845
 5213SOL    HW127101   3.492   3.359  12.629  0.9577 -0.1568  0.8449
 5213SOL    HW227102   3.613   3.268  12.609  1.2701 -0.5383 -1.1668
 5214SOL     OW27103   1.447   0.259   0.145  0.3240  0.0615 -0.1945
 5214SOL    HW127104   1.470   0.183   0.199  1.2529  1.3238  1.1724
 5214SOL    HW227105   1.356   0.273   0.173 -0.0438 -2.6315  0.0124
 5215SOL     OW27106   1.477   1.614   0.935 -0.3923 -0.7249  0.4425
 5215SOL    HW127107   1.442   1.669   1.005  0.0746  0.1031  0.0262
 5215SOL    HW227108   1.508   1.535   0.980  0.3422 -1.1209 -0.7460
 5216SOL     OW27109   3.230   0.057   2.550  0.0675  0.6022 -0.0150
 5216SOL    HW127110   3.272   0.036   2.466 -0.6467 -0.9694  0.0179
 5216SOL    HW227111   3.261   0.147   2.547  1.1854  0.2059 -0.4850
 5217SOL     OW27112   1.838   3.083  12.031  0.1563 -0.8981  0.4838
 5217SOL    HW127113   1.792   3.087  11.948  1.2918 -0.8271 -0.1457
 5217SOL    HW227114   1.805   3.163  12.071  1.6483 -0.8526  1.6557
 5218SOL     OW27115   0.602   3.835   6.965  0.2845  0.9935 -0.2193
 5218SOL    HW127116   0.546   3.789   6.903 -0.3670 -1.5393  2.2956
 5218SOL    HW227117   0.668   3.858   6.900  0.3816 -0.9313 -0.8023
 5219SOL     OW27118   1.228   0.725   4.218 -0.0681  0.2806  0.3403
 5219SOL    HW127119   1.234   0.818   4.196 -1.1497  0.0655 -0.8537
 5219SOL    HW227120   1.273   0.728   4.303 -1.3777 -0.2405  1.0602
 5220SOL     OW27121   3.505   2.030   6.818 -0.7255  0.2168  0.6929
 5220SOL    HW127122   3.495   1.955   6.759 -1.9567  0.5226  0.5006
 5220SOL    HW227123   3.595   2.010   6.845  0.0401  0.2507 -1.8710
 5221SOL     OW27124   3.150   0.540   3.156  0.1090 -0.4497  0.2058
 5221SOL    HW127125   3.141   0.519   3.249  2.1165 -3.8757 -0.3707
 5221SOL    HW227126   3.244   0.529   3.141 -0.5248 -2.0220 -2.5265
 5222SOL     OW27127   0.138   2.144   9.763 -0.0907  0.4539 -0.3767
 5222SOL    HW127128   0.141   2.076   9.830 -0.8217  0.3259 -0.4739
 5222SOL    HW227129   0.123   2.090   9.685  0.7208 -0.3722  0.0385
 5223SOL     OW27130   1.939   0.364  15.620  0.0207 -0.2013  0.0879
 5223SOL    HW127131   1.994   0.388  15.545  1.4981  0.3027  1.3255
 5223SOL    HW227132   1.858   0.326  15.586 -0.2759  1.6985 -1.3858
 5224SOL     OW27133   3.222   0.124   6.534  0.2475 -0.0597 -0.1593
 5224SOL    HW127134   3.279   0.127   6.457  1.4478  0.0173  0.7293
 5224SOL    HW227135   3.266   0.156   6.613 -0.5839 -0.9618  0.6606
 5225SOL     OW27136   4.462   3.520   6.931 -0.1755  0.4041  0.0024
 5225SOL    HW127137   4.441   3.550   6.842 -0.6571 -2.1190 -0.7562
 5225SOL    HW227138   4.548   3.483   6.909 -0.8486 -0.2889 -1.4692
 5226SOL     OW27139   1.334   2.859   3.838 -0.4015  0.0833  0.0012
 5226SOL    HW127140   1.418   2.901   3.859 -0.6457  0.5430  0.0467
 5226SOL    HW227141   1.333   2.867   3.743 -0.6102  0.2592  0.0177
 5227SOL     OW27142   2.077   4.642   5.789 -0.4426 -0.3405  0.0623
 5227SOL    HW127143   2.027   4.672   5.866  1.7928 -1.3197  1.9032
 5227SOL    HW227144   2.050   4.551   5.780  0.9234 -0.6666 -0.5712
 5228SOL     OW27145   0.509   1.966   6.022  0.1996 -0.2074 -0.0425
 5228SOL    HW127146   0.459   1.943   5.944 -1.1007  1.3629  0.3309
 5228SOL    HW227147   0.533   1.885   6.066  0.6256 -1.3958 -2.4158
 5229SOL     OW27148   3.002   1.104   8.775 -0.4355 -0.3113 -0.0147
 5229SOL    HW127149   3.046   1.116   8.690  1.0162 -0.4876  0.7208
 5229SOL    HW227150   2.930   1.045   8.754 -0.2990 -0.1201 -1.0642
 5230SOL     OW27151   0.938   4.500   3.343 -0.4421  0.0920 -0.2403
 5230SOL    HW127152   1.022   4.507   3.297 -0.2256 -1.5677 -0.0999
 5230SOL    HW227153   0.928   4.406   3.354 -2.6801  0.2258 -1.1312
 5231SOL     OW27154   0.028   4.242   6.950 -0.3322  0.2703  0.1890
 5231SOL    HW127155   0.043   4.150   6.972 -2.2037 -0.5513 -1.9544
 5231SOL    HW227156   0.099   4.262   6.889  2.0762  0.9463  3.2073
 5232SOL     OW27157   0.371   0.986  10.389  0.7742 -0.3449  0.4144
 5232SOL    HW127158   0.406   1.069  10.357  2.0821 -1.2739 -0.5489
 5232SOL    HW227159   0.300   0.966  10.328  0.0744  1.4607  0.6605
 5233SOL     OW27160   2.335   4.405   4.959 -0.1097 -0.4910 -0.3111
 5233SOL    HW127161   2.308   4.426   5.049 -0.6711 -1.7097 -0.1847
 5233SOL    HW227162   2.388   4.326   4.972 -0.2310 -0.3716  0.9393
 5234SOL     OW27163   0.541   3.624  10.714 -0.0304 -0.6034 -0.7247
 5234SOL    HW127164   0.596   3.554  10.748  0.3195  0.4912  0.9361
 5234SOL    HW227165   0.477   3.636  10.784  2.4077  2.0592  1.0681
 5235SOL     OW27166   0.464   0.633   3.429 -0.7215  0.6061  1.3036
 5235SOL    HW127167   0.396   0.567   3.418 -1.0748  1.2877 -0.5809
 5235SOL    HW227168   0.477   0.637   3.524 -1.9025  2.2300  1.3894
 5236SOL     OW27169   4.101   0.764   0.679  0.4083  0.6469 -0.1446
 5236SOL    HW127170   4.093   0.835   0.616 -1.4273  0.9862  0.4757
 5236SOL    HW227171   4.035   0.699   0.657 -0.4733  0.9916  1.5034
 5237SOL     OW27172   3.611   4.679  15.422  0.1778  0.0387  0.0458
 5237SOL    HW127173   3.543   4.617  15.394  0.7243  0.3268 -1.9155
 5237SOL    HW227174   3.581   0.041  15.396  1.3573  0.0458 -1.2861
 5238SOL     OW27175   1.389   2.395   1.246  0.2889 -0.5326  0.3056
 5238SOL    HW127176   1.374   2.432   1.160  3.7949 -0.1677 -0.1659
 5238SOL    HW227177   1.320   2.329   1.239  0.8314 -1.2804  1.8400
 5239SOL     OW27178   0.033   1.454   4.054  0.1262 -0.1592 -0.3410
 5239SOL    HW127179   4.696   1.521   4.026  1.0129  0.2573 -1.3196
 5239SOL    HW227180   0.114   1.503   4.038  0.4502 -0.3424  0.7316
 5240SOL     OW27181   3.217   0.021  13.960  0.1577 -0.0042  0.5948
 5240SOL    HW127182   3.266   0.056  13.885  2.2538 -0.0619  1.9534
 5240SOL    HW227183   3.128   0.029  13.926  1.3586  0.2047 -2.5142
 5241SOL     OW27184   3.330   1.948  10.489  0.2252 -0.4063 -0.0049
 5241SOL    HW127185   3.300   2.031  10.526  0.2166  0.7986 -2.6897
 5241SOL    HW227186   3.372   1.917  10.570 -1.0463  0.2381  0.8893
 5242SOL     OW27187   1.577   2.977   3.852 -0.5594 -0.3889 -0.2636
 5242SOL    HW127188   1.672   2.986   3.839 -0.5330  0.4834  0.5880
 5242SOL    HW227189   1.561   3.068   3.829  0.2649 -0.6750 -1.9831
 5243SOL     OW27190   4.430   3.814  12.441  0.1038  0.0639  0.0907
 5243SOL    HW127191   4.467   3.823  12.529  1.2257  0.5478 -0.4311
 5243SOL    HW227192   4.343   3.779  12.462  0.1792  1.0263  2.0180
 5244SOL     OW27193   1.588   3.601   9.456 -0.1657 -0.3940 -0.7651
 5244SOL    HW127194   1.631   3.676   9.415 -2.5573  0.5113 -1.6513
 5244SOL    HW227195   1.549   3.641   9.533 -0.9805 -2.9246  0.1526
 5245SOL     OW27196   3.114   3.591   1.605  0.0956 -0.3697  0.1697
 5245SOL    HW127197   3.042   3.612   1.546  0.7851  1.4321 -0.0070
 5245SOL    HW227198   3.065   3.567   1.684  0.0982 -3.0163 -0.6217
 5246SOL     OW27199   3.135   0.237   5.427 -0.0633 -0.3627  0.6616
 5246SOL    HW127200   3.150   0.142   5.426  3.4154  0.1923  2.3546
 5246SOL    HW227201   3.123   0.249   5.333  2.3951 -1.1555  0.2524
 5247SOL     OW27202   4.253   0.826   8.546  0.1409  0.2767  0.7138
 5247SOL    HW127203   4.258   0.730   8.552 -2.1267  0.0455 -1.2337
 5247SOL    HW227204   4.263   0.839   8.452 -1.8255  0.8351  0.5882
 5248SOL     OW27205   3.334   1.246  11.322 -0.1041 -0.3898 -0.1131
 5248SOL    HW127206   3.271   1.225  11.252 -0.7712  0.6919  0.1723
 5248SOL    HW227207   3.327   1.168  11.378  0.8764 -0.1113  0.3849
 5249SOL     OW27208   3.868   3.183  11.933  0.0372 -0.1038  0.0553
 5249SOL    HW127209   3.846   3.198  12.025 -0.2864  1.1757 -0.2421
 5249SOL    HW227210   3.898   3.092  11.923 -1.0708 -0.4352 -0.3224
 5250SOL     OW27211   2.317   0.538   0.426  0.1935  0.2387 -0.1516
 5250SOL    HW127212   2.356   0.519   0.511 -0.7883 -0.8798  0.0517
 5250SOL    HW227213   2.252   0.604   0.449 -0.6938 -0.0241 -1.8724
 5251SOL     OW27214   0.460   1.611   7.901 -0.2566  0.4745  0.2781
 5251SOL    HW127215   0.377   1.593   7.857 -0.4901  1.4986  0.2950
 5251SOL    HW227216   0.500   1.660   7.829 -1.1136  1.7705  0.6840
 5252SOL     OW27217   3.964   1.234   1.994 -0.2797  0.1991  0.1991
 5252SOL    HW127218   3.897   1.287   1.952 -0.2522  0.4867  0.5188
 5252SOL    HW227219   4.029   1.305   1.985 -0.1625  0.2390  1.4753
 5253SOL     OW27220   3.752   2.057   4.346 -0.1479  0.3680  0.5201
 5253SOL    HW127221   3.794   2.039   4.262  1.3683  1.8790  0.9612
 5253SOL    HW227222   3.723   1.968   4.369  1.2682 -0.5245 -1.1449
 5254SOL     OW27223   2.186   1.297   2.782  0.4817 -0.1390 -0.4112
 5254SOL    HW127224   2.202   1.208   2.751  1.7472 -0.8045  2.1754
 5254SOL    HW227225   2.137   1.331   2.707  0.3097  1.6229  0.5041
 5255SOL     OW27226   2.056   3.594  12.907 -0.2476  0.0865  0.1999
 5255SOL    HW127227   1.981   3.582  12.849 -1.3188 -2.1973  2.0834
 5255SOL    HW227228   2.015   3.638  12.982 -0.4919  1.1574 -0.5563
 5256SOL     OW27229   1.388   2.983   7.536  0.2612  0.2693 -0.0624
 5256SOL    HW127230   1.440   3.054   7.574  0.0547  0.1086  0.5290
 5256SOL    HW227231   1.314   2.971   7.597  0.1156  0.1877 -0.2575
 5257SOL     OW27232   0.247   0.379   9.572  0.0678  0.2728 -0.0645
 5257SOL    HW127233   0.184   0.325   9.620  0.3242 -0.5777 -0.6868
 5257SOL    HW227234   0.272   0.318   9.502  1.4812 -0.0039  0.6852
 5258SOL     OW27235   3.789   0.712  15.885 -0.1788  0.6120 -0.3275
 5258SOL    HW127236   3.801   0.730  15.792  2.2432 -0.8590 -0.3182
 5258SOL    HW227237   3.855   0.645  15.903  0.3089  1.4865  1.0932
 5259SOL     OW27238   4.028   2.314   8.258  0.2501  0.2351  0.1804
 5259SOL    HW127239   4.053   2.223   8.276 -2.2584 -0.5401 -0.2419
 5259SOL    HW227240   3.959   2.322   8.324 -0.1121 -0.0151 -0.1702
 5260SOL     OW27241   1.573   0.645   2.836  0.4811  0.5391  0.1279
 5260SOL    HW127242   1.611   0.724   2.797 -1.7857  1.1409 -0.8576
 5260SOL    HW227243   1.617   0.570   2.796  0.7648 -0.2986  2.0116
 5261SOL     OW27244   1.742   2.125   8.271  0.2304 -0.1763  0.0506
 5261SOL    HW127245   1.748   2.155   8.180  0.5380 -1.4267 -0.3411
 5261SOL    HW227246   1.743   2.030   8.264 -0.8832 -0.1464 -0.5414
 5262SOL     OW27247   2.625   3.449  10.663  0.5641 -0.1626 -0.3283
 5262SOL    HW127248   2.682   3.396  10.718  1.0706  1.1029  0.3805
 5262SOL    HW227249   2.655   3.537  10.688 -1.8628  0.6844 -0.4324
 5263SOL     OW27250   1.945   4.274  15.129 -0.3952 -0.0906  0.3670
 5263SOL    HW127251   2.022   4.328  15.109  0.3197 -0.9793  0.7478
 5263SOL    HW227252   1.977   4.184  15.131  1.5622  0.6012  0.7258
 5264SOL     OW27253   3.136   2.017   8.104  0.5353  0.2161 -0.1583
 5264SOL    HW127254   3.150   1.932   8.146 -1.2503 -0.0767 -0.1536
 5264SOL    HW227255   3.206   2.026   8.040  0.8610 -1.1855  0.0170
 5265SOL     OW27256   0.791   3.953   3.989  0.7692  0.3283  0.7161
 5265SOL    HW127257   0.851   3.883   4.017  0.6459 -0.3162 -0.6316
 5265SOL    HW227258   0.819   3.973   3.900  1.2579 -0.1699  0.7585
 5266SOL     OW27259   1.476   0.674  12.094  0.1706 -0.0080  0.2300
 5266SOL    HW127260   1.422   0.687  12.016 -0.7971 -1.7664  0.6092
 5266SOL    HW227261   1.563   0.693  12.059  1.3534  1.2284  3.7719
 5267SOL     OW27262   2.361   2.074   6.865  0.3184 -0.5786 -0.0771
 5267SOL    HW127263   2.394   2.015   6.932 -0.4588 -0.7105  0.1847
 5267SOL    HW227264   2.433   2.062   6.802  1.5529  1.9070  0.8667
 5268SOL     OW27265   4.051   3.098  12.363  0.1844 -0.1441 -0.1752
 5268SOL    HW127266   4.061   3.006  12.390 -0.7213 -0.2938 -0.3343
 5268SOL    HW227267   4.099   3.141  12.433  1.6332  0.6739 -1.6680
 5269SOL     OW27268   4.564   2.572   6.714  0.3515 -0.5913 -0.2858
 5269SOL    HW127269   4.555   2.560   6.620  1.0048  0.1860 -0.4490
 5269SOL    HW227270   4.585   2.483   6.742  1.3538 -1.0809 -2.5988
 5270SOL     OW27271   0.966   0.386   6.555  0.0425  0.5187 -0.6504
 5270SOL    HW127272   1.028   0.343   6.614 -3.3781 -4.0993 -0.4202
 5270SOL    HW227273   0.912   0.307   6.546 -2.3931  2.0401  0.5920
 5271SOL     OW27274   2.251   1.951   8.977  0.0226  0.1084  0.4640
 5271SOL    HW127275   2.274   1.873   8.927 -1.3069 -1.0763  1.7060
 5271SOL    HW227276   2.155   1.946   8.982  0.1829  0.4492  4.3783
 5272SOL     OW27277   0.855   4.569   7.270  0.1668  0.5283  0.2270
 5272SOL    HW127278   0.949   4.587   7.271  0.4280 -0.8194 -1.6476
 5272SOL    HW227279   0.817   4.650   7.307 -0.1280  0.7092 -0.4699
 5273SOL     OW27280   2.678   0.376  16.422 -0.0155  0.5658  0.3299
 5273SOL    HW127281   2.627   0.455  16.401 -0.3424  0.8851  2.3316
 5273SOL    HW227282   2.614   0.311  16.392  1.8458 -0.6893 -0.9475
 5274SOL     OW27283   2.514   4.625  15.817 -0.4220 -0.0589  0.3716
 5274SOL    HW127284   2.539   4.685  15.746  0.6359 -0.5046  0.3646
 5274SOL    HW227285   2.419   4.621  15.818 -0.3925 -0.7219  0.0326
 5275SOL     OW27286   0.732   3.998   8.116 -1.0253  0.5322  0.0904
 5275SOL    HW127287   0.672   3.963   8.049  1.0155 -3.4765  0.3477
 5275SOL    HW227288   0.783   3.920   8.136  0.5221  1.4941 -0.1760
 5276SOL     OW27289   2.814   2.569   7.503 -0.1677  0.8098  0.2038
 5276SOL    HW127290   2.871   2.616   7.441  0.1662  0.0354 -0.0709
 5276SOL    HW227291   2.736   2.624   7.504 -1.3147 -0.8345 -0.2319
 5277SOL     OW27292   1.314   2.526   3.841  0.3344 -0.1114 -0.4928
 5277SOL    HW127293   1.310   2.476   3.760  0.0030  0.2176 -0.6742
 5277SOL    HW227294   1.248   2.592   3.825  0.5320  0.5094  1.1843
 5278SOL     OW27295   0.648   0.612  14.440  0.1042 -0.6821  0.2436
 5278SOL    HW127296   0.621   0.703  14.429  0.1777 -0.5624  1.1090
 5278SOL    HW227297   0.571   0.570  14.402 -2.1921  1.5872  2.3754
 5279SOL     OW27298   2.886   0.316  13.340  0.1165 -0.1325 -0.3577
 5279SOL    HW127299   2.838   0.233  13.349  0.1361 -0.3928 -2.5787
 5279SOL    HW227300   2.816   0.380  13.329  0.7840  0.7545  0.6223
 5280SOL     OW27301   2.748   3.279   9.182  0.0273  0.2886 -0.2252
 5280SOL    HW127302   2.824   3.224   9.168 -1.0287 -1.3270  0.4803
 5280SOL    HW227303   2.721   3.258   9.271  0.0050 -0.2148 -0.3545
 5281SOL     OW27304   1.852   0.601  10.617 -0.3868 -0.7912 -0.6469
 5281SOL    HW127305   1.835   0.507  10.621  0.8183 -0.9011  2.0118
 5281SOL    HW227306   1.919   0.611  10.549 -0.0837  2.2552  0.0824
 5282SOL     OW27307   2.559   0.755   4.603  0.4039 -0.6752  0.1553
 5282SOL    HW127308   2.626   0.710   4.654  0.5099  0.6191  1.1494
 5282SOL    HW227309   2.608   0.837   4.592  1.3302 -1.0752  1.3380
 5283SOL     OW27310   3.676   2.888   3.101 -0.0794  0.2457  0.5672
 5283SOL    HW127311   3.667   2.870   3.008 -1.7241  2.7094  0.2568
 5283SOL    HW227312   3.621   2.821   3.141 -0.8019  0.4588 -0.0800
 5284SOL     OW27313   0.323   4.007   2.846  0.3252  0.0864 -0.2039
 5284SOL    HW127314   0.304   3.913   2.843 -0.3012  0.1684  0.9479
 5284SOL    HW227315   0.301   4.030   2.937 -1.3222  2.4399 -1.2113
 5285SOL     OW27316   3.267   0.373  14.036  0.2731  0.2782 -0.3900
 5285SOL    HW127317   3.290   0.280  14.036  2.9897  0.9355  1.2002
 5285SOL    HW227318   3.318   0.402  13.961  1.9674  1.6696  1.3057
 5286SOL     OW27319   1.870   4.077   3.057 -0.1376 -0.3532 -0.0661
 5286SOL    HW127320   1.870   4.172   3.051 -0.2388 -0.3522 -0.0518
 5286SOL    HW227321   1.958   4.066   3.092  0.3594  1.6990 -0.6654
 5287SOL     OW27322   0.156   2.608  16.024 -0.1340 -0.1730 -0.2566
 5287SOL    HW127323   0.213   2.612  15.948 -0.8527  1.7179 -0.6982
 5287SOL    HW227324   0.078   2.646  15.983 -0.2481  2.2583  2.2099
 5288SOL     OW27325   1.102   1.375   8.896  0.1390  0.0623 -0.1344
 5288SOL    HW127326   1.008   1.392   8.889 -0.1548 -1.4097  0.3903
 5288SOL    HW227327   1.089   1.323   8.974  0.0639 -0.4027 -0.4580
 5289SOL     OW27328   1.534   4.243   0.047  0.0265  0.3012 -0.1322
 5289SOL    HW127329   1.621   4.262   0.014  0.0496 -1.6474 -1.1873
 5289SOL    HW227330   1.566   4.184   0.115  0.1640  0.1554 -0.3242
 5290SOL     OW27331   0.892   0.034  10.519  0.5203  0.1728 -0.1480
 5290SOL    HW127332   0.921   4.668  10.509  1.9975  0.5269  0.8773
 5290SOL    HW227333   0.799   0.031  10.498  0.7302 -1.3310 -0.8690
 5291SOL     OW27334   4.377   0.808   4.696 -0.0164 -0.3813  0.0523
 5291SOL    HW127335   4.393   0.891   4.740  2.8435 -0.5051 -0.7761
 5291SOL    HW227336   4.397   0.748   4.768 -2.5700  1.5987  2.4408
 5292SOL     OW27337   1.968   2.446  10.227 -0.3785 -0.1666  0.1649
 5292SOL    HW127338   1.893   2.498  10.254 -0.2496 -0.7210  1.6012
 5292SOL    HW227339   1.960   2.418  10.136  2.6680  2.4529 -0.9096
 5293SOL     OW27340   4.501   2.220   3.383  0.4263 -0.0938 -0.2670
 5293SOL    HW127341   4.532   2.296   3.333  1.8609 -0.7006 -0.3212
 5293SOL    HW227342   4.406   2.229   3.383  0.5933  1.7894 -1.7957
 5294SOL     OW27343   2.418   2.753   2.246 -0.4345 -0.6255  0.2035
 5294SOL    HW127344   2.369   2.713   2.175 -1.2992  1.8998 -0.6390
 5294SOL    HW227345   2.499   2.776   2.202 -1.3896 -0.5520 -1.5163
 5295SOL     OW27346   0.649   1.699   0.899  0.1018 -0.1184  0.3937
 5295SOL    HW127347   0.606   1.726   0.818 -0.2357  1.1282  0.9954
 5295SOL    HW227348   0.632   1.781   0.946  0.9365 -0.2496  0.9315
 5296SOL     OW27349   2.768   0.938   6.318  0.0141 -0.0864  0.7191
 5296SOL    HW127350   2.725   0.909   6.237 -3.3900  2.3584  1.6407
 5296SOL    HW227351   2.855   0.959   6.283  0.0866 -0.2258  0.8127
 5297SOL     OW27352   0.271   4.591  15.423  0.2527  0.0836 -0.3828
 5297SOL    HW127353   0.195   4.638  15.458  1.5085  1.8656 -0.0488
 5297SOL    HW227354   0.299   4.660  15.363  1.3104 -1.3236 -1.4944
 5298SOL     OW27355   0.574   4.436  11.208  0.6639 -0.7595 -0.0708
 5298SOL    HW127356   0.577   4.521  11.251  0.9580 -1.9633  2.2933
 5298SOL    HW227357   0.487   4.442  11.169  0.7106 -0.5490 -0.1408
 5299SOL     OW27358   2.834   1.522   1.321 -0.3114 -0.1425 -0.0720
 5299SOL    HW127359   2.855   1.607   1.282  1.3698 -0.3520  0.3527
 5299SOL    HW227360   2.781   1.484   1.251 -0.4620 -1.7120  0.9040
 5300SOL     OW27361   3.256   1.887   4.588 -0.4788  0.3874  0.2044
 5300SOL    HW127362   3.346   1.920   4.579  0.2092 -0.7235  2.9537
 5300SOL    HW227363   3.264   1.818   4.654  1.1263 -0.0254 -0.4200
 5301SOL     OW27364   0.661   2.367   9.740 -0.1621 -0.3626 -0.2906
 5301SOL    HW127365   0.631   2.404   9.823  0.6651  1.2956 -0.7233
 5301SOL    HW227366   0.589   2.400   9.685 -1.9341 -2.6984  0.6160
 5302SOL     OW27367   2.359   1.526  16.973  0.1395 -0.1475  0.1961
 5302SOL    HW127368   2.293   1.556  17.036  2.0948  1.5659  1.4338
 5302SOL    HW227369   2.400   1.453  17.019 -1.8923 -1.2541  0.2238
 5303SOL     OW27370   0.640   0.896  10.185 -0.3871  0.3993  0.2321
 5303SOL    HW127371   0.706   0.943  10.237  0.7892 -1.0271 -0.0083
 5303SOL    HW227372   0.585   0.849  10.248  1.2308 -0.9073  0.6613
 5304SOL     OW27373   4.643   4.575   3.856  0.3122  0.1763 -0.0219
 5304SOL    HW127374   4.586   4.648   3.880  2.1371  1.2465  1.1255
 5304SOL    HW227375   0.003   4.606   3.887  0.4200 -0.3212  0.1792
 5305SOL     OW27376   1.485   1.158   1.507 -0.1314  0.1754 -0.1675
 5305SOL    HW127377   1.494   1.152   1.412 -0.3830 -0.5109 -0.1445
 5305SOL    HW227378   1.436   1.241   1.508  0.2090  0.3709  0.3343
 5306SOL     OW27379   0.448   1.051   5.498 -0.0606 -0.2229  0.3639
 5306SOL    HW127380   0.479   1.017   5.582 -0.4904 -1.9824 -0.1966
 5306SOL    HW227381   0.527   1.042   5.445 -0.1446 -1.1965  0.4133
 5307SOL     OW27382   1.597   2.685   3.776 -0.0454 -0.3721 -0.1050
 5307SOL    HW127383   1.538   2.650   3.842 -0.5413 -0.0034 -0.3508
 5307SOL    HW227384   1.614   2.770   3.816  1.0906 -0.1292 -1.0930
 5308SOL     OW27385   0.465   4.714   9.034  0.2958 -0.0126  0.4166
 5308SOL    HW127386   0.534   4.653   9.059  0.9004  0.0173 -1.1953
 5308SOL    HW227387   0.427   4.657   8.967  1.6687  0.1164 -0.4600
 5309SOL     OW27388   2.663   1.114   0.564  0.1298 -0.8109  0.0771
 5309SOL    HW127389   2.572   1.118   0.593  0.4366  1.4757  0.7220
 5309SOL    HW227390   2.677   1.201   0.527  1.8133 -1.7201 -1.3990
 5310SOL     OW27391   0.754   1.772   9.046  0.2619 -0.0547 -0.2850
 5310SOL    HW127392   0.723   1.859   9.070 -0.7431 -0.2779 -0.7381
 5310SOL    HW227393   0.818   1.759   9.115 -2.2614 -1.4676  1.8102
 5311SOL     OW27394   1.143   3.016   1.786 -0.1867  0.0236  0.2124
 5311SOL    HW127395   1.170   3.081   1.720  1.2155 -0.8993 -0.1207
 5311SOL    HW227396   1.065   3.061   1.820  0.2987  1.3645 -0.4232
 5312SOL     OW27397   2.706   0.292  14.999  0.3196  0.5559  0.1784
 5312SOL    HW127398   2.685   0.357  14.931 -2.5135 -1.4288 -0.8402
 5312SOL    HW227399   2.668   0.329  15.078  0.7748  0.5085  0.4183
 5313SOL     OW27400   0.899   1.891  12.200 -0.0336 -0.1189 -0.1935
 5313SOL    HW127401   0.993   1.902  12.187 -0.0654  0.2776 -0.0924
 5313SOL    HW227402   0.877   1.981  12.224 -0.4903 -0.2652 -0.0572
 5314SOL     OW27403   1.402   0.959   1.727 -0.1609  0.0711 -0.2872
 5314SOL    HW127404   1.402   1.035   1.669  0.2396 -0.1609 -0.5941
 5314SOL    HW227405   1.337   0.975   1.796 -0.0383  1.8151 -0.5953
 5315SOL     OW27406   1.128   3.211  12.966  0.0929  0.4460  0.4402
 5315SOL    HW127407   1.102   3.263  12.891  0.5429  0.6272  0.4094
 5315SOL    HW227408   1.052   3.212  13.024 -0.4187  0.0924 -0.2275
 5316SOL     OW27409   4.488   2.335   2.112 -0.2583  0.3733  0.2798
 5316SOL    HW127410   4.395   2.347   2.129 -0.1404  0.4667  0.8563
 5316SOL    HW227411   4.501   2.240   2.101  0.3085  0.3857  0.8621
 5317SOL     OW27412   2.732   2.162   6.525  0.3802 -0.4907  0.5591
 5317SOL    HW127413   2.663   2.193   6.466  0.3210  0.7555  1.2926
 5317SOL    HW227414   2.795   2.234   6.532  0.5186 -0.5750  0.2007
 5318SOL     OW27415   1.437   2.048   0.791  0.3321  0.5225 -0.0713
 5318SOL    HW127416   1.401   2.002   0.866  1.7352  2.2344  1.6639
 5318SOL    HW227417   1.362   2.061   0.733  0.9318  1.6198 -0.5988
 5319SOL     OW27418   0.761   4.695   5.123  0.1734 -0.6047 -0.2525
 5319SOL    HW127419   0.793   4.696   5.032 -1.7954 -1.9955 -0.9737
 5319SOL    HW227420   0.824   4.636   5.164 -0.7425 -2.7836 -1.9610
 5320SOL     OW27421   2.871   2.663   8.345  0.6808  0.5120 -0.4449
 5320SOL    HW127422   2.785   2.702   8.328  1.3090  1.7203 -0.8780
 5320SOL    HW227423   2.860   2.569   8.328  0.1129  0.5230 -0.1426
 5321SOL     OW27424   2.176   2.990   7.061 -0.5560 -0.3399  0.5539
 5321SOL    HW127425   2.192   2.958   6.972  0.3663  0.0642  0.5767
 5321SOL    HW227426   2.265   3.015   7.087  0.2797 -2.6996  0.0410
 5322SOL     OW27427   0.161   1.765   8.942 -0.0627 -0.0292 -0.0492
 5322SOL    HW127428   0.161   1.794   9.033  1.2407 -0.3793  0.0608
 5322SOL    HW227429   0.212   1.828   8.890 -0.5867  0.3093 -0.1592
 5323SOL     OW27430   2.128   0.611  15.133  0.0399 -0.1876 -0.6901
 5323SOL    HW127431   2.102   0.701  15.150  1.4299 -0.4880  2.9461
 5323SOL    HW227432   2.137   0.617  15.038 -1.9998 -0.2454 -0.9051
 5324SOL     OW27433   3.011   3.798   5.713 -0.8532 -0.2622  0.2639
 5324SOL    HW127434   3.071   3.727   5.688 -2.4760 -1.9198  1.0342
 5324SOL    HW227435   2.929   3.758   5.684 -1.1493  0.6040 -0.0814
 5325SOL     OW27436   2.934   0.186  15.088  0.4246 -0.3270  0.5487
 5325SOL    HW127437   2.873   0.225  15.025 -2.1465 -1.2233  2.4828
 5325SOL    HW227438   2.870   0.124  15.123 -2.7287  2.1869 -0.8107
 5326SOL     OW27439   4.138   2.978  11.791  0.0421  0.7364  0.8845
 5326SOL    HW127440   4.167   3.069  11.799 -2.2082  1.4878  0.5041
 5326SOL    HW227441   4.084   2.974  11.870  0.7809 -0.8709  1.3208
 5327SOL     OW27442   0.492   2.499  11.398  0.2599 -0.5150 -0.2467
 5327SOL    HW127443   0.568   2.546  11.362 -1.0143  3.0168  1.6487
 5327SOL    HW227444   0.454   2.547  11.471  2.2909  0.9024 -0.1207
 5328SOL     OW27445   0.627   1.274   8.608 -0.2345 -0.0224  0.3747
 5328SOL    HW127446   0.576   1.286   8.688 -1.9981  0.5214 -0.8263
 5328SOL    HW227447   0.680   1.353   8.615 -0.9964  0.4957  0.2672
 5329SOL     OW27448   0.015   3.910  12.115  0.2474 -0.1017  0.0651
 5329SOL    HW127449   0.023   4.005  12.102  0.4328 -0.2856 -1.1927
 5329SOL    HW227450   4.655   3.902  12.157  0.8618  0.2816  1.3676
 5330SOL     OW27451   1.504   2.315   6.153 -0.3152 -0.8096 -0.0042
 5330SOL    HW127452   1.429   2.274   6.196 -0.3870 -1.4668 -0.7416
 5330SOL    HW227453   1.558   2.330   6.230  0.4513 -0.9071 -0.5209
 5331SOL     OW27454   2.868   1.661  12.493 -0.0079  0.9805 -0.1369
 5331SOL    HW127455   2.955   1.651  12.453  0.1121 -1.8709  0.8661
 5331SOL    HW227456   2.843   1.571  12.513 -0.9269  0.7086 -2.5501
 5332SOL     OW27457   2.887   2.627   2.362 -0.5844 -0.4221 -0.1548
 5332SOL    HW127458   2.876   2.571   2.439  0.9976 -1.4123 -0.6557
 5332SOL    HW227459   2.920   2.562   2.300 -1.1103  0.4789 -1.3755
 5333SOL     OW27460   3.596   1.737  12.170 -0.6788  0.1664 -0.1583
 5333SOL    HW127461   3.663   1.769  12.230  0.2647 -1.1442 -0.5273
 5333SOL    HW227462   3.645   1.673  12.119 -0.6363 -0.2873  0.4495
 5334SOL     OW27463   0.410   2.954   7.036  0.0815 -0.6207  0.2977
 5334SOL    HW127464   0.336   2.893   7.029  0.6195 -1.3236  0.8108
 5334SOL    HW227465   0.363   3.034   7.062 -0.8934 -1.2106  0.3460
 5335SOL     OW27466   2.168   0.654   7.627  0.0415 -0.2877  0.2746
 5335SOL    HW127467   2.185   0.560   7.620 -0.6309 -0.3291 -0.8390
 5335SOL    HW227468   2.129   0.665   7.714 -1.0933 -1.0451 -0.1359
 5336SOL     OW27469   0.730   0.412   1.297  0.1551  0.1125  0.3693
 5336SOL    HW127470   0.742   0.489   1.240 -2.0267 -1.6093 -2.4144
 5336SOL    HW227471   0.648   0.375   1.265  0.7420  0.6391 -1.7853
 5337SOL     OW27472   2.278   2.436   9.675  0.1488  0.2019  0.5050
 5337SOL    HW127473   2.187   2.436   9.644  0.5067 -0.8968 -0.5474
 5337SOL    HW227474   2.315   2.371   9.616 -1.4433  2.1600 -2.6084
 5338SOL     OW27475   2.865   0.183   5.446 -0.1632 -0.2680  0.0598
 5338SOL    HW127476   2.955   0.206   5.469 -0.2509 -1.9162  2.0014
 5338SOL    HW227477   2.879   0.131   5.367  3.3525  2.2041 -0.9662
 5339SOL     OW27478   3.016   2.785   4.376  0.4750  0.4657  0.5550
 5339SOL    HW127479   2.948   2.718   4.374  0.0580  0.9296 -1.0648
 5339SOL    HW227480   3.076   2.763   4.447  0.8589  1.1655  0.4570
 5340SOL     OW27481   4.061   3.655  16.683  0.5063 -0.1277  0.0503
 5340SOL    HW127482   4.011   3.717  16.738 -3.3175 -2.1853 -1.1021
 5340SOL    HW227483   4.152   3.652  16.712  0.7199 -2.3480 -0.8723
 5341SOL     OW27484   0.350   0.397  14.413 -0.6176 -0.2663  0.0639
 5341SOL    HW127485   0.325   0.430  14.327 -0.4960 -3.9380 -1.4030
 5341SOL    HW227486   0.326   0.465  14.476  0.9532  0.6444 -0.3249
 5342SOL     OW27487   1.088   2.514  10.046  0.1255  0.0220 -0.2079
 5342SOL    HW127488   1.169   2.471  10.020 -1.3372 -1.4997 -2.2336
 5342SOL    HW227489   1.034   2.442  10.080  1.6555 -0.0400  2.0366
 5343SOL     OW27490   2.186   1.738   2.963 -0.3371 -0.1350  0.5443
 5343SOL    HW127491   2.213   1.830   2.962 -0.6754 -0.0208  2.9952
 5343SOL    HW227492   2.215   1.719   3.052  0.7252  1.7879  0.6022
 5344SOL     OW27493   4.497   0.593   6.014  0.1109 -0.2347 -0.1611
 5344SOL    HW127494   4.556   0.657   5.976 -0.8687 -0.7923 -2.6172
 5344SOL    HW227495   4.517   0.523   5.952  3.1419 -1.1472  1.8561
 5345SOL     OW27496   3.610   3.540   5.483  0.4780 -0.1761 -0.1051
 5345SOL    HW127497   3.555   3.603   5.436  2.0332  2.0853  1.0438
 5345SOL    HW227498   3.564   3.550   5.566  1.3758  2.1098  0.1349
 5346SOL     OW27499   3.139   3.661   1.970 -0.0967  0.0114 -0.1051
 5346SOL    HW127500   3.119   3.613   2.051 -2.7592 -0.6637 -1.1538
 5346SOL    HW227501   3.082   3.613   1.910 -1.6930  0.4948  1.0297
 5347SOL     OW27502   1.086   2.473   7.556  0.8198 -0.1338  0.4477
 5347SOL    HW127503   1.072   2.425   7.638  2.4480  3.2691  2.7177
 5347SOL    HW227504   1.165   2.429   7.525  0.9672  0.2370  0.2922
 5348SOL     OW27505   2.273   3.724   3.397 -0.9361 -0.4457  0.0815
 5348SOL    HW127506   2.297   3.695   3.309 -1.3360 -0.3735 -0.0529
 5348SOL    HW227507   2.280   3.818   3.386  1.6668 -0.5331  0.9927
 5349SOL     OW27508   1.591   4.076  16.774  0.2630 -0.4831  0.1478
 5349SOL    HW127509   1.643   4.143  16.730 -1.1018  0.1814 -0.4490
 5349SOL    HW227510   1.549   4.040  16.695 -0.2668  0.7516 -0.1237
 5350SOL     OW27511   2.301   0.111   4.989 -0.3606  0.1458  0.1793
 5350SOL    HW127512   2.243   0.092   4.916  0.4258  0.6831 -0.5721
 5350SOL    HW227513   2.264   0.196   5.013 -1.4516 -0.2765  0.0128
 5351SOL     OW27514   0.680   1.222   6.673  0.2420  0.7873  0.7241
 5351SOL    HW127515   0.618   1.284   6.712 -1.5048 -1.9658  2.3119
 5351SOL    HW227516   0.623   1.145   6.674  0.9211  0.2960  1.4269
 5352SOL     OW27517   1.091   1.661   1.766 -0.1598 -0.4055 -0.0351
 5352SOL    HW127518   1.073   1.744   1.722 -0.6002  0.5910  2.0038
 5352SOL    HW227519   1.185   1.669   1.781 -0.4987  1.6429  1.0231
 5353SOL     OW27520   3.382   2.991   6.586  0.1137  0.2338  0.9237
 5353SOL    HW127521   3.408   2.933   6.657 -0.9758  0.6642  1.6804
 5353SOL    HW227522   3.462   3.044   6.580 -0.1627  0.4981 -0.4647
 5354SOL     OW27523   0.098   4.526  13.010 -0.2148  0.7294  0.2941
 5354SOL    HW127524   0.167   4.535  13.076  0.5615  1.0267 -0.5356
 5354SOL    HW227525   0.044   4.454  13.042  0.2028  0.2648 -0.0440
 5355SOL     OW27526   1.669   0.486   8.286  0.6174  0.4969  0.2411
 5355SOL    HW127527   1.711   0.455   8.206 -0.4311 -0.5208  0.0808
 5355SOL    HW227528   1.744   0.543   8.303  1.3838 -0.2357 -0.7052
 5356SOL     OW27529   2.606   0.881   8.727 -0.5414 -0.1309 -0.7235
 5356SOL    HW127530   2.566   0.967   8.740  1.9931  0.8742  0.3250
 5356SOL    HW227531   2.522   0.836   8.725 -0.6704  0.1573 -1.8715
 5357SOL     OW27532   2.168   0.275   2.808  0.2932  0.4785  0.1970
 5357SOL    HW127533   2.148   0.360   2.769  1.4992  0.7114  0.0835
 5357SOL    HW227534   2.257   0.266   2.774 -0.5096 -2.1386 -1.1952
 5358SOL     OW27535   2.462   4.548  16.078 -0.5378 -0.2126 -0.1109
 5358SOL    HW127536   2.417   4.473  16.039  1.2443  0.2519 -3.1219
 5358SOL    HW227537   2.495   4.591  15.999 -2.6103 -0.8528 -1.3462
 5359SOL     OW27538   2.786   3.279   3.288 -0.1656  0.0303  0.5001
 5359SOL    HW127539   2.809   3.347   3.225 -0.0339 -1.0562 -0.6310
 5359SOL    HW227540   2.827   3.314   3.368 -3.8003  1.4810  1.6986
 5360SOL     OW27541   4.689   2.215  16.732  0.1427 -0.2808 -0.1457
 5360SOL    HW127542   4.683   2.310  16.737 -2.8102 -0.4585 -0.5383
 5360SOL    HW227543   4.612   2.196  16.785 -0.7645 -2.1293 -2.1025
 5361SOL     OW27544   0.875   4.176  12.378 -0.0832 -0.8800  0.6724
 5361SOL    HW127545   0.926   4.250  12.344 -2.4793 -1.3761 -4.1322
 5361SOL    HW227546   0.802   4.167  12.316  1.4027  0.3984 -1.2828
 5362SOL     OW27547   2.987   0.061  17.340  0.1170  0.2166 -0.1072
 5362SOL    HW127548   2.938   4.706  17.322  0.3046  0.0488  0.1182
 5362SOL    HW227549   2.913   0.113  17.370 -1.2382 -0.8699 -1.5374
 5363SOL     OW27550   1.721   2.375   2.583  0.4618  0.6479  0.1472
 5363SOL    HW127551   1.720   2.280   2.578 -0.8854  0.7354 -1.2447
 5363SOL    HW227552   1.763   2.403   2.501 -1.2437  2.7388 -0.0221
 5364SOL     OW27553   1.006   4.401   1.602  0.0709 -0.7309  0.8448
 5364SOL    HW127554   1.068   4.387   1.674 -0.0346  1.1575  1.3158
 5364SOL    HW227555   0.930   4.434   1.650 -0.6245  0.0327 -0.7827
 5365SOL     OW27556   0.833   1.204   6.896  0.0991  0.6452 -0.1069
 5365SOL    HW127557   0.884   1.285   6.894  0.3649  0.4963  0.5646
 5365SOL    HW227558   0.784   1.208   6.814 -2.1812 -0.4049  1.2179
 5366SOL     OW27559   0.942   0.353   4.699 -0.6632 -0.1645  0.2230
 5366SOL    HW127560   0.995   0.432   4.692 -1.1345  0.2593  1.4696
 5366SOL    HW227561   1.015   0.293   4.684 -2.2722 -2.1994  0.5597
 5367SOL     OW27562   1.441   1.698   4.714  0.0117  0.1096 -0.2250
 5367SOL    HW127563   1.513   1.755   4.739  0.5448 -0.2340 -0.9749
 5367SOL    HW227564   1.455   1.632   4.783  1.6881  2.2073  1.4095
 5368SOL     OW27565   0.176   2.295   7.625 -0.2317 -0.0620  0.4842
 5368SOL    HW127566   0.174   2.375   7.573 -0.9982 -1.2959 -1.4005
 5368SOL    HW227567   0.195   2.332   7.711  2.3327  1.7514 -0.8830
 5369SOL     OW27568   2.933   1.982   5.407 -0.0913  0.2694  0.0554
 5369SOL    HW127569   2.880   1.914   5.366  0.9582 -1.3747  1.4145
 5369SOL    HW227570   2.947   1.944   5.494 -0.7571 -1.4925 -0.6160
 5370SOL     OW27571   0.725   0.992   0.196  0.5296  0.2509 -0.3020
 5370SOL    HW127572   0.793   1.056   0.217  1.7212 -1.4706  1.1098
 5370SOL    HW227573   0.672   1.034   0.130  1.3019  1.6229 -0.0552
 5371SOL     OW27574   0.312   0.338   7.449  0.0342 -0.6719 -0.1490
 5371SOL    HW127575   0.287   0.246   7.455 -0.6621 -0.3252  2.1402
 5371SOL    HW227576   0.354   0.325   7.364 -1.0575 -0.0314 -0.7871
 5372SOL     OW27577   2.950   0.437  16.141 -0.6997 -0.2920  0.6043
 5372SOL    HW127578   2.926   0.506  16.203  0.7310  0.8802 -0.1214
 5372SOL    HW227579   2.864   0.415  16.105 -0.5168  0.2047 -0.1451
 5373SOL     OW27580   0.520   1.292   3.909 -0.5149  0.3313 -0.3635
 5373SOL    HW127581   0.576   1.286   3.831  1.9407 -1.6539  1.5411
 5373SOL    HW227582   0.464   1.216   3.894 -0.4366  0.5687 -1.9350
 5374SOL     OW27583   0.051   1.760   3.182  0.4944 -0.0574  0.2775
 5374SOL    HW127584   0.027   1.838   3.233  1.4342  0.8652 -0.6907
 5374SOL    HW227585   0.108   1.793   3.112  0.8009  1.0045  1.0208
 5375SOL     OW27586   1.555   0.469   2.192  0.1272 -0.0696  0.3402
 5375SOL    HW127587   1.579   0.552   2.233  0.7017 -0.0939  0.0499
 5375SOL    HW227588   1.461   0.486   2.201 -0.4060 -2.5109 -0.5772
 5376SOL     OW27589   3.865   0.378  10.352 -0.3748 -0.4250 -0.3597
 5376SOL    HW127590   3.819   0.462  10.350  0.7829  0.2171 -0.1877
 5376SOL    HW227591   3.952   0.399  10.387 -0.6421  1.5850 -0.8894
 5377SOL     OW27592   3.360   0.106  14.171  0.0528  0.5910 -0.1299
 5377SOL    HW127593   3.427   0.039  14.187 -1.1791 -0.7052 -0.4160
 5377SOL    HW227594   3.299   0.066  14.110  1.1035 -2.2699  0.6650
 5378SOL     OW27595   4.349   3.374   8.839 -0.2497 -0.2466  0.3119
 5378SOL    HW127596   4.409   3.302   8.819 -1.2004 -1.0942  0.5049
 5378SOL    HW227597   4.308   3.320   8.907 -1.1460 -1.4014 -1.1529
 5379SOL     OW27598   2.186   1.302  11.333  0.6121 -0.0005 -0.0656
 5379SOL    HW127599   2.269   1.313  11.287 -0.6972 -0.0345 -2.4462
 5379SOL    HW227600   2.201   1.215  11.371  1.1963  0.4658  0.7683
 5380SOL     OW27601   0.213   3.563   3.668  0.2011  0.2162 -0.0981
 5380SOL    HW127602   0.296   3.563   3.621  0.5840  3.4200  0.6142
 5380SOL    HW227603   0.215   3.651   3.705  2.2826 -0.6987  1.9894
 5381SOL     OW27604   4.515   4.620  16.184  0.6340 -0.0777  0.1188
 5381SOL    HW127605   4.599   4.644  16.223  0.3949  1.1745 -0.1372
 5381SOL    HW227606   4.460   4.697  16.200  0.2087  0.0101 -1.8061
 5382SOL     OW27607   2.887   3.914  13.083  0.2492  0.1054  0.5727
 5382SOL    HW127608   2.923   3.863  13.157 -1.3474 -0.9844  0.5944
 5382SOL    HW227609   2.933   3.865  13.014  1.7899 -0.8931  2.2835
 5383SOL     OW27610   0.037   2.034   8.010 -0.2780  0.5326 -0.5452
 5383SOL    HW127611   0.093   1.980   7.955 -2.5504 -0.3448 -1.9752
 5383SOL    HW227612   4.687   1.974   8.010  0.3417 -0.2568  0.0680
 5384SOL     OW27613   0.083   1.120   1.855 -0.2642  0.4653  0.4527
 5384SOL    HW127614   4.723   1.161   1.839  1.4283  3.2880 -1.2915
 5384SOL    HW227615   0.055   1.047   1.910  2.2768 -1.9391 -1.4749
 5385SOL     OW27616   0.066   4.175   6.640  0.1939  0.3857 -0.0344
 5385SOL    HW127617   0.015   4.247   6.603  2.5507  1.5733 -0.9840
 5385SOL    HW227618   0.137   4.181   6.576  1.0459 -2.4562  0.6649
 5386SOL     OW27619   4.077   0.714  16.729 -0.0380  0.7487 -0.0719
 5386SOL    HW127620   4.032   0.664  16.797  1.7281  0.3398  0.8043
 5386SOL    HW227621   4.143   0.652  16.697 -2.7498 -2.2459  0.1338
 5387SOL     OW27622   2.467   1.562   4.181  0.1480 -0.0706  0.1289
 5387SOL    HW127623   2.390   1.539   4.233  1.2032 -1.5771  1.0139
 5387SOL    HW227624   2.426   1.623   4.120 -1.7828 -1.4788  0.0026
 5388SOL     OW27625   3.909   1.968   5.719 -0.2458  0.4463  0.3511
 5388SOL    HW127626   3.956   2.044   5.751  0.9402 -0.2000  0.1455
 5388SOL    HW227627   3.842   2.003   5.661 -0.0265  0.4428  0.0969
 5389SOL     OW27628   3.430   3.313   7.235 -0.0327  0.5104 -0.2134
 5389SOL    HW127629   3.406   3.242   7.295 -1.0508 -0.1923 -1.4497
 5389SOL    HW227630   3.490   3.360   7.293 -0.7660  0.7225  0.3773
 5390SOL     OW27631   0.896   2.121   1.123  0.3007  0.1647  0.0172
 5390SOL    HW127632   0.915   2.046   1.068  2.0197 -0.7353  1.8366
 5390SOL    HW227633   0.815   2.157   1.087 -0.3223 -1.6353 -0.3602
 5391SOL     OW27634   0.523   2.396   7.207 -0.0485  0.2604 -0.1563
 5391SOL    HW127635   0.442   2.346   7.195 -0.4767  1.1809 -1.1686
 5391SOL    HW227636   0.519   2.419   7.300  1.2475  3.4916 -0.9028
 5392SOL     OW27637   0.184   0.496   2.879  0.0294 -0.0281 -0.4847
 5392SOL    HW127638   0.132   0.458   2.949  1.5923  0.0691  0.7410
 5392SOL    HW227639   0.113   0.479   2.816 -1.9830  2.4047  1.1107
 5393SOL     OW27640   1.645   0.351   1.972  0.2440  0.0913  0.5080
 5393SOL    HW127641   1.599   0.274   2.004  1.8732 -1.5851 -1.1610
 5393SOL    HW227642   1.636   0.399   2.054  1.1679  1.9725 -0.4835
 5394SOL     OW27643   3.145   2.522  13.885 -0.2237  0.2619  0.1045
 5394SOL    HW127644   3.088   2.548  13.813  0.8061 -0.2107 -0.8645
 5394SOL    HW227645   3.212   2.476  13.835  0.4016  0.8682  0.3904
 5395SOL     OW27646   1.333   2.900   5.334  0.1226 -0.0993  0.0435
 5395SOL    HW127647   1.410   2.901   5.277 -0.4845  0.1324 -0.7651
 5395SOL    HW227648   1.281   2.972   5.300 -0.4345  0.1874  1.4886
 5396SOL     OW27649   0.834   0.206   8.648  0.3527 -0.7527 -0.1126
 5396SOL    HW127650   0.765   0.249   8.598  1.9997  0.7842 -1.0633
 5396SOL    HW227651   0.780   0.191   8.726  0.8486  0.5680  0.4819
 5397SOL     OW27652   3.257   0.686   7.813 -0.3553  0.2519 -0.2831
 5397SOL    HW127653   3.178   0.725   7.774 -0.1440  1.0325  0.0741
 5397SOL    HW227654   3.278   0.749   7.882  0.5031 -0.1568 -0.1729
 5398SOL     OW27655   3.856   1.987   2.421  0.1681 -0.2885  0.0759
 5398SOL    HW127656   3.848   2.040   2.342  0.1532  2.0027  1.5948
 5398SOL    HW227657   3.951   1.971   2.420  0.4218  1.2194 -0.3295
 5399SOL     OW27658   2.252   1.642   1.533  0.0429 -0.0947 -0.5420
 5399SOL    HW127659   2.238   1.723   1.582  0.9874  0.7220 -1.6343
 5399SOL    HW227660   2.189   1.579   1.568 -2.4438  1.7308 -1.7504
 5400SOL     OW27661   1.421   2.748   6.868 -0.0766 -0.3100 -0.3191
 5400SOL    HW127662   1.370   2.829   6.881  0.4345 -0.0242 -0.1167
 5400SOL    HW227663   1.490   2.776   6.808  2.8819  1.4747  3.9851
 5401SOL     OW27664   3.833   0.569   5.420 -0.1349 -0.4319 -0.3438
 5401SOL    HW127665   3.786   0.536   5.343 -0.0020  2.9985 -1.9126
 5401SOL    HW227666   3.759   0.562   5.480  1.9407 -1.0561  2.0884
 5402SOL     OW27667   3.892   4.222   1.989  0.2026  0.4853 -0.1376
 5402SOL    HW127668   3.887   4.132   2.021  0.4876 -0.3080 -2.3393
 5402SOL    HW227669   3.974   4.227   1.942 -0.4540 -2.1726 -1.5220
 5403SOL     OW27670   4.516   2.831   0.492 -0.1813  0.0127  0.2455
 5403SOL    HW127671   4.438   2.887   0.484  0.3522  0.6592 -0.4315
 5403SOL    HW227672   4.486   2.761   0.551  1.7142  0.6603  1.9982
 5404SOL     OW27673   3.035   2.498   1.859  0.8599  0.5203  0.1719
 5404SOL    HW127674   2.946   2.528   1.874  1.1989  0.9947  1.3025
 5404SOL    HW227675   3.030   2.412   1.900 -2.0786  1.1932  1.2220
 5405SOL     OW27676   4.384   1.337   7.359  0.2976 -0.6671  0.1023
 5405SOL    HW127677   4.382   1.432   7.373 -1.2603 -0.9292  1.7003
 5405SOL    HW227678   4.357   1.321   7.269  0.2444  0.4988 -0.0909
 5406SOL     OW27679   1.999   4.003   1.072 -0.2162  0.0615 -0.2293
 5406SOL    HW127680   2.033   4.013   0.983 -2.0669 -1.3018 -1.1010
 5406SOL    HW227681   1.954   3.919   1.065  1.3351 -0.6988 -1.0992
 5407SOL     OW27682   0.009   2.183   2.382 -0.1973 -0.6374 -0.2032
 5407SOL    HW127683   0.097   2.220   2.378 -0.3233 -0.3372 -0.2441
 5407SOL    HW227684   4.709   2.181   2.290 -0.4828 -0.7650 -0.1218
 5408SOL     OW27685   3.270   2.999  14.266  0.2194  0.0832 -0.0575
 5408SOL    HW127686   3.351   2.957  14.295  0.6733  0.3927 -0.8894
 5408SOL    HW227687   3.243   2.944  14.193 -0.8270  2.9222 -1.8052
 5409SOL     OW27688   4.463   2.200   8.749 -0.0973 -0.1199 -0.0671
 5409SOL    HW127689   4.412   2.128   8.710  0.5951  0.4870 -2.0936
 5409SOL    HW227690   4.498   2.239   8.669 -3.0236  0.7205 -0.9538
 5410SOL     OW27691   1.355   0.735  10.843  0.6045 -0.6021  0.5422
 5410SOL    HW127692   1.351   0.784  10.925  3.3514 -2.0232  1.5308
 5410SOL    HW227693   1.401   0.797  10.786 -1.7760 -0.1247 -0.8837
 5411SOL     OW27694   3.365   1.043   4.785 -0.2595 -0.2466 -0.0470
 5411SOL    HW127695   3.340   1.134   4.799 -0.0130  0.0703 -1.6547
 5411SOL    HW227696   3.363   1.039   4.690  1.5584  0.7337 -0.1367
 5412SOL     OW27697   0.286   1.349  11.467 -0.2081 -0.0136  0.6434
 5412SOL    HW127698   0.261   1.333  11.376  0.5853  1.4727  0.1611
 5412SOL    HW227699   0.319   1.439  11.468  1.6058 -0.6246 -1.6612
 5413SOL     OW27700   1.915   0.835  10.958 -0.3041  0.3747 -0.1805
 5413SOL    HW127701   1.933   0.755  11.008  0.2349  0.9581  0.5503
 5413SOL    HW227702   2.001   0.877  10.950  0.6971 -1.3933  1.3048
 5414SOL     OW27703   2.086   1.945  17.116 -0.0774 -0.2421  0.6055
 5414SOL    HW127704   1.997   1.972  17.092  0.4298  1.1351  0.2586
 5414SOL    HW227705   2.119   1.958  17.027  0.4336  0.7563  0.9367
 5415SOL     OW27706   1.945   2.112   2.588 -0.3628  0.0643 -0.7616
 5415SOL    HW127707   1.995   2.034   2.567  0.4803  0.8215 -1.5811
 5415SOL    HW227708   2.017   2.175   2.591  2.4175 -3.2617  1.4759
 5416SOL     OW27709   4.024   1.316  14.325 -0.0139  0.2770 -0.6412
 5416SOL    HW127710   3.967   1.312  14.402  1.5781  1.2587  0.5942
 5416SOL    HW227711   3.952   1.308  14.262  0.7355  2.3282 -1.7495
 5417SOL     OW27712   1.424   1.845   6.224 -0.1131 -0.3099  0.4842
 5417SOL    HW127713   1.341   1.890   6.236 -0.5605 -1.0236  0.0703
 5417SOL    HW227714   1.481   1.906   6.179 -1.5145  1.1135  0.6484
 5418SOL     OW27715   3.112   2.384   8.473 -0.4357 -0.1245 -0.3512
 5418SOL    HW127716   3.160   2.326   8.414  0.0065 -1.0289  0.8738
 5418SOL    HW227717   3.041   2.408   8.414 -0.4574 -0.9647 -0.6630
 5419SOL     OW27718   0.204   1.947   1.731 -0.2653  1.0663  0.0984
 5419SOL    HW127719   0.268   2.009   1.696  1.5081 -0.4406  0.6256
 5419SOL    HW227720   0.135   2.005   1.763 -0.1036  1.8833 -1.0515
 5420SOL     OW27721   1.336   3.896  16.192 -0.1332 -0.8182  0.4931
 5420SOL    HW127722   1.424   3.933  16.180 -0.5936 -0.2589 -1.0916
 5420SOL    HW227723   1.351   3.808  16.226  0.8811 -0.1130  1.8837
 5421SOL     OW27724   1.809   1.344   8.884  0.0393  0.6269  0.1593
 5421SOL    HW127725   1.832   1.253   8.864  0.0277  0.3937  1.1805
 5421SOL    HW227726   1.731   1.345   8.828 -0.2350 -1.7988  0.4642
 5422SOL     OW27727   2.444   3.113   6.160  0.1753  0.6831  0.1556
 5422SOL    HW127728   2.391   3.066   6.225 -0.8474 -0.7242 -1.6888
 5422SOL    HW227729   2.517   3.116   6.222  0.3533  1.5947 -0.1080
 5423SOL     OW27730   1.880   3.323  15.170  0.1371  0.0766 -0.4080
 5423SOL    HW127731   1.905   3.374  15.248  0.5423 -0.1546 -0.3865
 5423SOL    HW227732   1.784   3.327  15.178  0.1236  1.7029 -1.4705
 5424SOL     OW27733   4.500   2.373   8.469 -0.2868 -0.0731  0.3955
 5424SOL    HW127734   4.506   2.324   8.386 -1.0672 -2.3420  1.6816
 5424SOL    HW227735   4.448   2.448   8.442 -1.1117  0.1609  2.6591
 5425SOL     OW27736   0.983   4.318   7.759 -0.1305 -0.0379 -0.4902
 5425SOL    HW127737   0.980   4.307   7.854  2.9521 -0.0499 -0.3958
 5425SOL    HW227738   0.979   4.412   7.740  1.8466  0.2084  0.2610
 5426SOL     OW27739   0.743   1.794   0.205 -0.1478 -0.7010  0.0859
 5426SOL    HW127740   0.837   1.810   0.210 -0.3361  0.1856  0.7633
 5426SOL    HW227741   0.712   1.871   0.158 -0.5108  0.2018  1.8048
 5427SOL     OW27742   1.244   0.309   0.528 -0.1024  0.7545 -0.5112
 5427SOL    HW127743   1.270   0.276   0.615 -1.4546 -0.6807 -0.6358
 5427SOL    HW227744   1.308   0.379   0.517 -0.0368  0.4112 -2.2431
 5428SOL     OW27745   3.135   0.908   4.168 -0.1105  0.0234  0.0672
 5428SOL    HW127746   3.113   0.823   4.204  0.5940  0.1626  0.8260
 5428SOL    HW227747   3.198   0.941   4.232 -0.3283  1.3278 -0.3813
 5429SOL     OW27748   0.148   3.283   9.320  0.3828  0.0581 -0.0628
 5429SOL    HW127749   0.197   3.300   9.401 -0.5390 -0.1973  0.5617
 5429SOL    HW227750   0.133   3.190   9.338 -0.6931  0.7222  2.4552
 5430SOL     OW27751   3.884   2.500   1.627  0.4855 -0.2547 -0.3662
 5430SOL    HW127752   3.850   2.443   1.696 -1.1376 -0.5089 -1.3868
 5430SOL    HW227753   3.808   2.495   1.570  0.0852 -1.8697  0.2925
 5431SOL     OW27754   3.627   1.868   2.801 -0.0298  0.0341 -0.7302
 5431SOL    HW127755   3.616   1.954   2.760 -2.0444  0.7875  1.3845
 5431SOL    HW227756   3.566   1.819   2.746 -3.8660  2.8509  0.9663
 5432SOL     OW27757   1.401   0.677  11.364  0.1967 -0.0542  0.1724
 5432SOL    HW127758   1.464   0.658  11.294  0.1175  1.0302 -0.1870
 5432SOL    HW227759   1.423   0.767  11.387  2.6801 -0.4527 -0.6087
 5433SOL     OW27760   0.636   1.664   8.280  0.4679 -0.1034 -0.0579
 5433SOL    HW127761   0.634   1.667   8.375 -0.2943  0.2994 -0.0828
 5433SOL    HW227762   0.711   1.721   8.260 -2.1104  2.9683 -1.0282
 5434SOL     OW27763   2.250   0.818  16.523  1.0214 -0.0763  0.7988
 5434SOL    HW127764   2.203   0.770  16.591  1.5658 -2.4882 -0.5325
 5434SOL    HW227765   2.282   0.742  16.475  1.1683 -0.2087  1.1088
 5435SOL     OW27766   3.048   2.763  14.849  0.2015 -0.3130 -0.7089
 5435SOL    HW127767   3.085   2.760  14.761  0.6694 -1.2516 -0.4813
 5435SOL    HW227768   3.053   2.858  14.857  1.4040 -0.3123 -1.5117
 5436SOL     OW27769   1.895   2.743   5.368  0.1565 -0.1123  0.0232
 5436SOL    HW127770   1.938   2.683   5.428  1.5680  0.2757 -0.5906
 5436SOL    HW227771   1.969   2.790   5.328 -0.1550  1.0178  0.7617
 5437SOL     OW27772   4.163   2.392   8.785  0.3913 -0.7197  0.1657
 5437SOL    HW127773   4.182   2.329   8.715  1.7854  1.5822 -1.5543
 5437SOL    HW227774   4.151   2.332   8.858 -0.4813 -1.3177 -0.4698
 5438SOL     OW27775   3.583   0.774   4.047  0.1209 -0.5174 -0.3539
 5438SOL    HW127776   3.652   0.718   4.010 -0.5149 -0.2298 -1.9594
 5438SOL    HW227777   3.551   0.717   4.116 -1.3673 -0.9883 -1.4481
 5439SOL     OW27778   2.161   4.690   8.016  0.0374 -0.1033 -0.5507
 5439SOL    HW127779   2.076   4.653   8.040  1.4609 -1.1672  2.8556
 5439SOL    HW227780   2.155   4.675   7.921 -0.1490 -0.6581 -0.4495
 5440SOL     OW27781   4.481   3.516   5.389 -0.1155 -0.5482  0.6247
 5440SOL    HW127782   4.468   3.492   5.297 -1.5462 -0.2721  0.7517
 5440SOL    HW227783   4.514   3.435   5.429  1.7957 -0.5095 -0.9309
 5441SOL     OW27784   0.945   3.616   8.386 -0.2343  0.2471  0.0167
 5441SOL    HW127785   0.902   3.693   8.423 -3.0234 -0.7241 -1.1394
 5441SOL    HW227786   0.900   3.540   8.424 -0.7730  0.2359 -0.6275
 5442SOL     OW27787   3.159   0.072   1.785  0.3977 -0.5725 -0.0908
 5442SOL    HW127788   3.178   0.092   1.694 -0.6439  2.3454  0.3452
 5442SOL    HW227789   3.189   4.707   1.801 -0.7893 -0.7239  1.2950
 5443SOL     OW27790   1.244   0.873  12.053  0.4210 -0.3600  0.6663
 5443SOL    HW127791   1.326   0.923  12.049 -0.3724  0.8218 -1.1043
 5443SOL    HW227792   1.209   0.910  12.134  0.0024 -1.5502  1.0367
 5444SOL     OW27793   0.664   4.147   4.317  0.1281 -0.1175  0.0908
 5444SOL    HW127794   0.620   4.231   4.303 -0.9643 -0.4093  1.7668
 5444SOL    HW227795   0.649   4.102   4.234 -0.0851  0.3845 -0.1442
 5445SOL     OW27796   0.118   2.513   1.826 -0.1953 -0.0019 -0.9878
 5445SOL    HW127797   0.110   2.419   1.813  0.1363 -0.1675  0.0207
 5445SOL    HW227798   0.105   2.539   1.735  0.9326  1.0492 -0.8557
 5446SOL     OW27799   1.697   4.605  15.212 -0.2355  0.2402 -0.5368
 5446SOL    HW127800   1.776   4.606  15.159  0.3510 -1.6026  0.2705
 5446SOL    HW227801   1.704   4.513  15.239  1.6771  0.4252 -0.4269
 5447SOL     OW27802   0.366   0.149   1.648 -0.1245  0.4112 -0.1379
 5447SOL    HW127803   0.406   0.079   1.597  1.4861 -0.2274  1.9995
 5447SOL    HW227804   0.381   0.214   1.580  0.9128  1.3033  0.9522
 5448SOL     OW27805   3.141   4.525   4.749 -0.0702 -0.2066  0.7163
 5448SOL    HW127806   3.157   4.591   4.682 -0.2102  1.3091  2.1546
 5448SOL    HW227807   3.139   4.584   4.825 -0.6605  0.3509  0.2677
 5449SOL     OW27808   2.359   0.768   6.157  0.2484  0.4496 -0.2647
 5449SOL    HW127809   2.344   0.766   6.251  0.2253  2.6217 -0.2252
 5449SOL    HW227810   2.307   0.841   6.125 -0.1202 -0.2880 -1.3345
 5450SOL     OW27811   2.578   0.179   9.125  0.2018 -0.7154  0.5082
 5450SOL    HW127812   2.632   0.143   9.054  0.6369 -2.4902  1.7599
 5450SOL    HW227813   2.496   0.196   9.078  1.2107 -0.4760 -1.2071
 5451SOL     OW27814   3.203   1.141   6.143 -0.4173  0.2161 -0.1097
 5451SOL    HW127815   3.291   1.145   6.106 -0.3202 -0.9570  0.0075
 5451SOL    HW227816   3.160   1.132   6.058  0.0270 -0.9632 -0.2023
 5452SOL     OW27817   3.847   4.332   4.681 -0.5069 -0.3665  0.1969
 5452SOL    HW127818   3.832   4.260   4.742 -0.8540  0.3694  0.9792
 5452SOL    HW227819   3.918   4.289   4.633 -0.5685 -2.4742  2.0083
 5453SOL     OW27820   3.205   0.235   0.373  0.5340  0.2428  0.0095
 5453SOL    HW127821   3.286   0.283   0.355 -0.4140  0.7946 -2.7339
 5453SOL    HW227822   3.241   0.146   0.365  0.3758  0.0603  1.3668
 5454SOL     OW27823   3.512   4.611   2.228  0.2469 -0.3593  0.0514
 5454SOL    HW127824   3.597   4.618   2.186 -0.5453  0.2006 -1.4592
 5454SOL    HW227825   3.502   4.516   2.235 -1.2909 -0.1893  0.2082
 5455SOL     OW27826   1.357   0.889   2.857  0.5977  0.4594  0.4723
 5455SOL    HW127827   1.396   0.928   2.935  0.8022 -0.0942  0.6490
 5455SOL    HW227828   1.280   0.945   2.848 -0.8080 -1.4722  0.4393
 5456SOL     OW27829   0.986   4.190   0.743  0.1472  0.1747  0.5366
 5456SOL    HW127830   0.926   4.139   0.689  0.5754  0.8002 -0.5175
 5456SOL    HW227831   1.023   4.252   0.680 -1.0153  1.4097  1.0521
 5457SOL     OW27832   3.915   1.745   3.880  0.5376  0.3675 -0.3403
 5457SOL    HW127833   3.937   1.664   3.927  2.3586  0.4654 -1.0047
 5457SOL    HW227834   3.933   1.793   3.961  1.4412  0.4719 -0.5994
 5458SOL     OW27835   1.650   3.511  16.383 -0.7433  0.1882  0.8734
 5458SOL    HW127836   1.677   3.498  16.292 -0.0213 -1.1164  1.2714
 5458SOL    HW227837   1.558   3.535  16.374 -0.6282 -0.6296 -2.4010
 5459SOL     OW27838   2.499   2.760   0.459  0.0726 -0.3052 -0.0258
 5459SOL    HW127839   2.546   2.727   0.382 -0.3922 -2.1322  0.4630
 5459SOL    HW227840   2.491   2.854   0.444 -0.0553 -0.4539 -0.9226
 5460SOL     OW27841   2.417   4.337  13.342  0.2493  0.1665 -0.1587
 5460SOL    HW127842   2.401   4.306  13.253  1.6267 -2.3281  0.4471
 5460SOL    HW227843   2.444   4.257  13.387  2.8630 -0.0336 -2.0716
 5461SOL     OW27844   0.309   4.007   8.287 -0.1533 -0.2037  0.1248
 5461SOL    HW127845   0.399   3.975   8.291 -0.5603 -1.4936 -0.8652
 5461SOL    HW227846   0.269   3.927   8.253 -0.0641 -0.1622 -0.0793
 5462SOL     OW27847   1.590   3.575   6.086  0.0999  0.4048  0.4409
 5462SOL    HW127848   1.674   3.585   6.041 -0.3239  2.7464  0.2139
 5462SOL    HW227849   1.529   3.624   6.032 -0.5010 -0.9217 -0.0864
 5463SOL     OW27850   0.655   1.530   1.283 -0.0511  0.0023 -0.7807
 5463SOL    HW127851   0.629   1.489   1.200 -1.8216  3.0703 -1.7344
 5463SOL    HW227852   0.583   1.508   1.342  0.1099  0.8451 -0.2733
 5464SOL     OW27853   1.121   3.180   2.181  0.1616  0.0405  0.5475
 5464SOL    HW127854   1.161   3.228   2.254 -0.4924 -0.6019  1.3389
 5464SOL    HW227855   1.074   3.111   2.227  2.6100 -0.1364  2.7832
 5465SOL     OW27856   3.878   3.603   3.220 -0.2815 -0.0022 -0.4144
 5465SOL    HW127857   3.918   3.688   3.203  0.5546 -0.2966  0.0805
 5465SOL    HW227858   3.943   3.574   3.284  0.4060 -0.5672 -1.3753
 5466SOL     OW27859   0.142   2.828   8.610  0.3846  0.7786  0.6611
 5466SOL    HW127860   0.130   2.852   8.702  0.2397 -1.5175  1.2301
 5466SOL    HW227861   0.076   2.759   8.606  1.5737 -0.2938 -0.6446
 5467SOL     OW27862   1.964   1.089   3.035 -0.3222  0.0910  0.2800
 5467SOL    HW127863   1.963   1.074   3.129 -3.8179 -2.0507 -0.1200
 5467SOL    HW227864   2.016   1.016   3.002 -0.7424  0.0516 -0.2915
 5468SOL     OW27865   1.340   0.686  14.156  0.1573  0.1618 -0.7694
 5468SOL    HW127866   1.301   0.633  14.226  1.5099  1.5919  1.0591
 5468SOL    HW227867   1.431   0.705  14.175  0.3915 -0.1669 -1.5636
 5469SOL     OW27868   3.449   2.061   5.499  0.4245  0.7017 -0.0994
 5469SOL    HW127869   3.389   1.986   5.497 -1.1968  1.9779  1.3591
 5469SOL    HW227870   3.459   2.086   5.407  0.9457  2.9377  0.5661
 5470SOL     OW27871   2.479   2.677  10.383 -0.1921 -0.5825  0.6963
 5470SOL    HW127872   2.387   2.663  10.361 -0.1753 -1.5022  1.1789
 5470SOL    HW227873   2.473   2.666  10.478 -1.9822  2.3345  0.9059
 5471SOL     OW27874   3.940   3.419   7.612 -0.2434 -0.0755  0.3795
 5471SOL    HW127875   3.967   3.445   7.700 -0.1586 -0.6263  0.5141
 5471SOL    HW227876   3.845   3.430   7.615 -0.4085 -0.1723 -3.7791
 5472SOL     OW27877   2.876   1.215   5.287  0.2744  0.3926  0.4179
 5472SOL    HW127878   2.902   1.208   5.195  0.8534  0.1165  0.6010
 5472SOL    HW227879   2.840   1.129   5.308 -0.8138  0.7921  0.1458
 5473SOL     OW27880   1.221   1.076   3.064 -0.3977 -0.1164 -0.2945
 5473SOL    HW127881   1.207   1.106   2.974 -0.9438 -0.0047 -0.1730
 5473SOL    HW227882   1.164   0.999   3.070  1.5691 -1.4670  1.1631
 5474SOL     OW27883   1.614   3.124   4.833 -0.2487 -0.2729  0.0067
 5474SOL    HW127884   1.686   3.172   4.793 -0.7663 -1.8447 -2.7551
 5474SOL    HW227885   1.616   3.157   4.923  2.6706  1.2094 -0.5966
 5475SOL     OW27886   3.291   3.079  13.092 -0.0784  0.5720 -0.1987
 5475SOL    HW127887   3.351   3.054  13.022  2.4036  0.8714  1.8253
 5475SOL    HW227888   3.285   3.174  13.086 -1.7550  0.3874 -1.3744
 5476SOL     OW27889   3.932   0.107  15.946  0.1016 -0.5736 -0.0836
 5476SOL    HW127890   4.021   0.133  15.971 -0.8325  3.2970 -0.8574
 5476SOL    HW227891   3.926   0.145  15.859  0.6569  1.9203  0.9485
 5477SOL     OW27892   1.858   0.496   6.633 -0.2989 -0.3874  0.3156
 5477SOL    HW127893   1.866   0.414   6.681  0.0944  0.3697  1.5521
 5477SOL    HW227894   1.855   0.548   6.713 -0.5620  2.2316 -1.3819
 5478SOL     OW27895   2.234   0.389   6.264 -0.6527 -0.1909  0.1723
 5478SOL    HW127896   2.251   0.392   6.359 -1.5565 -0.7948  0.3514
 5478SOL    HW227897   2.139   0.381   6.270 -0.6767 -1.9442 -2.3695
 5479SOL     OW27898   1.319   1.913  17.645 -0.5268 -0.6771 -0.4758
 5479SOL    HW127899   1.352   1.995  17.610 -1.5950 -0.8277 -1.8610
 5479SOL    HW227900   1.226   1.929  17.629 -0.8606 -1.1357  1.0379
 5480SOL     OW27901   3.642   4.470  11.560 -0.5810  0.0282 -0.2663
 5480SOL    HW127902   3.693   4.393  11.586 -1.6875 -0.7330 -0.3733
 5480SOL    HW227903   3.615   4.442  11.472 -2.0933 -1.2073  0.5995
 5481SOL     OW27904   3.243   2.475   8.695  0.3382  0.2638  0.2120
 5481SOL    HW127905   3.200   2.452   8.612  1.0918 -1.2537  0.2523
 5481SOL    HW227906   3.318   2.417   8.679 -0.3797 -0.8157  0.8184
 5482SOL     OW27907   4.171   2.129   7.702 -0.2576  0.0347  0.2738
 5482SOL    HW127908   4.121   2.055   7.737  0.4484 -1.5267 -2.0731
 5482SOL    HW227909   4.108   2.174   7.646  0.4444  0.0968 -0.4509
 5483SOL     OW27910   3.494   1.959   4.566  0.1587  0.0045 -0.3838
 5483SOL    HW127911   3.588   1.959   4.580  0.1359 -3.2926 -0.1946
 5483SOL    HW227912   3.470   2.050   4.544  0.7666 -0.3037 -2.3055
 5484SOL     OW27913   4.621   1.680   6.472 -0.4047 -0.1987 -0.3858
 5484SOL    HW127914   4.547   1.622   6.488 -0.1916 -0.0436  1.0903
 5484SOL    HW227915   4.693   1.641   6.522 -2.4401 -1.3187  1.6466
 5485SOL     OW27916   3.580   0.750   2.112  0.3699  0.1271 -0.4564
 5485SOL    HW127917   3.630   0.679   2.072 -1.5054 -0.8688 -1.0546
 5485SOL    HW227918   3.652   0.798   2.153 -0.5634 -1.6199  3.2110
 5486SOL     OW27919   1.667   3.548   6.368  0.2399  0.5498  0.6057
 5486SOL    HW127920   1.722   3.610   6.414 -1.5432  2.4061  0.2228
 5486SOL    HW227921   1.652   3.595   6.286  2.9198 -0.5038 -0.5024
 5487SOL     OW27922   3.083   4.451  14.126  0.2015 -0.1730 -0.2282
 5487SOL    HW127923   3.158   4.442  14.067 -0.8276 -2.1751 -1.2350
 5487SOL    HW227924   3.016   4.397  14.083 -1.1000  2.0233 -0.9957
 5488SOL     OW27925   2.708   4.096  12.999  0.2507 -0.0145 -0.1487
 5488SOL    HW127926   2.706   4.157  13.073  2.2483  1.7637 -1.5475
 5488SOL    HW227927   2.786   4.048  13.027 -0.3800 -0.9146  0.0413
 5489SOL     OW27928   1.060   0.060   3.958 -0.4868  0.1670  0.1046
 5489SOL    HW127929   1.059   0.148   3.921  1.2421  0.1999  0.1065
 5489SOL    HW227930   1.077   0.084   4.049  0.6418 -0.7788  0.1436
 5490SOL     OW27931   3.743   2.210   6.904 -0.1017 -0.5197  0.1681
 5490SOL    HW127932   3.754   2.225   6.810 -1.1162 -0.3814  0.0718
 5490SOL    HW227933   3.820   2.248   6.947 -0.7522  1.0807 -0.0527
 5491SOL     OW27934   3.765   0.029   6.775  0.4628 -0.4500  0.5606
 5491SOL    HW127935   3.793   4.703   6.851 -0.9593  1.7927  2.5881
 5491SOL    HW227936   3.689   4.708   6.742  1.9013  0.1289 -3.6281
 5492SOL     OW27937   4.576   0.504   0.633  0.2989  0.2530  0.0141
 5492SOL    HW127938   4.597   0.517   0.540 -0.5970  0.2916 -0.1819
 5492SOL    HW227939   4.493   0.548   0.645  1.0762  1.9917 -1.0129
 5493SOL     OW27940   0.935   1.564   4.574  0.2806 -0.1150 -0.1501
 5493SOL    HW127941   0.906   1.487   4.624  2.2634 -0.2462  0.8139
 5493SOL    HW227942   1.026   1.568   4.605  0.2713  2.0533 -0.4401
 5494SOL     OW27943   1.592   4.493  10.180  0.4307 -0.6865 -0.3233
 5494SOL    HW127944   1.611   4.413  10.229 -0.4536 -0.1387  0.9319
 5494SOL    HW227945   1.527   4.456  10.121 -1.9488  0.1681  1.7336
 5495SOL     OW27946   3.230   0.885  14.916 -0.6491  0.5447  0.8340
 5495SOL    HW127947   3.270   0.957  14.965  0.4432  0.4825  0.0199
 5495SOL    HW227948   3.254   0.912  14.828  0.1501  1.1234  1.2349
 5496SOL     OW27949   4.264   4.028   2.761 -0.0136  0.0337 -0.3785
 5496SOL    HW127950   4.254   4.118   2.790  2.4646  0.5311 -1.1240
 5496SOL    HW227951   4.359   4.023   2.762 -0.0263  0.1428  0.8394
 5497SOL     OW27952   0.261   1.523   8.334 -0.5748  0.0412  0.0379
 5497SOL    HW127953   0.334   1.462   8.347  0.7134  1.0825 -2.3188
 5497SOL    HW227954   0.301   1.588   8.276 -0.8785 -0.5348 -0.8006
 5498SOL     OW27955   2.288   0.838   5.708  0.3854  0.0340  0.4650
 5498SOL    HW127956   2.360   0.776   5.719  0.5010  0.1998  0.6552
 5498SOL    HW227957   2.225   0.786   5.659  1.4082  0.2211 -1.0299
 5499SOL     OW27958   2.431   4.116   1.760 -0.2967 -0.3682  0.0340
 5499SOL    HW127959   2.524   4.134   1.774 -0.0448 -1.6567  0.0259
 5499SOL    HW227960   2.393   4.172   1.827  0.9580  0.1868  0.2677
 5500SOL     OW27961   1.036   2.828   4.675 -0.2432 -0.4710 -0.7931
 5500SOL    HW127962   0.971   2.844   4.607 -1.2336 -0.4642  0.1630
 5500SOL    HW227963   1.110   2.859   4.622  0.3961 -0.0448  0.3419
 5501SOL     OW27964   2.959   3.708   7.846  0.2241 -0.1560  0.6382
 5501SOL    HW127965   2.917   3.690   7.930 -0.9220  0.1765  0.1249
 5501SOL    HW227966   2.975   3.617   7.820 -0.4187  0.2301 -1.1146
 5502SOL     OW27967   3.870   1.979  13.247  0.4615  0.1022  0.0890
 5502SOL    HW127968   3.889   2.028  13.167 -0.0855 -0.8048 -0.5938
 5502SOL    HW227969   3.895   2.043  13.314 -1.4282 -0.6471  1.5079
 5503SOL     OW27970   2.296   2.950   5.380 -0.2407  0.2164 -0.0988
 5503SOL    HW127971   2.356   2.876   5.387 -1.0452 -0.5463 -1.2653
 5503SOL    HW227972   2.361   3.015   5.352  2.5206 -2.1753  0.8238
 5504SOL     OW27973   0.958   0.336   0.610 -0.3002  0.0979  0.1081
 5504SOL    HW127974   1.053   0.325   0.600 -0.7810 -2.9674 -1.0999
 5504SOL    HW227975   0.926   0.249   0.637  1.7238 -0.4044  0.8778
 5505SOL     OW27976   1.836   0.302   7.332  0.2468 -0.4385  0.2495
 5505SOL    HW127977   1.872   0.226   7.287  3.2366  0.6813  0.7221
 5505SOL    HW227978   1.885   0.377   7.299 -0.7333  0.0128 -0.1883
 5506SOL     OW27979   3.453   2.387   3.087  0.3433 -0.2631 -0.0611
 5506SOL    HW127980   3.461   2.419   2.998 -3.0114  1.0418  0.1239
 5506SOL    HW227981   3.506   2.308   3.082  2.2827  1.1122 -1.1392
 5507SOL     OW27982   4.454   0.852   2.051  0.4638  0.0892 -0.5069
 5507SOL    HW127983   4.369   0.830   2.013  0.4151  0.3356 -0.5424
 5507SOL    HW227984   4.462   0.798   2.130  2.4556  0.0827 -0.7111
 5508SOL     OW27985   0.663   3.328  14.471  0.7023  0.2834  0.1855
 5508SOL    HW127986   0.711   3.248  14.493 -0.8519 -0.5748  0.3856
 5508SOL    HW227987   0.585   3.336  14.526 -0.3347 -1.2897 -1.0803
 5509SOL     OW27988   1.542   1.951   8.926  0.0706 -0.0777  0.0514
 5509SOL    HW127989   1.480   1.970   8.997 -1.3273 -1.0476 -0.8914
 5509SOL    HW227990   1.620   2.003   8.941  0.3137 -0.9902  1.8919
 5510SOL     OW27991   3.608   1.921  13.322 -0.0603 -0.4349  0.2094
 5510SOL    HW127992   3.613   1.826  13.311  1.1188  0.0038 -2.9660
 5510SOL    HW227993   3.698   1.953  13.318  0.1700 -1.0704  0.3383
 5511SOL     OW27994   3.723   4.174   4.454 -0.1384  0.1136  0.0293
 5511SOL    HW127995   3.731   4.224   4.535 -1.7494 -2.5268  1.8253
 5511SOL    HW227996   3.675   4.096   4.482 -0.7371  1.0100  1.5077
 5512SOL     OW27997   4.620   3.973   1.682 -0.5866 -0.0027  0.3066
 5512SOL    HW127998   4.535   4.012   1.701 -1.0439 -0.3432 -0.9896
 5512SOL    HW227999   4.679   4.047   1.694  0.5828 -1.2008  1.9541
 5513SOL     OW28000   2.651   2.424   7.928  1.3381 -0.0732  0.1379
 5513SOL    HW128001   2.600   2.422   7.847  2.1154 -1.4490 -0.3192
 5513SOL    HW228002   2.621   2.508   7.962  2.0020 -0.1344  0.8536
 5514SOL     OW28003   4.040   2.601  16.978 -0.1072 -0.1883  0.2173
 5514SOL    HW128004   4.115   2.574  16.926 -2.4249 -3.3192 -1.4796
 5514SOL    HW228005   3.967   2.572  16.923 -1.4011 -0.0779  1.8729
 5515SOL     OW28006   3.403   0.646  13.850  0.1268  0.1698  0.4178
 5515SOL    HW128007   3.397   0.725  13.797 -0.6411 -0.8001 -0.9564
 5515SOL    HW228008   3.384   0.576  13.786  0.1457  0.8373 -0.3200
 5516SOL     OW28009   4.390   4.090  16.277  0.7316 -0.1513 -0.0199
 5516SOL    HW128010   4.409   4.183  16.287  1.0498 -0.3715  1.4168
 5516SOL    HW228011   4.410   4.076  16.184 -1.4504 -1.7665 -0.2676
 5517SOL     OW28012   3.357   0.681   8.928  0.3256 -0.4635 -0.1474
 5517SOL    HW128013   3.348   0.741   8.855 -2.0131 -1.6435 -0.8389
 5517SOL    HW228014   3.268   0.689   8.963  0.6119 -0.9531  0.7109
 5518SOL     OW28015   1.204   1.330   6.903  0.4836  0.1941 -0.0380
 5518SOL    HW128016   1.125   1.363   6.860 -0.2351  0.3275  1.3824
 5518SOL    HW228017   1.168   1.316   6.990 -1.6739  1.1128 -0.8005
 5519SOL     OW28018   2.068   3.369   1.491 -0.0352 -0.4253 -0.0761
 5519SOL    HW128019   2.077   3.274   1.486 -3.3079 -0.6783 -1.1327
 5519SOL    HW228020   1.979   3.378   1.457 -0.2335  2.3162  1.0997
 5520SOL     OW28021   1.708   0.248   4.150  0.5385  0.3222 -0.2826
 5520SOL    HW128022   1.707   0.262   4.245  1.6053  1.2587 -0.4059
 5520SOL    HW228023   1.771   0.317   4.128 -0.3590  0.7659 -1.4372
 5521SOL     OW28024   3.599   1.231   7.903  0.0332  0.1325 -0.5562
 5521SOL    HW128025   3.517   1.189   7.879 -0.8629  1.2828  0.4999
 5521SOL    HW228026   3.615   1.181   7.983  0.3413 -0.1801 -0.8094
 5522SOL     OW28027   4.683   0.795   2.847  0.0100  0.5399 -0.0035
 5522SOL    HW128028   4.692   0.779   2.941  0.6686 -0.6966 -0.2817
 5522SOL    HW228029   4.655   0.887   2.848 -0.3805  0.4322 -0.8253
 5523SOL     OW28030   0.462   1.935   4.674  0.0581  0.0951 -0.1767
 5523SOL    HW128031   0.406   1.894   4.739  0.2501  0.1700  0.0347
 5523SOL    HW228032   0.449   2.028   4.692 -0.9575 -0.1154  0.1419
 5524SOL     OW28033   0.604   4.443   4.303 -0.2225 -0.0674  0.7100
 5524SOL    HW128034   0.601   4.457   4.208 -1.0141  1.7311  1.0087
 5524SOL    HW228035   0.604   4.537   4.320  2.4286 -0.0275  0.5123
 5525SOL     OW28036   4.533   1.810  14.763  0.4083  0.4622  0.1324
 5525SOL    HW128037   4.627   1.793  14.766  0.6438  1.6251 -0.6366
 5525SOL    HW228038   4.523   1.874  14.693  1.0773 -1.6903 -1.8979
 5526SOL     OW28039   2.909   1.860  11.579 -0.5591  0.1341 -0.0007
 5526SOL    HW128040   2.913   1.801  11.504  0.5771  2.5364 -1.8147
 5526SOL    HW228041   2.894   1.937  11.525 -1.3319  0.8074  1.1946
 5527SOL     OW28042   4.457   2.672   1.903 -0.2959  0.0704 -0.0917
 5527SOL    HW128043   4.513   2.652   1.978 -0.8929 -1.5117 -0.0503
 5527SOL    HW228044   4.472   2.766   1.900  0.5422 -0.0119  1.4202
 5528SOL     OW28045   3.435   0.439   3.158  0.2620 -0.1420 -0.1638
 5528SOL    HW128046   3.389   0.355   3.149 -1.4650  1.0266 -2.2744
 5528SOL    HW228047   3.513   0.416   3.108  1.5288 -0.5835  2.0428
 5529SOL     OW28048   1.837   3.104   8.284 -0.2190  0.3239 -0.2233
 5529SOL    HW128049   1.862   3.098   8.376  0.4190  0.2076 -0.4020
 5529SOL    HW228050   1.905   3.060   8.233  0.3231  0.7478  0.1409
 5530SOL     OW28051   4.217   1.300   9.399 -0.1867  0.0413 -0.6552
 5530SOL    HW128052   4.265   1.379   9.372  1.5916 -0.3484  1.3754
 5530SOL    HW228053   4.203   1.259   9.314 -2.2741 -0.9602  0.1831
 5531SOL     OW28054   3.592   0.908   8.235 -0.3568  0.0462 -0.5793
 5531SOL    HW128055   3.670   0.873   8.280 -1.5454 -0.1006  1.3816
 5531SOL    HW228056   3.615   0.890   8.144 -1.4953  0.7988 -1.0114
 5532SOL     OW28057   0.383   4.069  11.312  0.2063 -0.0078  0.4038
 5532SOL    HW128058   0.303   4.096  11.266 -0.3057  0.4641  1.5655
 5532SOL    HW228059   0.370   3.977  11.337  1.3039 -0.6956 -1.5521
 5533SOL     OW28060   3.885   0.351   4.849  0.6752 -0.1031  0.3377
 5533SOL    HW128061   3.980   0.357   4.862  0.7052 -0.1757  0.1609
 5533SOL    HW228062   3.868   0.264   4.884  1.7490 -0.4059  0.1073
 5534SOL     OW28063   0.515   2.506   6.504  0.0101 -0.1874 -0.0803
 5534SOL    HW128064   0.563   2.514   6.587 -1.3473 -0.4319  0.7247
 5534SOL    HW228065   0.565   2.431   6.471  0.3168  1.0409 -2.4081
 5535SOL     OW28066   0.151   3.320   7.743  0.3255 -0.2973  0.4949
 5535SOL    HW128067   0.224   3.379   7.724 -0.3975 -0.5175 -2.9401
 5535SOL    HW228068   0.077   3.381   7.749  1.0818  0.6662  0.0020
 5536SOL     OW28069   2.668   0.270  15.697  0.4198  0.0551  0.1613
 5536SOL    HW128070   2.623   0.340  15.650  2.6185  2.1706  1.2244
 5536SOL    HW228071   2.618   0.196  15.661  1.1698 -0.2901 -0.1795
 5537SOL     OW28072   1.638   1.851   2.272  0.1244 -0.2075  0.2090
 5537SOL    HW128073   1.654   1.945   2.278 -1.6238  0.0259  1.1646
 5537SOL    HW228074   1.632   1.831   2.179  1.3977 -1.2392  0.3452
 5538SOL     OW28075   3.936   3.640   4.355 -0.1254 -0.6429 -0.3796
 5538SOL    HW128076   3.846   3.615   4.335  0.0562 -0.3641 -1.5848
 5538SOL    HW228077   3.987   3.565   4.323  1.0607 -1.1865  2.7846
 5539SOL     OW28078   2.283   4.448   6.407  0.2644  0.2966 -0.1225
 5539SOL    HW128079   2.294   4.361   6.447  1.2123  0.0949 -0.8138
 5539SOL    HW228080   2.309   4.505   6.479  0.8626 -0.1457  0.0081
 5540SOL     OW28081   3.411   3.929   9.117 -0.0130  0.3858  0.0097
 5540SOL    HW128082   3.451   3.908   9.202  0.9733  0.2648 -0.4786
 5540SOL    HW228083   3.467   3.884   9.053 -0.5208  0.1602 -0.2728
 5541SOL     OW28084   0.673   0.843   5.040 -0.3901 -0.1915  0.0471
 5541SOL    HW128085   0.608   0.812   4.977  0.1001 -1.8381  0.3605
 5541SOL    HW228086   0.622   0.894   5.103 -0.2388 -0.2765  0.2390
 5542SOL     OW28087   3.331   1.536  11.423 -0.4217  0.1810 -0.3123
 5542SOL    HW128088   3.279   1.471  11.375  1.1614  0.0678 -1.8868
 5542SOL    HW228089   3.403   1.539  11.360  0.9743  2.4613  1.3913
 5543SOL     OW28090   0.606   3.735  15.082 -0.6610  0.2790  0.0188
 5543SOL    HW128091   0.522   3.781  15.077 -0.4321  0.8428  1.1715
 5543SOL    HW228092   0.658   3.776  15.013  0.9733  0.0584  1.1273
 5544SOL     OW28093   1.280   2.415   5.823  0.8032 -0.2063 -0.2661
 5544SOL    HW128094   1.335   2.440   5.749  0.0097 -1.5238 -1.2931
 5544SOL    HW228095   1.340   2.348   5.856  2.7844  1.3050 -0.8130
 5545SOL     OW28096   2.499   3.343   3.114  0.4305 -0.5670  0.4676
 5545SOL    HW128097   2.570   3.400   3.085 -1.5155  0.3757 -2.5499
 5545SOL    HW228098   2.432   3.374   3.052 -0.2910 -0.5688  1.2540
 5546SOL     OW28099   1.250   2.042   5.784 -0.1492  0.1356  0.0101
 5546SOL    HW128100   1.304   1.966   5.760  1.8595  1.4587  0.2965
 5546SOL    HW228101   1.321   2.087   5.831  1.0643 -0.6132 -1.0764
 5547SOL     OW28102   2.341   3.719  15.272 -0.0854  0.3862 -0.6281
 5547SOL    HW128103   2.421   3.771  15.271 -0.6263  1.2274 -0.6886
 5547SOL    HW228104   2.367   3.650  15.332  2.1507  1.2678 -0.5699
 5548SOL     OW28105   1.356   4.669   4.253 -0.2692  0.0104  0.0017
 5548SOL    HW128106   1.445   4.702   4.260 -0.3926  0.5887 -1.2715
 5548SOL    HW228107   1.334   4.644   4.163 -0.8663 -1.2675  0.4847
 5549SOL     OW28108   3.062   1.833   1.791 -0.3111  0.4336 -0.8782
 5549SOL    HW128109   3.044   1.844   1.884  0.0111  0.7893 -0.8570
 5549SOL    HW228110   2.970   1.834   1.766 -0.0702  3.2628 -1.7080
 5550SOL     OW28111   4.245   0.587  11.798  0.5033  0.0744  0.0736
 5550SOL    HW128112   4.253   0.681  11.783  0.9466 -0.3883 -2.4888
 5550SOL    HW228113   4.306   0.549  11.734  1.6721  2.3582 -0.1648
 5551SOL     OW28114   4.338   1.497   8.197 -0.1305  0.5731 -0.2648
 5551SOL    HW128115   4.384   1.568   8.243  1.1197 -0.2329 -0.2757
 5551SOL    HW228116   4.402   1.427   8.195 -0.0131  0.6788 -0.2105
 5552SOL     OW28117   2.381   2.854   4.886  0.3019 -0.3790  0.2075
 5552SOL    HW128118   2.291   2.830   4.869  0.0806  1.3991 -1.1020
 5552SOL    HW228119   2.430   2.794   4.830  0.4596  0.2869 -0.3595
 5553SOL     OW28120   0.087   3.032   9.369 -0.0602 -0.0044 -0.0267
 5553SOL    HW128121   0.014   3.042   9.431  0.5509  1.5155  0.4509
 5553SOL    HW228122   0.144   2.975   9.421  0.7951  0.2902 -0.6536
 5554SOL     OW28123   3.478   2.020  10.994 -0.4414 -0.0497 -0.2460
 5554SOL    HW128124   3.494   2.108  10.961 -0.1063 -0.0191  0.0001
 5554SOL    HW228125   3.480   2.042  11.087 -0.6160  0.2231 -0.3070
 5555SOL     OW28126   0.428   4.669   2.082  0.1588  0.9676 -0.0257
 5555SOL    HW128127   0.405   4.716   2.002  1.9400 -0.9994 -1.6999
 5555SOL    HW228128   0.352   4.696   2.133 -0.5099  0.6672 -0.8518
 5556SOL     OW28129   1.185   2.381   8.831  0.0453 -0.0586 -0.0257
 5556SOL    HW128130   1.156   2.438   8.760 -1.5625 -1.5448 -0.5442
 5556SOL    HW228131   1.161   2.297   8.791 -0.3279  0.0902 -0.1056
 5557SOL     OW28132   0.423   2.969   8.443 -0.3241  0.1694  0.4062
 5557SOL    HW128133   0.420   2.874   8.452 -3.9484  0.2642  0.2057
 5557SOL    HW228134   0.496   2.997   8.498  0.1156 -0.6337  0.2173
 5558SOL     OW28135   1.948   2.781  13.838  0.1372  0.0438  0.4348
 5558SOL    HW128136   1.918   2.690  13.832 -0.1224  0.1183  0.5881
 5558SOL    HW228137   1.892   2.827  13.777 -1.9295 -2.8865  0.1127
 5559SOL     OW28138   4.458   0.937  17.664  0.4756  0.4328 -0.0628
 5559SOL    HW128139   4.428   1.016  17.620 -0.4425 -0.2106 -0.5971
 5559SOL    HW228140   4.407   0.934   0.043  0.1117 -4.3722 -0.4644
 5560SOL     OW28141   3.053   1.488   5.142  0.0697 -0.1764 -0.1448
 5560SOL    HW128142   3.042   1.541   5.064  2.9695 -1.1461 -1.2218
 5560SOL    HW228143   2.992   1.533   5.200  2.1012  1.3604  0.8260
 5561SOL     OW28144   1.483   2.035  11.171  0.1114 -0.4192 -0.4005
 5561SOL    HW128145   1.547   2.101  11.143 -1.6109  1.6889  0.6215
 5561SOL    HW228146   1.529   2.000  11.247  1.1113  0.9364 -0.3709
 5562SOL     OW28147   0.018   0.349  13.050  0.3278  0.0650  0.4917
 5562SOL    HW128148   4.699   0.390  13.124 -3.3629 -3.1166  0.0497
 5562SOL    HW228149   0.096   0.404  13.039 -0.3430  0.9438  0.0718
 5563SOL     OW28150   1.672   2.119  13.582  0.1115  0.1687  0.0225
 5563SOL    HW128151   1.578   2.133  13.596  0.5297  0.5086  2.5171
 5563SOL    HW228152   1.666   2.070  13.501 -3.2064  0.8679 -0.1810
 5564SOL     OW28153   0.459   0.290   4.546 -0.0403 -0.2215  0.2899
 5564SOL    HW128154   0.454   0.195   4.542 -0.4214 -0.1690 -0.5959
 5564SOL    HW228155   0.365   0.305   4.537  0.2902 -0.4370 -3.7812
 5565SOL     OW28156   3.979   1.352   7.085 -0.4088 -0.3358 -0.3190
 5565SOL    HW128157   3.886   1.374   7.080 -0.1253  1.5981  3.3068
 5565SOL    HW228158   3.976   1.345   7.180 -0.0508 -1.9670 -0.4246
 5566SOL     OW28159   3.356   1.423   3.268 -0.1412  0.0311 -0.1381
 5566SOL    HW128160   3.323   1.434   3.358 -0.3666  0.1715 -0.2364
 5566SOL    HW228161   3.377   1.330   3.271 -0.3188 -0.0115 -0.1984
 5567SOL     OW28162   4.080   0.609   6.067  0.3371 -0.4862 -0.0054
 5567SOL    HW128163   4.016   0.596   5.997 -1.0599 -0.0454  1.1869
 5567SOL    HW228164   4.160   0.567   6.036  2.8598  2.3264  2.5791
 5568SOL     OW28165   2.582   3.555  15.377  0.3725 -0.0502 -0.3687
 5568SOL    HW128166   2.584   3.466  15.342 -0.8633 -0.2174  0.0078
 5568SOL    HW228167   2.636   3.550  15.456  0.3723  1.0970 -0.3041
 5569SOL     OW28168   1.341   3.362   1.734 -0.0882 -0.4167  0.2686
 5569SOL    HW128169   1.300   3.364   1.821 -2.1508 -1.5357 -0.6847
 5569SOL    HW228170   1.397   3.285   1.740  0.2280 -0.2802 -1.0481
 5570SOL     OW28171   2.213   2.704   9.560 -0.2767  0.4793  0.3315
 5570SOL    HW128172   2.175   2.711   9.648  2.3219  0.4678  1.4695
 5570SOL    HW228173   2.228   2.609   9.561 -0.3125  0.4519 -2.0758
 5571SOL     OW28174   3.750   0.361  14.815 -0.2795  0.2941  0.3660
 5571SOL    HW128175   3.724   0.269  14.824 -1.9143  0.5041 -2.0980
 5571SOL    HW228176   3.660   0.392  14.820 -1.3748 -2.4171 -1.9322
 5572SOL     OW28177   2.652   3.815   9.875  0.3035 -0.3551 -0.2154
 5572SOL    HW128178   2.655   3.773   9.961 -0.7290 -1.2873 -0.6429
 5572SOL    HW228179   2.623   3.904   9.893  2.1114 -0.1280  1.6641
 5573SOL     OW28180   1.670   2.889   0.718 -0.1785 -0.5841  0.1703
 5573SOL    HW128181   1.701   2.968   0.675 -1.3507  0.5659  1.4461
 5573SOL    HW228182   1.742   2.827   0.706  0.5179  0.4359 -0.8501
 5574SOL     OW28183   1.087   1.055  13.213  0.4245 -0.2152  0.5454
 5574SOL    HW128184   1.010   1.018  13.171  0.3539  0.5035  0.0476
 5574SOL    HW228185   1.153   1.013  13.158 -0.5107  1.4718 -1.8770
 5575SOL     OW28186   2.479   3.490  10.177 -0.2528 -0.0335  0.2619
 5575SOL    HW128187   2.480   3.415  10.117  0.3681 -1.2863  1.8411
 5575SOL    HW228188   2.405   3.483  10.236 -1.1161  3.1583 -0.4387
 5576SOL     OW28189   2.571   3.406   2.603 -0.1883 -0.0108 -0.1673
 5576SOL    HW128190   2.482   3.435   2.581  0.4265 -0.3316 -3.1471
 5576SOL    HW228191   2.579   3.323   2.554  0.8274  1.0733 -1.8326
 5577SOL     OW28192   4.485   2.443   5.300  0.0414 -0.2036 -0.2785
 5577SOL    HW128193   4.390   2.442   5.288  0.1179 -0.0938 -0.9088
 5577SOL    HW228194   4.497   2.352   5.325 -0.7740 -0.6545 -1.4689
 5578SOL     OW28195   1.270   3.731  10.951 -0.0140  0.3018 -0.3934
 5578SOL    HW128196   1.294   3.643  10.978 -2.4263 -0.9500 -2.3994
 5578SOL    HW228197   1.345   3.758  10.899  0.6939 -0.2128  0.3629
 5579SOL     OW28198   1.602   4.451  16.988 -0.0276  0.1824  0.0605
 5579SOL    HW128199   1.609   4.520  16.923 -0.0670 -0.6153 -0.7793
 5579SOL    HW228200   1.682   4.399  16.979  0.1394 -0.0475  2.8140
 5580SOL     OW28201   0.789   1.735   6.201  0.1931 -0.1797  0.1994
 5580SOL    HW128202   0.777   1.640   6.199  2.4778 -0.4732  1.5867
 5580SOL    HW228203   0.809   1.744   6.108 -0.0182 -0.3299  0.1407
 5581SOL     OW28204   3.706   3.185   2.993  0.0250  0.4187 -0.0897
 5581SOL    HW128205   3.770   3.162   2.925 -0.4246 -0.5407 -0.1928
 5581SOL    HW228206   3.761   3.200   3.070  1.3040  0.3850 -0.9957
 5582SOL     OW28207   3.980   4.116   7.133  0.1537 -0.2286  0.2444
 5582SOL    HW128208   4.076   4.113   7.127  0.2815 -2.0593  3.0977
 5582SOL    HW228209   3.953   4.034   7.092  2.4430 -0.2794 -1.1798
 5583SOL     OW28210   1.817   2.075  14.979  0.2131  0.2294 -0.4605
 5583SOL    HW128211   1.850   2.136  14.913 -2.6603  0.3061 -1.8095
 5583SOL    HW228212   1.727   2.049  14.959 -0.3142  1.6386  0.0827
 5584SOL     OW28213   3.361   4.062   3.653 -0.4861 -0.1836  0.3386
 5584SOL    HW128214   3.284   4.086   3.705  0.8049  1.7682  1.3617
 5584SOL    HW228215   3.336   4.043   3.563 -0.6651  2.5151 -0.1748
 5585SOL     OW28216   0.881   3.586   0.716 -0.2490  0.3926 -0.1841
 5585SOL    HW128217   0.886   3.679   0.737  1.0595  0.8172 -2.4029
 5585SOL    HW228218   0.969   3.550   0.726 -0.5273 -0.1758  0.2364
 5586SOL     OW28219   4.189   3.865   2.973  0.0813  0.4891  0.2693
 5586SOL    HW128220   4.229   3.937   2.925  1.1114 -1.0978 -1.2600
 5586SOL    HW228221   4.263   3.804   2.982  0.0541 -0.0110 -2.8803
 5587SOL     OW28222   3.005   0.531   8.610 -0.0346  0.2196 -0.1380
 5587SOL    HW128223   3.051   0.584   8.675 -0.9362  1.4318 -0.4872
 5587SOL    HW228224   2.947   0.604   8.589  0.1949  0.8054  1.2652
 5588SOL     OW28225   0.948   2.786   2.032  0.0725  0.2182 -0.0866
 5588SOL    HW128226   1.002   2.827   2.099  1.6456  1.1217 -1.9025
 5588SOL    HW228227   0.979   2.695   2.033  0.9343  0.5038 -0.4764
 5589SOL     OW28228   1.013   2.988   6.171 -0.2070 -0.1558 -0.4090
 5589SOL    HW128229   0.964   2.909   6.194 -0.8276  0.4543  0.3902
 5589SOL    HW228230   1.004   2.987   6.076  2.6323 -1.1755 -0.6586
 5590SOL     OW28231   4.037   4.420   7.819  0.2747  0.0637 -0.0963
 5590SOL    HW128232   4.104   4.423   7.888  0.0193  1.0904  0.1111
 5590SOL    HW228233   4.001   4.333   7.836 -0.0687  0.4272  1.0343
 5591SOL     OW28234   3.324   2.726   2.735 -0.5150  0.1636 -0.2344
 5591SOL    HW128235   3.228   2.725   2.738 -0.5661  1.4843 -1.3873
 5591SOL    HW228236   3.341   2.745   2.643 -0.4047 -2.2017 -0.6999
 5592SOL     OW28237   1.128   0.527  12.596  0.1169  0.3484  0.2732
 5592SOL    HW128238   1.042   0.497  12.565  0.4998  0.7531 -1.2028
 5592SOL    HW228239   1.101   0.550  12.685  0.7857  0.5520  0.4195
 5593SOL     OW28240   2.209   4.330   8.914 -0.0074  0.0383 -0.3309
 5593SOL    HW128241   2.132   4.319   8.970 -1.2171  0.0624 -1.9896
 5593SOL    HW228242   2.171   4.387   8.847  0.5668  2.5046  1.4462
 5594SOL     OW28243   3.545   1.035   5.212  0.3758  0.9461 -0.0527
 5594SOL    HW128244   3.583   1.114   5.252 -0.2545  1.1396  0.1727
 5594SOL    HW228245   3.452   1.047   5.234 -0.0955 -0.9294 -1.0522
 5595SOL     OW28246   0.803   0.013   1.556  0.0824 -0.0534  0.5022
 5595SOL    HW128247   0.847   0.019   1.471 -2.5408 -2.2770 -1.0273
 5595SOL    HW228248   0.872   0.034   1.619  1.4282  1.6095 -1.5535
 5596SOL     OW28249   4.286   2.033   5.923 -0.2146 -0.9228  0.9740
 5596SOL    HW128250   4.265   1.942   5.948  0.4719 -1.4061 -0.2164
 5596SOL    HW228251   4.254   2.071   6.005  1.4713 -1.9182  2.0990
 5597SOL     OW28252   4.587   3.517  12.610  0.2100  0.3341  0.1625
 5597SOL    HW128253   4.643   3.594  12.605 -0.8796  0.9831 -1.9500
 5597SOL    HW228254   4.509   3.545  12.561 -1.7730 -3.0417  1.3766
 5598SOL     OW28255   0.242   1.733   9.880  0.9126  0.6066 -0.1666
 5598SOL    HW128256   0.260   1.690   9.964  0.0438  1.2674  0.3543
 5598SOL    HW228257   0.221   1.820   9.915 -2.9370  0.0102 -1.0535
 5599SOL     OW28258   0.196   0.830   5.311  0.0818 -0.1718 -0.3102
 5599SOL    HW128259   0.270   0.769   5.311  0.1820 -0.0546  0.0393
 5599SOL    HW228260   0.136   0.776   5.260  0.1304 -1.0641  0.5634
 5600SOL     OW28261   1.673   3.876   7.388  0.1535  0.1512 -0.1403
 5600SOL    HW128262   1.706   3.826   7.462 -1.8700 -1.8697 -0.6256
 5600SOL    HW228263   1.708   3.830   7.312 -2.4841  1.0094 -1.8733
 5601SOL     OW28264   3.799   0.926  13.125 -0.2970  0.1991 -0.6532
 5601SOL    HW128265   3.715   0.965  13.150 -0.8097 -0.7306 -0.9262
 5601SOL    HW228266   3.779   0.912  13.032 -1.0328  0.4118 -0.5307
 5602SOL     OW28267   0.672   0.339   4.417 -0.0654 -0.1551 -0.3376
 5602SOL    HW128268   0.583   0.330   4.451 -0.5557  0.6593 -1.4055
 5602SOL    HW228269   0.726   0.279   4.469  1.0197 -0.7337 -2.1182
 5603SOL     OW28270   0.523   4.291   9.556 -0.8639 -0.1169  0.1170
 5603SOL    HW128271   0.429   4.292   9.575 -0.6509  0.1971  1.1540
 5603SOL    HW228272   0.524   4.278   9.461 -1.1396 -0.0906  0.1097
 5604SOL     OW28273   4.411   1.971   8.277  0.5800  0.4102 -0.0774
 5604SOL    HW128274   4.406   1.954   8.183  1.7577  2.0064 -0.4235
 5604SOL    HW228275   4.501   1.997   8.295  0.6721  0.1214 -0.1075
 5605SOL     OW28276   1.709   1.747   6.062 -0.3286 -0.3129 -0.0428
 5605SOL    HW128277   1.673   1.684   6.124 -0.9500  0.0581 -0.0201
 5605SOL    HW228278   1.691   1.830   6.106 -1.3546 -1.7057  2.1253
 5606SOL     OW28279   4.080   3.633   4.619 -0.1220  0.2226 -0.4050
 5606SOL    HW128280   4.141   3.702   4.594 -0.2268  1.1701  1.9896
 5606SOL    HW228281   4.023   3.644   4.543 -0.3649  1.7208  0.0016
 5607SOL     OW28282   3.491   3.590   7.877  0.3228  0.2662 -0.5744
 5607SOL    HW128283   3.474   3.619   7.966 -0.6886 -2.7046  0.2127
 5607SOL    HW228284   3.556   3.653   7.847 -0.4059  1.7506  0.9542
 5608SOL     OW28285   0.819   3.662   9.606  0.4973  0.1671  0.1398
 5608SOL    HW128286   0.787   3.591   9.551 -0.9486  1.2036 -0.3692
 5608SOL    HW228287   0.823   3.629   9.696  0.4328  1.6345  0.6827
 5609SOL     OW28288   2.358   1.532  11.311  0.8853 -0.1243  0.0330
 5609SOL    HW128289   2.409   1.544  11.231  0.8229 -0.9852 -0.1331
 5609SOL    HW228290   2.311   1.615  11.314 -0.4811 -0.9797  2.9876
 5610SOL     OW28291   0.568   4.401   0.177 -0.6904  0.3771 -0.4205
 5610SOL    HW128292   0.510   4.362   0.111  1.2900 -0.6475 -1.5689
 5610SOL    HW228293   0.643   4.427   0.123  0.8575 -1.1681  0.9508
 5611SOL     OW28294   2.576   2.011  16.894  0.0085 -0.0504  0.3363
 5611SOL    HW128295   2.528   1.994  16.813  0.7729  3.3672 -0.8618
 5611SOL    HW228296   2.541   2.099  16.906  1.0676  0.1208  2.1003
 5612SOL     OW28297   2.274   4.406  15.945 -0.1336  0.1812  0.3762
 5612SOL    HW128298   2.257   4.473  15.879 -2.1651 -0.8061 -0.0852
 5612SOL    HW228299   2.186   4.395  15.980  0.0670 -1.4761  0.3680
 5613SOL     OW28300   4.601   3.592   3.253 -0.2254 -0.1131  0.4682
 5613SOL    HW128301   4.538   3.536   3.207 -0.3205  2.1504 -2.2021
 5613SOL    HW228302   4.627   3.541   3.329 -2.1297 -1.4245  0.2393
 5614SOL     OW28303   0.320   2.520   6.795  0.3224  0.1168  0.2953
 5614SOL    HW128304   0.410   2.495   6.814  0.3246 -1.1499 -1.3718
 5614SOL    HW228305   0.332   2.588   6.728  0.5471  1.0944  1.3198
 5615SOL     OW28306   3.077   0.057   7.747  0.2487  0.2263 -0.0494
 5615SOL    HW128307   3.109   0.021   7.829  0.8822  0.9129  0.0072
 5615SOL    HW228308   2.996   0.006   7.740  0.0309  0.7596 -1.5245
 5616SOL     OW28309   3.810   4.005   9.650  0.1761  0.1015 -0.3864
 5616SOL    HW128310   3.830   3.914   9.674 -0.6125  0.6486  2.3003
 5616SOL    HW228311   3.786   3.993   9.558 -0.9458 -1.8795  0.1578
 5617SOL     OW28312   2.319   4.452   1.739  0.2863  0.3034 -0.1619
 5617SOL    HW128313   2.399   4.463   1.791 -2.0811  1.6777  3.2373
 5617SOL    HW228314   2.355   4.402   1.666  0.3291  0.3673 -0.1841
 5618SOL     OW28315   3.515   2.527  13.141 -0.2486 -0.1290 -0.7389
 5618SOL    HW128316   3.496   2.471  13.066 -0.8551 -2.1976  0.9684
 5618SOL    HW228317   3.521   2.459  13.208 -1.6701 -0.1794 -0.6661
 5619SOL     OW28318   2.834   2.028   8.110  0.0497 -0.2400 -0.0302
 5619SOL    HW128319   2.930   2.019   8.112  0.1729  1.3589  1.4960
 5619SOL    HW228320   2.829   2.104   8.052  1.3945 -0.3167 -0.2482
 5620SOL     OW28321   0.081   3.671  16.407 -0.3202  0.0572  0.6074
 5620SOL    HW128322   0.150   3.655  16.472 -0.0127  1.9470  0.7651
 5620SOL    HW228323   0.057   3.583  16.380 -0.0362 -0.1603  1.0617
 5621SOL     OW28324   4.371   1.920  12.377 -0.0946  0.2155  0.4458
 5621SOL    HW128325   4.328   1.892  12.457 -2.0094  3.0741  0.3920
 5621SOL    HW228326   4.358   1.846  12.317 -1.1510  0.4922  0.3422
 5622SOL     OW28327   1.132   1.757   9.922 -0.2762  0.4500  0.0403
 5622SOL    HW128328   1.081   1.836   9.937 -1.9835 -0.4277 -1.0239
 5622SOL    HW228329   1.204   1.763   9.984 -0.1935  1.9823 -0.2049
 5623SOL     OW28330   1.287   3.968   6.845  0.0411  0.0772  0.1028
 5623SOL    HW128331   1.232   3.890   6.845 -0.8722  0.7263 -0.0992
 5623SOL    HW228332   1.222   4.026   6.806 -1.0789  0.0128  1.8481
 5624SOL     OW28333   3.232   1.324   5.271  0.5361  0.1304 -0.4605
 5624SOL    HW128334   3.166   1.387   5.243 -1.6166 -1.5200  0.8574
 5624SOL    HW228335   3.313   1.374   5.264 -0.2024  1.9338  3.9076
 5625SOL     OW28336   2.213   3.110   6.003  0.4397  0.4694 -0.1881
 5625SOL    HW128337   2.216   3.017   6.024 -0.1090  0.0936 -1.7850
 5625SOL    HW228338   2.287   3.146   6.051  0.5385 -0.6211  0.4848
 5626SOL     OW28339   4.282   0.564   8.455 -0.3790 -0.7480  0.0052
 5626SOL    HW128340   4.344   0.574   8.382 -1.8167 -2.3118 -1.4401
 5626SOL    HW228341   4.314   0.492   8.510  0.2576 -3.2278 -3.5487
 5627SOL     OW28342   3.273   2.297   3.639  0.5599 -0.7585 -0.1074
 5627SOL    HW128343   3.219   2.377   3.640  0.3381 -0.8934 -1.5154
 5627SOL    HW228344   3.216   2.254   3.702  1.4451 -0.4316  0.9146
 5628SOL     OW28345   1.201   3.374   7.027  0.0242 -0.1647 -0.5703
 5628SOL    HW128346   1.258   3.337   7.094 -1.0162 -2.4752 -0.9699
 5628SOL    HW228347   1.261   3.413   6.963  0.9680 -2.5062 -1.1037
 5629SOL     OW28348   3.464   3.111   6.242 -0.6933  0.0814  0.1263
 5629SOL    HW128349   3.416   3.077   6.167  1.4103  0.1239 -1.2295
 5629SOL    HW228350   3.522   3.169   6.193  1.7285 -1.2298  1.4664
 5630SOL     OW28351   1.956   3.706   3.344  0.5644  0.4026 -0.2628
 5630SOL    HW128352   1.878   3.681   3.294 -1.4746  0.6463  2.8181
 5630SOL    HW228353   2.006   3.746   3.272  2.7808  0.9583  1.5803
 5631SOL     OW28354   3.149   0.282   0.682 -0.3280  0.0578 -0.2421
 5631SOL    HW128355   3.164   0.377   0.681 -0.4831  0.1029  1.3396
 5631SOL    HW228356   3.100   0.260   0.603 -3.1023 -1.4900  1.9161
 5632SOL     OW28357   4.248   3.320   3.245  0.3929 -0.1785  0.3776
 5632SOL    HW128358   4.316   3.353   3.187 -0.6258 -0.4108 -0.9432
 5632SOL    HW228359   4.176   3.299   3.185  1.1894 -0.6757 -0.3992
 5633SOL     OW28360   1.520   0.214  12.398 -0.3477  0.8419  0.3133
 5633SOL    HW128361   1.478   0.234  12.481  0.1883  0.2161  0.7328
 5633SOL    HW228362   1.547   0.292  12.349  1.5513  0.6272  1.0166
 5634SOL     OW28363   1.171   1.626   4.680 -0.2295  0.3484  0.3772
 5634SOL    HW128364   1.265   1.641   4.671 -0.8088  2.6851 -1.6658
 5634SOL    HW228365   1.158   1.572   4.758 -2.4886  0.5790  0.1585
 5635SOL     OW28366   3.107   3.667  14.311  0.3471 -0.1317 -0.0110
 5635SOL    HW128367   3.151   3.624  14.238  1.6145 -1.8708  1.7720
 5635SOL    HW228368   3.161   3.745  14.327 -0.1376  0.6392 -2.0942
 5636SOL     OW28369   3.951   2.229   7.584 -0.3338  0.0625  0.0666
 5636SOL    HW128370   3.901   2.233   7.666 -1.0163  1.3598 -0.4092
 5636SOL    HW228371   3.977   2.320   7.571 -0.0388 -0.3384 -2.1535
 5637SOL     OW28372   3.153   2.336   4.459  0.1084 -0.8880 -0.1100
 5637SOL    HW128373   3.211   2.375   4.394  0.0634 -1.9453 -0.7805
 5637SOL    HW228374   3.201   2.349   4.541 -0.9727  1.1432  0.2096
 5638SOL     OW28375   3.992   4.654   1.671 -0.1514 -0.6201 -0.1320
 5638SOL    HW128376   4.000   4.559   1.662 -1.8856 -0.6087 -1.8971
 5638SOL    HW228377   4.084   4.675   1.685 -1.0902  1.4320  3.0285
 5639SOL     OW28378   3.454   1.561  12.671 -0.0078  0.1892  0.2892
 5639SOL    HW128379   3.405   1.595  12.745  1.0521  2.1947  0.0760
 5639SOL    HW228380   3.421   1.471  12.671 -1.3634  0.6926 -3.4267
 5640SOL     OW28381   3.618   2.825   2.854  0.3055  0.2086  0.5311
 5640SOL    HW128382   3.686   2.792   2.794 -0.0613  1.5137 -0.6148
 5640SOL    HW228383   3.599   2.908   2.811 -1.4434 -1.3483 -1.7421
 5641SOL     OW28384   0.729   4.574   7.846  0.2926 -0.3284 -0.1879
 5641SOL    HW128385   0.809   4.533   7.876 -1.1850 -3.8166 -1.0129
 5641SOL    HW228386   0.727   4.558   7.751 -1.1157 -0.4744 -0.1367
 5642SOL     OW28387   0.079   0.375  10.516 -0.1636 -1.2028  0.3157
 5642SOL    HW128388   0.021   0.343  10.586 -3.0351  0.0290 -1.4992
 5642SOL    HW228389   0.165   0.338  10.536 -0.0586 -2.0579 -1.6873
 5643SOL     OW28390   3.552   1.623   6.956  0.4491  0.4678 -0.1535
 5643SOL    HW128391   3.528   1.712   6.982  0.0026  0.1527  0.5183
 5643SOL    HW228392   3.469   1.584   6.926 -0.6895  3.5264 -0.9050
 5644SOL     OW28393   3.514   2.101   7.309  0.8505 -0.5201  0.0625
 5644SOL    HW128394   3.452   2.117   7.237  2.1026 -1.9366 -1.3176
 5644SOL    HW228395   3.596   2.094   7.260  0.0229  0.5293 -1.4730
 5645SOL     OW28396   2.198   0.645   1.849 -0.8072 -0.1865  0.2175
 5645SOL    HW128397   2.262   0.662   1.780  1.1108  0.7593  2.2069
 5645SOL    HW228398   2.225   0.559   1.882  0.0168 -0.0589 -0.1280
 5646SOL     OW28399   4.119   3.118   1.453  0.5082 -0.0661 -0.0337
 5646SOL    HW128400   4.044   3.152   1.501 -0.5486 -2.6024  0.1025
 5646SOL    HW228401   4.122   3.174   1.376  0.6394  1.0342  0.7753
 5647SOL     OW28402   0.180   4.608   3.915 -0.8156 -0.3638  0.4322
 5647SOL    HW128403   0.223   4.524   3.930  1.1338  0.4415 -0.6077
 5647SOL    HW228404   0.253   4.657   3.876  0.7070 -0.6781  2.8830
 5648SOL     OW28405   1.876   0.204   4.523 -0.3456  0.0197  0.1982
 5648SOL    HW128406   1.840   0.177   4.608  3.6980  2.1855  2.6290
 5648SOL    HW228407   1.809   0.258   4.482 -0.6311  0.3940  1.1438
 5649SOL     OW28408   1.771   3.027   7.492  0.2289  0.1921 -0.1987
 5649SOL    HW128409   1.788   3.071   7.409 -0.7008  2.3946  0.7690
 5649SOL    HW228410   1.708   3.085   7.536 -2.2292 -1.8995 -0.9211
 5650SOL     OW28411   3.687   0.194  15.085  0.2795 -0.2466  0.2625
 5650SOL    HW128412   3.780   0.207  15.063 -0.0354  0.1471 -0.8613
 5650SOL    HW228413   3.664   0.280  15.121 -1.0358 -0.0752 -0.9860
 5651SOL     OW28414   4.558   2.830   5.920 -0.9603 -0.0955  0.3466
 5651SOL    HW128415   4.585   2.738   5.927 -0.9482 -0.1398 -0.2449
 5651SOL    HW228416   4.530   2.836   5.828 -0.5956 -1.2944  0.1585
 5652SOL     OW28417   2.595   1.989   9.100 -0.1691  0.2717  0.5962
 5652SOL    HW128418   2.606   1.985   9.005  1.3244 -0.4845  0.8037
 5652SOL    HW228419   2.524   2.054   9.103  1.4625  1.9417  2.4996
 5653SOL     OW28420   4.128   2.481  17.636 -0.4111 -0.1166  0.0896
 5653SOL    HW128421   4.106   2.417   0.002  1.1985 -0.0176  0.7201
 5653SOL    HW228422   4.043   2.509  17.603  0.9951  2.8403 -1.0281
 5654SOL     OW28423   4.437   2.181   5.420  0.1775  0.2385 -0.0632
 5654SOL    HW128424   4.505   2.116   5.401  2.5763  2.5364  0.6151
 5654SOL    HW228425   4.374   2.165   5.350 -0.4192  2.1178  0.0439
 5655SOL     OW28426   3.049   1.954   0.715  0.4683 -0.1979 -0.0968
 5655SOL    HW128427   3.062   1.867   0.677  1.3993  0.5880 -1.5666
 5655SOL    HW228428   3.074   1.945   0.807  0.2335  1.6556  0.1480
 5656SOL     OW28429   2.755   2.737   3.264  0.0993  0.6950 -0.1736
 5656SOL    HW128430   2.752   2.739   3.169  0.3141  2.7747 -0.1357
 5656SOL    HW228431   2.713   2.653   3.285 -1.5873  1.3730 -0.8099
 5657SOL     OW28432   1.491   2.184   3.008  0.3267 -0.1614  0.7761
 5657SOL    HW128433   1.567   2.227   2.968 -1.9378  2.1910 -1.0392
 5657SOL    HW228434   1.418   2.210   2.952  1.6492 -0.0467 -0.9380
 5658SOL     OW28435   1.616   4.603   5.626 -0.0335 -0.4326 -0.1614
 5658SOL    HW128436   1.553   4.672   5.644  0.1351 -0.3986  0.3267
 5658SOL    HW228437   1.689   4.654   5.592  0.7593 -1.7875 -0.5283
 5659SOL     OW28438   1.561   1.394   5.607 -0.0061 -0.5112  0.4180
 5659SOL    HW128439   1.522   1.474   5.572  0.9147 -0.7718 -1.1974
 5659SOL    HW228440   1.515   1.382   5.691  1.7782 -1.4885  1.2555
 5660SOL     OW28441   1.732   0.390  11.559 -0.0847  0.0959 -0.4973
 5660SOL    HW128442   1.771   0.322  11.614  0.5272  0.3588 -0.6009
 5660SOL    HW228443   1.804   0.437  11.516  0.3783 -0.6271 -0.5127
 5661SOL     OW28444   4.710   1.050  14.125  0.2950 -0.6357  0.2168
 5661SOL    HW128445   4.662   1.132  14.134  0.3107 -0.5578 -0.3617
 5661SOL    HW228446   4.641   0.984  14.129  0.3188 -0.8433 -2.8240
 5662SOL     OW28447   2.809   0.730   8.551 -0.0350 -0.0518  0.3276
 5662SOL    HW128448   2.782   0.775   8.630  0.8211  0.8676  0.0955
 5662SOL    HW228449   2.730   0.750   8.502  0.5838 -0.2761 -0.7770
 5663SOL     OW28450   0.970   3.710   4.956  0.1702  0.4338 -0.3850
 5663SOL    HW128451   0.958   3.736   4.865 -0.5414  0.1403 -0.3786
 5663SOL    HW228452   0.927   3.625   4.966 -0.7257  0.7428 -1.6761
 5664SOL     OW28453   2.219   3.764   2.179 -0.5947 -0.1350  0.4724
 5664SOL    HW128454   2.155   3.826   2.215  1.8735  2.0928  1.0528
 5664SOL    HW228455   2.232   3.711   2.258 -1.7195 -3.0801 -1.3021
 5665SOL     OW28456   3.114   3.237   7.573 -0.0056 -0.4603  0.0999
 5665SOL    HW128457   3.170   3.162   7.595 -0.2844 -0.1757  1.8162
 5665SOL    HW228458   3.183   3.304   7.569  0.5659 -1.1329 -1.3634
 5666SOL     OW28459   0.953   3.500   7.038  0.3753  0.3300  0.0510
 5666SOL    HW128460   0.922   3.520   6.950 -0.3946  0.4214  0.3444
 5666SOL    HW228461   1.040   3.464   7.023  0.1172 -0.6327  0.9113
 5667SOL     OW28462   3.590   3.160  16.671 -0.0418 -0.0696  0.6206
 5667SOL    HW128463   3.615   3.128  16.585 -0.8214 -2.5245  1.3107
 5667SOL    HW228464   3.657   3.125  16.729 -0.4889  0.0012  1.1810
 5668SOL     OW28465   2.097   2.009  17.372 -0.8626  0.2436 -0.2638
 5668SOL    HW128466   2.105   1.989  17.278 -1.4650 -1.4794  0.0472
 5668SOL    HW228467   2.166   2.076  17.366 -0.0162 -0.6573 -0.6776
 5669SOL     OW28468   0.765   1.978  17.573  0.8591 -0.1454  0.2471
 5669SOL    HW128469   0.706   1.940  17.508  1.7660  1.6657 -1.6384
 5669SOL    HW228470   0.712   1.986  17.652  3.1173  0.7696  1.6723
 5670SOL     OW28471   2.399   3.337   9.134 -0.4679  0.4926 -0.0963
 5670SOL    HW128472   2.340   3.407   9.107  0.7998  1.7136  0.2781
 5670SOL    HW228473   2.378   3.322   9.227 -0.4322 -0.4550 -0.2332
 5671SOL     OW28474   4.653   1.277  10.623 -0.3272  0.5396 -0.4908
 5671SOL    HW128475   4.723   1.271  10.558 -0.6944 -0.9059 -0.7493
 5671SOL    HW228476   4.665   1.203  10.683 -2.5066  0.6572  0.0683
 5672SOL     OW28477   1.496   1.808   9.223 -0.2077 -0.1585  0.1451
 5672SOL    HW128478   1.417   1.803   9.278 -0.0538  0.2035  0.3995
 5672SOL    HW228479   1.534   1.725   9.252 -2.5292 -0.9935  0.8051
 5673SOL     OW28480   3.852   0.713   1.896 -0.6182  0.2037  0.1092
 5673SOL    HW128481   3.841   0.792   1.843  1.8276 -0.0016 -0.6867
 5673SOL    HW228482   3.947   0.699   1.893 -0.7819 -0.6476 -1.2290
 5674SOL     OW28483   0.284   3.652  15.289  0.3185  1.0582 -0.2302
 5674SOL    HW128484   0.205   3.604  15.313  0.4840  0.1108 -1.5913
 5674SOL    HW228485   0.333   3.590  15.235 -0.4972  1.8647 -1.8772
 5675SOL     OW28486   1.209   2.049   5.229 -0.5671  0.0409 -0.1320
 5675SOL    HW128487   1.118   2.040   5.199  0.6581 -1.3870 -3.3768
 5675SOL    HW228488   1.210   2.106   5.306  0.9642  0.6660 -0.6251
 5676SOL     OW28489   3.295   0.852  14.015 -0.3223 -0.7037 -0.0671
 5676SOL    HW128490   3.317   0.793  14.088  0.9845  1.0258  0.9269
 5676SOL    HW228491   3.255   0.785  13.960  0.7361 -1.8625  0.5489
 5677SOL     OW28492   3.353   4.346   3.048 -0.1467  0.3821  0.2980
 5677SOL    HW128493   3.328   4.340   3.140 -0.3868 -1.0639  0.1428
 5677SOL    HW228494   3.357   4.257   3.012  0.6618  0.2071  0.8109
 5678SOL     OW28495   1.771   3.172   7.266 -0.0903 -0.1754 -0.0975
 5678SOL    HW128496   1.755   3.265   7.282 -4.0754 -0.3849 -2.8936
 5678SOL    HW228497   1.844   3.172   7.205  1.7151 -3.6934  2.0569
 5679SOL     OW28498   0.758   0.990   3.522 -0.3941 -0.6361  0.1294
 5679SOL    HW128499   0.829   1.003   3.585 -0.1749 -3.5204  0.4729
 5679SOL    HW228500   0.780   1.055   3.455 -1.5228 -1.9323 -1.5016
 5680SOL     OW28501   0.945   0.201   7.371 -0.3865  0.5295 -0.0910
 5680SOL    HW128502   0.958   0.177   7.279 -0.2468 -3.1572  0.9163
 5680SOL    HW228503   0.987   0.287   7.383  2.0050 -0.8008  1.0134
 5681SOL     OW28504   2.328   3.982   6.464 -0.2154 -0.4343 -0.6435
 5681SOL    HW128505   2.388   3.950   6.532  1.1162  0.8493 -1.2171
 5681SOL    HW228506   2.281   3.902   6.441 -2.5822  1.1494 -1.2174
 5682SOL     OW28507   3.693   3.168   8.366 -0.2568  0.8069 -0.5472
 5682SOL    HW128508   3.695   3.098   8.431 -3.2645  1.3543  0.1214
 5682SOL    HW228509   3.737   3.237   8.416  1.4513 -1.1905  0.6959
 5683SOL     OW28510   1.857   2.812   9.185  0.2193  0.1894 -0.3105
 5683SOL    HW128511   1.891   2.723   9.193 -1.1477 -0.2117  1.0166
 5683SOL    HW228512   1.938   2.862   9.192 -0.3679  1.1755 -0.5442
 5684SOL     OW28513   4.558   4.100   6.786 -0.1854 -0.2911 -0.1875
 5684SOL    HW128514   4.649   4.128   6.801 -0.1511  0.6872 -2.1281
 5684SOL    HW228515   4.527   4.167   6.725  0.5932  0.1881 -0.0674
 5685SOL     OW28516   4.723   1.736   8.229  0.3480  0.2732  0.1621
 5685SOL    HW128517   0.058   1.692   8.169 -0.0189  0.0822 -0.0716
 5685SOL    HW228518   4.652   1.673   8.242 -1.0275  1.3011 -2.2166
 5686SOL     OW28519   1.531   4.384  11.491 -0.3431  0.7134 -0.3796
 5686SOL    HW128520   1.507   4.320  11.425 -1.3601  2.4356 -1.6938
 5686SOL    HW228521   1.615   4.414  11.456 -0.6864 -2.4277 -3.8464
 5687SOL     OW28522   0.413   2.258   0.584  0.8370  0.0240  0.1617
 5687SOL    HW128523   0.502   2.230   0.606  0.2401 -0.7882  1.5371
 5687SOL    HW228524   0.366   2.175   0.588 -1.1323  0.9783 -2.7564
 5688SOL     OW28525   3.669   0.607  13.969  0.3444 -0.2951 -0.1805
 5688SOL    HW128526   3.589   0.585  13.920  0.9159 -0.9481 -0.8240
 5688SOL    HW228527   3.664   0.702  13.979 -1.2297 -0.2139 -1.5310
 5689SOL     OW28528   1.635   3.853  16.170  0.1763  0.3174 -0.3428
 5689SOL    HW128529   1.575   3.808  16.111 -1.0936  1.2392  0.2446
 5689SOL    HW228530   1.719   3.825  16.135 -0.7355  0.5020 -2.7104
 5690SOL     OW28531   0.245   2.308   2.330 -0.1844 -0.1245 -0.2930
 5690SOL    HW128532   0.249   2.403   2.340 -2.0135  0.0929 -1.6645
 5690SOL    HW228533   0.310   2.302   2.260 -1.9720 -1.8560 -1.8109
 5691SOL     OW28534   1.259   4.257   6.625  0.0092 -0.1310  0.0528
 5691SOL    HW128535   1.181   4.207   6.649  0.4077 -0.8630 -0.1888
 5691SOL    HW228536   1.254   4.255   6.530  2.3568  0.5118 -0.0856
 5692SOL     OW28537   1.611   2.880   9.043 -0.1715  0.1088  0.0148
 5692SOL    HW128538   1.603   2.967   9.005 -1.2559  0.5694  1.3017
 5692SOL    HW228539   1.704   2.874   9.066  0.0563  1.6785 -0.5524
 5693SOL     OW28540   1.359   1.924  12.358 -0.1183 -0.0520 -0.5493
 5693SOL    HW128541   1.356   2.019  12.368  2.0832 -0.1593  1.0369
 5693SOL    HW228542   1.446   1.912  12.321 -1.3993 -3.2297 -2.6127
 5694SOL     OW28543   3.560   1.330  12.340  0.6009  0.2455 -0.8668
 5694SOL    HW128544   3.544   1.236  12.347 -1.0000  0.5322 -0.6730
 5694SOL    HW228545   3.540   1.349  12.248  0.0972 -2.0391 -1.2315
 5695SOL     OW28546   0.769   1.074   3.260 -0.2641  0.1606  0.2199
 5695SOL    HW128547   0.716   1.139   3.306 -1.6247 -1.7618  1.3562
 5695SOL    HW228548   0.769   1.110   3.171 -0.2794  0.0905  0.1917
 5696SOL     OW28549   2.001   1.255   4.480  0.4641 -0.3817  0.2959
 5696SOL    HW128550   1.940   1.268   4.407  1.3421  1.2773 -0.1423
 5696SOL    HW228551   1.983   1.319   4.549  2.3910 -0.7043  1.0975
 5697SOL     OW28552   0.490   0.442  12.898  0.3431 -0.0895 -0.9534
 5697SOL    HW128553   0.507   0.359  12.943 -2.0485 -0.2039 -0.2458
 5697SOL    HW228554   0.402   0.417  12.871 -0.8413  0.8989  1.9645
 5698SOL     OW28555   1.244   0.212   1.662 -0.0342  0.1896  0.0899
 5698SOL    HW128556   1.280   0.173   1.742 -3.7577 -1.1589  1.1216
 5698SOL    HW228557   1.327   0.215   1.615 -0.1267 -1.2936 -0.1747
 5699SOL     OW28558   3.159   2.058  13.503 -0.1934  0.0219 -0.4616
 5699SOL    HW128559   3.067   2.039  13.523  0.0963  0.3895  1.1514
 5699SOL    HW228560   3.182   2.098  13.586  0.2695 -0.3107 -0.4308
 5700SOL     OW28561   1.591   3.947   0.076 -0.3706  0.7856 -0.4474
 5700SOL    HW128562   1.618   3.997  17.701  1.4600 -2.4455 -1.9242
 5700SOL    HW228563   1.660   3.942   0.142  1.0833 -2.0132 -2.1738
 5701SOL     OW28564   1.215   2.068   7.280  0.1215  0.4226  0.0459
 5701SOL    HW128565   1.286   2.039   7.222 -0.8144 -0.0996 -0.8320
 5701SOL    HW228566   1.264   2.075   7.362 -0.4044  0.1618  0.3746
 5702SOL     OW28567   0.112   3.157   3.326 -0.1136 -0.0366  0.0983
 5702SOL    HW128568   0.120   3.204   3.409  3.0947  1.9305 -1.3246
 5702SOL    HW228569   0.094   3.228   3.265 -1.9093 -1.1166 -0.6078
 5703SOL     OW28570   4.062   1.632   2.618  0.1190  0.1414  0.3476
 5703SOL    HW128571   3.996   1.564   2.632  0.4064 -0.2541 -0.2324
 5703SOL    HW228572   4.004   1.708   2.629  1.2184  0.7651  1.8286
 5704SOL     OW28573   0.357   4.124  16.874  0.1608 -0.0949 -0.1576
 5704SOL    HW128574   0.274   4.091  16.840  1.9044 -1.0314 -3.5133
 5704SOL    HW228575   0.411   4.117  16.795  1.2945  2.6576  0.3837
 5705SOL     OW28576   1.197   2.507   2.413  0.2884 -0.1087 -0.0339
 5705SOL    HW128577   1.194   2.535   2.505 -0.1023  0.5350 -0.2405
 5705SOL    HW228578   1.221   2.590   2.372 -1.5051 -0.6628 -2.2034
 5706SOL     OW28579   3.081   0.454  16.973  0.1685  0.2003  1.1917
 5706SOL    HW128580   3.038   0.522  16.921 -1.7184 -0.9640  1.2377
 5706SOL    HW228581   3.105   0.507  17.048  1.4700 -0.2412  1.0873
 5707SOL     OW28582   0.001   2.937   4.890 -0.4059 -0.2366 -0.1552
 5707SOL    HW128583   4.688   2.985   4.816  0.3065  0.9395  0.2328
 5707SOL    HW228584   0.046   2.863   4.850  0.8086  0.4120  0.0121
 5708SOL     OW28585   0.008   0.844   4.530  0.3014 -0.2002  0.3523
 5708SOL    HW128586   0.038   0.842   4.621 -0.2165  1.7442  0.5755
 5708SOL    HW228587   4.683   0.763   4.523 -1.3811  0.6519  2.4836
 5709SOL     OW28588   4.574   3.455   9.741  0.0909  0.6937  0.1173
 5709SOL    HW128589   4.572   3.542   9.702  0.7558 -0.1783 -1.8518
 5709SOL    HW228590   4.645   3.476   9.802  0.8854 -1.7964  0.0567
 5710SOL     OW28591   3.373   3.754   3.579 -0.1081  0.0197 -0.1308
 5710SOL    HW128592   3.462   3.757   3.614 -0.4572 -0.1483  0.7642
 5710SOL    HW228593   3.371   3.838   3.533  1.9885 -0.6714 -1.5061
 5711SOL     OW28594   3.222   0.247  14.388  0.4193 -0.1484  0.5313
 5711SOL    HW128595   3.282   0.234  14.461  1.3376 -0.6661 -0.3073
 5711SOL    HW228596   3.262   0.181  14.331  0.8563 -0.1399  0.8292
 5712SOL     OW28597   2.553   4.647  10.120 -0.1621  0.2769 -0.3570
 5712SOL    HW128598   2.535   4.600  10.202  0.0459  2.0331  0.6886
 5712SOL    HW228599   2.637   4.685  10.145 -0.0807 -0.1491  0.0114
 5713SOL     OW28600   2.180   2.823   5.976  0.3626  0.2160  0.1213
 5713SOL    HW128601   2.115   2.780   6.031  0.1034  0.9894  0.4161
 5713SOL    HW228602   2.150   2.820   5.885  0.5868  0.4424  0.0404
 5714SOL     OW28603   0.852   2.259  16.633 -0.2916 -0.1683  0.2467
 5714SOL    HW128604   0.842   2.287  16.724  0.3410 -1.1857  0.6261
 5714SOL    HW228605   0.782   2.304  16.585  1.8949  0.5983 -2.2413
 5715SOL     OW28606   0.492   2.708   2.090  0.2943  0.2391  0.1333
 5715SOL    HW128607   0.459   2.675   2.006 -0.1432 -0.3284  0.5245
 5715SOL    HW228608   0.571   2.655   2.099  0.5109  0.2396 -1.7336
 5716SOL     OW28609   3.563   4.060   7.479 -0.6983 -0.3436 -0.4032
 5716SOL    HW128610   3.560   4.148   7.442 -0.4260 -0.1662 -0.0044
 5716SOL    HW228611   3.503   4.071   7.553 -1.4018 -2.5027 -0.6568
 5717SOL     OW28612   1.922   0.225  11.701  0.0261  0.1880 -0.2146
 5717SOL    HW128613   2.010   0.262  11.704  0.0776  0.0181  0.4118
 5717SOL    HW228614   1.918   0.182  11.616 -0.7896 -1.3134  0.5864
 5718SOL     OW28615   0.678   1.616   2.628  0.0893 -0.4161  0.4758
 5718SOL    HW128616   0.731   1.689   2.661  1.6095 -1.6124  0.6690
 5718SOL    HW228617   0.658   1.573   2.711  0.7761 -1.7988 -0.0892
 5719SOL     OW28618   3.961   2.281   2.689  0.6109 -0.2110  0.0059
 5719SOL    HW128619   4.038   2.249   2.643  1.3891 -0.1495  1.2453
 5719SOL    HW228620   3.907   2.317   2.619 -2.6474 -0.3899  2.4029
 5720SOL     OW28621   0.998   0.721   0.511  0.0197 -0.2577  0.5023
 5720SOL    HW128622   1.093   0.712   0.508 -0.2622 -3.2519  0.6882
 5720SOL    HW228623   0.980   0.631   0.539 -0.2822 -0.8917 -1.7480
 5721SOL     OW28624   2.833   3.682   4.631 -0.7149  0.2501  0.0039
 5721SOL    HW128625   2.779   3.621   4.581  1.5356  0.2401 -2.4339
 5721SOL    HW228626   2.805   3.668   4.721 -1.1983 -0.6574 -0.2934
 5722SOL     OW28627   0.740   1.148   9.981  0.1744 -0.0764 -0.3436
 5722SOL    HW128628   0.823   1.101   9.981 -0.8290 -1.8725 -1.3979
 5722SOL    HW228629   0.683   1.078   9.948  0.6444 -1.6927  2.1953
 5723SOL     OW28630   2.219   3.520   9.021  0.5086 -0.2263 -0.1510
 5723SOL    HW128631   2.195   3.599   9.070  1.0788  0.3703 -0.8326
 5723SOL    HW228632   2.146   3.502   8.961  0.7265 -1.6829  0.0170
 5724SOL     OW28633   3.985   1.633   6.914  0.5962  0.4615  0.0347
 5724SOL    HW128634   3.927   1.574   6.962  1.3026 -0.1397  0.1441
 5724SOL    HW228635   3.971   1.719   6.954  1.4891  1.2792 -1.4093
 5725SOL     OW28636   3.710   0.106   4.622  0.1526 -0.3088 -0.0035
 5725SOL    HW128637   3.634   0.069   4.667 -2.0216  0.9103 -2.6530
 5725SOL    HW228638   3.691   0.199   4.613 -1.1853 -0.7886 -2.1599
 5726SOL     OW28639   3.435   1.570  13.151  0.2401  0.0564  0.3294
 5726SOL    HW128640   3.510   1.525  13.112 -0.1730  0.2223 -0.6441
 5726SOL    HW228641   3.474   1.612  13.228 -3.1446  1.1379  1.4598
 5727SOL     OW28642   1.524   3.345   4.046  0.0328 -0.3370  0.2485
 5727SOL    HW128643   1.501   3.273   4.104  1.9325  0.2620  1.7371
 5727SOL    HW228644   1.619   3.351   4.043 -0.1373  1.9935 -1.1918
 5728SOL     OW28645   4.700   4.417   7.135  0.6215 -0.5688  0.6286
 5728SOL    HW128646   4.717   4.339   7.083 -1.4927  0.6606 -1.9182
 5728SOL    HW228647   0.030   4.479   7.088 -0.0028 -0.0365  0.5954
 5729SOL     OW28648   0.270   3.714  12.551 -0.6848  0.1515  0.2859
 5729SOL    HW128649   0.273   3.810  12.552 -2.5516  0.2185 -0.7938
 5729SOL    HW228650   0.356   3.690  12.585  0.2721  1.8870 -0.8632
 5730SOL     OW28651   0.977   2.465   3.488 -0.4524  0.0658 -0.1143
 5730SOL    HW128652   0.930   2.447   3.406  0.7994  0.5239 -0.9301
 5730SOL    HW228653   0.990   2.373   3.513  0.0752  0.1042 -0.2470
 5731SOL     OW28654   2.721   1.136   8.576  0.1044  0.1647  0.0115
 5731SOL    HW128655   2.679   1.143   8.490 -0.4780  1.0643  0.3713
 5731SOL    HW228656   2.644   1.141   8.633  0.5553 -1.7756  0.7994
 5732SOL     OW28657   4.694   1.129   2.936 -0.5500 -0.7314 -0.1252
 5732SOL    HW128658   4.611   1.124   2.984  0.2770  1.2019  1.4712
 5732SOL    HW228659   4.666   1.105   2.848 -0.8422 -2.4321  0.4264
 5733SOL     OW28660   3.142   0.872   3.506  0.5761 -0.3457 -0.4869
 5733SOL    HW128661   3.205   0.826   3.561  0.7673  0.3845 -0.0946
 5733SOL    HW228662   3.096   0.793   3.477  2.6184 -0.6241 -3.0854
 5734SOL     OW28663   1.232   1.943   4.888  0.1257  0.2291  0.3900
 5734SOL    HW128664   1.241   2.034   4.918  0.5110  0.6221 -0.9159
 5734SOL    HW228665   1.300   1.945   4.820  0.4953 -0.9837  0.7182
 5735SOL     OW28666   1.246   1.526   5.648 -0.0842  0.0156  0.3589
 5735SOL    HW128667   1.275   1.439   5.620 -0.6725  0.3340 -1.2785
 5735SOL    HW228668   1.315   1.578   5.605 -0.7319  0.9177  0.4146
 5736SOL     OW28669   2.810   0.186   0.346  0.0454  0.0128 -0.1766
 5736SOL    HW128670   2.719   0.171   0.375 -0.2008  1.3193 -0.2839
 5736SOL    HW228671   2.847   0.098   0.345 -1.8601 -0.8228  1.5645
 5737SOL     OW28672   0.902   0.828  16.011 -0.4326  0.0939  0.1476
 5737SOL    HW128673   0.856   0.911  16.021 -0.5666 -0.1193  1.2327
 5737SOL    HW228674   0.989   0.853  16.044 -0.4328  3.0791 -2.1107
 5738SOL     OW28675   0.057   0.316  15.451 -0.0301 -0.8914 -0.4156
 5738SOL    HW128676   0.146   0.350  15.463 -0.3263 -0.2455 -0.0534
 5738SOL    HW228677   0.015   0.379  15.510 -1.0707 -0.5702 -1.5176
 5739SOL     OW28678   0.323   0.589   6.095 -0.5475 -0.2607 -0.3742
 5739SOL    HW128679   0.237   0.627   6.115 -0.7770 -2.1054  2.1740
 5739SOL    HW228680   0.389   0.645   6.136 -0.1534 -0.6879 -0.4320
 5740SOL     OW28681   3.554   2.707   4.130 -0.2395  0.5172 -0.4188
 5740SOL    HW128682   3.629   2.755   4.165  1.5883 -2.4561 -0.2920
 5740SOL    HW228683   3.485   2.769   4.155  2.0583  2.7226  0.5006
 5741SOL     OW28684   0.460   3.219  13.797  0.4366  0.3061 -0.4554
 5741SOL    HW128685   0.399   3.270  13.850  0.1014  0.6872 -1.2058
 5741SOL    HW228686   0.405   3.152  13.758  0.3122  0.0507  0.1617
 5742SOL     OW28687   0.536   1.816   0.631  0.7603  0.4744  0.1913
 5742SOL    HW128688   0.625   1.814   0.595  0.1861  1.3867 -1.2910
 5742SOL    HW228689   0.487   1.793   0.552  0.0221  2.6311  0.0157
 5743SOL     OW28690   0.625   4.716   2.726  0.3034 -0.4256  0.0568
 5743SOL    HW128691   0.665   0.047   2.661  0.1497 -0.5088 -0.1111
 5743SOL    HW228692   0.564   0.054   2.764 -0.0021  0.1631 -1.4295
 5744SOL     OW28693   3.387   3.874   6.174  0.3266  0.2036  0.0455
 5744SOL    HW128694   3.462   3.931   6.156 -1.1340  2.9980  2.7814
 5744SOL    HW228695   3.404   3.853   6.266 -1.7079  0.2214  0.4212
 5745SOL     OW28696   1.022   0.516   2.456  0.2986 -0.2320 -0.0611
 5745SOL    HW128697   1.073   0.516   2.375 -1.6685  0.3287 -1.2925
 5745SOL    HW228698   0.957   0.446   2.448 -1.7904  1.5039  1.8240
 5746SOL     OW28699   3.820   1.952   2.979  0.3737 -0.6182  0.1507
 5746SOL    HW128700   3.790   1.896   2.906  1.6023  2.1137 -2.4466
 5746SOL    HW228701   3.736   1.946   3.025  0.2277  1.4991  0.1635
 5747SOL     OW28702   0.308   3.570   8.715  0.4863 -0.0269  0.1802
 5747SOL    HW128703   0.241   3.618   8.764 -0.2015 -1.9667  1.1482
 5747SOL    HW228704   0.367   3.644   8.700  0.8562 -0.6813 -1.5794
 5748SOL     OW28705   3.824   4.612   4.746 -0.3472 -0.4343  0.5131
 5748SOL    HW128706   3.765   4.649   4.681 -0.6625  1.7649  2.0375
 5748SOL    HW228707   3.826   4.524   4.708  0.4952 -0.0094 -0.4070
 5749SOL     OW28708   4.232   3.193  12.168  0.3918  0.2139 -0.1231
 5749SOL    HW128709   4.143   3.177  12.200  2.0508 -1.5316  3.5369
 5749SOL    HW228710   4.261   3.102  12.166 -0.6721 -0.1017 -1.4263
 5750SOL     OW28711   0.417   4.339  13.700  0.2002 -0.0641 -0.2544
 5750SOL    HW128712   0.388   4.425  13.730 -2.2000 -1.0676  0.2662
 5750SOL    HW228713   0.335   4.308  13.664 -0.3364  0.4369  0.5301
 5751SOL     OW28714   0.630   1.199   4.905 -0.7411  0.2008 -0.2336
 5751SOL    HW128715   0.615   1.276   4.960 -0.8932 -0.2588  0.3594
 5751SOL    HW228716   0.723   1.179   4.918 -1.4358 -2.9017 -0.0414
 5752SOL     OW28717   3.197   2.564   6.710  0.3152 -0.7268  0.5470
 5752SOL    HW128718   3.292   2.561   6.705  0.1462 -0.4395 -3.3094
 5752SOL    HW228719   3.174   2.562   6.617 -1.5779  1.3321  0.9680
 5753SOL     OW28720   2.259   4.378   4.569  0.0338  0.2704 -0.3572
 5753SOL    HW128721   2.252   4.453   4.629  0.4088  1.8346 -2.2917
 5753SOL    HW228722   2.230   4.313   4.633  0.0927  0.9188  0.3436
 5754SOL     OW28723   0.377   0.467   1.670 -0.2645 -0.2387 -0.2402
 5754SOL    HW128724   0.323   0.544   1.684  1.2516  0.6444  0.7668
 5754SOL    HW228725   0.398   0.496   1.582 -3.1514  0.1217 -0.8046
 5755SOL     OW28726   1.561   0.311   7.391  0.0018  0.1431  0.1360
 5755SOL    HW128727   1.643   0.263   7.396 -0.2287 -0.4643 -2.0833
 5755SOL    HW228728   1.538   0.282   7.479 -1.6714  0.5769 -0.1596
 5756SOL     OW28729   4.527   1.058   4.475 -0.2471  0.1621 -1.1533
 5756SOL    HW128730   4.496   0.975   4.511 -2.7894  0.6097 -2.2878
 5756SOL    HW228731   4.621   1.068   4.488  0.0738  0.4171 -3.7988
 5757SOL     OW28732   4.665   4.682   5.530 -0.2504  0.3835 -0.0265
 5757SOL    HW128733   4.591   4.624   5.546  1.5195 -1.3120  1.8724
 5757SOL    HW228734   4.658   0.012   5.608  0.6483  1.1887 -0.5185
 5758SOL     OW28735   0.198   3.622   1.238 -0.5425  0.4276 -0.3554
 5758SOL    HW128736   0.224   3.639   1.147  1.6838  0.0726  0.2354
 5758SOL    HW228737   0.192   3.707   1.282 -2.3356  0.6696 -1.0188
 5759SOL     OW28738   0.760   0.525   6.251  0.2558 -0.0608  0.3664
 5759SOL    HW128739   0.852   0.506   6.268  0.2068  1.1565  2.0791
 5759SOL    HW228740   0.766   0.578   6.172 -2.7251  0.7312  0.6516
 5760SOL     OW28741   4.268   0.996   3.863  0.1886  0.1071 -0.5608
 5760SOL    HW128742   4.334   0.974   3.929  1.6206  1.1481 -1.6241
 5760SOL    HW228743   4.184   0.971   3.901  0.4526  0.7171  0.4163
 5761SOL     OW28744   0.441   3.171   9.458 -0.3003 -0.4900 -0.7994
 5761SOL    HW128745   0.400   3.212   9.534  1.4986  0.4931 -0.3469
 5761SOL    HW228746   0.491   3.098   9.495  0.7005  0.3438 -0.5111
 5762SOL     OW28747   3.971   3.541   3.513  0.0515 -0.1667  0.7025
 5762SOL    HW128748   4.031   3.466   3.514 -0.2760 -0.4216  1.3943
 5762SOL    HW228749   4.023   3.612   3.550 -0.1586  0.1836  0.3177
 5763SOL     OW28750   1.238   1.265   5.552  0.2570  0.9438  0.3918
 5763SOL    HW128751   1.168   1.275   5.616 -0.7041 -3.7765  0.0993
 5763SOL    HW228752   1.274   1.188   5.597 -3.8925 -0.6802  0.9450
 5764SOL     OW28753   4.516   3.778  14.266 -0.2080 -0.2790 -0.0903
 5764SOL    HW128754   4.574   3.840  14.309  1.1331 -1.6212  0.0488
 5764SOL    HW228755   4.441   3.828  14.233  0.3269  0.9521  0.5600
 5765SOL     OW28756   2.173   1.360   6.228  0.1202  0.5880 -0.4559
 5765SOL    HW128757   2.234   1.397   6.292  1.0304 -1.0565 -0.3534
 5765SOL    HW228758   2.134   1.281   6.266 -2.1341  1.9248 -0.0041
 5766SOL     OW28759   4.164   0.718   6.952 -0.4129 -0.2465 -0.3164
 5766SOL    HW128760   4.174   0.664   6.873 -1.7383  0.3061 -0.8707
 5766SOL    HW228761   4.112   0.670   7.016 -0.1949 -1.3725 -0.9890
 5767SOL     OW28762   2.783   0.462   2.825  0.1591 -0.5131  0.0878
 5767SOL    HW128763   2.766   0.368   2.824 -0.5494 -0.4008  3.3061
 5767SOL    HW228764   2.878   0.460   2.840  0.3232 -0.5567 -0.9182
 5768SOL     OW28765   3.655   2.993   8.596  0.1582  0.7023 -0.3272
 5768SOL    HW128766   3.678   2.953   8.679  1.2337  3.6275  0.7737
 5768SOL    HW228767   3.560   2.978   8.591  0.5932 -1.7967 -0.7902
 5769SOL     OW28768   3.843   1.715  13.508  0.1602 -0.5195  0.2554
 5769SOL    HW128769   3.828   1.767  13.588  1.2549  2.0898 -1.2302
 5769SOL    HW228770   3.912   1.763  13.463  0.9959 -1.3493  0.6587
 5770SOL     OW28771   4.722   3.209  13.334 -0.4376 -0.2018  0.0704
 5770SOL    HW128772   0.070   3.262  13.303 -2.2390  1.2464 -1.7669
 5770SOL    HW228773   4.678   3.201  13.249 -2.1689  2.1039  0.7295
 5771SOL     OW28774   0.101   3.688  14.517  0.1021 -0.0794  0.1827
 5771SOL    HW128775   0.095   3.777  14.552 -3.0445 -0.3706  0.3741
 5771SOL    HW228776   0.114   3.706  14.424 -2.1202 -1.0319 -0.3053
 5772SOL     OW28777   0.852   0.057   5.545 -0.1538 -0.1795  0.5007
 5772SOL    HW128778   0.925   0.119   5.535  1.1940 -2.4078 -3.1355
 5772SOL    HW228779   0.900   0.005   5.609  0.1088 -0.6363 -0.0741
 5773SOL     OW28780   3.796   4.347   5.003  0.0239 -0.1329 -0.5057
 5773SOL    HW128781   3.787   4.365   4.910  1.5453 -3.8506 -1.3973
 5773SOL    HW228782   3.767   4.256   5.006  0.9942 -0.5169 -2.3868
 5774SOL     OW28783   2.288   4.085   8.624  0.4731 -0.0735  0.3583
 5774SOL    HW128784   2.195   4.099   8.605  0.0208 -0.1353  2.4804
 5774SOL    HW228785   2.317   4.168   8.662  0.7775 -0.3994  0.8498
 5775SOL     OW28786   0.266   4.692  15.893 -0.1869  0.0359  0.3693
 5775SOL    HW128787   0.338   4.643  15.933 -1.5257  0.3418  3.2104
 5775SOL    HW228788   0.209   4.696  15.971 -1.7043 -2.1035 -0.6123
 5776SOL     OW28789   3.291   0.277   5.650 -0.6149 -0.2104  0.2506
 5776SOL    HW128790   3.289   0.207   5.716 -1.2649 -0.2435  0.1963
 5776SOL    HW228791   3.255   0.232   5.574  0.2135  1.0499 -0.8822
 5777SOL     OW28792   0.165   1.748   9.569 -0.1579  0.0646  0.1812
 5777SOL    HW128793   0.139   1.837   9.544  1.9697  0.3382 -1.0563
 5777SOL    HW228794   0.117   1.738   9.652 -0.7140  2.5726  0.1590
 5778SOL     OW28795   0.908   0.716   6.715 -0.0023 -0.2292 -0.0008
 5778SOL    HW128796   0.897   0.640   6.773  0.6591 -0.9414 -0.8118
 5778SOL    HW228797   0.817   0.741   6.723  0.0286 -0.5140  1.3255
 5779SOL     OW28798   4.180   1.508  17.642 -0.1272 -0.3646 -0.1030
 5779SOL    HW128799   4.227   1.513   0.023 -0.5207 -2.2920  0.2352
 5779SOL    HW228800   4.249   1.535  17.582  0.4646 -1.3728  0.1315
 5780SOL     OW28801   3.705   3.156   4.219  0.1534  0.0853 -0.0944
 5780SOL    HW128802   3.729   3.064   4.208  0.7696 -0.1398  3.0558
 5780SOL    HW228803   3.781   3.200   4.181  1.1276 -1.0641  0.5242
 5781SOL     OW28804   1.326   3.622   6.669  0.0729 -0.4639 -0.3133
 5781SOL    HW128805   1.264   3.695   6.666 -0.4984 -0.9079  1.1443
 5781SOL    HW228806   1.381   3.625   6.590 -1.1422  1.7038 -1.0949
 5782SOL     OW28807   2.310   2.343   3.480  0.0864  0.7934  0.1428
 5782SOL    HW128808   2.262   2.273   3.525  0.3317 -0.3428 -1.3505
 5782SOL    HW228809   2.249   2.415   3.495 -1.5785 -0.6711  0.4259
 5783SOL     OW28810   0.939   3.342   2.081  0.4513  0.0792  0.2299
 5783SOL    HW128811   0.915   3.300   1.999 -0.9257  1.1310  0.0894
 5783SOL    HW228812   1.014   3.285   2.097  0.1459  0.2032  2.1604
 5784SOL     OW28813   1.584   4.154   2.372 -0.0163 -0.1643  0.8543
 5784SOL    HW128814   1.624   4.074   2.339 -2.8100 -1.8895  1.6895
 5784SOL    HW228815   1.658   4.215   2.376  0.3440 -0.5433  0.0977
 5785SOL     OW28816   0.144   0.056  10.016 -0.7838  0.0057  0.2493
 5785SOL    HW128817   0.085   4.711  10.046  2.1773 -1.3770  2.8110
 5785SOL    HW228818   0.137   0.121  10.085  0.0948 -0.8027  1.1066
 5786SOL     OW28819   3.218   3.043  15.617 -0.0483  0.4097  0.4948
 5786SOL    HW128820   3.277   3.118  15.630 -0.6944  0.4785  3.2041
 5786SOL    HW228821   3.247   3.017  15.530 -0.0530  0.2855  0.5300
 5787SOL     OW28822   1.292   3.638   7.456 -0.2132 -0.3895 -0.2163
 5787SOL    HW128823   1.212   3.589   7.434  0.0580  0.3650 -2.8899
 5787SOL    HW228824   1.317   3.588   7.533  0.4873 -0.6281 -0.5983
 5788SOL     OW28825   2.842   0.751   0.100 -0.4448 -0.1441  0.0161
 5788SOL    HW128826   2.928   0.793   0.106  0.2637 -1.5019 -0.6929
 5788SOL    HW228827   2.795   0.816   0.048  0.9930  0.1669 -0.8961
 5789SOL     OW28828   4.468   4.035   3.166  0.4986 -0.0340  0.9090
 5789SOL    HW128829   4.381   4.073   3.179  0.4742  0.4642 -0.6889
 5789SOL    HW228830   4.451   3.943   3.189 -1.5551  1.0490  3.6403
 5790SOL     OW28831   3.720   3.509   2.280  0.2738  0.5068 -0.1704
 5790SOL    HW128832   3.769   3.571   2.333  0.1034  0.4598  0.0412
 5790SOL    HW228833   3.690   3.562   2.207 -0.2705 -0.5694 -0.7349
 5791SOL     OW28834   2.412   0.442   4.088  0.3881  0.5208  0.1822
 5791SOL    HW128835   2.394   0.485   4.171  1.1083  0.0807  0.5608
 5791SOL    HW228836   2.333   0.389   4.072  2.1695 -2.1444  0.3463
 5792SOL     OW28837   1.339   1.410   2.942 -0.0410 -0.3278  0.1160
 5792SOL    HW128838   1.252   1.447   2.960  0.2662  0.8094 -0.7673
 5792SOL    HW228839   1.337   1.430   2.849 -1.4168 -0.9537  0.0039
 5793SOL     OW28840   3.607   0.209   6.934  0.6371 -0.3163 -0.1903
 5793SOL    HW128841   3.634   0.266   6.862 -0.1012  2.1831  1.5261
 5793SOL    HW228842   3.638   0.124   6.903  1.5508 -0.5731  1.4009
 5794SOL     OW28843   1.955   2.671   4.000  0.4188  0.2572 -0.0023
 5794SOL    HW128844   1.914   2.717   4.073  0.3145  1.3308 -0.7193
 5794SOL    HW228845   2.016   2.612   4.044  0.6272  1.2290  1.0091
 5795SOL     OW28846   3.940   1.017   7.697 -0.1082 -0.5403 -0.2419
 5795SOL    HW128847   3.993   1.035   7.619 -0.1780  1.8257  0.2589
 5795SOL    HW228848   3.984   0.935   7.721  0.9890  0.2394  0.4106
 5796SOL     OW28849   4.499   4.722   1.289  0.1695  0.2466  0.2542
 5796SOL    HW128850   4.497   0.089   1.263 -0.6430  0.5151  1.2759
 5796SOL    HW228851   4.594   4.719   1.288  0.2166  2.2601 -1.8887
 5797SOL     OW28852   0.743   4.196   6.269 -0.0879  0.0606 -0.1995
 5797SOL    HW128853   0.837   4.184   6.267 -0.1997 -1.1668  1.9047
 5797SOL    HW228854   0.717   4.128   6.207 -0.5269 -0.2060  0.2791
 5798SOL     OW28855   2.670   4.615  15.383 -0.0310 -0.5079 -0.9003
 5798SOL    HW128856   2.681   4.682  15.316  0.6439 -0.6879 -0.9685
 5798SOL    HW228857   2.721   4.539  15.354 -1.2461 -0.4750 -3.1624
 5799SOL     OW28858   1.983   0.876   0.733 -0.1693 -0.2974  0.2816
 5799SOL    HW128859   1.908   0.884   0.673 -0.3154  0.7145  0.5980
 5799SOL    HW228860   1.933   0.878   0.814 -1.2529 -0.7814 -0.3703
 5800SOL     OW28861   1.525   2.257   3.441 -0.2345  0.2940 -0.2838
 5800SOL    HW128862   1.570   2.178   3.412 -0.9105 -1.1368  2.5475
 5800SOL    HW228863   1.510   2.234   3.533  1.2208 -1.5367 -0.4955
 5801SOL     OW28864   4.386   0.323   3.282  0.2153  0.4486  0.0257
 5801SOL    HW128865   4.343   0.261   3.341 -2.4807  1.1790 -1.1786
 5801SOL    HW228866   4.332   0.398   3.305 -0.0060  0.3927 -0.3101
 5802SOL     OW28867   1.997   1.253   7.151 -0.6095  0.3620  0.8354
 5802SOL    HW128868   1.917   1.305   7.141 -0.7828 -0.0579  0.0347
 5802SOL    HW228869   1.999   1.211   7.065 -1.7986  0.1389  0.9222
 5803SOL     OW28870   0.748   3.621   7.774 -0.4117 -0.4154  0.4826
 5803SOL    HW128871   0.818   3.672   7.732 -0.3853 -0.9795 -0.1495
 5803SOL    HW228872   0.700   3.598   7.695  1.8360  3.8562 -2.1494
 5804SOL     OW28873   3.621   0.918  14.880 -0.0476  0.5329  0.5635
 5804SOL    HW128874   3.689   0.854  14.858 -0.7721 -0.2722  0.6559
 5804SOL    HW228875   3.566   0.871  14.943 -0.1500  2.5170  1.9591
 5805SOL     OW28876   1.074   3.506   3.527 -0.3260 -0.0147  0.0652
 5805SOL    HW128877   1.155   3.457   3.539 -0.2297  0.1208 -0.0163
 5805SOL    HW228878   1.116   3.586   3.493 -0.2951  0.4237  1.1397
 5806SOL     OW28879   0.463   0.728   6.805 -0.4388 -0.4904 -0.6041
 5806SOL    HW128880   0.374   0.762   6.814 -0.1788 -0.2894  1.1478
 5806SOL    HW228881   0.494   0.694   6.889  3.5727  1.5275 -1.2190
 5807SOL     OW28882   1.487   1.947  11.981 -0.5565  0.0929  0.5477
 5807SOL    HW128883   1.548   1.911  11.916  0.8089  2.4289  0.5171
 5807SOL    HW228884   1.450   1.867  12.017  2.0266 -1.1069  0.5132
 5808SOL     OW28885   4.022   0.531   7.122 -0.0013 -0.2312  0.3240
 5808SOL    HW128886   3.992   0.440   7.113  0.4543 -0.5150  1.6880
 5808SOL    HW228887   3.956   0.562   7.183 -1.8145 -1.6251 -0.9299
 5809SOL     OW28888   1.600   3.494   1.460  0.0558  0.0359  0.0474
 5809SOL    HW128889   1.643   3.509   1.544 -0.4555 -1.1544  0.5201
 5809SOL    HW228890   1.510   3.522   1.478 -0.1800 -1.6071  1.4073
 5810SOL     OW28891   4.309   0.246  11.081 -0.4864  0.7668  0.3223
 5810SOL    HW128892   4.303   0.309  11.010 -3.9998 -0.7148 -0.6964
 5810SOL    HW228893   4.402   0.256  11.102 -0.2581  1.9713 -1.2907
 5811SOL     OW28894   1.811   1.844  10.001  0.3294 -0.3274 -0.3191
 5811SOL    HW128895   1.887   1.800   9.964  0.8057  0.3440 -0.1329
 5811SOL    HW228896   1.842   1.877  10.085  0.6906  1.0533 -1.0039
 5812SOL     OW28897   0.275   1.799   6.300  0.2287 -0.6862 -0.2996
 5812SOL    HW128898   0.254   1.828   6.389  1.0566 -2.1873  0.3746
 5812SOL    HW228899   0.228   1.861   6.243  0.3337 -1.2759 -1.0372
 5813SOL     OW28900   0.491   0.596   5.335  0.1708 -0.4857 -0.0312
 5813SOL    HW128901   0.450   0.553   5.260  3.0201 -0.8413 -1.3601
 5813SOL    HW228902   0.500   0.522   5.395  1.1088 -1.4807 -1.4151
 5814SOL     OW28903   2.372   0.217   2.518  0.1562 -0.5539 -0.2285
 5814SOL    HW128904   2.318   0.294   2.503  2.0070  0.6065 -0.8814
 5814SOL    HW228905   2.338   0.159   2.450 -1.1286 -1.1877  0.9260
 5815SOL     OW28906   4.057   2.885   4.069 -0.4418 -0.1596 -0.4271
 5815SOL    HW128907   4.138   2.934   4.055  1.0460 -2.0832  1.5046
 5815SOL    HW228908   4.049   2.842   3.984 -2.4861  0.2331 -0.4310
 5816SOL     OW28909   1.730   2.312   3.999 -0.2125 -0.1140 -0.2452
 5816SOL    HW128910   1.764   2.382   3.944 -0.5101  0.0377 -0.2367
 5816SOL    HW228911   1.815   2.290   4.038 -1.2652  0.4683  2.4071
 5817SOL     OW28912   3.348   4.105   2.929  0.1675 -0.3324  0.4643
 5817SOL    HW128913   3.418   4.115   2.864 -2.4943  0.3899 -2.2525
 5817SOL    HW228914   3.271   4.093   2.874 -0.0706  1.2845  0.4626
 5818SOL     OW28915   1.758   4.565   2.767 -0.2751  0.8034 -0.1620
 5818SOL    HW128916   1.793   4.489   2.722  1.9495  1.7651 -0.0313
 5818SOL    HW228917   1.832   4.625   2.775 -0.7822  1.4976 -0.6647
 5819SOL     OW28918   0.259   3.548   6.729  0.2231 -0.7413  0.1150
 5819SOL    HW128919   0.273   3.462   6.770 -1.2277 -1.1473 -0.2372
 5819SOL    HW228920   0.347   3.574   6.704 -1.1155  4.0336  0.3632
 5820SOL     OW28921   0.488   1.197   5.738  0.2111  0.1937 -0.6162
 5820SOL    HW128922   0.506   1.287   5.710 -0.0115  0.3582 -0.2181
 5820SOL    HW228923   0.393   1.200   5.753  0.6135  2.4219  1.4557
 5821SOL     OW28924   0.427   3.367   9.006  0.5834 -0.1185 -0.3086
 5821SOL    HW128925   0.441   3.336   8.916 -2.6588  2.5716 -1.7290
 5821SOL    HW228926   0.394   3.291   9.054 -3.6416  1.9050 -0.0386
 5822SOL     OW28927   1.497   1.078   5.362 -0.2414  0.0522 -0.4617
 5822SOL    HW128928   1.424   1.097   5.302 -0.6927 -0.0532  0.0503
 5822SOL    HW228929   1.497   0.983   5.349  0.2384 -0.1349  0.9089
 5823SOL     OW28930   3.217   1.800   6.715  0.2394  0.2899 -0.0969
 5823SOL    HW128931   3.180   1.862   6.652  0.1853 -0.6653 -0.9950
 5823SOL    HW228932   3.308   1.814   6.690  0.2887  1.2972  0.6578
 5824SOL     OW28933   0.437   4.565   7.125  0.1293  0.1422 -0.5939
 5824SOL    HW128934   0.411   4.533   7.038 -1.4065 -1.7506  0.5640
 5824SOL    HW228935   0.525   4.585   7.094 -0.3755  0.7047 -1.6969
 5825SOL     OW28936   2.025   4.065   5.479  0.2968 -0.4079  0.2363
 5825SOL    HW128937   1.941   4.094   5.443 -0.5061  0.0768  2.5197
 5825SOL    HW228938   2.024   3.981   5.432  2.1611  0.1553 -0.8255
 5826SOL     OW28939   4.695   4.402   6.499 -0.6819  0.4493 -0.6048
 5826SOL    HW128940   4.625   4.389   6.562  1.4305 -0.1727  1.6125
 5826SOL    HW228941   4.707   4.497   6.496  2.8753  0.0314 -0.5973
 5827SOL     OW28942   2.096   2.378  13.299  0.6465  0.0225  0.7126
 5827SOL    HW128943   2.129   2.296  13.263  0.1401 -0.6364  1.7415
 5827SOL    HW228944   2.080   2.349  13.389 -3.0467 -0.6317 -0.1715
 5828SOL     OW28945   3.823   3.576   8.673 -0.2223 -0.0787  0.4839
 5828SOL    HW128946   3.748   3.517   8.672 -0.0413 -0.3424  2.5827
 5828SOL    HW228947   3.797   3.643   8.736  0.9853  0.6467  0.2296
 5829SOL     OW28948   1.264   2.984  11.898  0.5847 -0.6557 -0.5843
 5829SOL    HW128949   1.240   3.068  11.859 -0.1909 -0.7749 -0.3685
 5829SOL    HW228950   1.191   2.974  11.959 -0.2207  0.2944 -1.4037
 5830SOL     OW28951   1.241   1.129   2.097  0.1620  0.7589  0.3629
 5830SOL    HW128952   1.217   1.215   2.132 -0.4884  0.2341  1.2159
 5830SOL    HW228953   1.323   1.122   2.146 -1.1548 -1.1158  2.3033
 5831SOL     OW28954   2.772   3.481  13.618 -0.2436  0.1203 -0.5931
 5831SOL    HW128955   2.830   3.445  13.550  0.3899 -1.9543  1.0715
 5831SOL    HW228956   2.735   3.400  13.652  1.3749 -0.8109 -1.0192
 5832SOL     OW28957   2.043   1.647   4.716  0.6778  0.0063  0.1189
 5832SOL    HW128958   2.125   1.602   4.694 -0.0805 -2.5398  2.3799
 5832SOL    HW228959   1.983   1.610   4.652  0.9123 -0.6360  0.2629
 5833SOL     OW28960   2.013   0.939   6.111 -0.4133  0.3944  0.1942
 5833SOL    HW128961   1.934   0.959   6.062 -0.5578  0.2639  0.3738
 5833SOL    HW228962   2.074   0.940   6.038 -2.1151  2.4829 -1.1755
 5834SOL     OW28963   2.850   4.488  11.093  0.3609  0.3155 -0.2901
 5834SOL    HW128964   2.930   4.444  11.065  0.1647 -0.4758  0.3932
 5834SOL    HW228965   2.804   4.503  11.010 -0.1496  0.9792  0.1119
 5835SOL     OW28966   1.662   3.978  14.853 -0.4233 -0.1086 -0.6322
 5835SOL    HW128967   1.684   3.960  14.945 -1.2464 -0.0062 -0.4146
 5835SOL    HW228968   1.735   3.936  14.808 -0.3619  0.0989 -0.7280
 5836SOL     OW28969   1.219   2.361   8.532  0.5184  0.3530  0.2668
 5836SOL    HW128970   1.296   2.340   8.480 -2.6198  0.2715 -4.2800
 5836SOL    HW228971   1.203   2.281   8.583  0.6934 -0.1466 -0.4726
 5837SOL     OW28972   3.073   2.484   0.843 -0.0494 -0.3926 -0.4816
 5837SOL    HW128973   3.077   2.389   0.831  0.7561 -0.3598 -0.4892
 5837SOL    HW228974   2.979   2.492   0.860 -0.0607 -1.2426 -0.1624
 5838SOL     OW28975   2.544   1.256  17.431  0.3336 -0.5705 -0.0680
 5838SOL    HW128976   2.524   1.163  17.446 -0.7933 -0.1417  1.0941
 5838SOL    HW228977   2.639   1.256  17.446  0.6200 -0.1176 -1.9237
 5839SOL     OW28978   1.373   0.043  16.342 -0.3164  0.0873  0.0402
 5839SOL    HW128979   1.378   0.116  16.279  0.1525 -0.6760 -0.8015
 5839SOL    HW228980   1.280   0.022  16.346 -0.9896  3.2161  1.0648
 5840SOL     OW28981   4.695   2.049  14.328 -0.6482 -0.1785 -0.6721
 5840SOL    HW128982   4.647   2.021  14.251 -1.0882 -0.9970 -0.0987
 5840SOL    HW228983   0.058   2.026  14.300 -0.4045  1.2277 -1.0528
 5841SOL     OW28984   1.335   1.629   7.972  0.0992  0.3853  0.4579
 5841SOL    HW128985   1.279   1.591   8.040 -0.6783 -1.4712 -1.2064
 5841SOL    HW228986   1.367   1.546   7.936  0.0576  1.1669 -1.3959
 5842SOL     OW28987   4.076   0.184   0.396  0.5778 -0.1953 -0.1624
 5842SOL    HW128988   4.104   0.257   0.450  0.5568 -0.8878  0.7928
 5842SOL    HW228989   4.110   0.208   0.310 -1.8127 -0.1669 -1.0787
 5843SOL     OW28990   1.571   2.195   9.502  0.0531 -0.0012  0.1132
 5843SOL    HW128991   1.556   2.104   9.526 -0.8366 -0.0302 -0.5530
 5843SOL    HW228992   1.531   2.237   9.578  0.6797 -1.5236  1.2993
 5844SOL     OW28993   4.645   1.210  16.014  0.2009 -0.5739 -0.2306
 5844SOL    HW128994   4.700   1.252  16.079  0.1785  0.7896 -1.0923
 5844SOL    HW228995   4.592   1.284  15.984 -0.1565 -0.6852  0.1189
 5845SOL     OW28996   2.868   1.101   4.693 -0.2282  0.4406 -0.0117
 5845SOL    HW128997   2.872   1.075   4.785  2.2355 -1.1066 -0.5579
 5845SOL    HW228998   2.952   1.070   4.657 -0.7117 -1.4412  0.4723
 5846SOL     OW28999   0.693   4.695  11.253 -0.2231 -0.7377  0.3876
 5846SOL    HW129000   0.749   0.042  11.281 -1.3650  0.4069 -0.2267
 5846SOL    HW229001   0.686   4.704  11.158 -2.2340  0.2230  0.6165
 5847SOL     OW29002   1.693   1.804  17.533 -0.7487 -0.4276  0.3162
 5847SOL    HW129003   1.699   1.868  17.461  2.2232  0.0025  0.9217
 5847SOL    HW229004   1.605   1.770  17.520 -0.4171 -1.2302  0.1700
 5848SOL     OW29005   1.515   4.693   9.699 -0.9992 -0.0895  0.7125
 5848SOL    HW129006   1.500   4.614   9.648  2.1974 -1.0265  1.2095
 5848SOL    HW229007   1.431   4.718   9.738 -1.5465  1.4358 -1.5024
 5849SOL     OW29008   3.045   3.111  12.598  0.3151  0.7145  0.4538
 5849SOL    HW129009   3.105   3.158  12.656 -0.5260  1.5981  0.6154
 5849SOL    HW229010   3.097   3.035  12.571  0.5148  0.8656  0.4107
 5850SOL     OW29011   0.555   0.610   4.572  0.3691 -0.1405 -0.1698
 5850SOL    HW129012   0.565   0.660   4.653 -0.9883 -2.3062  1.3260
 5850SOL    HW229013   0.516   0.532   4.610 -0.8009  0.4434 -0.1608
 5851SOL     OW29014   0.897   2.111   4.434 -0.4394  0.0751 -0.0910
 5851SOL    HW129015   0.833   2.042   4.453  0.5794 -0.5017  1.3288
 5851SOL    HW229016   0.971   2.082   4.488 -0.9250 -0.3348  0.3540
 5852SOL     OW29017   1.731   0.317   5.353 -0.6289 -0.6706  0.1807
 5852SOL    HW129018   1.708   0.372   5.427 -4.0405 -0.7870 -0.8127
 5852SOL    HW229019   1.667   0.247   5.364 -0.2466 -0.9407  0.7219
 5853SOL     OW29020   3.442   2.035   8.032 -0.2096 -0.0202  0.1767
 5853SOL    HW129021   3.444   1.953   8.081  1.3800 -0.9984 -1.5201
 5853SOL    HW229022   3.468   2.088   8.107 -3.9755  1.3378  0.5448
 5854SOL     OW29023   4.480   1.765   7.171 -0.2094 -0.1330 -0.2824
 5854SOL    HW129024   4.464   1.772   7.265 -0.4558  0.8836 -0.3955
 5854SOL    HW229025   4.408   1.711   7.139 -0.2333 -0.4602  0.3194
 5855SOL     OW29026   3.433   2.907  15.313  0.4397 -0.1544  0.5223
 5855SOL    HW129027   3.453   2.872  15.227 -0.8067 -0.6530  0.4467
 5855SOL    HW229028   3.344   2.942  15.307  1.2779  2.0475  0.6314
 5856SOL     OW29029   2.737   3.904   8.312  0.1118 -0.3076  0.4949
 5856SOL    HW129030   2.652   3.875   8.343 -0.1131  0.7147  0.8249
 5856SOL    HW229031   2.718   3.998   8.307 -3.4653 -1.1596 -1.8987
 5857SOL     OW29032   0.019   4.115   1.996 -0.1349  0.3287 -0.2835
 5857SOL    HW129033   0.073   4.178   2.044  0.4905  1.8631 -2.9934
 5857SOL    HW229034   0.051   4.124   1.907  0.1800  0.7376 -0.1301
 5858SOL     OW29035   4.435   0.569  16.175 -0.3003  0.6029  0.0514
 5858SOL    HW129036   4.412   0.647  16.224  1.5912  1.8456 -1.0283
 5858SOL    HW229037   4.351   0.525  16.169  0.0155 -0.0030  0.0272
 5859SOL     OW29038   2.602   3.313   6.034  0.3111  0.0544 -0.2739
 5859SOL    HW129039   2.544   3.237   6.040  1.0828 -0.4697  0.4943
 5859SOL    HW229040   2.554   3.380   6.083  2.1506 -0.4698  2.2615
 5860SOL     OW29041   2.379   1.068   0.559  0.5231 -0.0988  0.7026
 5860SOL    HW129042   2.351   1.008   0.628  1.2322 -0.6484  0.5081
 5860SOL    HW229043   2.311   1.045   0.496 -0.4501  0.6117  1.4937
 5861SOL     OW29044   3.479   2.245   8.261 -0.2129  0.3660 -0.1817
 5861SOL    HW129045   3.547   2.180   8.279  1.5003  2.2451  0.0775
 5861SOL    HW229046   3.527   2.317   8.302 -0.8812 -0.1819  1.5963
 5862SOL     OW29047   3.407   3.157  13.761  0.1622  0.8459  0.7203
 5862SOL    HW129048   3.357   3.203  13.829 -2.6988 -1.3245  0.0984
 5862SOL    HW229049   3.465   3.225  13.728 -1.2589  1.2709 -0.8764
 5863SOL     OW29050   1.706   0.823   8.542  0.0409 -0.2115 -0.0151
 5863SOL    HW129051   1.625   0.814   8.493 -0.3990 -0.2724  0.7263
 5863SOL    HW229052   1.718   0.737   8.583  1.0556  1.7296  3.8101
 5864SOL     OW29053   0.392   4.192   2.234 -0.4531  0.9019  0.7198
 5864SOL    HW129054   0.461   4.247   2.195  0.3025 -1.4955 -1.2995
 5864SOL    HW229055   0.434   4.175   2.318  0.8590 -1.5924 -0.4562
 5865SOL     OW29056   0.771   0.559   8.871 -0.5000  0.0359 -0.3618
 5865SOL    HW129057   0.682   0.595   8.869  0.3638  2.1311 -1.0499
 5865SOL    HW229058   0.814   0.599   8.946  0.9480 -0.9235 -0.6832
 5866SOL     OW29059   0.773   4.250   7.978  0.1855  0.1678 -0.0435
 5866SOL    HW129060   0.796   4.322   8.037  2.1393 -0.4673 -0.0295
 5866SOL    HW229061   0.768   4.176   8.038  3.2528  0.9506  1.1695
 5867SOL     OW29062   3.282   4.468   5.305 -0.4763  0.3284  0.0644
 5867SOL    HW129063   3.356   4.441   5.250 -1.1089 -1.5665  0.1342
 5867SOL    HW229064   3.230   4.388   5.302  0.1483 -0.0385 -1.0022
 5868SOL     OW29065   1.753   0.582   2.627 -0.4051 -0.6118  0.4797
 5868SOL    HW129066   1.721   0.606   2.540 -0.3775  0.3268  0.7337
 5868SOL    HW229067   1.816   0.512   2.608  0.6960  0.2538  0.9546
 5869SOL     OW29068   3.582   1.352  13.503 -0.0182 -0.3020 -0.0048
 5869SOL    HW129069   3.541   1.284  13.557 -1.7349 -0.2294 -1.2096
 5869SOL    HW229070   3.673   1.350  13.531  0.2557 -0.9071 -0.9468
 5870SOL     OW29071   4.035   2.910   6.190 -0.5705  0.3359  0.6596
 5870SOL    HW129072   3.972   2.949   6.251  1.0820  2.2798  1.1560
 5870SOL    HW229073   4.091   2.866   6.255 -0.6196  0.0350  0.4964
 5871SOL     OW29074   0.164   1.482   8.871 -0.0571  0.3680  0.5250
 5871SOL    HW129075   0.177   1.567   8.914 -0.7256  0.2481  0.9627
 5871SOL    HW229076   0.159   1.425   8.947 -0.8082 -0.1298  0.0965
 5872SOL     OW29077   1.172   3.921   6.377 -0.1095 -0.5633 -0.0577
 5872SOL    HW129078   1.177   3.841   6.324 -0.7877  0.4445 -1.6509
 5872SOL    HW229079   1.111   3.887   6.443  1.5097 -0.3185  1.5508
 5873SOL     OW29080   4.630   2.299   6.816  0.0288 -0.7201  0.1111
 5873SOL    HW129081   4.714   2.307   6.770  1.5495 -3.1326  2.4271
 5873SOL    HW229082   4.584   2.228   6.772  2.1289 -1.2122 -1.3131
 5874SOL     OW29083   0.837   2.037   0.759 -0.3056  0.0104 -0.1906
 5874SOL    HW129084   0.853   1.981   0.684 -1.1181 -1.4424  0.7049
 5874SOL    HW229085   0.744   2.058   0.747 -0.6477 -3.2477 -2.9956
 5875SOL     OW29086   3.774   4.644   2.105  0.4774  0.6764 -0.9588
 5875SOL    HW129087   3.795   4.594   2.026  0.8154  0.8610 -0.9869
 5875SOL    HW229088   3.837   4.716   2.112  1.5549 -0.0753 -3.1954
 5876SOL     OW29089   4.608   2.347   4.560 -0.5899 -0.4906 -0.3811
 5876SOL    HW129090   4.519   2.365   4.528 -1.1605 -1.1227  0.8158
 5876SOL    HW229091   4.653   2.350   4.476  1.1830  0.5993  0.6180
 5877SOL     OW29092   4.334   2.527   0.938 -0.0349  0.2472 -0.0398
 5877SOL    HW129093   4.354   2.554   1.028 -0.3943 -0.3144  0.2092
 5877SOL    HW229094   4.239   2.530   0.948  0.0993 -0.0025  1.4042
 5878SOL     OW29095   4.193   2.087   5.275  0.0526 -0.0595  0.3382
 5878SOL    HW129096   4.182   2.040   5.358 -0.7232 -2.5338 -1.1685
 5878SOL    HW229097   4.168   2.178   5.290 -0.6666 -0.5042  1.8626
 5879SOL     OW29098   2.493   4.655   5.812 -0.0613 -0.0442  0.1751
 5879SOL    HW129099   2.492   0.014   5.766 -1.8228  0.5511  1.2684
 5879SOL    HW229100   2.490   4.694   5.900 -0.8187 -0.0125  0.1363
 5880SOL     OW29101   1.544   2.211   7.739  0.0194  0.1327  0.3494
 5880SOL    HW129102   1.582   2.245   7.658 -2.0600  0.5646 -0.4330
 5880SOL    HW229103   1.614   2.167   7.788  0.7347  0.6661 -0.1867
 5881SOL     OW29104   1.105   1.086   1.853 -0.4529 -0.2555  0.2163
 5881SOL    HW129105   1.143   1.112   1.937 -1.3120  0.9032  0.2500
 5881SOL    HW229106   1.090   1.172   1.813  1.4011 -0.2625 -0.5286
 5882SOL     OW29107   1.170   2.252   2.009  0.1278 -0.0052  0.0257
 5882SOL    HW129108   1.226   2.311   2.059  0.3657  1.0010 -1.4314
 5882SOL    HW229109   1.093   2.260   2.065 -0.8049  0.1395 -1.2636
 5883SOL     OW29110   3.737   1.847   9.288  0.3617  0.2380  0.2249
 5883SOL    HW129111   3.717   1.815   9.376  0.3117 -2.1043 -0.6463
 5883SOL    HW229112   3.670   1.796   9.243 -0.4841  1.3814  0.1637
 5884SOL     OW29113   0.604   4.069   0.256 -0.0079  0.4081 -0.0491
 5884SOL    HW129114   0.645   4.155   0.259 -1.7191  1.2974 -2.0055
 5884SOL    HW229115   0.531   4.082   0.316  1.2369 -0.7333  1.6881
 5885SOL     OW29116   1.691   2.287  10.797 -0.3394  0.4606  0.0923
 5885SOL    HW129117   1.750   2.307  10.724  1.0115  1.4832  1.4587
 5885SOL    HW229118   1.641   2.368  10.808  0.4683  1.2350 -1.8714
 5886SOL     OW29119   0.385   1.692   9.252 -0.2159 -0.4315  0.2018
 5886SOL    HW129120   0.293   1.676   9.273 -0.1721 -0.8501  0.0552
 5886SOL    HW229121   0.387   1.788   9.247 -2.2354 -0.5285 -2.5546
 5887SOL     OW29122   1.100   0.582  17.244  0.2740  0.4439 -0.5675
 5887SOL    HW129123   1.052   0.665  17.248 -1.4187 -0.7407  3.9193
 5887SOL    HW229124   1.177   0.617  17.199 -0.0115  2.9675  0.8689
 5888SOL     OW29125   0.392   1.180   1.669  0.8168  0.0768 -0.0782
 5888SOL    HW129126   0.431   1.265   1.649  0.6560  0.2916  0.5257
 5888SOL    HW229127   0.460   1.122   1.635  1.4677  0.7169  0.1352
 5889SOL     OW29128   2.133   4.426  15.027 -0.0794 -0.6249 -0.1948
 5889SOL    HW129129   2.146   4.425  14.932 -0.4741  1.1234 -0.2753
 5889SOL    HW229130   2.197   4.356  15.040  0.3160 -0.5932 -1.9535
 5890SOL     OW29131   4.488   3.932  12.216 -0.2507 -0.1352  0.2122
 5890SOL    HW129132   4.463   3.881  12.293 -2.2527  0.9188  0.2731
 5890SOL    HW229133   4.404   3.973  12.197 -0.3786  0.0832  1.2738
 5891SOL     OW29134   0.780   1.620  11.049  0.5716  0.0413 -0.3008
 5891SOL    HW129135   0.777   1.560  10.974  0.9528  0.0769 -0.3416
 5891SOL    HW229136   0.866   1.661  11.043  0.1242  1.4812  3.1655
 5892SOL     OW29137   3.426   3.365   4.520  0.2770 -0.3000 -0.6260
 5892SOL    HW129138   3.410   3.459   4.517  1.4910 -0.0575  0.7415
 5892SOL    HW229139   3.521   3.362   4.513  0.4591  0.5733  1.8048
 5893SOL     OW29140   0.138   0.266   7.831 -0.2929  0.3220  0.1810
 5893SOL    HW129141   0.067   0.286   7.770 -0.8823  1.6663  1.2939
 5893SOL    HW229142   0.195   0.200   7.792 -0.8770 -0.3936  0.5498
 5894SOL     OW29143   1.289   2.645   3.130 -0.2581  0.1607 -0.5358
 5894SOL    HW129144   1.306   2.553   3.152  1.6713  0.9784  1.3326
 5894SOL    HW229145   1.255   2.678   3.213  1.8032  1.0822 -0.0581
 5895SOL     OW29146   3.373   3.227   5.598  0.3342  0.1944 -0.5366
 5895SOL    HW129147   3.425   3.146   5.601  0.9578  0.6056 -0.3348
 5895SOL    HW229148   3.419   3.263   5.522  3.6092 -1.8790  0.4736
 5896SOL     OW29149   4.001   1.251   3.634 -0.8564  0.4396  0.2618
 5896SOL    HW129150   3.924   1.195   3.645  1.3615 -2.4433  0.9401
 5896SOL    HW229151   3.991   1.281   3.544 -1.3190 -0.7068 -0.0679
 5897SOL     OW29152   4.377   3.597   6.119  0.2681 -0.0829  0.5054
 5897SOL    HW129153   4.391   3.533   6.049  0.0578 -0.8299  1.1543
 5897SOL    HW229154   4.458   3.648   6.120 -1.5967  2.9440 -0.0592
 5898SOL     OW29155   1.276   4.331   7.138  0.3348  0.1909 -0.2355
 5898SOL    HW129156   1.269   4.267   7.209  1.0281 -1.7478 -1.8971
 5898SOL    HW229157   1.354   4.299   7.093 -0.1270 -0.1998 -0.7694
 5899SOL     OW29158   0.560   1.845  17.436 -0.2206  0.1608  0.0653
 5899SOL    HW129159   0.499   1.773  17.420 -0.7343  1.1391 -2.3539
 5899SOL    HW229160   0.594   1.863  17.348 -0.2344 -0.2354 -0.0229
 5900SOL     OW29161   3.894   4.467   3.803  0.3539 -0.2846 -0.7372
 5900SOL    HW129162   3.843   4.402   3.853  0.4398  0.5490  0.4263
 5900SOL    HW229163   3.972   4.445   3.854  0.1930  0.2828 -0.2452
 5901SOL     OW29164   2.102   3.162   2.397  0.3100 -0.3063 -0.7244
 5901SOL    HW129165   2.161   3.147   2.324  1.4617 -1.2551  0.3897
 5901SOL    HW229166   2.039   3.091   2.381 -0.0184  0.0323 -0.9055
 5902SOL     OW29167   3.404   0.151   6.739  0.3571 -0.3164  0.3195
 5902SOL    HW129168   3.371   0.067   6.771 -1.7004  0.2577 -0.3010
 5902SOL    HW229169   3.441   0.190   6.819 -1.5134  0.9702  0.5625
 5903SOL     OW29170   1.039   4.023   8.188  0.1849 -0.5535 -0.5199
 5903SOL    HW129171   1.066   4.097   8.242 -1.0076 -0.6601  0.2328
 5903SOL    HW229172   0.953   4.051   8.157  0.1499 -0.0053  0.0867
 5904SOL     OW29173   0.713   1.874  11.083 -0.2748 -0.3823  0.1145
 5904SOL    HW129174   0.618   1.869  11.071 -0.5263  2.5869  0.7883
 5904SOL    HW229175   0.737   1.782  11.073 -1.8933 -0.9904  1.9479
 5905SOL     OW29176   0.617   0.709  11.505  0.0057 -0.1720 -0.3794
 5905SOL    HW129177   0.602   0.693  11.412  0.6936 -2.1262 -0.1540
 5905SOL    HW229178   0.600   0.802  11.518  1.5152  0.5249 -3.2934
 5906SOL     OW29179   1.713   1.651   1.334  0.6792 -0.6906  0.4780
 5906SOL    HW129180   1.780   1.628   1.269 -1.0485 -4.2172 -0.0272
 5906SOL    HW229181   1.694   1.566   1.373 -2.7278  0.1771  0.6765
 5907SOL     OW29182   4.190   1.305   9.136  0.6119 -0.1533 -0.4594
 5907SOL    HW129183   4.139   1.280   9.058 -0.1396  2.6791 -0.9021
 5907SOL    HW229184   4.172   1.399   9.144 -1.2638 -0.5452 -0.0359
 5908SOL     OW29185   2.134   0.322   5.153  0.4329 -0.8531 -0.0223
 5908SOL    HW129186   2.057   0.314   5.098 -2.4435 -0.2977  3.8877
 5908SOL    HW229187   2.089   0.319   5.238  0.5628 -1.1553  0.0359
 5909SOL     OW29188   1.990   2.454   7.494 -0.1487 -0.1140  0.6023
 5909SOL    HW129189   1.998   2.495   7.408  0.3308 -0.0517  0.6747
 5909SOL    HW229190   1.994   2.535   7.546 -1.3414 -0.5971  1.4638
 5910SOL     OW29191   3.631   3.380  12.857  0.0357 -0.5560 -0.5611
 5910SOL    HW129192   3.692   3.321  12.813  1.1254 -0.6584  1.0976
 5910SOL    HW229193   3.672   3.458  12.819  1.5174 -1.7551 -1.4061
 5911SOL     OW29194   1.475   3.418   2.818  0.2067 -0.3097  0.6447
 5911SOL    HW129195   1.498   3.481   2.750  0.0344  1.4803  2.2336
 5911SOL    HW229196   1.431   3.468   2.887  0.0207  1.1019 -0.5116
 5912SOL     OW29197   3.691   3.822   5.230 -0.3023  0.7361 -0.3321
 5912SOL    HW129198   3.713   3.880   5.302  1.0256  0.2485 -0.3570
 5912SOL    HW229199   3.779   3.784   5.228  0.1153  1.7254 -0.4791
 5913SOL     OW29200   2.361   1.327   6.665 -0.0212 -0.1012  0.2298
 5913SOL    HW129201   2.272   1.325   6.700 -1.5873 -0.0552 -3.7652
 5913SOL    HW229202   2.408   1.345   6.746  0.8254  0.4145 -0.3795
 5914SOL     OW29203   1.096   3.453  11.364 -0.4082 -0.1661 -0.1476
 5914SOL    HW129204   1.024   3.435  11.302  0.1256 -2.0911 -0.2147
 5914SOL    HW229205   1.171   3.433  11.307 -1.2078 -0.6623 -1.0297
 5915SOL     OW29206   0.443   0.577   9.013  0.5721  0.1309 -0.2263
 5915SOL    HW129207   0.365   0.581   8.959  0.8120  0.1385 -0.5748
 5915SOL    HW229208   0.413   0.624   9.090  1.4751  0.3023  0.0245
 5916SOL     OW29209   1.373   0.730   2.603  0.2527 -0.5199  0.1584
 5916SOL    HW129210   1.336   0.787   2.671  0.4139  2.5086 -2.3294
 5916SOL    HW229211   1.452   0.714   2.654  0.3728  0.5663  0.3093
 5917SOL     OW29212   3.639   0.607  14.275  0.1683  0.3160 -0.2712
 5917SOL    HW129213   3.649   0.583  14.184 -0.1771  0.4352 -0.3422
 5917SOL    HW229214   3.684   0.538  14.323  1.2202  1.4562  0.3886
 5918SOL     OW29215   4.192   4.034  10.272 -0.2802 -0.1213  0.7369
 5918SOL    HW129216   4.099   4.013  10.284 -0.0918 -0.5087  1.5118
 5918SOL    HW229217   4.228   4.000  10.190  1.9408 -0.4505  1.8511
 5919SOL     OW29218   4.534   0.509   2.522  0.7033 -0.4743  0.0748
 5919SOL    HW129219   4.613   0.558   2.546 -0.8768  1.7729  0.7204
 5919SOL    HW229220   4.481   0.539   2.597  0.6585 -1.7950  0.5759
 5920SOL     OW29221   1.613   1.182   8.129 -0.0324  0.2785  0.1233
 5920SOL    HW129222   1.683   1.239   8.163 -0.9384 -0.2962  3.0166
 5920SOL    HW229223   1.543   1.198   8.193  0.2650  1.0898  0.2481
 5921SOL     OW29224   1.847   3.684   5.116 -0.2064 -0.1409 -0.3382
 5921SOL    HW129225   1.771   3.731   5.082 -0.8256 -1.2609 -0.5017
 5921SOL    HW229226   1.906   3.712   5.046  1.1960  0.6314  1.1461
 5922SOL     OW29227   3.751   3.692   4.855  0.0462  0.3552  0.2301
 5922SOL    HW129228   3.815   3.649   4.914  1.5916  1.3353 -0.7348
 5922SOL    HW229229   3.692   3.617   4.862  0.4016  0.0728  0.2451
 5923SOL     OW29230   3.815   2.466   2.989 -0.3902  0.2937  0.0855
 5923SOL    HW129231   3.798   2.372   2.987  0.4012  0.1265  1.5188
 5923SOL    HW229232   3.737   2.508   2.951 -0.9717 -0.9943 -0.1380
 5924SOL     OW29233   0.308   1.885   1.491 -0.3455  0.0703  0.0260
 5924SOL    HW129234   0.249   1.959   1.472  1.6859  1.9180  0.9458
 5924SOL    HW229235   0.290   1.855   1.579 -1.9011 -1.1328 -0.7110
 5925SOL     OW29236   2.363   3.501  10.568 -0.0521  0.0104 -0.1970
 5925SOL    HW129237   2.320   3.447  10.634 -0.3200  1.1862  0.6019
 5925SOL    HW229238   2.454   3.482  10.592  0.4271  2.1337 -0.2687
 5926SOL     OW29239   2.915   0.364  16.555  0.1249  0.4817 -0.3504
 5926SOL    HW129240   2.908   0.383  16.649 -2.3482 -2.6718  0.1045
 5926SOL    HW229241   2.828   0.368  16.517  0.1639 -0.8248 -0.5778
 5927SOL     OW29242   3.744   3.423   7.331 -0.8793 -0.6128  0.1965
 5927SOL    HW129243   3.757   3.484   7.403 -0.6165 -0.4500  0.0120
 5927SOL    HW229244   3.706   3.347   7.375  2.4026 -1.8624  0.9170
 5928SOL     OW29245   4.496   3.167   8.761  0.4759  0.6885  0.0923
 5928SOL    HW129246   4.435   3.101   8.728  2.5748 -0.9941 -0.4288
 5928SOL    HW229247   4.530   3.118   8.836 -0.2640 -1.7556 -1.1925
 5929SOL     OW29248   1.920   4.605   8.379 -0.0175  0.3262 -0.3738
 5929SOL    HW129249   1.939   4.697   8.397 -1.4819  0.3504  1.0764
 5929SOL    HW229250   1.899   4.568   8.465  2.0964 -1.6559 -0.7163
 5930SOL     OW29251   0.631   0.098   8.816 -0.2142  0.6536  0.6767
 5930SOL    HW129252   0.659   0.022   8.868 -1.0266  0.3601  0.6827
 5930SOL    HW229253   0.589   0.145   8.889 -2.0753 -0.2375  0.1850
 5931SOL     OW29254   3.192   1.339   1.255  0.1056 -0.1099 -0.0751
 5931SOL    HW129255   3.179   1.281   1.181  0.3888  1.1980 -1.1436
 5931SOL    HW229256   3.179   1.421   1.208  0.2339  0.5300  1.0016
 5932SOL     OW29257   3.299   2.631   1.183  0.0354 -0.3239  0.3843
 5932SOL    HW129258   3.261   2.656   1.267  0.9476 -2.9945  1.5951
 5932SOL    HW229259   3.256   2.546   1.173  3.7940 -2.1544 -0.4195
 5933SOL     OW29260   2.599   3.090   9.597 -0.0467  0.5232  0.0578
 5933SOL    HW129261   2.667   3.151   9.627 -1.1742  1.2922  1.0515
 5933SOL    HW229262   2.546   3.074   9.675  1.5703 -0.9652  0.8549
 5934SOL     OW29263   1.702   0.602   1.544 -0.5797 -0.1408 -0.2532
 5934SOL    HW129264   1.664   0.681   1.584  1.0136 -1.1203  3.1038
 5934SOL    HW229265   1.618   0.556   1.541 -1.6862  1.8420 -0.1885
 5935SOL     OW29266   1.596   4.697  11.560  0.4973 -0.0758  0.2144
 5935SOL    HW129267   1.646   0.053  11.555  0.1107  0.2408  1.4721
 5935SOL    HW229268   1.524   4.711  11.498  0.1910  1.8629  1.0012
 5936SOL     OW29269   3.732   2.905   8.833  0.0240  0.1428  0.2585
 5936SOL    HW129270   3.798   2.945   8.891  2.2941  2.2313 -3.7197
 5936SOL    HW229271   3.663   2.893   8.898 -0.4857  1.3236 -0.0676
 5937SOL     OW29272   1.874   0.099  11.466 -0.9612  0.6964 -0.1174
 5937SOL    HW129273   1.851   0.156  11.392 -1.6403  1.6124  0.8074
 5937SOL    HW229274   1.887   0.009  11.433 -1.1679  0.7131 -0.2487
 5938SOL     OW29275   2.669   1.764  13.962  0.5191 -0.7235 -0.1119
 5938SOL    HW129276   2.727   1.754  13.886 -0.4757 -0.7675 -0.8646
 5938SOL    HW229277   2.616   1.685  13.970  0.6069 -0.8498 -0.7448
 5939SOL     OW29278   2.563   1.691   5.571  0.4429  0.1086  0.3229
 5939SOL    HW129279   2.483   1.639   5.562  0.4897  0.8092 -4.2662
 5939SOL    HW229280   2.570   1.690   5.666  2.3941  0.1120  0.1841
 5940SOL     OW29281   3.486   4.247   7.279  0.0234  0.2883  0.5564
 5940SOL    HW129282   3.394   4.224   7.263  0.7007 -2.0531  0.0223
 5940SOL    HW229283   3.501   4.300   7.200  2.2847  0.5656  1.1964
 5941SOL     OW29284   0.581   3.921   3.047  0.6099 -0.3675  0.7527
 5941SOL    HW129285   0.665   3.926   3.093  0.7072  1.6248  0.3691
 5941SOL    HW229286   0.527   3.961   3.115  1.0396  0.2818  0.7112
 5942SOL     OW29287   1.247   2.966  14.606 -0.2922 -0.0608  0.4999
 5942SOL    HW129288   1.279   2.962  14.515  2.0389  1.2119  1.2741
 5942SOL    HW229289   1.299   2.903  14.656  1.0232 -0.7457 -1.7074
 5943SOL     OW29290   1.561   4.657   1.149  0.2392 -0.0089 -0.4211
 5943SOL    HW129291   1.503   4.620   1.216 -0.8414  1.2717 -0.6386
 5943SOL    HW229292   1.643   4.653   1.197 -0.6904  2.3771  1.3821
 5944SOL     OW29293   0.471   3.231  11.336  0.4840 -0.1202 -0.4899
 5944SOL    HW129294   0.461   3.206  11.244 -2.2380  0.2245 -0.2650
 5944SOL    HW229295   0.565   3.216  11.350 -0.0463 -2.3510  0.7493
 5945SOL     OW29296   2.629   0.702   8.322 -0.1467  0.2462 -0.0880
 5945SOL    HW129297   2.633   0.750   8.239  0.4454 -0.1601 -0.2925
 5945SOL    HW229298   2.693   0.635   8.296  1.6561  1.8821  0.1117
 5946SOL     OW29299   1.730   2.852  10.942  0.1471  0.4482  0.3996
 5946SOL    HW129300   1.774   2.768  10.930 -0.2147  0.3201  0.0015
 5946SOL    HW229301   1.642   2.816  10.951  0.9268 -1.1562  1.5719
 5947SOL     OW29302   4.480   4.088  16.573 -0.2383 -0.1154 -0.2188
 5947SOL    HW129303   4.519   4.004  16.546  0.8394  0.0974  0.6787
 5947SOL    HW229304   4.496   4.144  16.496 -0.0239  0.4790  0.2600
 5948SOL     OW29305   2.974   2.463   0.015 -0.1387 -0.3803 -0.3890
 5948SOL    HW129306   3.013   2.441   0.099  3.6534 -2.2661 -2.6044
 5948SOL    HW229307   3.030   2.538  17.692 -1.0431  0.4241  0.0076
 5949SOL     OW29308   1.574   2.684   7.080  0.4794 -0.3169 -0.1408
 5949SOL    HW129309   1.506   2.692   7.012  1.1598 -0.0669 -0.7952
 5949SOL    HW229310   1.639   2.751   7.060  0.3924  0.8137  3.3923
 5950SOL     OW29311   0.735   3.665   4.568 -0.7460 -0.5265 -0.3144
 5950SOL    HW129312   0.822   3.669   4.609  0.0719  1.0882 -2.1982
 5950SOL    HW229313   0.692   3.597   4.619 -0.5488 -1.3151 -1.2058
 5951SOL     OW29314   3.553   2.327   5.141  0.3645 -0.1315  0.3302
 5951SOL    HW129315   3.624   2.330   5.077  1.8533  0.6604  2.0315
 5951SOL    HW229316   3.531   2.421   5.142  0.3815 -0.1241  0.0863
 5952SOL     OW29317   4.418   2.915   4.760 -0.2780  0.4563  0.5095
 5952SOL    HW129318   4.469   2.835   4.754 -0.0282  0.5885  0.8882
 5952SOL    HW229319   4.398   2.935   4.669 -1.1352 -0.2220  0.5498
 5953SOL     OW29320   2.106   1.020  16.766 -0.4283  0.0582  0.0365
 5953SOL    HW129321   2.082   1.112  16.765 -0.9614 -0.1066 -1.8767
 5953SOL    HW229322   2.163   1.020  16.843  0.6778 -1.9225 -0.7881
 5954SOL     OW29323   2.160   3.156   9.844  0.0189  0.0737  0.3943
 5954SOL    HW129324   2.181   3.175   9.935 -0.4399 -0.4586  0.6145
 5954SOL    HW229325   2.090   3.217   9.822  1.9107  1.9253 -0.4797
 5955SOL     OW29326   2.475   0.688   5.552  0.0346  0.0113 -0.5465
 5955SOL    HW129327   2.559   0.672   5.510  0.6801 -0.8567  1.0970
 5955SOL    HW229328   2.424   0.687   5.471  0.0859 -1.3057 -0.5598
 5956SOL     OW29329   2.559   2.972  16.548  0.4419 -0.3181  0.3795
 5956SOL    HW129330   2.595   2.978  16.459 -2.8588  2.9820 -0.7092
 5956SOL    HW229331   2.632   3.017  16.591  0.2255 -0.1580  0.5760
 5957SOL     OW29332   2.291   2.168   2.120  0.5610  0.5672  0.4760
 5957SOL    HW129333   2.212   2.151   2.170 -0.4118  0.3781 -1.1312
 5957SOL    HW229334   2.250   2.212   2.046 -1.3997  0.3158  1.4251
 5958SOL     OW29335   0.463   2.767   9.347  0.0607 -0.3976  0.1407
 5958SOL    HW129336   0.443   2.824   9.273  1.4279 -4.0148 -2.9737
 5958SOL    HW229337   0.556   2.783   9.358  0.2613 -1.6940  0.3400
 5959SOL     OW29338   0.011   0.266   1.311 -0.3592  0.6648 -0.3458
 5959SOL    HW129339   4.720   0.277   1.218 -2.7019  0.5972  0.0490
 5959SOL    HW229340   0.031   0.173   1.325 -0.5981  0.6292 -0.2491
 5960SOL     OW29341   3.446   4.412   3.677 -0.2284 -0.0408 -0.4679
 5960SOL    HW129342   3.458   4.437   3.769  1.0945 -0.7553 -0.4420
 5960SOL    HW229343   3.362   4.366   3.675  0.2351 -0.8512 -1.3435
 5961SOL     OW29344   4.499   3.206   6.468  0.0219 -0.8648 -0.1725
 5961SOL    HW129345   4.418   3.186   6.514 -0.6709  1.3774 -0.3886
 5961SOL    HW229346   4.477   3.293   6.434 -1.3563 -1.3592 -0.5284
 5962SOL     OW29347   3.462   3.431  15.810 -0.0473  0.1704 -0.2751
 5962SOL    HW129348   3.454   3.523  15.835 -0.4376 -0.3139  1.3735
 5962SOL    HW229349   3.556   3.428  15.795 -0.2662  1.1359 -1.8222
 5963SOL     OW29350   1.756   1.607   3.748 -0.0273 -0.2818  0.7650
 5963SOL    HW129351   1.772   1.686   3.698 -0.3496  0.0094  1.1179
 5963SOL    HW229352   1.741   1.552   3.671  0.1430 -0.0440  0.5656
 5964SOL     OW29353   0.840   0.707   3.760  0.3689 -0.7101 -0.1429
 5964SOL    HW129354   0.786   0.655   3.820  0.1512  1.0106  1.1764
 5964SOL    HW229355   0.769   0.744   3.707  1.8596  0.4238 -1.3388
 5965SOL     OW29356   2.059   0.901   8.385 -0.2320 -0.2914  0.3485
 5965SOL    HW129357   2.120   0.936   8.450 -1.7112  4.5881 -0.8761
 5965SOL    HW229358   2.083   0.809   8.372 -1.0211 -0.6904  1.7733
 5966SOL     OW29359   2.932   4.016   7.889  0.3670  0.5177  0.0891
 5966SOL    HW129360   2.841   4.030   7.916  0.6413  0.0578  1.2679
 5966SOL    HW229361   2.911   3.938   7.838  0.5260  0.7558 -0.3410
 5967SOL     OW29362   0.940   3.788   5.230 -0.6801 -0.1503  0.3021
 5967SOL    HW129363   0.876   3.717   5.236  0.4674 -1.0994  1.3052
 5967SOL    HW229364   0.965   3.768   5.140 -0.0776  2.6500 -0.1401
 5968SOL     OW29365   2.829   3.218   9.653  0.0951 -0.1943 -0.3762
 5968SOL    HW129366   2.798   3.290   9.708 -0.6336 -0.9727  0.2449
 5968SOL    HW229367   2.923   3.205   9.663 -0.4027 -3.0659  0.8405
 5969SOL     OW29368   1.128   4.510  10.268  0.3790 -0.1716 -0.9514
 5969SOL    HW129369   1.128   4.539  10.360 -0.7728  1.6148 -1.5195
 5969SOL    HW229370   1.034   4.492  10.268  0.4658 -0.6584  0.6563
 5970SOL     OW29371   4.668   3.976  14.385 -0.4771  0.2225  0.1006
 5970SOL    HW129372   4.674   4.062  14.344  3.4717  1.2853  2.9876
 5970SOL    HW229373   0.008   3.982  14.454 -0.1157  0.2007 -0.2384
 5971SOL     OW29374   2.046   2.479   4.355 -0.2969  0.7472  0.0511
 5971SOL    HW129375   2.022   2.387   4.356  1.6029  0.2882  2.7752
 5971SOL    HW229376   2.108   2.485   4.283 -0.3271 -0.1495 -0.0524
 5972SOL     OW29377   4.268   3.060   1.940 -0.2504  0.1572 -0.4519
 5972SOL    HW129378   4.351   3.013   1.944 -0.4984  0.0063  2.9209
 5972SOL    HW229379   4.239   3.028   1.855  0.1817  0.7602 -0.8250
 5973SOL     OW29380   1.031   0.097   7.846 -0.3186 -0.0496 -0.7982
 5973SOL    HW129381   1.027   0.050   7.763  0.3171 -1.1053 -0.2216
 5973SOL    HW229382   0.994   0.186   7.839  1.0703  0.5828  0.0190
 5974SOL     OW29383   1.872   3.070  15.077  0.2098 -0.1577 -0.4639
 5974SOL    HW129384   1.809   3.086  15.006 -1.5593 -1.1464  0.8916
 5974SOL    HW229385   1.879   3.160  15.110 -0.4931  0.2638 -1.4694
 5975SOL     OW29386   2.565   3.280   4.308  0.0886 -0.3131  0.5876
 5975SOL    HW129387   2.510   3.358   4.320 -1.4229 -1.2317 -0.3422
 5975SOL    HW229388   2.498   3.221   4.276 -0.3435  0.5752 -0.1474
 5976SOL     OW29389   0.455   2.733  14.409 -0.1600 -0.9966 -0.6250
 5976SOL    HW129390   0.379   2.737  14.351  1.0575  1.8095 -2.0355
 5976SOL    HW229391   0.523   2.783  14.363 -0.2505 -1.0719 -0.8408
 5977SOL     OW29392   1.653   2.014   6.144  0.0484 -0.5868 -0.1800
 5977SOL    HW129393   1.705   2.079   6.097  0.2491  0.3747  1.3594
 5977SOL    HW229394   1.652   2.045   6.235  3.5718  0.2419 -0.4255
 5978SOL     OW29395   3.589   1.151  14.104 -0.5469 -0.0790  0.3378
 5978SOL    HW129396   3.498   1.146  14.132 -1.4502  2.3296 -2.1674
 5978SOL    HW229397   3.581   1.197  14.020  1.9947 -0.1218  0.0729
 5979SOL     OW29398   2.218   2.462  16.854 -0.0343  0.1949 -0.1312
 5979SOL    HW129399   2.244   2.519  16.927 -2.2218  0.3386  0.5411
 5979SOL    HW229400   2.217   2.528  16.785  0.9802 -0.7752 -1.0758
 5980SOL     OW29401   2.464   1.116   8.672 -0.7715  0.2642 -0.5334
 5980SOL    HW129402   2.376   1.095   8.641 -0.4330  0.7048 -1.7834
 5980SOL    HW229403   2.436   1.205   8.694 -1.3800 -0.2896  0.9676
 5981SOL     OW29404   3.626   3.915   4.973  0.0502 -0.7553 -0.5470
 5981SOL    HW129405   3.656   3.869   5.052  1.7784  1.1422 -0.1061
 5981SOL    HW229406   3.642   3.844   4.912  1.5246  0.5176 -1.6355
 5982SOL     OW29407   4.140   0.336   2.512 -0.1195 -0.0627 -0.1131
 5982SOL    HW129408   4.125   0.251   2.554  0.8654 -2.2368 -4.0969
 5982SOL    HW229409   4.227   0.349   2.548  0.3125 -0.9320 -0.8465
 5983SOL     OW29410   3.316   4.472  15.012 -0.0806 -1.1459 -0.8505
 5983SOL    HW129411   3.243   4.439  14.961  0.0461  1.3996 -2.6668
 5983SOL    HW229412   3.265   4.505  15.086  0.1930 -0.2191 -1.0846
 5984SOL     OW29413   2.755   0.608   7.392 -0.4269  0.8799 -0.2426
 5984SOL    HW129414   2.820   0.574   7.331 -0.7311 -0.2917  0.0847
 5984SOL    HW229415   2.779   0.559   7.471 -0.5044  0.9641 -0.1666
 5985SOL     OW29416   1.775   1.210   0.752  0.6374  0.0338  0.3364
 5985SOL    HW129417   1.813   1.180   0.835  0.5263  0.5862  0.5840
 5985SOL    HW229418   1.763   1.300   0.780 -1.5196 -0.5856  1.4260
 5986SOL     OW29419   2.890   2.146   0.578 -0.3754 -0.4132 -0.1316
 5986SOL    HW129420   2.837   2.161   0.655 -0.6592  1.3524 -0.6667
 5986SOL    HW229421   2.945   2.083   0.624 -1.9900 -1.5759  0.2199
 5987SOL     OW29422   4.442   1.751   4.247  0.1936  0.5679  0.3575
 5987SOL    HW129423   4.402   1.799   4.175  2.5420  0.7528 -0.8250
 5987SOL    HW229424   4.485   1.679   4.202  1.2287 -1.1102  4.0237
 5988SOL     OW29425   2.197   2.308   8.439 -0.3033 -0.2071  0.1804
 5988SOL    HW129426   2.215   2.352   8.522  0.3705 -0.6391  0.2629
 5988SOL    HW229427   2.104   2.289   8.448 -0.7443  1.7350 -0.2145
 5989SOL     OW29428   0.151   2.290   8.618 -0.3508  0.3111  0.8073
 5989SOL    HW129429   0.169   2.260   8.528 -1.7403  1.8854  0.0078
 5989SOL    HW229430   0.146   2.205   8.662 -1.0600 -0.6089 -1.0416
 5990SOL     OW29431   0.327   0.443   5.783 -0.2820  0.1909  0.2840
 5990SOL    HW129432   0.409   0.483   5.810  0.2419 -1.0694  0.5903
 5990SOL    HW229433   0.281   0.419   5.864 -0.6671  0.0266  0.0211
 5991SOL     OW29434   1.573   2.156   1.045 -0.1885  0.0255  0.1364
 5991SOL    HW129435   1.547   2.245   1.022 -0.3250 -0.1049 -0.2175
 5991SOL    HW229436   1.495   2.107   1.019 -0.1095 -0.5906  1.0216
 5992SOL     OW29437   0.393   2.501   5.831  0.0436 -0.4710  0.1349
 5992SOL    HW129438   0.325   2.452   5.785 -1.5383  2.7763 -0.9445
 5992SOL    HW229439   0.439   2.429   5.873 -0.4650  0.3746  2.1541
 5993SOL     OW29440   2.345   2.720  15.676 -0.7751 -0.2491  0.1226
 5993SOL    HW129441   2.367   2.672  15.595  0.8194  1.3461 -0.3946
 5993SOL    HW229442   2.426   2.706  15.726  0.3269 -2.5756 -2.2956
 5994SOL     OW29443   2.566   0.010   4.054 -0.0538 -0.1416  0.1870
 5994SOL    HW129444   2.607   0.027   4.138  2.1603 -2.9857 -0.2992
 5994SOL    HW229445   2.475   0.019   4.082 -0.3833 -0.8156 -0.6442
 5995SOL     OW29446   0.223   3.022   4.610 -0.1533  0.4623  0.3854
 5995SOL    HW129447   0.232   2.993   4.701 -0.9434  0.6166  0.5135
 5995SOL    HW229448   0.275   3.101   4.614  1.2180 -0.3811 -0.5910
 5996SOL     OW29449   0.035   1.375   8.089  0.6609  0.4907  0.1240
 5996SOL    HW129450   0.057   1.467   8.071 -0.8999  0.8401 -0.0196
 5996SOL    HW229451   0.114   1.348   8.136  2.0806  1.7894 -1.4842
 5997SOL     OW29452   0.661   1.662   4.910  0.2511 -0.0133 -0.0543
 5997SOL    HW129453   0.715   1.729   4.867  1.0106 -0.3957  0.3120
 5997SOL    HW229454   0.580   1.667   4.860  0.3169  1.8566  0.0131
 5998SOL     OW29455   1.832   2.570   7.126 -0.0095  0.0794  0.1330
 5998SOL    HW129456   1.860   2.614   7.207 -1.8993 -1.1357  1.4633
 5998SOL    HW229457   1.752   2.620   7.112  0.4908  0.6105 -0.7892
 5999SOL     OW29458   0.915   0.144  16.458 -0.2700  0.6614  0.2413
 5999SOL    HW129459   0.913   0.181  16.370 -0.9612 -0.2681 -0.1340
 5999SOL    HW229460   0.967   0.067  16.435  1.3571  0.8800  3.2511
 6000SOL     OW29461   4.242   2.662   7.418 -0.3181  0.2482  0.2067
 6000SOL    HW129462   4.312   2.654   7.483 -2.1607 -0.3938  2.0884
 6000SOL    HW229463   4.281   2.621   7.340  0.7394  0.9693  0.3623
 6001SOL     OW29464   2.253   3.473   7.826 -0.6162 -0.3727  0.3691
 6001SOL    HW129465   2.171   3.511   7.858 -0.3153  0.9328 -0.3998
 6001SOL    HW229466   2.217   3.386   7.810  0.4223 -0.8436  0.5954
 6002SOL     OW29467   3.526   2.631  16.028 -0.1289  0.0935 -0.1271
 6002SOL    HW129468   3.457   2.667  16.083 -2.0342 -2.8784 -0.5589
 6002SOL    HW229469   3.540   2.711  15.977  0.4791  1.5315  2.2950
 6003SOL     OW29470   2.193   3.385   8.707 -0.3813  0.3588 -0.4101
 6003SOL    HW129471   2.120   3.401   8.646 -0.0504  0.8402 -0.6775
 6003SOL    HW229472   2.233   3.472   8.706  0.9488 -0.2658 -0.0655
 6004SOL     OW29473   1.769   4.408  14.631  0.4494  0.1254 -0.5018
 6004SOL    HW129474   1.789   4.455  14.550  0.9161  2.4907  0.9937
 6004SOL    HW229475   1.830   4.463  14.680  0.5873 -0.0241 -0.5061
 6005SOL     OW29476   3.442   4.502  10.322 -0.3473  0.4386 -0.0903
 6005SOL    HW129477   3.401   4.546  10.247 -1.1129  0.0740  0.1059
 6005SOL    HW229478   3.403   4.415  10.323 -2.5058  1.3439 -2.6033
 6006SOL     OW29479   2.482   2.645   6.501 -0.2609  0.3640  0.0722
 6006SOL    HW129480   2.556   2.592   6.530  0.5235  0.6367 -1.4389
 6006SOL    HW229481   2.411   2.612   6.556 -0.4470 -1.4854 -1.2785
 6007SOL     OW29482   3.976   2.842   3.030 -0.1474 -0.2254 -0.4313
 6007SOL    HW129483   3.891   2.813   3.062 -0.0293  1.5253  1.5309
 6007SOL    HW229484   4.038   2.798   3.089 -0.2681 -1.5587 -1.3126
 6008SOL     OW29485   0.855   3.898   2.717 -0.3064  0.1942 -0.0357
 6008SOL    HW129486   0.773   3.945   2.732 -0.1295  0.2593  0.7120
 6008SOL    HW229487   0.870   3.912   2.624 -1.0423  0.9392 -0.0422
 6009SOL     OW29488   2.239   4.708  11.476 -0.2936 -0.2190 -0.1779
 6009SOL    HW129489   2.206   4.708  11.566 -3.2157  1.3249 -1.2164
 6009SOL    HW229490   2.322   0.025  11.495 -1.6405  2.4276 -0.1192
 6010SOL     OW29491   0.786   2.690  17.505 -0.4865  0.0545 -0.7603
 6010SOL    HW129492   0.790   2.615  17.564 -1.0981 -0.0394 -0.8339
 6010SOL    HW229493   0.859   2.668  17.447  1.2406  0.8758  1.0801
 6011SOL     OW29494   1.340   4.464  11.680  0.5231 -0.2104  0.2849
 6011SOL    HW129495   1.418   4.425  11.640  1.6315  3.3667 -0.9849
 6011SOL    HW229496   1.333   4.542  11.626  1.3389 -0.9248 -0.8465
 6012SOL     OW29497   4.364   2.528   7.782 -0.7386 -0.1732  0.5732
 6012SOL    HW129498   4.388   2.435   7.778 -2.3713 -0.5900  0.4641
 6012SOL    HW229499   4.435   2.569   7.733 -0.3297 -0.2375  1.1231
 6013SOL     OW29500   3.085   0.688   5.674 -0.2056  0.1679  0.1476
 6013SOL    HW129501   3.123   0.775   5.677  0.0910 -0.0410  2.6673
 6013SOL    HW229502   3.067   0.667   5.766  0.9031 -1.0110  0.0961
 6014SOL     OW29503   1.823   4.119   5.306  0.4409 -0.7924  0.5618
 6014SOL    HW129504   1.778   4.203   5.317 -0.2757 -0.8224 -2.1479
 6014SOL    HW229505   1.761   4.066   5.356  1.4793 -0.9501  1.6864
 6015SOL     OW29506   0.910   1.562   2.948  0.4067  0.1953 -0.3432
 6015SOL    HW129507   0.936   1.625   2.880  0.4918  2.2890  1.6425
 6015SOL    HW229508   0.815   1.552   2.937  0.1454  2.3577 -0.0268
 6016SOL     OW29509   0.325   3.278   6.816 -0.7968 -0.4070 -0.1575
 6016SOL    HW129510   0.412   3.240   6.827 -0.5189 -0.2024 -1.7085
 6016SOL    HW229511   0.284   3.246   6.896  1.5912  0.1547  1.2951
 6017SOL     OW29512   1.250   1.944   7.579  0.4418 -0.1014 -0.2959
 6017SOL    HW129513   1.221   1.906   7.662  1.4094  0.6443  0.3890
 6017SOL    HW229514   1.271   2.029   7.616 -1.2370  0.2401 -0.1300
 6018SOL     OW29515   1.213   1.718   7.095  0.3737  0.1036 -0.1118
 6018SOL    HW129516   1.222   1.788   7.159  0.7005 -0.6221  0.6372
 6018SOL    HW229517   1.150   1.757   7.034  0.4700 -0.5703 -0.6527
 6019SOL     OW29518   1.452   4.308   7.497  0.0269  0.1108 -0.4524
 6019SOL    HW129519   1.497   4.323   7.414 -0.3704  1.0506 -0.4934
 6019SOL    HW229520   1.498   4.230   7.526 -1.4703 -0.3630  0.6272
 6020SOL     OW29521   4.397   3.612   2.677  1.1657  0.3517 -0.0307
 6020SOL    HW129522   4.307   3.636   2.654  0.8619 -0.4105  0.3394
 6020SOL    HW229523   4.446   3.675   2.625  2.7412 -0.0475  0.9487
 6021SOL     OW29524   1.984   3.653   8.644 -0.3107 -0.5460 -0.1815
 6021SOL    HW129525   1.951   3.591   8.579  0.3155 -1.2535  0.1643
 6021SOL    HW229526   1.906   3.702   8.670  0.9211  1.2487  0.1248
 6022SOL     OW29527   2.713   2.173   8.323  0.1319  0.8055 -0.6796
 6022SOL    HW129528   2.751   2.136   8.244 -1.8157 -0.9493 -0.7641
 6022SOL    HW229529   2.622   2.144   8.322 -0.1508  1.6206  1.0375
 6023SOL     OW29530   4.599   1.718   8.979 -0.1644  0.5615  0.2129
 6023SOL    HW129531   4.690   1.722   9.007 -0.1946  1.0095  0.2442
 6023SOL    HW229532   4.593   1.810   8.954 -0.8996  0.9601  1.8173
 6024SOL     OW29533   0.310   4.349   1.489  0.7582  0.2030 -0.0855
 6024SOL    HW129534   0.329   4.255   1.490  1.2223  0.3035  0.5684
 6024SOL    HW229535   0.390   4.380   1.448  0.8564  1.7772  1.2818
 6025SOL     OW29536   0.316   2.064   7.740 -0.0712  0.5351  0.0144
 6025SOL    HW129537   0.351   2.061   7.651  0.0286 -1.1633  0.1053
 6025SOL    HW229538   0.279   2.151   7.753 -1.4321 -0.0273 -0.0484
 6026SOL     OW29539   0.094   4.151   0.366  0.7486  0.0555 -0.0865
 6026SOL    HW129540   0.092   4.064   0.407 -2.1353  0.6173  1.0250
 6026SOL    HW229541   0.003   4.166   0.340  2.3872  1.7085 -4.8213
 6027SOL     OW29542   2.773   3.611   3.697 -0.2770  0.0684  0.2058
 6027SOL    HW129543   2.731   3.663   3.628  0.6939  0.3692 -0.1613
 6027SOL    HW229544   2.712   3.539   3.712 -1.9197  1.6608  1.1726
 6028SOL     OW29545   4.055   4.117   4.658 -0.2481 -0.0636  0.3073
 6028SOL    HW129546   4.106   4.188   4.620  1.0681 -1.8766 -1.2991
 6028SOL    HW229547   4.062   4.053   4.587  0.4363 -2.0687  2.1903
 6029SOL     OW29548   2.333   1.639   3.605  0.4341  0.5710  0.2107
 6029SOL    HW129549   2.388   1.635   3.527  0.8317 -2.4883  0.6426
 6029SOL    HW229550   2.399   1.630   3.674 -0.3651  3.5529  1.3614
 6030SOL     OW29551   1.939   1.914   6.569  0.0538  0.3733 -0.0177
 6030SOL    HW129552   1.888   1.951   6.641  1.6801  1.4298  0.5930
 6030SOL    HW229553   1.892   1.831   6.560 -0.7527  0.5743  2.3970
 6031SOL     OW29554   4.395   4.652   4.595 -0.4761 -0.0927 -0.1283
 6031SOL    HW129555   4.397   4.576   4.654 -0.5292 -0.0009 -0.0090
 6031SOL    HW229556   4.468   4.643   4.534  0.2462  0.4426  0.6572
 6032SOL     OW29557   4.455   4.046   6.410  0.1120  0.6605  0.3600
 6032SOL    HW129558   4.479   4.053   6.317 -2.2412  0.3731 -0.2688
 6032SOL    HW229559   4.524   3.994   6.452 -0.5678 -0.6984 -0.2011
 6033SOL     OW29560   4.051   2.485   2.836  0.9274 -0.3381  0.1955
 6033SOL    HW129561   3.966   2.511   2.871 -0.1895 -2.4029 -0.9636
 6033SOL    HW229562   4.041   2.400   2.792 -0.9349 -1.0400  1.9825
 6034SOL     OW29563   0.784   1.257   6.031 -0.1803  0.3554 -0.2315
 6034SOL    HW129564   0.874   1.262   6.064 -0.2048 -2.0297  0.1409
 6034SOL    HW229565   0.783   1.305   5.948 -0.0299 -1.0685 -1.0478
 6035SOL     OW29566   0.559   4.554   9.764 -0.3505  0.1759 -0.8087
 6035SOL    HW129567   0.477   4.605   9.764  0.7303  1.9070  0.6381
 6035SOL    HW229568   0.606   4.614   9.822 -1.8804 -0.6971  1.3005
 6036SOL     OW29569   2.443   1.317  17.121  0.1247 -0.7466  0.0913
 6036SOL    HW129570   2.527   1.270  17.118  1.0190  0.8620 -0.3598
 6036SOL    HW229571   2.419   1.294  17.211 -0.6746  2.5905  0.7614
 6037SOL     OW29572   2.617   1.656  17.031 -0.3322  0.1549  0.2323
 6037SOL    HW129573   2.554   1.588  17.007 -0.4560 -0.4937  2.4175
 6037SOL    HW229574   2.615   1.643  17.125  0.0597  1.4197  0.4113
 6038SOL     OW29575   2.724   0.759  11.786 -0.8525  0.1470  0.1667
 6038SOL    HW129576   2.718   0.763  11.882 -3.9816 -0.0410 -0.0267
 6038SOL    HW229577   2.655   0.699  11.757 -0.9367  0.4193 -0.1892
 6039SOL     OW29578   1.019   3.054   3.389 -0.6299 -0.1272  0.5393
 6039SOL    HW129579   1.079   3.036   3.462 -0.5337  0.9220  0.7171
 6039SOL    HW229580   1.068   3.045   3.308 -1.9655  0.2336 -0.3007
 6040SOL     OW29581   3.601   0.472   5.177 -0.6023 -0.2244 -0.4102
 6040SOL    HW129582   3.564   0.398   5.227 -0.1002 -1.0647 -1.2719
 6040SOL    HW229583   3.531   0.534   5.195 -1.9798 -1.5022 -1.2402
 6041SOL     OW29584   1.134   3.717   0.929  0.1234  0.2925 -0.8168
 6041SOL    HW129585   1.204   3.658   0.901  1.4773  0.3920  2.4288
 6041SOL    HW229586   1.112   3.766   0.850 -0.7975 -0.2486 -0.9066
 6042SOL     OW29587   1.348   1.575   2.281  0.4864 -0.4213  0.2044
 6042SOL    HW129588   1.313   1.628   2.353 -0.9729 -0.8265 -0.2023
 6042SOL    HW229589   1.357   1.635   2.208  0.3712 -1.2979 -0.5230
 6043SOL     OW29590   0.621   1.022  11.826 -0.3917 -0.2199  0.3907
 6043SOL    HW129591   0.676   1.094  11.856  0.6996 -0.6629 -0.5439
 6043SOL    HW229592   0.547   1.024  11.887  1.0971 -2.1330  2.2351
 6044SOL     OW29593   2.969   1.291   2.509 -0.3706 -0.4650  0.3394
 6044SOL    HW129594   2.951   1.383   2.493 -3.5131 -1.0553  0.3925
 6044SOL    HW229595   2.929   1.287   2.596 -0.1988 -1.5243  0.3737
 6045SOL     OW29596   2.022   0.490   7.202 -0.1035 -0.3302 -1.0924
 6045SOL    HW129597   2.028   0.528   7.114 -1.1596 -0.3284 -1.1554
 6045SOL    HW229598   2.058   0.563   7.253  1.9984 -0.9336 -1.7257
 6046SOL     OW29599   1.807   3.720  10.648  0.3294  0.4029 -0.2659
 6046SOL    HW129600   1.754   3.648  10.613 -0.1264  1.0797 -0.9669
 6046SOL    HW229601   1.896   3.688  10.633 -0.3152 -0.7909 -1.5000
 6047SOL     OW29602   2.721   2.952   2.586 -0.2404  0.1194  0.6741
 6047SOL    HW129603   2.671   3.030   2.564  0.6952  0.9403  1.4230
 6047SOL    HW229604   2.789   2.952   2.519 -0.0292  0.6720  0.8874
 6048SOL     OW29605   3.029   2.469   5.099  0.5807 -0.4432 -0.6909
 6048SOL    HW129606   3.105   2.425   5.136  0.0784 -0.9724 -0.2882
 6048SOL    HW229607   3.055   2.437   5.012 -1.1472  1.1231 -1.7870
 6049SOL     OW29608   2.318   3.874   5.380 -0.1939 -0.1328 -0.2423
 6049SOL    HW129609   2.252   3.859   5.312 -0.2116  0.4932 -0.3653
 6049SOL    HW229610   2.328   3.969   5.385  0.2968 -0.2766  1.4639
 6050SOL     OW29611   0.227   2.570   5.474 -0.3549  0.4470  0.1755
 6050SOL    HW129612   0.271   2.603   5.395 -2.2177 -1.0472 -1.4942
 6050SOL    HW229613   0.301   2.549   5.530 -0.2091 -1.4185 -0.7074
 6051SOL     OW29614   3.023   1.545   4.872 -0.8728  0.2010  0.4561
 6051SOL    HW129615   2.929   1.542   4.855 -0.5397 -1.4526 -1.0823
 6051SOL    HW229616   3.053   1.555   4.782 -0.4702  1.5798  0.7424
 6052SOL     OW29617   1.836   0.420  12.452 -0.4589  0.3351 -0.0078
 6052SOL    HW129618   1.828   0.413  12.357  1.1163  1.6280 -0.2538
 6052SOL    HW229619   1.747   0.431  12.485 -0.2709  2.3446 -0.1296
 6053SOL     OW29620   0.021   2.126  14.745 -0.1787  0.4394  0.2206
 6053SOL    HW129621   4.685   2.087  14.682 -0.0056  1.0929 -0.3563
 6053SOL    HW229622   0.055   2.045  14.784  3.5845  2.4846  1.1686
 6054SOL     OW29623   2.053   0.384   0.130 -0.3542  0.2938 -0.2404
 6054SOL    HW129624   2.105   0.403   0.051  0.3894 -2.8244 -0.5270
 6054SOL    HW229625   1.988   0.454   0.130 -0.3906  0.2558  1.4634
 6055SOL     OW29626   4.055   3.346   3.876 -0.1551  0.1617 -0.1656
 6055SOL    HW129627   4.015   3.432   3.888  1.9215  1.1762 -0.5054
 6055SOL    HW229628   3.987   3.302   3.826 -0.5249 -0.0272  0.5016
 6056SOL     OW29629   0.506   1.131   1.365 -0.1838  0.4338  0.0636
 6056SOL    HW129630   0.579   1.069   1.363 -0.7551 -0.3119  2.4177
 6056SOL    HW229631   0.467   1.115   1.279  1.6907 -0.1579 -0.6888
 6057SOL     OW29632   1.327   1.258  13.941  0.2322 -0.0238  0.0112
 6057SOL    HW129633   1.268   1.280  13.869  2.9922  0.6529 -2.0569
 6057SOL    HW229634   1.272   1.211  14.003  0.3616 -2.5240 -1.7643
 6058SOL     OW29635   1.228   2.126   9.419 -0.7906  0.2670 -0.3076
 6058SOL    HW129636   1.172   2.071   9.364 -0.4691 -1.4582  1.1205
 6058SOL    HW229637   1.213   2.100   9.510 -1.9767  0.3926 -0.4609
 6059SOL     OW29638   0.819   4.063  15.790 -0.1482 -0.1826  0.3646
 6059SOL    HW129639   0.893   4.072  15.730  0.9280  0.1490  1.7206
 6059SOL    HW229640   0.748   4.085  15.731 -0.0311 -0.5256  0.0959
 6060SOL     OW29641   0.599   3.037   4.189 -0.7721 -0.5991 -0.9354
 6060SOL    HW129642   0.691   3.014   4.202 -0.4235 -0.6079 -3.4027
 6060SOL    HW229643   0.559   3.013   4.273  0.1932  2.9953  0.5269
 6061SOL     OW29644   3.135   2.498   2.818  0.1161  0.3708  0.2002
 6061SOL    HW129645   3.050   2.458   2.832  0.6009 -0.2578  1.3458
 6061SOL    HW229646   3.176   2.486   2.904  2.6691  0.2813 -1.0364
 6062SOL     OW29647   3.584   4.192  12.969  0.1450 -0.2101 -0.1984
 6062SOL    HW129648   3.499   4.155  12.994 -0.8033  1.0879 -1.5122
 6062SOL    HW229649   3.557   4.233  12.887 -0.4900  0.8083  0.5172
 6063SOL     OW29650   3.396   3.028  10.611 -0.3378 -0.3947  0.0517
 6063SOL    HW129651   3.454   2.952  10.617 -1.5155 -1.2242  0.8759
 6063SOL    HW229652   3.465   3.089  10.584 -0.8081 -0.3695 -1.0800
 6064SOL     OW29653   2.273   3.048   5.646 -0.0085 -0.0243  0.2413
 6064SOL    HW129654   2.287   3.035   5.552  0.9933  0.0607  0.3784
 6064SOL    HW229655   2.204   2.984   5.667 -0.9869  0.6821 -0.8594
 6065SOL     OW29656   2.423   0.728   0.230 -0.1604 -0.0089  0.5499
 6065SOL    HW129657   2.407   0.651   0.285 -0.1170 -0.6129 -0.2872
 6065SOL    HW229658   2.477   0.784   0.285  1.1444  1.1106 -1.8712
 6066SOL     OW29659   0.688   0.987   5.680  0.2098 -0.1918  0.0852
 6066SOL    HW129660   0.661   1.071   5.715  0.3933  0.1582 -0.6178
 6066SOL    HW229661   0.782   1.001   5.670  0.2523 -2.7829 -3.1929
 6067SOL     OW29662   0.846   1.249  11.910 -0.0751  0.3934 -0.0142
 6067SOL    HW129663   0.850   1.318  11.975 -1.4667  0.1348  0.3337
 6067SOL    HW229664   0.901   1.174  11.934 -2.7758 -1.5439  0.0801
 6068SOL     OW29665   1.617   4.466  14.340 -0.2321 -0.5698 -0.0010
 6068SOL    HW129666   1.548   4.422  14.391 -0.5357 -0.6051 -0.4448
 6068SOL    HW229667   1.688   4.402  14.332  0.8755  1.0455 -2.9355
 6069SOL     OW29668   3.880   1.360   6.063  0.1302  0.3066  0.0874
 6069SOL    HW129669   3.888   1.269   6.034 -0.8779  0.5970 -1.1168
 6069SOL    HW229670   3.851   1.403   5.982  0.9175 -1.6284 -1.2294
 6070SOL     OW29671   2.916   2.647   5.703  0.2371  0.2675  0.0577
 6070SOL    HW129672   3.005   2.643   5.669 -0.6098 -0.6053 -2.0867
 6070SOL    HW229673   2.916   2.595   5.783  1.8779 -0.9507 -0.7341
 6071SOL     OW29674   1.965   1.906   3.395 -0.2766  0.4307 -0.0870
 6071SOL    HW129675   1.965   1.946   3.308  0.5968 -1.5056 -0.9712
 6071SOL    HW229676   2.039   1.846   3.392 -1.9908 -1.7783  2.0092
 6072SOL     OW29677   4.192   1.771   3.160 -0.1525  0.5319  0.0664
 6072SOL    HW129678   4.129   1.839   3.185  1.1947  2.0410 -0.6336
 6072SOL    HW229679   4.267   1.822   3.129 -0.2683  0.4841 -0.2970
 6073SOL     OW29680   1.950   1.642   8.095 -0.5279  0.2891 -0.0888
 6073SOL    HW129681   1.942   1.564   8.040 -0.2132  0.0251  0.2439
 6073SOL    HW229682   2.005   1.608   8.165  0.9498  0.9185 -0.9238
 6074SOL     OW29683   4.486   2.258  12.543 -0.0491  0.0083 -0.3274
 6074SOL    HW129684   4.406   2.264  12.491 -1.5009 -1.7265  1.7527
 6074SOL    HW229685   4.449   2.289  12.625 -0.3674  0.6832 -0.7288
 6075SOL     OW29686   0.926   2.179   7.513 -0.1261 -0.3849  0.1397
 6075SOL    HW129687   0.942   2.167   7.607  0.6658  1.7675  0.2890
 6075SOL    HW229688   0.843   2.225   7.521  1.3777  1.8700  3.0220
 6076SOL     OW29689   2.170   1.735   3.378 -0.0781  0.2940  0.5126
 6076SOL    HW129690   2.194   1.686   3.457 -0.6129  2.3485  1.9713
 6076SOL    HW229691   2.246   1.794   3.372 -0.0558  0.0075 -1.8563
 6077SOL     OW29692   3.586   4.620   6.204  0.1617  0.0887  0.8000
 6077SOL    HW129693   3.647   4.615   6.278  0.2948  1.0098  0.7597
 6077SOL    HW229694   3.649   4.614   6.132  0.2002 -1.6118  0.9721
 6078SOL     OW29695   1.832   3.379   0.348 -0.1253  0.5492 -0.3802
 6078SOL    HW129696   1.857   3.382   0.440 -1.6577 -2.3878  0.1298
 6078SOL    HW229697   1.799   3.468   0.332 -0.3647  0.4500 -0.4360
 6079SOL     OW29698   1.111   4.157   8.433 -0.4114 -0.4678  0.0139
 6079SOL    HW129699   1.168   4.232   8.451  1.1290 -1.6713  0.2346
 6079SOL    HW229700   1.031   4.192   8.473 -0.5820 -1.0174  0.1546
 6080SOL     OW29701   2.672   1.178  13.455 -0.2185  0.6463  0.2233
 6080SOL    HW129702   2.590   1.145  13.491  0.3273  1.5700  2.2777
 6080SOL    HW229703   2.698   1.234  13.528 -0.5736 -0.6401  1.3486
 6081SOL     OW29704   2.572   2.398   3.498  0.1114 -0.2628  0.0553
 6081SOL    HW129705   2.478   2.390   3.487  0.0611  1.5684 -1.0439
 6081SOL    HW229706   2.599   2.421   3.409 -2.0664 -0.6855 -0.6920
 6082SOL     OW29707   2.920   3.434   4.028 -0.1222 -0.8352 -0.0412
 6082SOL    HW129708   2.917   3.448   4.122 -2.5425  1.9600 -0.5498
 6082SOL    HW229709   2.827   3.414   4.017 -0.7721  1.3912  1.5731
 6083SOL     OW29710   1.861   3.178   5.527  0.0006 -0.0648  0.0575
 6083SOL    HW129711   1.848   3.237   5.601  1.6254  2.4375 -1.6539
 6083SOL    HW229712   1.796   3.110   5.545  0.9979 -0.9590  0.3349
 6084SOL     OW29713   1.906   3.397   0.621 -0.0122 -0.3511  0.1381
 6084SOL    HW129714   1.838   3.359   0.677 -0.2926 -1.3508 -0.8665
 6084SOL    HW229715   1.990   3.356   0.640 -0.5856 -0.5700  2.2303
 6085SOL     OW29716   0.573   0.806   8.234  0.1925  0.2135 -0.1396
 6085SOL    HW129717   0.669   0.799   8.233  0.0659 -1.7935  0.6492
 6085SOL    HW229718   0.552   0.841   8.148 -2.9794 -0.0748  0.5172
 6086SOL     OW29719   3.493   0.412  14.925  0.6282 -0.4008 -0.1747
 6086SOL    HW129720   3.423   0.470  14.897  0.2906  0.2900  2.0619
 6086SOL    HW229721   3.480   0.409  15.020 -0.9509  0.9018 -0.3649
 6087SOL     OW29722   1.627   1.052   5.029  0.1415  0.0230 -0.8968
 6087SOL    HW129723   1.711   1.022   4.994 -0.2136 -0.0546 -1.6831
 6087SOL    HW229724   1.630   1.005   5.112  1.9110 -0.1576 -1.0676
 6088SOL     OW29725   0.071   1.941   7.540  0.0812  0.1696  0.0037
 6088SOL    HW129726   0.160   1.975   7.530  0.2002 -0.9234 -2.6544
 6088SOL    HW229727   0.051   1.909   7.451  0.5993  0.7304 -0.3134
 6089SOL     OW29728   1.874   2.617  11.976 -0.6688 -0.3911  0.4520
 6089SOL    HW129729   1.880   2.694  11.919  1.3871 -1.3121 -0.5727
 6089SOL    HW229730   1.782   2.593  11.960 -1.1069  2.5933 -1.6536
 6090SOL     OW29731   0.382   4.139   6.202 -0.5293  0.3367 -0.1740
 6090SOL    HW129732   0.335   4.197   6.143 -1.8477  0.2019  0.7405
 6090SOL    HW229733   0.323   4.136   6.278 -1.4995 -0.3317 -0.9554
 6091SOL     OW29734   2.411   2.519   8.209 -0.2162 -0.2129  0.2522
 6091SOL    HW129735   2.332   2.531   8.261 -0.3402  0.2661 -0.0494
 6091SOL    HW229736   2.399   2.437   8.161 -1.5771  1.2648 -1.9417
 6092SOL     OW29737   4.037   0.115   8.709  0.4883 -0.1343 -0.3103
 6092SOL    HW129738   3.982   0.037   8.713 -0.1315  0.4011  1.5570
 6092SOL    HW229739   4.028   0.130   8.615  2.2043 -2.0221 -0.7839
 6093SOL     OW29740   1.195   3.990   1.411 -0.1872 -0.1900 -0.3762
 6093SOL    HW129741   1.284   4.002   1.444  0.1448 -0.2960 -1.2284
 6093SOL    HW229742   1.189   4.081   1.382  0.3858 -0.6162 -1.8608
 6094SOL     OW29743   1.647   2.897   6.797  0.2426  0.8850 -0.1253
 6094SOL    HW129744   1.654   2.963   6.866  0.4803 -0.3636  1.0458
 6094SOL    HW229745   1.675   2.953   6.725  1.8665 -0.7260 -0.7571
 6095SOL     OW29746   1.261   0.542   1.606 -0.6825  0.2507 -0.4865
 6095SOL    HW129747   1.174   0.577   1.587 -0.9844 -0.9831 -1.3514
 6095SOL    HW229748   1.250   0.496   1.689  1.7639  0.9565  0.2456
 6096SOL     OW29749   1.045   3.036   5.423 -0.1995  0.1509 -0.3488
 6096SOL    HW129750   1.126   2.987   5.408 -0.4760 -0.8986  1.6957
 6096SOL    HW229751   1.047   3.099   5.351 -1.2883  0.5479 -0.0235
 6097SOL     OW29752   3.862   3.429   5.761 -0.3904 -0.5283 -0.7390
 6097SOL    HW129753   3.876   3.411   5.854  1.1226 -0.4255 -0.9565
 6097SOL    HW229754   3.810   3.509   5.758 -2.5000 -1.9044 -1.2070
 6098SOL     OW29755   1.187   1.256   5.968  0.1966  0.3096 -0.2368
 6098SOL    HW129756   1.129   1.254   6.044 -2.3445 -0.9911 -2.2391
 6098SOL    HW229757   1.235   1.175   5.986  2.9794  2.1877  0.7759
 6099SOL     OW29758   2.362   0.887  17.558  0.1593 -0.0206 -0.1697
 6099SOL    HW129759   2.370   0.821  17.490  3.7304  0.3053 -0.0974
 6099SOL    HW229760   2.305   0.845  17.622  0.2990 -0.5809 -0.4127
 6100SOL     OW29761   3.502   1.970   1.951  0.2216  0.0008  0.5706
 6100SOL    HW129762   3.487   1.879   1.977  0.9162 -0.3599 -0.2800
 6100SOL    HW229763   3.494   1.954   1.857 -2.9879  1.0784  0.6543
 6101SOL     OW29764   0.401   3.709  10.957  0.6116  0.0008 -1.0394
 6101SOL    HW129765   0.427   3.800  10.969 -2.1560  0.6972 -0.2604
 6101SOL    HW229766   0.313   3.719  10.921  0.7242  0.3939 -1.2075
 6102SOL     OW29767   1.606   2.471   9.906  0.1005  0.1666 -0.0214
 6102SOL    HW129768   1.601   2.492   9.813 -0.8593  0.6073  0.1334
 6102SOL    HW229769   1.614   2.559   9.941  1.0109 -0.3711  1.1336
 6103SOL     OW29770   4.500   1.813   7.416 -0.0234 -0.4709  0.4589
 6103SOL    HW129771   4.571   1.769   7.462  0.5257  0.6016  0.6313
 6103SOL    HW229772   4.473   1.883   7.476 -0.4179 -2.6709  2.8353
 6104SOL     OW29773   3.083   4.673  14.887 -0.2396  0.5440 -0.0291
 6104SOL    HW129774   3.079   4.577  14.894 -0.6186  0.5187 -0.6054
 6104SOL    HW229775   3.054   4.675  14.796  1.8762  0.7455 -0.7053
 6105SOL     OW29776   4.022   2.870   7.336 -0.5575  0.2759  0.5460
 6105SOL    HW129777   4.117   2.861   7.326 -0.6020  2.1419 -1.4433
 6105SOL    HW229778   4.009   2.831   7.423 -0.5642 -1.2577 -0.1499
 6106SOL     OW29779   3.349   0.088   6.262 -0.1471  0.2592  0.3084
 6106SOL    HW129780   3.411   0.016   6.261 -2.0930 -1.3809 -1.5267
 6106SOL    HW229781   3.385   0.155   6.204 -3.5284  0.8037 -1.1373
 6107SOL     OW29782   0.876   3.406   2.340  0.2173  0.6682  0.1372
 6107SOL    HW129783   0.880   3.362   2.255  0.1004  0.7685  0.0790
 6107SOL    HW229784   0.792   3.376   2.376  0.2147 -0.7731 -1.0846
 6108SOL     OW29785   1.028   2.091   6.765  0.1549  0.1382 -0.2717
 6108SOL    HW129786   1.089   2.032   6.721 -1.4258 -1.2604 -0.5969
 6108SOL    HW229787   1.070   2.114   6.848 -0.1592 -0.2251 -0.0137
 6109SOL     OW29788   1.883   0.584   3.161  0.4575  0.7375  0.3035
 6109SOL    HW129789   1.832   0.533   3.098  0.5155  0.9878  0.0500
 6109SOL    HW229790   1.835   0.567   3.241 -0.6497  2.1124 -0.0750
 6110SOL     OW29791   1.064   0.808   8.438  0.1603 -0.0187 -0.5717
 6110SOL    HW129792   0.977   0.844   8.426  0.8254  1.4832 -0.9277
 6110SOL    HW229793   1.054   0.769   8.525  0.1975  0.5428 -0.3221
 6111SOL     OW29794   4.394   2.061   6.266  0.5525  0.2342 -0.2967
 6111SOL    HW129795   4.451   2.062   6.342  1.0450  1.9219 -0.6711
 6111SOL    HW229796   4.452   2.102   6.201 -1.5377  1.1119 -1.6012
 6112SOL     OW29797   2.145   1.204   0.127  0.4010  0.7656  0.1374
 6112SOL    HW129798   2.227   1.165   0.097  0.8247  3.7950 -2.6198
 6112SOL    HW229799   2.171   1.293   0.149  1.7085  1.2268 -3.3278
 6113SOL     OW29800   2.353   3.894   3.746 -0.0887 -0.5606  0.1290
 6113SOL    HW129801   2.301   3.870   3.823 -0.6253 -1.8615 -0.6462
 6113SOL    HW229802   2.437   3.925   3.779 -0.9324 -0.1418  1.8823
 6114SOL     OW29803   4.584   1.196  11.677 -0.1066  0.0064  0.0979
 6114SOL    HW129804   4.617   1.177  11.589 -0.6765 -0.6094  0.0144
 6114SOL    HW229805   4.659   1.175  11.733  0.7238 -0.8109 -1.3049
 6115SOL     OW29806   3.405   4.423   0.683  0.4257 -1.0341 -0.0125
 6115SOL    HW129807   3.455   4.494   0.643 -1.7802  0.2401 -0.5492
 6115SOL    HW229808   3.427   4.351   0.623 -1.3913 -0.7506 -1.0289
 6116SOL     OW29809   1.668   3.939   5.469 -0.0929 -0.3945 -0.3889
 6116SOL    HW129810   1.589   3.986   5.496 -0.1511 -0.0736 -1.1061
 6116SOL    HW229811   1.653   3.845   5.470  1.8442 -0.7428 -2.3437
 6117SOL     OW29812   3.874   1.786  13.836 -0.2373  1.1079  0.2836
 6117SOL    HW129813   3.899   1.875  13.863  1.1846  0.7571  0.1089
 6117SOL    HW229814   3.924   1.740  13.903  1.7960  2.1951 -0.4654
 6118SOL     OW29815   3.136   1.009   7.213 -0.2902 -0.5476 -0.0130
 6118SOL    HW129816   3.080   1.010   7.290  3.2835  0.2045  2.5965
 6118SOL    HW229817   3.216   0.988   7.262 -0.6717 -1.3725  0.2534
 6119SOL     OW29818   2.173   2.185   6.700  0.4286 -0.5870 -0.6513
 6119SOL    HW129819   2.235   2.141   6.758 -0.8273  2.2860  2.8572
 6119SOL    HW229820   2.222   2.187   6.618  2.5077 -1.9929  0.5675
 6120SOL     OW29821   3.105   1.925  11.754 -0.2951  0.5662 -0.0110
 6120SOL    HW129822   3.043   1.869  11.707 -0.0882  0.8396 -0.6014
 6120SOL    HW229823   3.094   2.011  11.715  0.6759  0.9563  0.5827
 6121SOL     OW29824   3.866   3.523   3.997  0.2492 -1.0326  0.1607
 6121SOL    HW129825   3.772   3.521   3.981  0.4728 -0.2910 -1.1856
 6121SOL    HW229826   3.877   3.448   4.056  0.6903  1.3010  3.0365
 6122SOL     OW29827   3.674   4.651   5.665 -0.1061  0.4323  0.1009
 6122SOL    HW129828   3.761   4.670   5.630  0.0064  0.8911  0.6315
 6122SOL    HW229829   3.685   4.695   5.750 -1.4899 -0.6415  0.8414
 6123SOL     OW29830   4.360   3.128   8.336  0.3057  0.1051  0.7205
 6123SOL    HW129831   4.447   3.150   8.301 -0.6381  1.2427 -0.9211
 6123SOL    HW229832   4.371   3.167   8.422 -1.7224 -1.5383  1.7110
 6124SOL     OW29833   4.239   4.100   3.849  0.2351  0.1204  0.6122
 6124SOL    HW129834   4.309   4.158   3.877  1.0533 -0.6285  0.1108
 6124SOL    HW229835   4.254   4.078   3.757 -2.9819  0.6047 -0.0225
 6125SOL     OW29836   1.082   4.707   8.405 -0.5863 -0.4375  0.0233
 6125SOL    HW129837   1.062   4.627   8.356  1.7863 -0.3273 -1.1618
 6125SOL    HW229838   1.110   0.045   8.339  0.3111  0.7529  1.5371
 6126SOL     OW29839   4.495   2.892   7.604  0.4694  0.1338  0.0284
 6126SOL    HW129840   4.524   2.962   7.662 -0.3867  0.5662 -0.0672
 6126SOL    HW229841   4.412   2.860   7.638  0.7496  0.6275  1.1588
 6127SOL     OW29842   3.198   2.385   1.151  0.6438  0.5684  0.3379
 6127SOL    HW129843   3.264   2.316   1.147 -0.4516 -0.4163 -0.4854
 6127SOL    HW229844   3.146   2.359   1.075  0.5796 -0.5081  0.7558
 6128SOL     OW29845   2.613   1.360   4.487  0.1896 -0.2826  0.0187
 6128SOL    HW129846   2.586   1.308   4.411 -1.7448  0.3588  0.2584
 6128SOL    HW229847   2.702   1.332   4.507  1.2664  2.8588 -0.5109
 6129SOL     OW29848   1.320   0.833   4.974  0.1879  0.7675 -0.1016
 6129SOL    HW129849   1.408   0.798   4.969  0.0534  0.2640  1.0162
 6129SOL    HW229850   1.282   0.802   4.892  0.6035 -1.6205  0.6125
 6130SOL     OW29851   2.092   3.797   3.134  0.0881 -0.8681  0.1615
 6130SOL    HW129852   2.066   3.748   3.056 -0.1118  1.2728 -1.1017
 6130SOL    HW229853   2.173   3.751   3.156  0.8982  0.5970  0.2459
 6131SOL     OW29854   2.480   3.296   1.040 -0.5566 -0.0086  0.2347
 6131SOL    HW129855   2.422   3.263   1.109  0.1176  0.5178  1.0574
 6131SOL    HW229856   2.489   3.384   1.078 -0.8074  0.6496 -1.2491
 6132SOL     OW29857   3.582   0.153   1.220 -0.2966 -0.5027  0.1367
 6132SOL    HW129858   3.496   0.195   1.223  0.7019  1.4850  1.6934
 6132SOL    HW229859   3.578   0.105   1.138  1.1736 -1.0022  0.3502
 6133SOL     OW29860   0.469   2.909   6.760 -0.1132  0.0134 -0.2294
 6133SOL    HW129861   0.393   2.857   6.735 -0.6953  0.4444  0.6255
 6133SOL    HW229862   0.455   2.918   6.854 -0.4489 -0.4773 -0.2353
 6134SOL     OW29863   1.553   4.428   4.143  0.4210 -0.4480 -0.0320
 6134SOL    HW129864   1.537   4.515   4.182 -1.7389 -0.3110 -1.2147
 6134SOL    HW229865   1.626   4.397   4.195  1.1385 -0.5789 -1.1212
 6135SOL     OW29866   1.609   3.120   8.922  0.1121  0.0515  0.2822
 6135SOL    HW129867   1.675   3.150   8.859 -2.5884  2.9136 -1.1573
 6135SOL    HW229868   1.597   3.199   8.974 -1.9093 -1.4134  2.0488
 6136SOL     OW29869   4.418   0.280   2.558  0.2975 -0.6954 -0.3527
 6136SOL    HW129870   4.439   0.228   2.481  0.9075 -0.1752 -0.5287
 6136SOL    HW229871   4.483   0.349   2.544  0.0189 -0.0890  1.2645
 6137SOL     OW29872   1.188   3.853   0.370  0.7475  0.0460 -0.3009
 6137SOL    HW129873   1.170   3.930   0.316 -1.6264 -2.1423 -2.6407
 6137SOL    HW229874   1.280   3.847   0.343  1.1528  0.5236  0.9777
 6138SOL     OW29875   0.394   1.726   1.297  0.4862  0.3155  0.0049
 6138SOL    HW129876   0.383   1.758   1.386  2.6845 -0.2930  0.4856
 6138SOL    HW229877   0.446   1.797   1.260  2.5641  0.2427  2.8347
 6139SOL     OW29878   0.674   0.893   4.448 -0.4432 -0.0629 -0.1508
 6139SOL    HW129879   0.749   0.842   4.418 -0.0608  1.3477 -1.5858
 6139SOL    HW229880   0.682   0.868   4.540  0.7608 -2.4188 -0.8928
 6140SOL     OW29881   1.921   0.880   0.300 -0.5593 -0.0911 -0.4125
 6140SOL    HW129882   1.865   0.924   0.363 -0.1089  2.4354 -1.7734
 6140SOL    HW229883   1.886   0.923   0.221 -0.8356  0.9142  0.2579
 6141SOL     OW29884   0.991   3.718   4.667 -0.3423  0.4082 -0.1106
 6141SOL    HW129885   1.058   3.784   4.683 -0.8487  1.3582 -1.8993
 6141SOL    HW229886   1.044   3.640   4.654 -1.5554 -0.7110  1.7670
 6142SOL     OW29887   0.514   3.443   6.686 -0.1846 -0.4446 -0.3647
 6142SOL    HW129888   0.593   3.461   6.634  0.9958 -2.1204  0.8413
 6142SOL    HW229889   0.548   3.366   6.732  0.6622  1.1186  1.5761
 6143SOL     OW29890   0.530   2.062   0.759  0.0141  0.6868  0.6065
 6143SOL    HW129891   0.514   2.069   0.853 -1.0259  0.9011  0.4140
 6143SOL    HW229892   0.517   1.969   0.740 -1.4587  0.8257  0.9322
 6144SOL     OW29893   4.353   1.763   0.537 -0.1433  0.2424 -0.2219
 6144SOL    HW129894   4.337   1.767   0.443 -0.2040  0.5309 -0.1999
 6144SOL    HW229895   4.403   1.844   0.553  1.5585 -1.2071  1.9600
 6145SOL     OW29896   2.462   4.636   2.953  0.3103  0.1809 -0.3069
 6145SOL    HW129897   2.447   4.639   2.859  1.4942 -0.7712 -0.5358
 6145SOL    HW229898   2.552   4.670   2.953  1.8088 -3.7167  0.3982
 6146SOL     OW29899   0.572   1.693  14.066  0.4736  0.2032 -0.0200
 6146SOL    HW129900   0.527   1.760  14.014 -1.3134  0.2529  1.5761
 6146SOL    HW229901   0.523   1.613  14.043 -0.9714  1.3429 -0.9199
 6147SOL     OW29902   2.277   2.967   3.714 -0.4631 -0.0258 -0.3734
 6147SOL    HW129903   2.186   2.939   3.707 -0.2473 -0.7540 -0.2055
 6147SOL    HW229904   2.307   2.911   3.785 -0.1146 -0.3971 -0.8121
 6148SOL     OW29905   1.535   2.360   8.120 -0.7487 -0.4852  0.2912
 6148SOL    HW129906   1.540   2.447   8.079 -1.8424 -0.8485 -0.6163
 6148SOL    HW229907   1.614   2.313   8.094  0.0078  0.8260  0.1841
 6149SOL     OW29908   1.991   1.978   6.120  0.1752  0.3530 -0.3552
 6149SOL    HW129909   1.933   2.043   6.081  0.8546 -0.0513 -2.0119
 6149SOL    HW229910   1.933   1.903   6.106 -0.4262  0.0153  3.7964
 6150SOL     OW29911   4.128   1.738   1.937  0.0669 -0.2222  0.7783
 6150SOL    HW129912   4.049   1.786   1.961 -0.1558 -0.1783 -0.0452
 6150SOL    HW229913   4.203   1.790   1.967  1.0635 -1.4892  0.4833
 6151SOL     OW29914   0.093   2.940   5.245  0.4959  0.6462 -0.2028
 6151SOL    HW129915   0.140   2.949   5.162 -1.1164 -0.6981 -1.2735
 6151SOL    HW229916   0.156   2.976   5.307 -0.8479  0.5452  1.2256
 6152SOL     OW29917   3.463   4.615   4.762 -0.1754 -0.2481 -0.3725
 6152SOL    HW129918   3.408   4.683   4.723 -0.5663 -1.1520 -1.4132
 6152SOL    HW229919   3.529   4.652   4.821  1.7438 -0.9892 -2.0091
 6153SOL     OW29920   4.250   2.504   4.712  0.3032  0.1118 -0.6290
 6153SOL    HW129921   4.247   2.510   4.808 -1.5438  0.1976 -0.6930
 6153SOL    HW229922   4.209   2.577   4.666 -3.5764 -0.0964  2.5003
 6154SOL     OW29923   4.261   2.839   7.060 -0.3139  0.0255 -0.0360
 6154SOL    HW129924   4.274   2.747   7.040 -2.3961  0.2564 -2.5373
 6154SOL    HW229925   4.321   2.855   7.133  0.3973 -1.0460 -0.3824
 6155SOL     OW29926   0.018   0.530  13.318 -0.4835  0.9439 -0.1422
 6155SOL    HW129927   0.042   0.620  13.294 -0.7069  0.7347 -1.1516
 6155SOL    HW229928   4.658   0.537  13.359 -0.3100  4.1955 -0.3068
 6156SOL     OW29929   0.013   4.561   8.925  0.3769 -0.0632  0.6818
 6156SOL    HW129930   4.675   4.587   8.859  1.6353  0.7231 -0.2012
 6156SOL    HW229931   0.011   4.632   8.989 -3.3799  0.7232 -0.3084
 6157SOL     OW29932   0.993   2.725   2.914 -0.7484  0.4075  0.0317
 6157SOL    HW129933   1.038   2.751   2.994  1.1546  0.1923 -0.9454
 6157SOL    HW229934   0.927   2.794   2.905 -0.5328  0.7375  1.0854
 6158SOL     OW29935   2.266   0.039   3.276  0.1227 -0.3981  0.2962
 6158SOL    HW129936   2.253   4.702   3.205  0.0967 -0.5313  0.4167
 6158SOL    HW229937   2.175   0.064   3.292 -0.0785 -0.4639 -0.7303
 6159SOL     OW29938   4.076   3.353   4.524  0.3382  0.0727 -0.4055
 6159SOL    HW129939   4.098   3.428   4.579 -2.2856  0.7678 -0.2889
 6159SOL    HW229940   4.006   3.313   4.576  0.8654  0.3042  0.4724
 6160SOL     OW29941   3.310   1.621   7.929 -0.1047  0.2135 -0.3682
 6160SOL    HW129942   3.284   1.533   7.899 -2.0406  0.4538  0.6264
 6160SOL    HW229943   3.326   1.593   8.019  0.1714 -0.7905 -0.7278
 6161SOL     OW29944   3.628   1.197   2.733 -0.2629  0.4796  0.1411
 6161SOL    HW129945   3.621   1.199   2.637 -0.9558  1.7181  0.2289
 6161SOL    HW229946   3.579   1.278   2.745 -2.9373 -1.2354  0.8864
 6162SOL     OW29947   3.384   0.090   5.849 -0.6009 -0.2827 -0.0550
 6162SOL    HW129948   3.343   0.003   5.848 -1.5590  0.1532  1.0601
 6162SOL    HW229949   3.475   0.076   5.876 -0.7950  2.4803  1.9292
 6163SOL     OW29950   1.812   0.939   3.593 -0.9493  0.8848  0.1444
 6163SOL    HW129951   1.726   0.946   3.551 -1.2573 -1.1583  0.4247
 6163SOL    HW229952   1.840   1.031   3.596  1.0342  0.3580 -1.9195
 6164SOL     OW29953   2.516   1.203   4.295 -0.1450  0.1102  0.0888
 6164SOL    HW129954   2.555   1.143   4.358 -1.5262 -1.3770 -0.4587
 6164SOL    HW229955   2.496   1.140   4.225 -0.1103 -0.2835  0.4298
 6165SOL     OW29956   3.849   1.237   7.800 -0.0875  0.4400 -0.2800
 6165SOL    HW129957   3.761   1.207   7.822 -1.0493  2.1424 -1.8111
 6165SOL    HW229958   3.897   1.157   7.777  1.9451  1.4321  0.5382
 6166SOL     OW29959   3.199   3.574  16.644 -0.0385 -0.0246  0.5300
 6166SOL    HW129960   3.266   3.514  16.609 -0.6279 -0.8173  0.7554
 6166SOL    HW229961   3.180   3.603  16.554 -0.1449  0.3048  0.6603
 6167SOL     OW29962   1.901   1.999   5.734  0.3918  0.2282 -0.3978
 6167SOL    HW129963   1.953   2.054   5.676 -0.2428  0.9091 -0.3387
 6167SOL    HW229964   1.853   1.946   5.671  3.3141  0.1509 -2.5398
 6168SOL     OW29965   1.087   2.912   2.231  0.0823  0.3560  0.4239
 6168SOL    HW129966   1.165   2.860   2.252 -0.0329 -0.9748 -2.4570
 6168SOL    HW229967   1.025   2.865   2.287  0.6960  1.2790  1.8641
 6169SOL     OW29968   1.339   2.006  12.646 -0.6222 -0.0581 -0.2692
 6169SOL    HW129969   1.434   1.994  12.637 -0.5808 -1.0651  1.5827
 6169SOL    HW229970   1.321   2.085  12.595  1.9297  1.1867  0.7648
 6170SOL     OW29971   1.673   3.679   1.223  0.1978  0.0594  0.7289
 6170SOL    HW129972   1.635   3.620   1.288 -4.6697  2.2835 -0.1679
 6170SOL    HW229973   1.685   3.762   1.268 -0.2829  1.7920 -2.3686
 6171SOL     OW29974   1.974   1.756   7.615  0.1511  0.1195 -0.2476
 6171SOL    HW129975   2.066   1.777   7.628  1.4011 -4.0906 -2.5982
 6171SOL    HW229976   1.936   1.773   7.702  1.4698  1.1033  0.1327
 6172SOL     OW29977   4.203   0.575   4.841 -0.6853  0.0356  0.3598
 6172SOL    HW129978   4.127   0.620   4.876 -1.4365 -0.9566 -0.0092
 6172SOL    HW229979   4.187   0.486   4.872  1.0612 -1.0314 -1.7847
 6173SOL     OW29980   3.515   2.946   7.694  0.1461  0.4349  0.2860
 6173SOL    HW129981   3.528   2.863   7.740  0.7842 -0.2613 -1.1406
 6173SOL    HW229982   3.562   3.004   7.754  1.1315 -1.4761  1.3694
 6174SOL     OW29983   4.222   4.441   0.856 -0.0253 -0.1569  0.1529
 6174SOL    HW129984   4.135   4.480   0.857  0.0822  0.1082 -0.6187
 6174SOL    HW229985   4.209   4.356   0.814 -1.3462 -0.6292  1.5376
 6175SOL     OW29986   3.219   0.209   4.409 -0.0917 -0.0982  0.1651
 6175SOL    HW129987   3.187   0.120   4.426  3.1977 -1.0962  1.1261
 6175SOL    HW229988   3.313   0.191   4.409  0.0595  0.6638  0.4356
 6176SOL     OW29989   2.075   3.944   8.155 -0.2954 -0.1333 -0.9523
 6176SOL    HW129990   2.010   4.012   8.171  0.9159  0.8724 -0.3357
 6176SOL    HW229991   2.022   3.872   8.190  0.8259 -0.9783 -0.9671
 6177SOL     OW29992   3.736   2.466   7.960 -0.0600  0.8289 -0.4614
 6177SOL    HW129993   3.642   2.471   7.976  0.2979 -0.4826  2.0219
 6177SOL    HW229994   3.767   2.486   8.048  1.7058  0.9381 -1.0967
 6178SOL     OW29995   0.881   1.991   2.188  0.1142 -0.7402 -0.1874
 6178SOL    HW129996   0.941   1.958   2.121  0.7332  1.4703 -0.7055
 6178SOL    HW229997   0.832   1.914   2.217  1.7075 -2.1836 -1.2726
 6179SOL     OW29998   0.541   2.221   4.055 -0.1300  0.0120 -0.2299
 6179SOL    HW129999   0.599   2.163   4.104  0.7460  0.5383 -0.6465
 6179SOL    HW230000   0.574   2.311   4.063  0.1322 -0.0755 -0.3468
 6180SOL     OW30001   1.149   4.361   5.610  0.7285 -0.0194 -0.0569
 6180SOL    HW130002   1.143   4.270   5.582 -0.2508  0.8953 -2.9327
 6180SOL    HW230003   1.205   4.362   5.687  1.4549  1.6359 -0.6012
 6181SOL     OW30004   2.998   4.347   9.750 -0.7914 -0.1957 -0.3074
 6181SOL    HW130005   2.996   4.253   9.733 -1.2237 -0.0609 -1.0096
 6181SOL    HW230006   2.910   4.373   9.776 -0.7917 -0.6802  0.1911
 6182SOL     OW30007   0.437   1.426   5.243  0.2041 -0.8367  0.0353
 6182SOL    HW130008   0.511   1.427   5.182 -0.8857  0.2377 -1.2648
 6182SOL    HW230009   0.414   1.333   5.242 -0.9182 -0.5946  2.1316
 6183SOL     OW30010   0.126   4.706  16.134 -0.3246 -0.1098 -0.3891
 6183SOL    HW130011   0.093   4.650  16.204 -0.1603 -1.1496 -1.1260
 6183SOL    HW230012   0.140   0.063  16.182  1.2207 -0.0046 -1.0110
 6184SOL     OW30013   1.825   2.826   5.846  0.0839 -0.6936  0.2210
 6184SOL    HW130014   1.759   2.757   5.832 -0.6435 -0.1813  1.1428
 6184SOL    HW230015   1.848   2.810   5.937 -1.2190 -1.1802  0.4720
 6185SOL     OW30016   4.399   2.097   7.176 -0.1895  0.3317 -0.4543
 6185SOL    HW130017   4.366   2.040   7.105 -1.5212  2.9749 -1.9543
 6185SOL    HW230018   4.375   2.040   7.249 -0.4380  1.6752  0.4971
 6186SOL     OW30019   0.437   2.855   3.060  0.6339 -0.1644  0.4859
 6186SOL    HW130020   0.383   2.889   2.988  0.2901  0.2554  0.9386
 6186SOL    HW230021   0.378   2.880   3.131  1.0833 -1.1875  1.2244
 6187SOL     OW30022   0.349   1.985   9.200 -0.3697  0.3625  0.1904
 6187SOL    HW130023   0.415   2.044   9.237 -1.3073  1.5917 -0.0918
 6187SOL    HW230024   0.342   2.018   9.111 -0.7305 -2.0647 -0.6681
 6188SOL     OW30025   2.011   3.689   9.485  0.6664 -0.4156 -0.1509
 6188SOL    HW130026   1.997   3.776   9.448 -0.9480 -0.5338  0.1698
 6188SOL    HW230027   1.960   3.695   9.566  1.9296 -1.3793  0.7254
 6189SOL     OW30028   1.634   2.319   5.457  0.2255 -0.0613 -0.1182
 6189SOL    HW130029   1.614   2.366   5.376 -1.5334 -2.8897 -1.3183
 6189SOL    HW230030   1.728   2.303   5.457  0.1937 -0.2240  1.3380
 6190SOL     OW30031   3.173   4.392  11.062  0.0468  0.5940 -0.1786
 6190SOL    HW130032   3.182   4.375  11.156  0.6603 -1.2627 -0.5628
 6190SOL    HW230033   3.256   4.363  11.025  0.1562 -0.0708  0.5731
 6191SOL     OW30034   4.297   0.949   0.178  0.3778 -0.3452 -0.0501
 6191SOL    HW130035   4.293   1.020   0.242  0.8450 -1.6239  1.3931
 6191SOL    HW230036   4.207   0.919   0.174 -0.8755  3.3287  0.4540
 6192SOL     OW30037   3.489   3.297   3.725 -0.3834 -0.2166  0.4214
 6192SOL    HW130038   3.416   3.355   3.704 -0.5431 -1.0710 -1.4027
 6192SOL    HW230039   3.509   3.266   3.637  1.1820  1.8512  0.0470
 6193SOL     OW30040   3.609   1.619  13.344 -0.3177 -0.4582  0.0143
 6193SOL    HW130041   3.591   1.561  13.418 -0.2691 -2.6709 -1.7251
 6193SOL    HW230042   3.703   1.631  13.352 -0.2670 -1.0692  0.3003
 6194SOL     OW30043   2.952   4.461   2.058 -0.2735  0.5823 -0.3883
 6194SOL    HW130044   2.894   4.408   2.003 -2.0949  0.7226  1.4026
 6194SOL    HW230045   3.029   4.469   2.001  0.4295 -1.3392  0.2997
 6195SOL     OW30046   0.640   2.270   6.409  0.7364 -0.0737  0.4354
 6195SOL    HW130047   0.690   2.205   6.458  1.2111 -1.1162 -1.4654
 6195SOL    HW230048   0.708   2.292   6.345  1.2872 -0.1119  1.0060
 6196SOL     OW30049   2.801   4.406   5.632 -0.1307 -0.3728 -0.2143
 6196SOL    HW130050   2.846   4.322   5.629  0.7763  0.1616 -1.2448
 6196SOL    HW230051   2.712   4.389   5.664  0.2703 -1.4470  0.3400
 6197SOL     OW30052   0.901   2.223  17.285 -0.0370  0.4415 -0.3237
 6197SOL    HW130053   0.988   2.261  17.269  1.6249 -2.7736  0.9901
 6197SOL    HW230054   0.863   2.208  17.199 -1.3118 -2.1250  0.7151
 6198SOL     OW30055   4.062   0.277  11.242 -0.6765 -0.3878 -0.0051
 6198SOL    HW130056   4.132   0.284  11.176 -1.4571  2.0840 -0.5708
 6198SOL    HW230057   4.114   0.245  11.316  0.1694  0.0575 -0.3975
 6199SOL     OW30058   4.060   4.105  12.034 -0.4715  0.2377 -0.0856
 6199SOL    HW130059   4.134   4.049  12.013 -0.1747  0.0236  1.6169
 6199SOL    HW230060   4.058   4.094  12.129 -1.1774  3.0728  0.2331
 6200SOL     OW30061   2.113   0.548   8.103  0.4151  0.3076 -0.1536
 6200SOL    HW130062   2.097   0.589   8.019 -1.4860  0.3347  0.2270
 6200SOL    HW230063   2.196   0.587   8.131  0.2718  0.3573  0.1988
 6201SOL     OW30064   0.647   4.419   7.368  0.4032 -0.4488 -0.3515
 6201SOL    HW130065   0.707   4.474   7.317 -0.0880 -0.5411 -1.0163
 6201SOL    HW230066   0.638   4.340   7.316  0.0246 -0.4897 -0.2237
 6202SOL     OW30067   4.476   0.800  13.738 -0.1176  0.0245  0.1003
 6202SOL    HW130068   4.385   0.772  13.750 -0.6028  1.0544 -1.1694
 6202SOL    HW230069   4.498   0.750  13.659  1.2626  0.5204  0.1726
 6203SOL     OW30070   2.517   1.102   2.687 -0.0100 -0.1804  0.1843
 6203SOL    HW130071   2.521   1.110   2.592 -0.4831  1.2176  0.2737
 6203SOL    HW230072   2.448   1.168   2.699 -0.3209 -0.4976  0.1518
 6204SOL     OW30073   0.828   2.308   3.288 -0.2306 -0.8014 -0.3758
 6204SOL    HW130074   0.873   2.312   3.204  0.6721  0.1284  0.1509
 6204SOL    HW230075   0.805   2.215   3.292  0.7646 -1.0302  0.0085
 6205SOL     OW30076   4.082   0.352  15.748  0.0308  0.1900 -0.2416
 6205SOL    HW130077   4.146   0.302  15.798  1.8178  1.8036 -0.9343
 6205SOL    HW230078   4.064   0.296  15.672 -0.3298 -0.5595  0.3979
 6206SOL     OW30079   0.646   4.079  11.185 -0.1465 -0.1451  0.4511
 6206SOL    HW130080   0.689   3.993  11.182  0.8191  0.3470  0.2843
 6206SOL    HW230081   0.571   4.064  11.242 -1.2904 -1.1244 -1.3344
 6207SOL     OW30082   0.528   3.249   5.994 -0.7178 -0.6198 -0.2859
 6207SOL    HW130083   0.482   3.330   5.969  1.7369  0.1222 -2.4711
 6207SOL    HW230084   0.476   3.205   6.060 -0.0488 -1.8934 -0.6194
 6208SOL     OW30085   3.888   3.919   8.137 -0.1763 -0.1345 -0.5782
 6208SOL    HW130086   3.924   3.963   8.215  0.1630 -1.1602 -0.1607
 6208SOL    HW230087   3.966   3.902   8.084  1.3460 -1.1727  1.9919
 6209SOL     OW30088   0.935   0.788   6.315 -0.1700 -0.2725  0.6278
 6209SOL    HW130089   0.937   0.693   6.329 -0.0986  0.1967  3.7753
 6209SOL    HW230090   0.872   0.821   6.379 -2.0890 -1.8202 -0.4514
 6210SOL     OW30091   3.978   2.344  16.105  0.2953 -0.6832  0.6617
 6210SOL    HW130092   3.931   2.326  16.187  0.4332  1.2931  1.1662
 6210SOL    HW230093   3.984   2.259  16.061 -0.1774 -2.1520  3.4541
 6211SOL     OW30094   2.038   4.496   7.754  0.0652  0.5142 -1.0203
 6211SOL    HW130095   1.944   4.482   7.744  0.3023 -1.9687  0.2839
 6211SOL    HW230096   2.045   4.477   7.847 -3.7003 -1.7745 -1.2065
 6212SOL     OW30097   2.134   4.104   7.152 -0.4078  0.4553 -0.4056
 6212SOL    HW130098   2.177   4.048   7.217  0.1951  1.5460  0.1361
 6212SOL    HW230099   2.194   4.125   7.081  2.0434 -2.3820  0.8183
 6213SOL     OW30100   1.283   1.347   9.890 -0.5399 -0.3522 -0.3010
 6213SOL    HW130101   1.312   1.291   9.963 -1.3135 -1.4925 -0.8698
 6213SOL    HW230102   1.198   1.306   9.874 -0.3485 -1.2149  0.8271
 6214SOL     OW30103   0.276   3.586   9.373  0.2685 -0.4380 -0.9181
 6214SOL    HW130104   0.190   3.552   9.399 -0.1469  0.3249 -1.2787
 6214SOL    HW230105   0.279   3.678   9.398  0.0643 -1.3921  2.5994
 6215SOL     OW30106   2.867   3.974   5.402  0.1174 -0.3710 -0.1264
 6215SOL    HW130107   2.789   3.931   5.437 -1.9712  1.5266 -2.4292
 6215SOL    HW230108   2.831   4.046   5.349  0.0746 -0.6177 -0.4300
 6216SOL     OW30109   0.377   3.905   2.219  0.6775 -0.7749  0.0529
 6216SOL    HW130110   0.332   3.881   2.300 -1.0776  0.6437 -0.5007
 6216SOL    HW230111   0.394   3.998   2.234  1.0046 -0.9285  0.6319
 6217SOL     OW30112   1.163   3.202  12.089  0.6080  0.4849 -0.0500
 6217SOL    HW130113   1.124   3.216  12.003  0.6093 -0.1339 -0.1539
 6217SOL    HW230114   1.097   3.227  12.154 -1.0267 -1.7454 -0.8308
 6218SOL     OW30115   1.862   3.384   2.951  0.5487  0.0229  0.0576
 6218SOL    HW130116   1.860   3.478   2.969  1.6706  0.1518 -0.5182
 6218SOL    HW230117   1.771   3.366   2.974  0.5761 -0.2355 -0.0356
 6219SOL     OW30118   4.612   2.772   8.881 -0.4347  0.0486  0.2319
 6219SOL    HW130119   4.575   2.694   8.839 -0.6354  0.1318  0.2556
 6219SOL    HW230120   4.547   2.798   8.946  0.8040 -0.5439  1.7196
 6220SOL     OW30121   3.102   4.696   6.191 -0.3681  0.0613  0.2051
 6220SOL    HW130122   3.080   0.003   6.104 -2.5547 -3.4269 -0.5263
 6220SOL    HW230123   3.189   0.008   6.207 -0.7270  0.9056  0.1912
 6221SOL     OW30124   0.372   3.913  12.772 -0.2415  0.0374 -0.6513
 6221SOL    HW130125   0.378   3.981  12.839 -0.0302 -1.6291  1.0338
 6221SOL    HW230126   0.289   3.873  12.799 -0.5939  0.6662 -0.8192
 6222SOL     OW30127   2.338   1.902   5.587  0.0044 -0.0622 -0.0929
 6222SOL    HW130128   2.431   1.889   5.568 -0.1593 -2.5082  0.7812
 6222SOL    HW230129   2.302   1.908   5.498 -2.2236 -0.8246  0.7555
 6223SOL     OW30130   4.628   3.689   6.093  0.1336 -0.1933 -0.4242
 6223SOL    HW130131   4.652   3.615   6.038  0.1500  1.0277 -2.0639
 6223SOL    HW230132   4.713   3.717   6.128  0.2609 -1.0159 -0.0823
 6224SOL     OW30133   3.447   4.616   4.330  0.7329 -0.2572  0.4866
 6224SOL    HW130134   3.480   4.607   4.241 -0.9201 -0.7172 -0.0740
 6224SOL    HW230135   3.475   4.706   4.346  1.6852  0.2507 -4.1802
 6225SOL     OW30136   4.531   4.605   1.772  0.0629  0.0956  0.1016
 6225SOL    HW130137   4.551   4.696   1.797  0.2587 -0.2924  1.3701
 6225SOL    HW230138   4.463   4.628   1.708  1.8239 -1.9497 -2.5110
 6226SOL     OW30139   0.149   1.619   7.104 -0.0232  0.0829 -0.4805
 6226SOL    HW130140   0.199   1.593   7.181  0.6344 -0.1969 -1.0038
 6226SOL    HW230141   0.161   1.541   7.049 -0.1911 -0.2535 -0.0439
 6227SOL     OW30142   2.439   0.145   5.643 -0.0449  0.0469 -0.2367
 6227SOL    HW130143   2.491   0.225   5.634  0.4742 -0.4379 -1.4988
 6227SOL    HW230144   2.393   0.132   5.561 -2.9488  0.0291  1.3906
 6228SOL     OW30145   2.700   0.188   8.386 -0.4119 -0.3136 -0.4373
 6228SOL    HW130146   2.793   0.162   8.380 -0.5901 -1.0436 -0.0525
 6228SOL    HW230147   2.700   0.279   8.356 -0.6279 -0.5136 -1.0364
 6229SOL     OW30148   4.535   4.434   5.416  0.5572  0.4211 -0.2278
 6229SOL    HW130149   4.499   4.354   5.377  2.3707 -0.3049 -0.4423
 6229SOL    HW230150   4.627   4.407   5.406  0.8074  0.9755  0.6014
 6230SOL     OW30151   4.448   2.739  11.487  0.2821 -0.4131 -0.7680
 6230SOL    HW130152   4.525   2.774  11.532 -0.1879  0.5415 -0.6942
 6230SOL    HW230153   4.393   2.780  11.554  0.9688  0.1833 -0.5701
 6231SOL     OW30154   4.066   0.834  14.493  0.0209  0.4478 -0.8835
 6231SOL    HW130155   4.057   0.828  14.398  0.0804 -1.7943 -0.7603
 6231SOL    HW230156   4.151   0.871  14.515  0.9977 -1.0411 -2.1209
 6232SOL     OW30157   0.656   0.289   5.432  0.1698  0.1103  0.2359
 6232SOL    HW130158   0.695   0.252   5.511 -0.1781  1.0987  0.8627
 6232SOL    HW230159   0.575   0.238   5.439  0.8371 -0.8730  0.7962
 6233SOL     OW30160   0.711   3.542   4.040 -0.1552 -0.2813  0.0631
 6233SOL    HW130161   0.735   3.561   3.949 -0.2528 -2.0611 -0.3352
 6233SOL    HW230162   0.787   3.495   4.073 -1.1577 -1.4202  0.7450
 6234SOL     OW30163   3.504   2.467  17.660 -0.4073 -0.5631  0.4143
 6234SOL    HW130164   3.599   2.472  17.670 -0.1900  0.0776 -2.0892
 6234SOL    HW230165   3.465   2.525   0.023 -0.5257  1.2498 -1.2898
 6235SOL     OW30166   4.409   4.688   5.276 -0.3609 -0.3835 -0.6214
 6235SOL    HW130167   4.492   4.642   5.286  1.2087  2.3653 -0.9896
 6235SOL    HW230168   4.427   0.020   5.202  1.8347 -2.6503 -1.8288
 6236SOL     OW30169   3.602   2.458  14.625  0.1440 -0.5413 -0.2305
 6236SOL    HW130170   3.568   2.443  14.713 -2.0944  2.1303 -0.6209
 6236SOL    HW230171   3.680   2.505  14.656 -0.7471  1.2839 -0.7636
 6237SOL     OW30172   1.431   1.629   7.698 -0.2507  0.7429 -0.2233
 6237SOL    HW130173   1.341   1.629   7.730  0.3260  0.6105  1.4133
 6237SOL    HW230174   1.434   1.551   7.643 -1.0098  0.2734  0.3998
 6238SOL     OW30175   2.576   2.314  14.273  0.0948  0.3779  0.1936
 6238SOL    HW130176   2.621   2.345  14.194  0.2279 -2.8453 -0.9876
 6238SOL    HW230177   2.603   2.386  14.330  0.2515  1.9972 -1.9226
 6239SOL     OW30178   3.529   1.899   7.602 -0.0677  0.1317  0.2493
 6239SOL    HW130179   3.506   1.991   7.606  2.5674  0.7838  0.7849
 6239SOL    HW230180   3.533   1.883   7.697  1.1683 -2.4794 -0.2411
 6240SOL     OW30181   3.118   0.826  10.619  0.4429 -0.3910 -0.0671
 6240SOL    HW130182   3.098   0.868  10.535  2.2332  1.2436  0.3282
 6240SOL    HW230183   3.060   0.750  10.619 -1.0932  0.7740 -0.6714
 6241SOL     OW30184   3.550   3.886   0.051 -0.0262 -0.0276 -0.4834
 6241SOL    HW130185   3.579   3.953  17.691 -1.1223 -0.6912 -1.7134
 6241SOL    HW230186   3.627   3.885   0.108 -0.8593 -1.8856  0.5916
 6242SOL     OW30187   1.895   1.124   2.316 -0.0179  0.0313 -0.3647
 6242SOL    HW130188   1.844   1.179   2.376  1.1758 -0.2975  0.9521
 6242SOL    HW230189   1.962   1.088   2.375 -1.3842  0.0455  1.2174
 6243SOL     OW30190   3.042   1.480  10.636 -0.4270 -0.6951  0.0184
 6243SOL    HW130191   2.968   1.536  10.616  0.6457  1.1591  1.2907
 6243SOL    HW230192   3.056   1.506  10.727  1.0332  0.3164 -0.4986
 6244SOL     OW30193   1.620   0.811   1.652  0.6783 -0.2225  0.1206
 6244SOL    HW130194   1.533   0.841   1.678  1.4954  3.2515 -1.1605
 6244SOL    HW230195   1.663   0.875   1.707  0.3876  0.7560 -0.7886
 6245SOL     OW30196   2.545   4.036   3.337  0.3079  0.2242 -0.0652
 6245SOL    HW130197   2.488   4.112   3.329  0.2506  0.1891  0.0106
 6245SOL    HW230198   2.591   4.070   3.414 -0.0086 -0.0187  0.2280
 6246SOL     OW30199   0.800   2.394  13.870  0.0214 -0.7053 -0.2186
 6246SOL    HW130200   0.885   2.377  13.910 -0.3982 -1.4454  0.3551
 6246SOL    HW230201   0.743   2.331  13.914  0.5422 -2.3632 -1.8775
 6247SOL     OW30202   1.713   0.163   8.081  0.7509 -0.4628 -1.0699
 6247SOL    HW130203   1.691   0.235   8.022 -0.6155  0.7654  0.9331
 6247SOL    HW230204   1.681   0.187   8.168  1.3101  1.8659 -1.5062
 6248SOL     OW30205   2.183   0.693  15.913  0.3941  0.3435  0.3839
 6248SOL    HW130206   2.098   0.647  15.914  0.0124  0.9699 -2.5856
 6248SOL    HW230207   2.228   0.657  15.836  0.4382 -0.6046  0.8561
 6249SOL     OW30208   0.362   1.788   4.919 -0.0733 -0.2711  0.0191
 6249SOL    HW130209   0.290   1.748   4.968 -0.1609  2.2496  1.9097
 6249SOL    HW230210   0.379   1.717   4.857 -1.2797 -0.3212 -0.2536
 6250SOL     OW30211   3.134   3.273   4.032 -0.8708  0.2079  0.1165
 6250SOL    HW130212   3.124   3.179   4.015 -1.7361  0.1721  0.8446
 6250SOL    HW230213   3.053   3.315   4.003 -1.0923  0.7656  1.5962
 6251SOL     OW30214   1.598   0.821  17.642  0.5278 -0.2768  0.5924
 6251SOL    HW130215   1.614   0.776  17.559 -0.1927 -0.8223  0.7529
 6251SOL    HW230216   1.513   0.785  17.668 -1.2892  1.8763 -2.3618
 6252SOL     OW30217   1.322   1.057  16.159  0.0022 -0.0794 -0.3520
 6252SOL    HW130218   1.278   1.113  16.096  1.7446  0.2520 -1.2801
 6252SOL    HW230219   1.370   1.119  16.213  0.5364 -2.2144  1.6320
 6253SOL     OW30220   1.411   4.305  14.478 -0.1059 -0.4398  0.0544
 6253SOL    HW130221   1.328   4.258  14.466 -0.2740 -0.3558  0.9466
 6253SOL    HW230222   1.407   4.304  14.573 -0.0214  1.6186  0.0751
 6254SOL     OW30223   0.624   0.275  11.297 -0.7247 -0.0605 -0.2900
 6254SOL    HW130224   0.661   0.354  11.336  2.2289 -0.4379 -2.2675
 6254SOL    HW230225   0.578   0.239  11.372 -2.2799 -1.9850 -2.1522
 6255SOL     OW30226   4.005   0.940  17.648 -0.4231  0.4807 -0.5479
 6255SOL    HW130227   3.986   0.914   0.037  0.4041  3.0498  0.3701
 6255SOL    HW230228   4.051   1.023  17.660 -0.1071  0.2118  0.1387
 6256SOL     OW30229   1.658   1.729   5.314  0.3223 -0.2748  0.5736
 6256SOL    HW130230   1.661   1.666   5.242 -1.4615 -0.8674  1.0178
 6256SOL    HW230231   1.571   1.766   5.299  0.6796  0.3458  0.0311
 6257SOL     OW30232   1.318   4.638  12.026 -0.6637  0.1072 -0.0935
 6257SOL    HW130233   1.338   4.613  12.117 -0.2981 -1.3879 -0.5870
 6257SOL    HW230234   1.353   0.002  12.027 -1.4635  0.4292 -1.0519
 6258SOL     OW30235   4.347   4.643   7.427 -0.1456  0.1741 -0.2793
 6258SOL    HW130236   4.383   4.673   7.511  1.3323 -0.0489 -0.8518
 6258SOL    HW230237   4.420   4.633   7.367 -1.7471 -0.0564 -2.2047
 6259SOL     OW30238   0.487   1.616  16.828  0.2791  0.6543 -1.0107
 6259SOL    HW130239   0.457   1.550  16.766 -2.2171  1.2228 -0.4267
 6259SOL    HW230240   0.473   1.701  16.787  4.5281  0.6601 -2.4741
 6260SOL     OW30241   3.946   4.197   7.903 -0.2461  0.1159  0.8160
 6260SOL    HW130242   3.960   4.211   7.997 -3.5062  0.9559  1.1663
 6260SOL    HW230243   3.972   4.105   7.902 -1.3418 -0.1848 -0.2103
 6261SOL     OW30244   1.462   1.239  16.312  0.0403  0.5824  0.1502
 6261SOL    HW130245   1.555   1.224  16.297 -0.4670 -1.4700 -0.9564
 6261SOL    HW230246   1.435   1.197  16.394 -3.0039  0.2045 -1.0475
 6262SOL     OW30247   1.348   1.958   4.508 -0.4077 -0.1413 -0.1676
 6262SOL    HW130248   1.333   1.885   4.448 -1.1705  1.7728 -2.2812
 6262SOL    HW230249   1.349   2.033   4.450  1.4710  0.2328  0.3431
 6263SOL     OW30250   1.998   0.487  10.399  0.0969  0.0220 -0.0746
 6263SOL    HW130251   2.087   0.505  10.431  0.8745 -2.2757 -0.9268
 6263SOL    HW230252   2.012   0.410  10.344 -0.1772 -0.6314  0.7826
 6264SOL     OW30253   2.972   2.167   3.580 -0.0027 -0.3149  0.5625
 6264SOL    HW130254   2.918   2.094   3.548  1.9470 -0.7821 -1.6547
 6264SOL    HW230255   2.916   2.177   3.657 -1.6105 -1.3119 -0.4485
 6265SOL     OW30256   3.778   2.883   3.767 -0.1874  0.1813 -0.3346
 6265SOL    HW130257   3.763   2.972   3.801 -0.0424 -1.3072  3.6650
 6265SOL    HW230258   3.867   2.892   3.733 -0.1420  0.3810 -0.1664
 6266SOL     OW30259   2.219   1.320   4.083 -0.0622 -0.2284 -0.2119
 6266SOL    HW130260   2.195   1.257   4.016 -0.9944  0.1290 -0.2124
 6266SOL    HW230261   2.311   1.296   4.091 -0.2857 -0.9631  0.1127
 6267SOL     OW30262   1.922   0.917  16.475  0.1808 -0.4753  0.3738
 6267SOL    HW130263   1.902   0.998  16.521 -0.9761 -0.6524  0.1875
 6267SOL    HW230264   1.959   0.857  16.540  0.8922 -1.8084 -1.2385
 6268SOL     OW30265   2.718   0.993   9.154  0.0135  0.3490 -0.2141
 6268SOL    HW130266   2.789   1.049   9.122  1.3231 -1.1308  0.0595
 6268SOL    HW230267   2.764   0.952   9.228 -0.7326 -0.3464 -0.1360
 6269SOL     OW30268   0.124   0.030   3.319  0.6985  0.2513 -0.0216
 6269SOL    HW130269   0.075   0.112   3.317  0.8242  0.3236 -0.0534
 6269SOL    HW230270   0.185   0.034   3.246  2.7998  0.9010  1.7989
 6270SOL     OW30271   1.353   2.234   9.650 -0.0229  0.0198 -0.0107
 6270SOL    HW130272   1.332   2.150   9.691 -0.1906 -0.3012 -0.7572
 6270SOL    HW230273   1.287   2.297   9.679 -0.8002 -0.2323 -1.2235
 6271SOL     OW30274   1.133   3.948   4.358  0.5145 -0.4993 -0.2453
 6271SOL    HW130275   1.080   3.928   4.281  2.1092  0.7865 -1.6872
 6271SOL    HW230276   1.206   3.885   4.359  0.3346 -0.6963  0.7521
 6272SOL     OW30277   1.652   1.749  14.148  0.0970  0.6559 -0.2709
 6272SOL    HW130278   1.626   1.694  14.222  1.9108  0.3469  0.1307
 6272SOL    HW230279   1.736   1.711  14.121 -0.7736 -1.8298  0.4401
 6273SOL     OW30280   0.730   2.581   7.984 -0.1255  0.2378 -0.0360
 6273SOL    HW130281   0.687   2.661   7.953 -1.3242 -1.0057 -1.5325
 6273SOL    HW230282   0.818   2.609   8.010  0.3599 -0.4111 -0.9807
 6274SOL     OW30283   1.875   1.614  17.066 -0.5475 -0.6690 -0.8062
 6274SOL    HW130284   1.834   1.598  17.151 -0.7755  0.3380 -0.7356
 6274SOL    HW230285   1.813   1.674  17.024 -1.6749 -0.0016  1.8144
 6275SOL     OW30286   2.508   4.417   5.442  0.5266 -0.5452  0.2143
 6275SOL    HW130287   2.454   4.379   5.373  1.0531 -2.6976  0.9785
 6275SOL    HW230288   2.443   4.421   5.512  0.7159 -0.9532  0.4143
 6276SOL     OW30289   3.807   0.315   1.130  0.0742 -0.3277  0.3708
 6276SOL    HW130290   3.833   0.233   1.088 -0.4848  0.3686 -1.3325
 6276SOL    HW230291   3.773   0.294   1.217  0.9823 -2.0406  0.3052
 6277SOL     OW30292   1.060   0.767   8.094 -0.4183  0.3610 -0.7287
 6277SOL    HW130293   1.126   0.700   8.108 -2.6188 -1.1133  2.7195
 6277SOL    HW230294   1.099   0.840   8.142 -1.4223  0.1033  0.4875
 6278SOL     OW30295   3.192   2.639   4.206 -0.0361 -0.2461  0.6448
 6278SOL    HW130296   3.098   2.654   4.215  0.4408  1.2723  2.8813
 6278SOL    HW230297   3.224   2.722   4.241 -0.0787 -0.1115  0.3654
 6279SOL     OW30298   0.393   0.122   3.828 -0.2388 -0.1066 -0.1468
 6279SOL    HW130299   0.354   0.131   3.741  1.1301 -1.7941 -0.9380
 6279SOL    HW230300   0.486   0.127   3.806 -0.1959 -1.0004 -0.1706
 6280SOL     OW30301   2.238   1.041   2.728 -0.1043  0.0926 -0.0075
 6280SOL    HW130302   2.327   1.008   2.714  0.2113 -1.0988  4.8433
 6280SOL    HW230303   2.220   1.022   2.820 -1.5952  0.0455 -0.3118
 6281SOL     OW30304   0.490   4.678  15.058  0.4457 -0.5696 -0.5041
 6281SOL    HW130305   0.584   4.672  15.078 -0.0245 -0.6550  1.6906
 6281SOL    HW230306   0.503   0.006  14.979 -0.8453 -0.2706 -0.5049
 6282SOL     OW30307   4.294   4.343   2.470  0.1632  0.1646 -0.4812
 6282SOL    HW130308   4.376   4.386   2.492  0.9515 -2.2508  1.2115
 6282SOL    HW230309   4.328   4.258   2.442 -1.2393 -1.0778  1.6337
 6283SOL     OW30310   2.765   1.616   4.692  0.1224  0.0850  0.0613
 6283SOL    HW130311   2.710   1.685   4.728 -0.8812 -1.5386  1.6260
 6283SOL    HW230312   2.799   1.649   4.608  0.5851 -0.6304 -0.0361
 6284SOL     OW30313   3.653   2.461   8.361 -0.0727  0.1330  0.0606
 6284SOL    HW130314   3.706   2.506   8.296  0.0938 -0.0697  0.0574
 6284SOL    HW230315   3.585   2.528   8.358 -0.0951  0.1742  1.3425
 6285SOL     OW30316   2.734   3.769  15.788 -0.4267 -0.2406 -0.0423
 6285SOL    HW130317   2.648   3.809  15.782  0.4650  1.2501 -2.4750
 6285SOL    HW230318   2.738   3.722  15.705 -1.0530  1.2314 -0.8976
 6286SOL     OW30319   0.405   2.357   3.241 -0.0065 -0.0125 -0.4460
 6286SOL    HW130320   0.402   2.365   3.336  0.0982 -0.7956 -0.3772
 6286SOL    HW230321   0.328   2.407   3.213  0.0805 -0.2055 -1.0314
 6287SOL     OW30322   0.372   4.711   6.684 -0.2504  0.0478 -0.2633
 6287SOL    HW130323   0.306   0.008   6.750 -1.5578 -0.1202 -1.5074
 6287SOL    HW230324   0.347   0.019   6.598 -2.1145 -2.1820 -0.5787
 6288SOL     OW30325   4.083   0.003  13.380 -0.6215  0.2316  0.3733
 6288SOL    HW130326   4.063   0.092  13.353 -0.2425 -0.0277 -0.7476
 6288SOL    HW230327   4.146   4.703  13.313 -0.2553 -1.2117  1.2665
 6289SOL     OW30328   0.513   3.604  12.697 -0.3262 -0.2815 -0.1962
 6289SOL    HW130329   0.505   3.509  12.687  1.1598 -0.4711  0.3825
 6289SOL    HW230330   0.608   3.616  12.700 -0.3536 -0.0504 -0.2712
 6290SOL     OW30331   2.967   3.760  16.729 -0.0504  0.1999  0.3089
 6290SOL    HW130332   3.050   3.720  16.702 -1.1636 -2.3443  0.5895
 6290SOL    HW230333   2.916   3.769  16.649 -0.3028  1.9077  0.6702
 6291SOL     OW30334   2.953   1.004   8.513 -0.5423  0.1648 -0.1644
 6291SOL    HW130335   2.946   0.914   8.546 -1.9276  0.2717 -0.1691
 6291SOL    HW230336   2.868   1.046   8.522 -1.6010 -2.1622  0.7397
 6292SOL     OW30337   1.739   2.877   1.754  0.5367  1.1046  0.7627
 6292SOL    HW130338   1.712   2.827   1.678  0.6519  1.0665  0.7478
 6292SOL    HW230339   1.769   2.961   1.719  0.8890  0.3257 -0.7794
 6293SOL     OW30340   4.266   3.741   7.917  0.2055  0.3532  0.6316
 6293SOL    HW130341   4.293   3.650   7.927  2.9175  1.2777  1.8758
 6293SOL    HW230342   4.353   3.780   7.913  0.8436 -1.0681  0.6134
 6294SOL     OW30343   4.724   2.741  11.962 -0.6284 -0.3876 -0.2357
 6294SOL    HW130344   4.651   2.802  11.948 -1.8483 -1.8261 -0.0981
 6294SOL    HW230345   4.723   2.754  12.057 -2.7708 -0.7091 -0.2158
 6295SOL     OW30346   1.146   2.770   5.594  0.6441 -0.4306 -0.2487
 6295SOL    HW130347   1.232   2.809   5.601  0.1349  0.3135  1.6817
 6295SOL    HW230348   1.117   2.726   5.674  0.0083 -0.7167 -0.6327
 6296SOL     OW30349   3.991   1.056   8.364  0.9014 -0.5472  0.3652
 6296SOL    HW130350   3.951   0.971   8.344 -1.2171 -0.2831  3.4377
 6296SOL    HW230351   4.026   1.082   8.279  0.0752  1.4723  0.6498
 6297SOL     OW30352   4.537   0.289  16.653 -0.4142  0.2247 -0.0563
 6297SOL    HW130353   4.450   0.314  16.683  0.1919  3.4821 -1.0218
 6297SOL    HW230354   4.577   0.295  16.740  2.6380 -0.4181 -1.3988
 6298SOL     OW30355   1.166   4.354   0.025 -0.1875 -0.4190 -0.4634
 6298SOL    HW130356   1.151   4.421  17.660 -1.4150  1.2719  1.5038
 6298SOL    HW230357   1.189   4.283  17.667  1.2206  0.6187 -1.1476
 6299SOL     OW30358   3.901   3.592   5.063  0.0201 -0.0507  0.7115
 6299SOL    HW130359   3.983   3.572   5.018  0.8113  3.3219  0.6590
 6299SOL    HW230360   3.922   3.581   5.156 -2.1016 -2.0114  0.9721
 6300SOL     OW30361   0.227   4.028   5.069  0.1015  0.1811  0.6408
 6300SOL    HW130362   0.264   3.975   5.139 -0.1198 -0.6928  0.0946
 6300SOL    HW230363   0.166   4.077   5.125 -0.5823  1.0638 -0.8599
 6301SOL     OW30364   4.707   1.240   5.139 -0.1797 -0.1611 -0.4068
 6301SOL    HW130365   0.016   1.323   5.171 -0.2888 -0.4864  0.5414
 6301SOL    HW230366   4.631   1.268   5.088  0.0835  1.4715  0.1260
 6302SOL     OW30367   1.424   0.852   7.672  0.1904  0.3381  0.4531
 6302SOL    HW130368   1.510   0.833   7.634  1.0882  0.6098  2.3603
 6302SOL    HW230369   1.424   0.792   7.746 -0.4854 -0.0072  0.1754
 6303SOL     OW30370   4.029   0.180  15.475 -0.0927 -0.2525  0.5194
 6303SOL    HW130371   4.014   0.087  15.490 -1.1817 -0.5322 -2.3226
 6303SOL    HW230372   4.110   0.179  15.424  0.4533 -1.6487  1.4053
 6304SOL     OW30373   3.898   0.928   6.335 -0.0317 -0.1339 -0.7476
 6304SOL    HW130374   3.843   0.849   6.337 -0.1249 -0.0017  1.5804
 6304SOL    HW230375   3.966   0.902   6.272 -0.7327 -1.9189 -0.7709
 6305SOL     OW30376   0.804   3.702   5.665  0.1996  0.6821  0.3555
 6305SOL    HW130377   0.839   3.622   5.704 -1.1392 -0.0805  0.0026
 6305SOL    HW230378   0.807   3.689   5.571 -0.0241 -0.2135  0.4693
 6306SOL     OW30379   0.359   3.552  12.974 -0.6214  0.0840  0.4804
 6306SOL    HW130380   0.453   3.539  12.991 -1.1191 -2.2521  1.4963
 6306SOL    HW230381   0.365   3.642  12.944 -1.0861  0.1462  0.5809
 6307SOL     OW30382   2.739   3.743   0.973 -0.7105  0.0776 -0.0211
 6307SOL    HW130383   2.665   3.797   1.002  2.1116  1.6371  4.1646
 6307SOL    HW230384   2.803   3.785   1.030  0.2477 -2.7760  1.0357
 6308SOL     OW30385   3.871   3.969   7.551  0.4951 -0.2521 -0.0457
 6308SOL    HW130386   3.785   3.967   7.509  0.9664 -2.7525 -0.8614
 6308SOL    HW230387   3.858   3.915   7.629 -0.2749  0.4578  0.3221
 6309SOL     OW30388   2.388   0.041   9.898 -0.1981 -0.1306 -0.3417
 6309SOL    HW130389   2.465   0.069   9.850 -0.1316 -0.1939 -0.2711
 6309SOL    HW230390   2.424   0.009   9.981 -2.8377 -0.1217  0.8131
 6310SOL     OW30391   0.639   1.136   0.547  0.2781  0.4468 -0.3833
 6310SOL    HW130392   0.549   1.142   0.514  0.2771 -1.5294 -0.7330
 6310SOL    HW230393   0.676   1.219   0.518  3.5841 -0.7828  0.3938
 6311SOL     OW30394   1.695   1.494   2.155 -0.3491 -0.2534 -0.6924
 6311SOL    HW130395   1.642   1.479   2.076  1.3122  0.4577 -1.9616
 6311SOL    HW230396   1.769   1.545   2.121  1.7717 -0.6118  3.4705
 6312SOL     OW30397   0.780   1.392   0.749  0.2721  0.6822 -0.1493
 6312SOL    HW130398   0.849   1.457   0.741  2.2783 -1.1541  2.0269
 6312SOL    HW230399   0.762   1.379   0.656 -0.5301 -1.2508  0.2623
 6313SOL     OW30400   1.999   0.986   7.916  0.4754  0.3792 -0.0916
 6313SOL    HW130401   1.910   1.014   7.893 -0.4135 -1.0104  1.6923
 6313SOL    HW230402   2.031   1.075   7.927  1.5291 -0.0034 -0.0169
 6314SOL     OW30403   0.960   2.391   7.331  0.4227 -0.6970 -0.6116
 6314SOL    HW130404   0.949   2.313   7.386 -3.2707 -0.8143 -1.5508
 6314SOL    HW230405   1.004   2.442   7.399 -1.0918 -1.9181  1.2972
 6315SOL     OW30406   4.680   0.241   4.344  0.0033 -0.4350  0.0663
 6315SOL    HW130407   4.687   0.196   4.260  0.1698 -0.0039 -0.1539
 6315SOL    HW230408   4.594   0.214   4.377  0.2769  0.7585  1.7216
 6316SOL     OW30409   4.394   2.895  13.211  0.2142  0.3925  0.7819
 6316SOL    HW130410   4.366   2.819  13.262  0.5148  0.9157  1.7137
 6316SOL    HW230411   4.486   2.875  13.191  0.0782 -0.3683  0.9330
 6317SOL     OW30412   1.604   2.636  11.978  0.1331  0.0132 -0.1755
 6317SOL    HW130413   1.545   2.649  11.904 -0.0175  0.9551  0.1205
 6317SOL    HW230414   1.558   2.571  12.031  0.0772  0.5284  0.3958
 6318SOL     OW30415   4.003   4.187   7.620  0.3784 -0.1459 -0.5162
 6318SOL    HW130416   3.980   4.203   7.712  0.6224  0.4266 -0.5539
 6318SOL    HW230417   3.969   4.100   7.597  0.4885 -0.2010 -0.4710
 6319SOL     OW30418   1.133   0.162  11.800 -0.1429  0.2244  0.0298
 6319SOL    HW130419   1.100   0.139  11.887 -0.5600 -0.2710 -0.2534
 6319SOL    HW230420   1.213   0.210  11.823  0.4061 -0.7279  0.1402
 6320SOL     OW30421   3.280   3.440   9.820 -0.7638 -0.0827 -0.3434
 6320SOL    HW130422   3.311   3.362   9.866  0.7247  0.2870 -0.7255
 6320SOL    HW230423   3.225   3.480   9.888  0.4974 -0.3232  0.8078
 6321SOL     OW30424   2.476   3.047   9.372  0.0736 -0.1922 -0.3656
 6321SOL    HW130425   2.531   3.041   9.449 -2.4983 -1.6146  1.3628
 6321SOL    HW230426   2.410   3.116   9.387  0.6577 -0.2344  2.3043
 6322SOL     OW30427   4.305   2.803  11.687 -0.0095  0.7242  0.1570
 6322SOL    HW130428   4.253   2.877  11.718 -1.0778 -0.7973  1.9532
 6322SOL    HW230429   4.276   2.725  11.734 -0.5985  0.7684 -0.1319
 6323SOL     OW30430   4.472   2.781   1.466  0.4264 -0.1638  0.5623
 6323SOL    HW130431   4.406   2.739   1.521 -0.1488  1.5829  1.1915
 6323SOL    HW230432   4.503   2.840   1.535  2.7661 -0.9189  0.1582
 6324SOL     OW30433   0.300   3.225   1.541 -0.4950 -0.3516  0.7284
 6324SOL    HW130434   0.273   3.184   1.459 -0.9309 -0.1896  0.7901
 6324SOL    HW230435   0.383   3.179   1.555  0.0773  0.7140  0.7932
 6325SOL     OW30436   1.797   4.473   8.179 -0.0301 -0.1012 -0.0561
 6325SOL    HW130437   1.845   4.526   8.242 -0.4623  0.6804 -0.3816
 6325SOL    HW230438   1.812   4.525   8.100 -0.0906 -0.6073 -0.4032
 6326SOL     OW30439   0.263   2.938   1.898 -0.1663 -0.2681  0.3621
 6326SOL    HW130440   0.315   2.908   1.823 -3.3017 -1.2979 -1.4116
 6326SOL    HW230441   0.311   3.018   1.919 -2.0607  0.7749  0.7271
 6327SOL     OW30442   3.857   1.819   8.966  0.3998  0.2965 -0.0825
 6327SOL    HW130443   3.803   1.766   8.907 -1.0996  2.1963 -0.4135
 6327SOL    HW230444   3.946   1.794   8.941  0.7323  0.4504  0.9526
 6328SOL     OW30445   3.469   1.622   3.122  0.2043  0.2232 -0.0879
 6328SOL    HW130446   3.456   1.533   3.157 -1.8973  1.6254  2.6840
 6328SOL    HW230447   3.392   1.640   3.068 -1.3524  0.9763  2.3620
 6329SOL     OW30448   2.359   1.519   5.604  0.2521  0.0415 -0.2954
 6329SOL    HW130449   2.290   1.582   5.584 -0.0443  0.0754  0.8738
 6329SOL    HW230450   2.310   1.438   5.593  0.1982  0.0943 -0.4561
 6330SOL     OW30451   2.527   1.754   1.874 -0.4262  0.2504 -0.4326
 6330SOL    HW130452   2.528   1.832   1.930  2.3367 -0.8613  1.0891
 6330SOL    HW230453   2.545   1.682   1.934 -2.4431  1.2308  1.3296
 6331SOL     OW30454   4.563   1.215   9.834  0.3580  0.1037  0.1908
 6331SOL    HW130455   4.598   1.149   9.895  0.6638  0.7512  0.7252
 6331SOL    HW230456   4.636   1.211   9.772  1.9841  1.7728  1.9624
 6332SOL     OW30457   4.552   4.593   8.263  0.1066  0.0925 -0.2742
 6332SOL    HW130458   4.525   4.550   8.183 -2.3276 -0.9511  1.1136
 6332SOL    HW230459   4.647   4.598   8.255  0.0538 -2.0353 -2.2209
 6333SOL     OW30460   0.990   0.054   0.279  0.4167 -0.2272 -0.3930
 6333SOL    HW130461   0.901   0.072   0.247 -0.9656 -2.0620  2.4423
 6333SOL    HW230462   0.992   4.687   0.254  3.0815  0.7149 -3.6365
 6334SOL     OW30463   2.644   3.290   7.538  0.5830  0.1150  0.0982
 6334SOL    HW130464   2.586   3.301   7.613  0.0552 -0.2783 -0.2543
 6334SOL    HW230465   2.653   3.382   7.512 -0.0584 -0.1073 -0.9482
 6335SOL     OW30466   3.874   3.627   5.396  0.2416  0.2133  0.4091
 6335SOL    HW130467   3.791   3.580   5.406 -0.0017  0.8506  1.4121
 6335SOL    HW230468   3.867   3.695   5.463 -3.0368  0.5444 -0.3128
 6336SOL     OW30469   3.175   0.408   6.720  0.0809 -0.1365  0.1411
 6336SOL    HW130470   3.184   0.497   6.755  3.1131 -0.4126  0.0852
 6336SOL    HW230471   3.267   0.383   6.712 -0.1264 -1.5605  2.0939
 6337SOL     OW30472   0.044   1.782   4.202 -0.1878  0.7364  0.1297
 6337SOL    HW130473   0.083   1.717   4.143 -3.1480 -2.6497  1.9150
 6337SOL    HW230474   0.035   1.850   4.135  0.4985  0.6986 -0.0011
 6338SOL     OW30475   2.141   0.363   4.747  0.3902  0.3358  0.7359
 6338SOL    HW130476   2.161   0.434   4.686  0.6575 -0.8761 -0.6049
 6338SOL    HW230477   2.134   0.409   4.830  0.2696 -1.1367  1.5522
 6339SOL     OW30478   1.079   2.612   1.443  0.2185  0.1310 -0.2043
 6339SOL    HW130479   1.123   2.637   1.361  0.6674  0.7620  0.2267
 6339SOL    HW230480   1.139   2.639   1.513 -0.5537  1.7021 -0.1542
 6340SOL     OW30481   1.494   2.338   5.015  0.1081 -0.3883 -0.1570
 6340SOL    HW130482   1.573   2.377   4.977 -1.3278  0.3377 -2.3990
 6340SOL    HW230483   1.421   2.376   4.966 -0.1588 -1.6043 -0.7008
 6341SOL     OW30484   1.254   2.395   6.889 -0.0317  0.4551  0.3293
 6341SOL    HW130485   1.221   2.339   6.959  1.0680  0.7167  1.0433
 6341SOL    HW230486   1.194   2.470   6.897  0.2291  0.7206 -0.1895
 6342SOL     OW30487   1.833   0.070   1.580 -0.8068 -0.5743 -0.4257
 6342SOL    HW130488   1.854   0.162   1.591 -1.0674 -0.5284 -0.3010
 6342SOL    HW230489   1.756   0.061   1.637 -0.9457 -2.3329 -0.8940
 6343SOL     OW30490   3.429   2.831   6.812 -0.7675  0.2948  0.1628
 6343SOL    HW130491   3.421   2.785   6.895 -1.0159 -0.5981 -0.3469
 6343SOL    HW230492   3.436   2.750   6.761  0.8319  0.4843  0.1073
 6344SOL     OW30493   0.781   1.907   0.508  0.0391 -0.3427  0.2587
 6344SOL    HW130494   0.861   1.886   0.458 -0.3546 -0.4134 -0.3445
 6344SOL    HW230495   0.749   1.969   0.443 -0.2738 -0.8554 -0.0782
 6345SOL     OW30496   0.564   0.348  15.329  0.3392  0.5364 -0.2864
 6345SOL    HW130497   0.658   0.335  15.321  0.4740  0.9780  0.5554
 6345SOL    HW230498   0.541   0.287  15.399 -2.8458  2.0760  0.0217
 6346SOL     OW30499   4.642   4.143   7.838 -0.1477 -0.3444 -0.3268
 6346SOL    HW130500   4.662   4.116   7.749  2.0384  2.9686 -0.8539
 6346SOL    HW230501   4.717   4.096   7.874  0.0516  0.2747  0.0569
 6347SOL     OW30502   4.436   3.304   6.013  0.0028  0.1898 -0.0452
 6347SOL    HW130503   4.426   3.284   5.920  0.8553  0.2472 -0.1445
 6347SOL    HW230504   4.435   3.211   6.037 -0.9923 -0.2322 -1.7093
 6348SOL     OW30505   3.315   3.409   0.316 -0.6479  0.2234 -0.1716
 6348SOL    HW130506   3.260   3.409   0.395 -0.4148  0.6517 -0.0091
 6348SOL    HW230507   3.366   3.490   0.314 -2.2646  1.1929 -2.5381
 6349SOL     OW30508   3.979   0.226   1.599  0.1651  0.4162 -0.4049
 6349SOL    HW130509   3.901   0.205   1.548 -0.3195  3.2257 -0.8511
 6349SOL    HW230510   3.982   0.148   1.654  2.2287 -0.2897 -1.5168
 6350SOL     OW30511   1.098   3.811   5.453  0.2862 -0.7224  0.1822
 6350SOL    HW130512   1.030   3.824   5.386  0.9184 -3.0376 -0.8845
 6350SOL    HW230513   1.154   3.741   5.420  0.4792 -1.5139  2.1787
 6351SOL     OW30514   0.028   1.889   7.291 -0.3988  0.1704  0.0800
 6351SOL    HW130515   4.667   1.868   7.256 -1.7829  1.1487  2.8658
 6351SOL    HW230516   0.076   1.897   7.209  0.8911 -0.3454  0.7821
 6352SOL     OW30517   3.693   0.015   3.713  0.0100  0.0358 -0.1149
 6352SOL    HW130518   3.702   0.059   3.798  0.1551  0.4025 -0.3193
 6352SOL    HW230519   3.731   4.654   3.730  0.2976  1.0119  4.1922
 6353SOL     OW30520   2.985   3.031   7.845  0.2107  0.7569  0.1132
 6353SOL    HW130521   3.071   3.039   7.805  0.6166 -0.8840  0.6292
 6353SOL    HW230522   2.927   3.045   7.770  0.5538 -0.2234 -0.3434
 6354SOL     OW30523   3.399   0.862   2.842  0.4098  0.8382  0.3167
 6354SOL    HW130524   3.374   0.848   2.750 -2.3107  1.8304  0.8951
 6354SOL    HW230525   3.319   0.825   2.879  1.6062 -0.4803  1.5708
 6355SOL     OW30526   3.789   3.190  12.696  0.0643  0.1261 -0.5162
 6355SOL    HW130527   3.865   3.217  12.748 -0.3678 -0.5458  0.4583
 6355SOL    HW230528   3.818   3.103  12.669 -0.2512 -0.4476  0.9664
 6356SOL     OW30529   2.413   2.175   3.796 -0.8539  0.2471 -0.2850
 6356SOL    HW130530   2.461   2.096   3.770  0.0924  0.3989  0.9630
 6356SOL    HW230531   2.343   2.182   3.732 -0.6483  0.5226 -0.4810
 6357SOL     OW30532   2.729   1.916   9.762 -0.4639 -0.4219 -0.1149
 6357SOL    HW130533   2.681   1.943   9.683  0.1891  2.6922  0.5341
 6357SOL    HW230534   2.705   1.986   9.823  0.3346  0.9082 -1.3172
 6358SOL     OW30535   0.974   1.665   2.219  0.3879  0.0835 -0.0912
 6358SOL    HW130536   0.888   1.701   2.240  0.7119 -0.5304  2.2539
 6358SOL    HW230537   1.035   1.720   2.268  1.3689 -1.4981  0.4541
 6359SOL     OW30538   0.287   4.261   7.741  0.2597  0.0330 -0.0871
 6359SOL    HW130539   0.312   4.261   7.833  0.4046 -0.1409 -0.1259
 6359SOL    HW230540   0.260   4.170   7.734 -1.4544  0.7371 -2.6282
 6360SOL     OW30541   0.325   4.628   8.807 -0.1564  0.3144 -0.2156
 6360SOL    HW130542   0.288   4.678   8.733  2.0466  0.4029 -1.2562
 6360SOL    HW230543   0.270   4.550   8.801 -0.7728  0.7053  0.4193
 6361SOL     OW30544   1.839   2.509   4.678  0.0971  0.4136  0.5146
 6361SOL    HW130545   1.915   2.481   4.729 -0.5300 -1.5623  0.3867
 6361SOL    HW230546   1.802   2.422   4.659 -0.7027  0.7548  0.5322
 6362SOL     OW30547   3.679   1.611   6.517  0.4234 -0.3869 -0.0322
 6362SOL    HW130548   3.765   1.575   6.537  0.1625 -0.4843  0.9320
 6362SOL    HW230549   3.690   1.628   6.424 -1.6606 -0.0207 -0.2104
 6363SOL     OW30550   2.005   0.306   7.889  0.1431  0.7799  0.1279
 6363SOL    HW130551   2.082   0.349   7.852  0.0244 -0.3530 -1.3825
 6363SOL    HW230552   1.959   0.276   7.811  1.1698  0.2240 -0.2504
 6364SOL     OW30553   3.605   0.514   6.096  0.0967 -0.1302  0.1483
 6364SOL    HW130554   3.528   0.511   6.040  0.1753  0.3790  0.0150
 6364SOL    HW230555   3.665   0.575   6.052  0.4681  0.8403  2.0286
 6365SOL     OW30556   0.339   1.546   2.607  0.0455 -0.4140 -0.1938
 6365SOL    HW130557   0.350   1.519   2.698  0.5569  0.6022  0.0410
 6365SOL    HW230558   0.300   1.633   2.613  0.3524 -0.3068  0.1475
 6366SOL     OW30559   2.000   3.556   4.742  0.5118 -0.4422 -0.2407
 6366SOL    HW130560   1.990   3.642   4.784  0.8763 -0.4901 -0.0485
 6366SOL    HW230561   2.093   3.547   4.765 -0.3451 -3.6508  1.8875
 6367SOL     OW30562   2.561   1.874   4.429 -0.2868  0.0708  0.4139
 6367SOL    HW130563   2.586   1.908   4.515  0.5253 -0.6840  0.4813
 6367SOL    HW230564   2.643   1.842   4.390 -0.6815  0.5143 -0.7880
 6368SOL     OW30565   1.179   2.962   7.713  0.3740  0.3719 -0.0753
 6368SOL    HW130566   1.168   2.903   7.787  1.8992  0.4942  0.2665
 6368SOL    HW230567   1.130   3.039   7.742  0.5210  0.7017 -0.6793
 6369SOL     OW30568   0.239   3.865  16.760  0.2241  0.2721  0.3591
 6369SOL    HW130569   0.314   3.846  16.816  0.9242 -3.3913 -1.8266
 6369SOL    HW230570   0.180   3.828  16.827  0.3354 -1.6890 -0.6300
 6370SOL     OW30571   3.660   4.372   7.761 -0.5667 -0.2194 -0.2132
 6370SOL    HW130572   3.670   4.357   7.667 -0.3457  1.6382 -0.4769
 6370SOL    HW230573   3.688   4.464   7.756 -0.0387 -0.3010  1.1566
 6371SOL     OW30574   3.741   2.814   7.199  0.0810 -0.0032  0.1355
 6371SOL    HW130575   3.708   2.904   7.189 -0.3638 -0.3572 -1.6892
 6371SOL    HW230576   3.743   2.793   7.292 -0.5238  0.5454  0.2744
 6372SOL     OW30577   2.271   0.313   3.141 -0.1266 -0.1006  0.1225
 6372SOL    HW130578   2.191   0.286   3.096 -1.0363 -0.4440  1.9941
 6372SOL    HW230579   2.289   0.236   3.195 -1.9336 -1.5480 -1.3448
 6373SOL     OW30580   1.274   0.223  11.459 -0.2247  0.0512  0.6280
 6373SOL    HW130581   1.236   0.304  11.425 -2.3765 -0.6310  1.4279
 6373SOL    HW230582   1.312   0.254  11.542  1.4563 -1.0198  0.2411
 6374SOL     OW30583   2.967   2.945  13.493 -0.7103  0.3901  0.1025
 6374SOL    HW130584   3.039   2.957  13.432  0.0329 -1.5560  0.5983
 6374SOL    HW230585   2.903   3.014  13.476  1.8268  3.3888  2.6961
 6375SOL     OW30586   1.162   4.280   4.659  0.5473 -0.1527  0.0506
 6375SOL    HW130587   1.166   4.308   4.568  0.6256 -1.0919 -0.2327
 6375SOL    HW230588   1.147   4.356   4.715 -1.3448  1.2581 -2.3790
 6376SOL     OW30589   0.396   0.381   5.519  0.2735  0.2424  0.4244
 6376SOL    HW130590   0.388   0.378   5.614  2.8263  0.0854  0.6366
 6376SOL    HW230591   0.409   0.287   5.512 -1.3657 -0.0268  0.9926
 6377SOL     OW30592   1.069   0.904  14.350  0.7015  0.3793 -0.0498
 6377SOL    HW130593   1.027   0.911  14.436 -2.1139  3.1639 -1.6383
 6377SOL    HW230594   1.070   0.813  14.322 -0.3315  0.3155  0.1156
 6378SOL     OW30595   3.416   2.266   8.594  0.0213  0.0848  0.2593
 6378SOL    HW130596   3.354   2.197   8.619  1.4702 -1.1720  0.3903
 6378SOL    HW230597   3.465   2.225   8.523 -1.4263 -2.0000  0.4568
 6379SOL     OW30598   3.856   4.329  17.395 -0.5248  0.2202  0.0024
 6379SOL    HW130599   3.780   4.345  17.340  0.3105  1.3276 -0.8182
 6379SOL    HW230600   3.862   4.235  17.414 -0.6216  0.4672  1.3031
 6380SOL     OW30601   2.206   4.259  14.519 -0.4578  0.2215 -0.3919
 6380SOL    HW130602   2.170   4.209  14.446 -0.6796 -0.3352  0.0996
 6380SOL    HW230603   2.298   4.232  14.517 -0.6582 -0.5087  0.2925
 6381SOL     OW30604   1.875   0.630   9.279  0.2454  0.0849  0.2453
 6381SOL    HW130605   1.905   0.564   9.341 -1.9444  0.0162  1.2556
 6381SOL    HW230606   1.936   0.698   9.307  2.4679 -1.6319 -0.4682
 6382SOL     OW30607   1.942   0.768   1.810  0.0682  0.1468  0.0292
 6382SOL    HW130608   1.908   0.680   1.793  1.2796 -0.1499 -0.9096
 6382SOL    HW230609   2.016   0.737   1.863 -0.9056 -0.0379  1.2798
 6383SOL     OW30610   3.903   0.967  16.013  0.1802  0.8749 -0.5854
 6383SOL    HW130611   3.860   0.893  15.970  2.1144 -0.6685  0.0898
 6383SOL    HW230612   3.923   0.922  16.096 -2.5839 -0.5381 -0.6836
 6384SOL     OW30613   1.259   1.122   8.569 -0.5027  0.1985 -0.7537
 6384SOL    HW130614   1.206   1.201   8.563  0.8927  1.2741  1.5332
 6384SOL    HW230615   1.196   1.066   8.615  0.5394 -0.4174 -0.0745
 6385SOL     OW30616   1.904   2.625   9.802  0.1061 -0.0456  0.1409
 6385SOL    HW130617   1.813   2.654   9.796 -0.2984 -1.0740  1.3202
 6385SOL    HW230618   1.957   2.705   9.798 -0.5804  0.4449  0.9324
 6386SOL     OW30619   2.875   3.979   5.089 -0.1153  0.0804 -0.1086
 6386SOL    HW130620   2.882   3.974   5.184  1.4510  3.5285 -0.0422
 6386SOL    HW230621   2.939   3.910   5.065  0.3592  0.3510  0.3842
 6387SOL     OW30622   2.586   0.408   1.871  0.2184  0.2235  0.1050
 6387SOL    HW130623   2.618   0.321   1.896  0.3862 -0.2970 -1.9012
 6387SOL    HW230624   2.591   0.444   1.959 -1.5402  0.1309  0.2360
 6388SOL     OW30625   4.374   0.736   2.998  0.0495 -0.2478  0.0263
 6388SOL    HW130626   4.340   0.757   2.911  1.4685  2.4102  0.1096
 6388SOL    HW230627   4.420   0.652   2.989 -2.7335 -1.7376 -0.3001
 6389SOL     OW30628   2.606   2.681   2.665  0.3395 -0.8475 -0.0450
 6389SOL    HW130629   2.623   2.772   2.642  0.3711 -0.5004  1.3910
 6389SOL    HW230630   2.666   2.640   2.602 -3.2715 -1.3996 -3.0935
 6390SOL     OW30631   0.178   1.197  10.923 -0.0460  0.5242  0.0566
 6390SOL    HW130632   0.265   1.175  10.888 -0.3820  0.4187 -0.7275
 6390SOL    HW230633   0.194   1.291  10.929  0.6334  0.6465 -3.4678
 6391SOL     OW30634   2.614   1.751   4.899  0.0169  0.1949  0.5928
 6391SOL    HW130635   2.523   1.731   4.876  0.3991 -1.5324  0.5686
 6391SOL    HW230636   2.616   1.720   4.990 -0.9150  0.1362  0.5952
 6392SOL     OW30637   4.103   0.649   9.078 -0.4579 -0.2169  0.2320
 6392SOL    HW130638   4.084   0.713   9.009  3.4889  3.5385  2.6548
 6392SOL    HW230639   4.013   0.622   9.096  0.9117 -5.4996 -0.8889
 6393SOL     OW30640   2.504   0.985  17.325  0.3038 -0.4418 -0.7442
 6393SOL    HW130641   2.442   0.944  17.264 -1.2257 -0.9566  1.1928
 6393SOL    HW230642   2.475   0.937  17.402  1.1808  0.8027  0.3519
 6394SOL     OW30643   4.408   2.670  10.634 -0.0397 -0.4484 -0.1746
 6394SOL    HW130644   4.461   2.604  10.678 -1.3155 -0.7723  0.8777
 6394SOL    HW230645   4.353   2.614  10.579 -0.6841 -0.6393  0.6700
 6395SOL     OW30646   3.123   1.785   5.268  0.2269 -0.0401 -0.6410
 6395SOL    HW130647   3.160   1.749   5.188  0.2554 -2.4316  0.4690
 6395SOL    HW230648   3.057   1.838   5.223 -0.6624 -0.5269  0.0859
 6396SOL     OW30649   3.778   3.827  12.730 -0.0561 -0.0441  0.1478
 6396SOL    HW130650   3.782   3.738  12.696 -0.7576  0.6134 -1.6267
 6396SOL    HW230651   3.871   3.848  12.720 -0.4652  0.3877 -2.6054
 6397SOL     OW30652   3.106   3.743   6.937  0.0580 -0.2086  0.2115
 6397SOL    HW130653   3.178   3.680   6.935 -0.3188 -0.6187 -0.4232
 6397SOL    HW230654   3.076   3.736   6.846  0.8432  0.2604 -0.0808
 6398SOL     OW30655   1.254   0.471   2.669 -0.2802  0.1279  0.1822
 6398SOL    HW130656   1.257   0.565   2.651 -0.8560  0.3819  1.3995
 6398SOL    HW230657   1.214   0.436   2.590 -0.8405 -1.7074  1.2958
 6399SOL     OW30658   1.570   3.843  11.039  0.1408  0.2183  0.1192
 6399SOL    HW130659   1.502   3.894  10.994 -1.1001 -1.5495  0.0022
 6399SOL    HW230660   1.531   3.835  11.126 -1.7570 -3.1572 -1.0549
 6400SOL     OW30661   2.731   1.538   4.211  0.0099 -0.3193  0.4292
 6400SOL    HW130662   2.640   1.564   4.194  0.6280  2.3397  1.2169
 6400SOL    HW230663   2.735   1.448   4.179  1.9247  0.5155 -1.6286
 6401SOL     OW30664   0.539   4.424   3.643  0.6596  0.3146  0.5278
 6401SOL    HW130665   0.499   4.431   3.730  0.7804  0.6155  0.5588
 6401SOL    HW230666   0.605   4.492   3.642  0.5406  0.4275  0.1740
 6402SOL     OW30667   2.396   2.188  15.406  0.4113  0.2184 -0.3187
 6402SOL    HW130668   2.422   2.127  15.338 -1.2294 -2.4680  1.4380
 6402SOL    HW230669   2.378   2.271  15.361  2.6404 -0.3831 -2.2392
 6403SOL     OW30670   1.226   3.830   2.131  0.7127 -0.1042  0.2876
 6403SOL    HW130671   1.208   3.752   2.080  0.3860  3.2363 -4.6515
 6403SOL    HW230672   1.322   3.829   2.135  0.7451 -3.1317 -1.1814
 6404SOL     OW30673   1.172   1.708   1.345  0.3640  0.7453 -0.5355
 6404SOL    HW130674   1.092   1.656   1.339  0.2381  0.7668  0.8977
 6404SOL    HW230675   1.152   1.792   1.304 -4.0680 -0.7161 -1.3516
 6405SOL     OW30676   0.261   3.095  13.616 -0.2705  0.3244  0.1716
 6405SOL    HW130677   0.296   3.008  13.596  1.3329  0.0008  4.5263
 6405SOL    HW230678   0.268   3.135  13.529  1.1624  1.1179  0.6561
 6406SOL     OW30679   1.128   1.081   4.676  0.3429  0.0834  0.2522
 6406SOL    HW130680   1.080   1.015   4.727  3.2256 -1.8786  0.4526
 6406SOL    HW230681   1.071   1.081   4.599 -1.1417  0.7180  1.3642
 6407SOL     OW30682   0.797   2.045  10.031  0.0139  0.0058  0.1278
 6407SOL    HW130683   0.702   2.038  10.039  0.0352 -0.0592  0.3191
 6407SOL    HW230684   0.817   2.016   9.941 -0.8918  0.1899 -0.1312
 6408SOL     OW30685   4.456   0.518  15.174 -0.0670 -0.2090 -0.6847
 6408SOL    HW130686   4.545   0.546  15.151  1.2404 -4.3185 -0.6559
 6408SOL    HW230687   4.476   0.433  15.212  1.0543  0.6138  0.5693
 6409SOL     OW30688   0.887   1.142   4.968 -0.0527 -0.1189  0.5736
 6409SOL    HW130689   0.932   1.202   5.027  1.9320 -1.2409  0.1899
 6409SOL    HW230690   0.906   1.062   5.016 -1.5924 -0.5253  0.5098
 6410SOL     OW30691   0.252   2.947   7.767 -0.4963 -0.1682  0.0951
 6410SOL    HW130692   0.208   3.007   7.826 -1.3752 -0.6441 -0.0800
 6410SOL    HW230693   0.221   2.982   7.684 -0.0785 -1.7031 -0.7251
 6411SOL     OW30694   0.570   1.650   1.567 -0.2267  0.2310 -0.1707
 6411SOL    HW130695   0.586   1.659   1.473 -1.1031  1.6293 -0.1931
 6411SOL    HW230696   0.598   1.739   1.590  2.0640 -0.6996  0.6794
 6412SOL     OW30697   3.433   1.772  12.480  0.2504  0.1570  0.3373
 6412SOL    HW130698   3.429   1.733  12.392  1.8005 -0.3583  0.5032
 6412SOL    HW230699   3.449   1.698  12.538  0.8515 -0.9713 -1.2595
 6413SOL     OW30700   0.135   2.319   0.793 -0.5134 -0.3985 -0.7070
 6413SOL    HW130701   0.181   2.241   0.825 -1.0749 -0.4981 -0.1367
 6413SOL    HW230702   0.054   2.304   0.841  1.8033 -2.6854  2.5515
 6414SOL     OW30703   0.221   3.915   3.647  0.1698 -0.0989 -0.2748
 6414SOL    HW130704   0.310   3.921   3.682 -0.3852 -1.1356  1.2946
 6414SOL    HW230705   0.224   3.970   3.568 -0.8253  0.6540  0.2134
 6415SOL     OW30706   3.097   2.926   3.325  0.3704 -0.5677 -0.3136
 6415SOL    HW130707   3.076   2.990   3.257 -1.2259 -0.4907  0.2524
 6415SOL    HW230708   3.192   2.937   3.335  0.4501 -0.6001 -1.0461
 6416SOL     OW30709   4.106   1.822   7.990 -0.2797  0.3135 -0.1513
 6416SOL    HW130710   4.103   1.918   7.984 -1.5111  0.5283  3.8567
 6416SOL    HW230711   4.086   1.798   7.900 -0.5397 -0.5530  0.1406
 6417SOL     OW30712   1.373   1.607   3.759  0.0797  0.4723 -0.0835
 6417SOL    HW130713   1.382   1.524   3.712 -0.8685 -0.0412  0.6357
 6417SOL    HW230714   1.307   1.581   3.824  0.1967  1.3116  0.3691
 6418SOL     OW30715   3.196   3.593   9.183 -0.6323  0.0016  0.4956
 6418SOL    HW130716   3.267   3.657   9.177 -0.8441  0.4977  3.2475
 6418SOL    HW230717   3.127   3.647   9.144  1.1082  2.0179  0.2075
 6419SOL     OW30718   4.027   2.081   7.970 -0.3382 -1.3957 -0.1275
 6419SOL    HW130719   4.084   2.156   7.985 -1.0176 -0.8884 -0.0838
 6419SOL    HW230720   3.948   2.126   7.939 -0.1538 -0.2526  1.0489
 6420SOL     OW30721   0.016   3.581  11.515  0.5610  0.3865 -0.0700
 6420SOL    HW130722   4.667   3.637  11.535  1.9272  2.0027  0.4651
 6420SOL    HW230723   0.086   3.628  11.560  1.8247 -0.9617 -0.6289
 6421SOL     OW30724   0.510   3.016   7.780 -0.7222 -0.0595 -0.2448
 6421SOL    HW130725   0.499   3.025   7.685  0.6679  0.9348 -0.3193
 6421SOL    HW230726   0.421   2.992   7.804 -0.2454 -0.0364  1.5973
 6422SOL     OW30727   3.252   4.223   2.258 -0.3761 -0.7736  0.0252
 6422SOL    HW130728   3.178   4.283   2.264  3.0607  3.5781 -1.1103
 6422SOL    HW230729   3.211   4.143   2.289  0.6306 -1.1697  0.3352
 6423SOL     OW30730   0.466   3.028   9.228  0.3318 -1.1597  0.1092
 6423SOL    HW130731   0.389   3.067   9.187 -0.7073 -0.0986  3.0550
 6423SOL    HW230732   0.448   3.064   9.315  0.3670 -0.5300 -0.1473
 6424SOL     OW30733   1.484   3.770   1.415  0.2322 -0.4886  0.1791
 6424SOL    HW130734   1.439   3.697   1.458  1.9344 -2.0873 -0.7333
 6424SOL    HW230735   1.465   3.851   1.462  0.8174  0.1404 -0.6860
 6425SOL     OW30736   0.446   0.081   7.319  0.1834  0.0393  0.3354
 6425SOL    HW130737   0.356   0.101   7.294  0.4973  0.2686 -0.5994
 6425SOL    HW230738   0.469   0.002   7.270 -0.1411  0.5605 -0.6452
 6426SOL     OW30739   1.044   4.555  11.867 -0.1326 -0.6388 -0.1232
 6426SOL    HW130740   1.006   4.476  11.830 -0.5803 -0.2558 -0.4712
 6426SOL    HW230741   0.995   4.613  11.810 -0.0992 -0.2312  0.2578
 6427SOL     OW30742   3.532   0.201   8.290  0.2841  0.5562 -0.4239
 6427SOL    HW130743   3.534   0.188   8.195 -0.9425  1.9577 -0.6518
 6427SOL    HW230744   3.578   0.123   8.321 -1.5576 -0.0616  0.7241
 6428SOL     OW30745   1.942   0.410   6.325 -0.2558  0.1045  0.3108
 6428SOL    HW130746   1.912   0.362   6.248 -1.8090 -0.3487  1.2078
 6428SOL    HW230747   1.864   0.404   6.380  0.8920 -1.2932  1.8097
 6429SOL     OW30748   1.701   3.843   4.686  0.6715 -0.3235 -0.2133
 6429SOL    HW130749   1.707   3.769   4.626  0.1708 -0.9245  0.4800
 6429SOL    HW230750   1.687   3.901   4.612  1.2279  0.5237  0.3425
 6430SOL     OW30751   1.330   2.866  12.927 -0.2618  0.4160  0.4247
 6430SOL    HW130752   1.312   2.886  13.019 -1.0669  0.7624  0.1910
 6430SOL    HW230753   1.270   2.928  12.885 -1.5545 -2.4870 -1.9449
 6431SOL     OW30754   1.184   3.105   9.029 -0.4409 -0.7964 -0.1018
 6431SOL    HW130755   1.242   3.116   9.104 -1.9833  3.6506  0.4319
 6431SOL    HW230756   1.103   3.112   9.081 -1.4330 -2.4700 -1.4275
 6432SOL     OW30757   0.269   1.294   3.492  0.0426 -0.2676 -0.7322
 6432SOL    HW130758   0.269   1.199   3.484 -0.7505 -0.4066  1.0501
 6432SOL    HW230759   0.314   1.325   3.413  2.6788 -2.8632 -0.2224
 6433SOL     OW30760   1.302   0.893  17.479  0.3289 -0.2209  0.2433
 6433SOL    HW130761   1.225   0.944  17.456 -0.8394 -1.6386  1.0045
 6433SOL    HW230762   1.342   0.944  17.549  0.1416 -1.1935  1.0663
 6434SOL     OW30763   2.670   3.683  10.118 -0.0421  0.0028  0.3244
 6434SOL    HW130764   2.604   3.614  10.127 -0.5438  0.6866  1.8386
 6434SOL    HW230765   2.730   3.662  10.189  0.2988  0.5459  0.2029
 6435SOL     OW30766   3.931   4.551   7.302 -0.5699 -0.4283  0.2148
 6435SOL    HW130767   3.860   4.501   7.342 -0.6153  0.6607  1.4673
 6435SOL    HW230768   3.885   4.629   7.271  0.8604  0.4405  0.2653
 6436SOL     OW30769   4.173   4.620   8.527 -0.0067 -0.7275 -0.0013
 6436SOL    HW130770   4.095   4.564   8.525 -0.0203 -0.6596 -2.2237
 6436SOL    HW230771   4.158   4.669   8.608 -3.8443 -1.5462 -0.2034
 6437SOL     OW30772   4.646   1.008  11.366 -0.1376  0.1703 -0.2664
 6437SOL    HW130773   0.002   0.975  11.328  0.5101  0.5212  0.8300
 6437SOL    HW230774   4.681   1.072  11.428  2.6376 -2.0875  0.4912
 6438SOL     OW30775   0.188   3.385  13.311  0.0696 -0.0449 -0.3255
 6438SOL    HW130776   0.163   3.450  13.377 -1.5927 -1.2803  0.2678
 6438SOL    HW230777   0.280   3.367  13.334 -0.2677 -2.1753 -0.6034
 6439SOL     OW30778   1.141   1.505   4.389 -0.2460 -0.3608  0.6606
 6439SOL    HW130779   1.150   1.413   4.414 -0.7947 -0.7372 -0.5428
 6439SOL    HW230780   1.059   1.524   4.436 -2.4721 -3.8980 -1.7760
 6440SOL     OW30781   1.465   4.589   1.531 -0.2489  0.4485  0.1575
 6440SOL    HW130782   1.419   4.621   1.453  0.3629  1.3435  0.1603
 6440SOL    HW230783   1.411   4.624   1.603 -3.1920 -1.5053 -1.0853
 6441SOL     OW30784   0.141   3.704   8.885  1.0361 -0.5393 -0.4492
 6441SOL    HW130785   0.186   3.633   8.932 -0.0909  0.8777  2.7827
 6441SOL    HW230786   0.182   3.777   8.933 -0.2732  1.0695 -1.7891
 6442SOL     OW30787   1.758   0.981   0.078  0.1674 -0.2043 -0.7761
 6442SOL    HW130788   1.790   1.050   0.019  2.0190  0.3105  0.8348
 6442SOL    HW230789   1.733   0.914   0.014  1.3049 -1.4585  0.1086
 6443SOL     OW30790   2.997   1.882   9.746  0.1343  0.2197 -0.1457
 6443SOL    HW130791   3.012   1.933   9.666  0.1000  1.5348  0.6816
 6443SOL    HW230792   2.909   1.917   9.758 -0.8329 -2.2535 -0.0438
 6444SOL     OW30793   2.272   1.129   1.622 -0.2484  0.0555  0.3527
 6444SOL    HW130794   2.247   1.041   1.594 -0.3451  0.0548  0.4388
 6444SOL    HW230795   2.363   1.142   1.597 -0.5172 -0.0944 -0.7021
 6445SOL     OW30796   1.765   2.233   8.013 -0.0024  0.5194 -0.5934
 6445SOL    HW130797   1.755   2.158   7.954  0.0129  0.8614 -1.0258
 6445SOL    HW230798   1.857   2.258   8.001  0.0872  0.7640  0.5688
 6446SOL     OW30799   0.203   1.813   7.801  0.0396  0.6418  0.1482
 6446SOL    HW130800   0.167   1.873   7.736 -1.5719  1.3122  1.6673
 6446SOL    HW230801   0.280   1.859   7.833 -0.2160  0.4234  1.0882
 6447SOL     OW30802   2.192   2.024  16.882 -0.2207  0.5554 -0.0605
 6447SOL    HW130803   2.248   1.947  16.896  1.9068  2.8057  3.6577
 6447SOL    HW230804   2.247   2.094  16.917 -0.3936  1.4668 -1.6402
 6448SOL     OW30805   4.664   0.089  12.362 -0.2383 -0.3544 -0.1564
 6448SOL    HW130806   4.675   4.724  12.391 -1.3200  0.0974  1.6441
 6448SOL    HW230807   0.019   0.126  12.400 -0.5803  1.4020 -1.1491
 6449SOL     OW30808   1.274   1.404   5.308 -0.1657 -0.3921  0.0665
 6449SOL    HW130809   1.279   1.354   5.389  0.6789  0.0435  0.2870
 6449SOL    HW230810   1.270   1.335   5.242  0.8785  0.8960 -1.3437
 6450SOL     OW30811   0.614   2.791   6.374  0.3125  0.0597 -0.3268
 6450SOL    HW130812   0.542   2.854   6.377  1.4052  1.1835  2.6241
 6450SOL    HW230813   0.641   2.798   6.466 -2.6866 -1.1141  0.6195
 6451SOL     OW30814   2.007   0.552  14.013  0.4296 -0.3430  0.3520
 6451SOL    HW130815   2.054   0.481  14.056 -0.0486 -0.4941  0.6349
 6451SOL    HW230816   1.915   0.525  14.020  0.0929  0.7437  0.0218
 6452SOL     OW30817   0.138   0.348  11.410 -0.2767  0.2424 -0.0528
 6452SOL    HW130818   0.192   0.426  11.414  1.9676 -1.3919  1.3001
 6452SOL    HW230819   0.123   0.315  11.498  0.1017  1.1945  0.3615
 6453SOL     OW30820   0.227   0.241   4.018 -0.5348  0.6025 -0.8786
 6453SOL    HW130821   0.279   0.216   4.094  0.6341 -0.4251 -2.0183
 6453SOL    HW230822   0.257   0.172   3.960  0.6555  1.2557 -1.0287
 6454SOL     OW30823   1.844   4.350   3.073  0.3210  0.9243 -0.2095
 6454SOL    HW130824   1.891   4.390   3.147  1.2914 -0.2601 -0.2077
 6454SOL    HW230825   1.764   4.402   3.083  0.4655  1.4090 -1.6629
 6455SOL     OW30826   0.310   2.393   9.178  0.3923  0.6081 -0.0253
 6455SOL    HW130827   0.240   2.441   9.132 -0.4590  1.1580  1.8231
 6455SOL    HW230828   0.309   2.425   9.268  2.2530  0.8233 -0.0943
 6456SOL     OW30829   0.463   2.346  16.829 -0.4397  0.4245 -0.3934
 6456SOL    HW130830   0.409   2.413  16.787 -3.5647 -1.8281  0.0343
 6456SOL    HW230831   0.434   2.342  16.919 -3.2469 -1.4291 -1.3850
 6457SOL     OW30832   0.239   1.526   6.502 -0.7107 -0.5449 -0.3667
 6457SOL    HW130833   0.324   1.509   6.463  0.1315  1.4417  0.6064
 6457SOL    HW230834   0.188   1.521   6.421 -0.6343  2.1762 -0.5912
 6458SOL     OW30835   1.144   1.582   9.230 -0.2233 -0.4983  0.3061
 6458SOL    HW130836   1.195   1.588   9.149  2.1761  1.7019  1.9725
 6458SOL    HW230837   1.161   1.490   9.252  2.9108 -0.2028 -0.8135
 6459SOL     OW30838   2.311   2.236   2.792  0.5007 -0.1251  0.0466
 6459SOL    HW130839   2.342   2.276   2.873  2.3588  1.0258 -1.2249
 6459SOL    HW230840   2.388   2.182   2.774 -0.7421 -0.9349 -2.7643
 6460SOL     OW30841   0.044   0.066  12.889  0.3804  0.3274 -0.2373
 6460SOL    HW130842   0.093   0.123  12.948  0.8956 -1.0676  0.6874
 6460SOL    HW230843   0.065   4.703  12.919 -0.6627  0.5549  1.1444
 6461SOL     OW30844   0.738   3.954   4.581 -0.1027  0.0407  0.6589
 6461SOL    HW130845   0.740   3.860   4.567  0.1738 -0.0036  0.9898
 6461SOL    HW230846   0.831   3.961   4.604 -0.0847 -3.5583  1.6607
 6462SOL     OW30847   2.838   3.996   6.556  0.1364  0.5772 -0.1670
 6462SOL    HW130848   2.891   4.043   6.621 -0.6419  1.3250 -0.0735
 6462SOL    HW230849   2.781   3.945   6.613 -1.4389  1.4257 -0.9777
 6463SOL     OW30850   4.078   4.588   7.595 -0.1917 -0.1893 -0.5827
 6463SOL    HW130851   4.157   4.622   7.637  0.7113 -0.9566 -1.6607
 6463SOL    HW230852   4.053   4.523   7.660  1.5782  0.8220  1.0985
 6464SOL     OW30853   0.802   2.874   3.901  0.3213 -0.1086  0.4355
 6464SOL    HW130854   0.828   2.887   3.810 -1.9005  1.5188  0.0252
 6464SOL    HW230855   0.747   2.796   3.892  0.9295 -0.2551 -2.0292
 6465SOL     OW30856   4.422   0.016   3.879 -0.2860  0.8852  0.0845
 6465SOL    HW130857   4.351   4.678   3.888  1.6745 -1.5574 -1.8038
 6465SOL    HW230858   4.365   0.093   3.876 -1.0110  0.3663  0.6743
 6466SOL     OW30859   4.413   2.833   0.949 -0.4767  0.2085  0.0580
 6466SOL    HW130860   4.398   2.756   1.005 -0.9347 -0.9093 -1.5901
 6466SOL    HW230861   4.505   2.852   0.968 -1.1188  1.8368  1.5401
 6467SOL     OW30862   0.543   1.490   9.074  0.3832  0.2223 -0.5255
 6467SOL    HW130863   0.638   1.484   9.086  0.4826 -2.8411 -2.8246
 6467SOL    HW230864   0.522   1.562   9.134 -1.1508 -0.0955 -0.7061
 6468SOL     OW30865   0.040   2.556   8.627 -0.1372 -0.4535  0.1835
 6468SOL    HW130866   0.089   2.564   8.709 -1.5858 -1.2155  1.1167
 6468SOL    HW230867   0.065   2.467   8.599 -2.7825 -0.6970 -1.4382
 6469SOL     OW30868   1.778   1.824   2.858 -0.0485 -0.0733  0.2662
 6469SOL    HW130869   1.850   1.850   2.801 -1.4874  1.4659 -0.8521
 6469SOL    HW230870   1.790   1.731   2.874 -0.1609 -0.4102 -1.7077
 6470SOL     OW30871   0.673   4.192   3.169 -0.5337 -0.7055 -0.1035
 6470SOL    HW130872   0.716   4.270   3.135 -0.7909 -1.1321 -1.3878
 6470SOL    HW230873   0.652   4.231   3.254 -0.7811  0.6575 -0.8056
 6471SOL     OW30874   1.317   3.325   6.171 -0.0222  0.2717  0.9261
 6471SOL    HW130875   1.400   3.351   6.131  1.0534 -0.8291  2.4413
 6471SOL    HW230876   1.307   3.230   6.162 -0.0952  0.5168 -1.5814
 6472SOL     OW30877   1.899   2.202  15.528 -0.2200 -0.1923  0.3918
 6472SOL    HW130878   1.826   2.263  15.536 -0.3085  0.0549 -2.3010
 6472SOL    HW230879   1.941   2.225  15.445  0.2175  0.5390  0.8144
 6473SOL     OW30880   1.642   2.720   1.545  0.4130 -0.0350 -0.4910
 6473SOL    HW130881   1.596   2.638   1.560 -0.9129  0.7804 -0.1296
 6473SOL    HW230882   1.571   2.783   1.537  2.0446  1.6484 -1.7936
 6474SOL     OW30883   2.043   1.482   4.996 -0.5370  0.9100 -0.2625
 6474SOL    HW130884   2.035   1.401   5.046 -0.0719  1.6295  0.9860
 6474SOL    HW230885   2.136   1.477   4.975 -0.8178 -0.8394 -1.1011
 6475SOL     OW30886   1.780   3.640   2.873  0.1512 -0.6241  0.1986
 6475SOL    HW130887   1.716   3.702   2.837  2.1055  1.2043 -0.1134
 6475SOL    HW230888   1.818   3.600   2.795  1.7895  0.0019  0.6823
 6476SOL     OW30889   1.827   3.897  15.078 -0.2512 -0.2138 -0.7889
 6476SOL    HW130890   1.888   3.971  15.081 -2.0610  1.3430 -1.7490
 6476SOL    HW230891   1.894   3.830  15.085  0.0324  0.2255  0.7549
 6477SOL     OW30892   3.384   4.552   6.478 -0.0679  0.3382  0.1312
 6477SOL    HW130893   3.333   4.510   6.410 -1.2930 -0.4006  1.5064
 6477SOL    HW230894   3.315   4.608   6.512  1.7302  2.1674  0.7986
 6478SOL     OW30895   2.550   4.624   7.769  0.2118  0.0916 -0.7692
 6478SOL    HW130896   2.526   4.683   7.698  1.0166  1.0271 -0.2540
 6478SOL    HW230897   2.465   4.580   7.772 -1.0200  2.5788  0.0442
 6479SOL     OW30898   3.048   2.232   2.555  0.3400 -0.2615 -0.0273
 6479SOL    HW130899   3.087   2.168   2.495 -1.9009 -3.3846  1.8604
 6479SOL    HW230900   3.095   2.208   2.635 -0.3925 -1.7815 -0.0740
 6480SOL     OW30901   1.271   4.408   1.996  0.0772  0.2680  0.1983
 6480SOL    HW130902   1.221   4.333   2.028 -0.7079  1.4980  1.9062
 6480SOL    HW230903   1.248   4.411   1.903  1.1832  0.3455 -0.0616
 6481SOL     OW30904   0.648   1.150  10.794 -0.1741  0.1566  0.0802
 6481SOL    HW130905   0.688   1.130  10.879  0.3655 -1.4565 -0.5503
 6481SOL    HW230906   0.709   1.117  10.729 -0.4132  0.2640 -0.1983
 6482SOL     OW30907   0.590   0.667   1.207 -0.0984 -0.1563 -0.0697
 6482SOL    HW130908   0.603   0.761   1.211  0.9028 -0.0916 -4.2511
 6482SOL    HW230909   0.605   0.657   1.113  0.0612 -1.5633  0.1066
 6483SOL     OW30910   1.824   1.186   1.664 -0.1498 -0.0680  0.0665
 6483SOL    HW130911   1.800   1.128   1.737  0.2629 -0.0402  0.2264
 6483SOL    HW230912   1.792   1.138   1.588  0.8714  0.5889 -0.7638
 6484SOL     OW30913   3.682   4.089   7.861  0.5115  0.4631 -0.2726
 6484SOL    HW130914   3.645   4.172   7.831 -3.1548 -0.5027  1.6209
 6484SOL    HW230915   3.768   4.121   7.887  0.7055 -0.0464 -0.2908
 6485SOL     OW30916   1.288   0.677   9.758 -0.2666 -0.0687 -0.0276
 6485SOL    HW130917   1.224   0.622   9.713 -0.4460 -0.5328  0.8046
 6485SOL    HW230918   1.345   0.604   9.779 -0.0852  0.6238  1.8906
 6486SOL     OW30919   0.836   1.695   5.927 -0.0702 -0.0502 -0.3791
 6486SOL    HW130920   0.870   1.728   5.844 -0.7228  1.2768 -0.1061
 6486SOL    HW230921   0.822   1.603   5.903 -0.9862 -0.3359  1.2375
 6487SOL     OW30922   1.886   2.225   1.579  0.6014 -0.4057 -0.2094
 6487SOL    HW130923   1.892   2.314   1.544  1.6128 -0.2862  0.2570
 6487SOL    HW230924   1.808   2.197   1.531 -0.1991  0.5123  0.5604
 6488SOL     OW30925   0.054   0.854   6.556  0.0418  0.0072  0.5063
 6488SOL    HW130926   0.031   0.807   6.636  1.5806 -1.7621 -0.1047
 6488SOL    HW230927   4.695   0.886   6.525  0.6176  1.9186  0.8991
 6489SOL     OW30928   2.603   4.679   3.555 -0.2138  0.0085 -0.3646
 6489SOL    HW130929   2.568   4.682   3.466  0.0208 -2.1949 -0.5457
 6489SOL    HW230930   2.634   4.588   3.557 -1.3817 -0.3997 -0.6614
 6490SOL     OW30931   3.969   3.374   6.562  0.6163  0.0548  0.1178
 6490SOL    HW130932   3.880   3.407   6.576  0.6093 -0.1624  0.5893
 6490SOL    HW230933   4.008   3.428   6.631  3.5152 -1.4613 -0.3782
 6491SOL     OW30934   1.604   1.538   2.920  0.4923  0.4657  0.0150
 6491SOL    HW130935   1.516   1.505   2.903  0.3328  0.3494  1.0329
 6491SOL    HW230936   1.597   1.617   2.866 -1.5240  0.4289  0.2286
 6492SOL     OW30937   0.276   0.462  13.083 -0.1695 -0.1177  0.3999
 6492SOL    HW130938   0.312   0.502  13.163  2.1730  1.3513 -1.4011
 6492SOL    HW230939   0.339   0.492  13.018 -0.1195 -0.4229  0.3081
 6493SOL     OW30940   2.262   4.038  10.914 -0.1637 -0.0231 -0.2329
 6493SOL    HW130941   2.212   3.957  10.918  0.6947 -0.4866  1.0116
 6493SOL    HW230942   2.304   4.040  11.000  1.2054 -0.1685 -0.8847
 6494SOL     OW30943   4.249   1.491   5.058 -0.2861 -0.1241 -0.3182
 6494SOL    HW130944   4.251   1.582   5.029 -0.0972  0.7862  2.5491
 6494SOL    HW230945   4.211   1.447   4.983 -2.6440  1.5966 -0.1179
 6495SOL     OW30946   3.189   4.520   9.869 -0.6444  0.0301  0.1326
 6495SOL    HW130947   3.239   4.446   9.904 -1.6231 -0.8472 -0.3104
 6495SOL    HW230948   3.128   4.478   9.809  0.3610 -0.9669 -0.1914
 6496SOL     OW30949   2.676   2.460   3.224 -0.0852  0.2575  0.3820
 6496SOL    HW130950   2.756   2.415   3.198 -0.3895 -0.2628  0.3350
 6496SOL    HW230951   2.645   2.497   3.141 -0.9868  0.2681  0.7152
 6497SOL     OW30952   2.684   1.378   1.107  0.4742  0.5598  0.2245
 6497SOL    HW130953   2.614   1.351   1.166 -1.4369  1.2322 -1.7535
 6497SOL    HW230954   2.637   1.419   1.035  3.7685  4.5375  0.3170
 6498SOL     OW30955   1.591   0.656  16.457 -0.7106  0.0222  0.9172
 6498SOL    HW130956   1.530   0.632  16.527 -2.7250 -0.3784 -1.0133
 6498SOL    HW230957   1.533   0.691  16.390  2.5037  0.0194 -1.8350
 6499SOL     OW30958   2.292   2.320   4.171 -0.0904 -0.5784 -0.1504
 6499SOL    HW130959   2.346   2.249   4.134  1.4259 -0.7608  2.4019
 6499SOL    HW230960   2.356   2.364   4.227 -0.5832  0.4210 -0.3727
 6500SOL     OW30961   0.210   2.888  10.860 -0.0733 -0.0315  0.0609
 6500SOL    HW130962   0.224   2.837  10.940 -1.2220  0.3403  0.5039
 6500SOL    HW230963   0.121   2.859  10.840  0.1907 -0.2326 -0.7914
 6501SOL     OW30964   4.724   3.354   2.557 -0.2323  0.1671 -0.1120
 6501SOL    HW130965   0.065   3.349   2.488 -0.4279  0.5758 -0.3321
 6501SOL    HW230966   4.643   3.335   2.509  1.1347 -1.2519 -1.8873
 6502SOL     OW30967   4.615   1.133   7.390 -0.1039  0.0463 -0.0987
 6502SOL    HW130968   4.552   1.201   7.367 -1.3226 -1.1908 -0.4166
 6502SOL    HW230969   4.548   1.069   7.413  0.6587 -0.2661  1.2643
 6503SOL     OW30970   0.471   0.831   4.820  0.8656 -0.3371  0.2895
 6503SOL    HW130971   0.412   0.889   4.867 -1.6976 -3.8851  1.4234
 6503SOL    HW230972   0.399   0.778   4.788 -0.0987  1.4389 -0.5048
 6504SOL     OW30973   3.874   4.676   6.128 -0.4611  0.9670  0.0355
 6504SOL    HW130974   3.882   0.021   6.192 -0.4348  1.6006 -0.6743
 6504SOL    HW230975   3.889   4.599   6.184 -0.8506 -0.1279 -1.3555
 6505SOL     OW30976   1.089   3.298  12.695 -0.0943  0.1627 -0.4698
 6505SOL    HW130977   1.003   3.340  12.687 -0.6074 -0.2782  2.5144
 6505SOL    HW230978   1.103   3.288  12.601  1.2023  2.0531 -0.4527
 6506SOL     OW30979   1.268   2.433  15.938  0.5083 -0.7384 -0.3322
 6506SOL    HW130980   1.249   2.509  15.993  1.9526  0.0064 -0.8473
 6506SOL    HW230981   1.250   2.361  15.998  0.3706  0.4742  1.0920
 6507SOL     OW30982   4.591   2.012   1.562  0.4906 -0.4237 -0.0144
 6507SOL    HW130983   4.570   1.977   1.475 -2.8222  1.1483  0.1141
 6507SOL    HW230984   4.504   2.029   1.599  0.8818  0.0896  0.6524
 6508SOL     OW30985   4.300   0.573   8.781  0.5981  0.0002  0.9330
 6508SOL    HW130986   4.330   0.642   8.841 -0.8146  0.8845  0.6139
 6508SOL    HW230987   4.346   0.496   8.814 -0.9987 -0.9684  0.8675
 6509SOL     OW30988   2.248   4.353   7.995  0.3367  0.4584  0.5806
 6509SOL    HW130989   2.321   4.413   8.012  0.6570  0.1227  0.3830
 6509SOL    HW230990   2.185   4.360   8.067  0.4369 -1.1490  0.8302
 6510SOL     OW30991   2.387   0.096   1.815  0.6909 -0.4715 -0.3454
 6510SOL    HW130992   2.462   0.059   1.862  0.3797  1.9898  2.0778
 6510SOL    HW230993   2.403   0.053   1.731  1.4832  0.7680 -0.8327
 6511SOL     OW30994   3.095   4.636  14.592 -0.2538 -0.0230  0.0598
 6511SOL    HW130995   3.066   0.001  14.600 -0.2332 -0.0642  0.6134
 6511SOL    HW230996   3.151   4.633  14.515  0.7842  0.5670  0.7972
 6512SOL     OW30997   0.069   2.889   9.146  0.4106  0.2115  0.1859
 6512SOL    HW130998   4.699   2.880   9.146  0.4979 -0.6713 -0.5511
 6512SOL    HW230999   0.070   2.970   9.196  0.7245 -1.1844  2.4181
 6513SOL     OW31000   3.453   2.177   0.800 -0.3187  0.0753 -0.5048
 6513SOL    HW131001   3.489   2.232   0.729 -1.0124  0.7583 -0.3309
 6513SOL    HW231002   3.530   2.175   0.856 -0.7338  2.2473  0.1578
 6514SOL     OW31003   0.941   3.263  13.645 -0.1060 -0.7426  0.2274
 6514SOL    HW131004   0.934   3.193  13.710  0.6095 -0.1708  0.9252
 6514SOL    HW231005   1.037   3.256  13.636 -0.2199  1.7257 -3.3273
 6515SOL     OW31006   0.446   0.367   1.926  0.0920 -0.0726  0.2717
 6515SOL    HW131007   0.536   0.391   1.947  1.2245 -2.3868 -2.0134
 6515SOL    HW231008   0.435   0.401   1.837  0.6994  1.0851  0.6315
 6516SOL     OW31009   2.830   4.349   7.690 -0.3578  0.3165  0.0932
 6516SOL    HW131010   2.914   4.306   7.678 -0.3803  0.6979 -1.5006
 6516SOL    HW231011   2.800   4.307   7.770  0.3285  0.1522  0.2640
 6517SOL     OW31012   0.522   0.834   4.208  0.0050  0.0170  0.1414
 6517SOL    HW131013   0.557   0.855   4.294 -1.2211  0.1526  0.6032
 6517SOL    HW231014   0.456   0.768   4.229 -1.1595  1.1040 -0.1345
 6518SOL     OW31015   4.600   0.755   8.751 -0.1342 -0.0937 -0.5140
 6518SOL    HW131016   4.649   0.673   8.757 -0.3142 -0.2790 -1.4957
 6518SOL    HW231017   4.517   0.730   8.789  1.0514 -0.1209  2.0404
 6519SOL     OW31018   1.258   4.165   6.355  0.1449 -0.0003  0.7077
 6519SOL    HW131019   1.306   4.184   6.274 -1.2251 -2.5734 -0.7198
 6519SOL    HW231020   1.240   4.072   6.343  0.8076  0.1744 -1.5896
 6520SOL     OW31021   1.437   2.756   8.687  1.1932  0.2080  0.2105
 6520SOL    HW131022   1.497   2.716   8.750 -0.0769 -1.0470  0.6335
 6520SOL    HW231023   1.391   2.806   8.754 -0.7034  0.2392 -1.1167
 6521SOL     OW31024   1.474   3.093   4.177 -0.2755 -0.1795 -0.1207
 6521SOL    HW131025   1.463   3.003   4.207 -1.8966 -0.1593 -0.6680
 6521SOL    HW231026   1.492   3.066   4.087  0.9600 -1.8935  0.6263
 6522SOL     OW31027   0.703   2.044   4.832  0.2082  0.0269  0.2280
 6522SOL    HW131028   0.710   1.976   4.765 -1.2049 -1.9032  2.0359
 6522SOL    HW231029   0.624   2.091   4.807  0.1834 -0.3308 -0.3558
 6523SOL     OW31030   0.522   2.919   5.968  0.1469  0.0995 -0.0917
 6523SOL    HW131031   0.560   2.994   6.013  1.8276 -0.3364 -0.7705
 6523SOL    HW231032   0.429   2.943   5.968  0.7876  2.6141 -0.9291
 6524SOL     OW31033   3.508   2.489   2.533  0.3299 -0.0304 -0.4262
 6524SOL    HW131034   3.520   2.584   2.527 -0.4595  0.0541 -0.7973
 6524SOL    HW231035   3.412   2.486   2.530  0.4661 -2.3391 -3.2092
 6525SOL     OW31036   4.441   1.693   8.362 -0.2803  0.2456 -0.3939
 6525SOL    HW131037   4.428   1.782   8.328  2.8057  0.6723 -0.4604
 6525SOL    HW231038   4.406   1.694   8.451 -2.0058  1.6008 -1.1119
 6526SOL     OW31039   2.277   0.533   1.432  0.2577  0.2051 -0.4312
 6526SOL    HW131040   2.356   0.479   1.421  0.9895  1.0715  0.6446
 6526SOL    HW231041   2.218   0.466   1.466  0.4218  0.0532 -0.4466
 6527SOL     OW31042   3.974   0.299   7.448 -0.1718 -0.2103  0.2048
 6527SOL    HW131043   3.993   0.285   7.355  1.7479 -2.1857  0.9034
 6527SOL    HW231044   3.942   0.213   7.473 -2.6823  0.7436  0.2676
 6528SOL     OW31045   3.406   1.852  12.013 -0.2572  0.2469 -0.5512
 6528SOL    HW131046   3.416   1.947  12.013 -0.0071  0.2131  0.9752
 6528SOL    HW231047   3.455   1.824  12.090  1.2318  1.4119 -1.0912
 6529SOL     OW31048   4.297   1.613   7.074 -0.5619  0.4910 -0.0071
 6529SOL    HW131049   4.326   1.523   7.090  0.7061  0.5050 -2.2199
 6529SOL    HW231050   4.210   1.595   7.111  0.7904 -1.0609  2.3803
 6530SOL     OW31051   2.881   0.217  13.637  0.1022  0.1200 -0.3198
 6530SOL    HW131052   2.824   0.291  13.617  0.5718  0.5221 -0.1674
 6530SOL    HW231053   2.842   0.156  13.575  0.6110  0.5418 -1.0573
 6531SOL     OW31054   0.467   0.114   5.495 -0.2266 -0.6148  0.0646
 6531SOL    HW131055   0.386   0.078   5.531 -0.3324 -0.8240 -0.3778
 6531SOL    HW231056   0.487   0.046   5.431  0.3686  0.5258 -0.9668
 6532SOL     OW31057   1.844   0.384   2.890 -0.4805  0.6038  0.2128
 6532SOL    HW131058   1.793   0.303   2.883  2.8734 -1.4615 -0.4132
 6532SOL    HW231059   1.879   0.390   2.801 -0.5448 -0.9770  0.0714
 6533SOL     OW31060   1.156   4.495   1.412 -0.1236  0.0906  0.0639
 6533SOL    HW131061   1.214   4.419   1.419  0.9851  0.8477 -0.8884
 6533SOL    HW231062   1.092   4.476   1.480 -0.4786 -1.8797 -0.8344
 6534SOL     OW31063   2.223   0.289  11.685  0.0338 -0.2117 -0.0916
 6534SOL    HW131064   2.258   0.341  11.757  2.5341  0.3404 -1.7178
 6534SOL    HW231065   2.210   0.200  11.717  0.6288 -1.5530 -3.5801
 6535SOL     OW31066   1.406   0.910   0.648 -0.0947  0.3227 -0.6340
 6535SOL    HW131067   1.459   0.990   0.651 -0.6915  0.7711 -1.9489
 6535SOL    HW231068   1.333   0.951   0.602 -0.7865 -1.4107 -1.0821
 6536SOL     OW31069   0.699   1.964   7.548  0.3886 -0.1644 -0.2376
 6536SOL    HW131070   0.742   2.047   7.523 -0.8347  1.1135  1.8916
 6536SOL    HW231071   0.650   1.950   7.467  1.6196 -2.9585 -0.4890
 6537SOL     OW31072   1.244   4.016   7.969  0.2804  0.2155  0.2498
 6537SOL    HW131073   1.195   3.974   7.898  0.4087  0.2999  0.1101
 6537SOL    HW231074   1.188   4.010   8.046 -3.5713  1.1779 -2.4652
 6538SOL     OW31075   0.243   2.702   9.111  0.4517  0.1362  0.2050
 6538SOL    HW131076   0.185   2.778   9.108 -0.9570 -0.8914  1.1474
 6538SOL    HW231077   0.225   2.672   9.201  0.7112  1.1039  0.5754
 6539SOL     OW31078   3.564   0.990  13.459 -0.4228  0.5046  0.4997
 6539SOL    HW131079   3.567   0.957  13.370  1.2302  3.1725 -0.4302
 6539SOL    HW231080   3.628   0.938  13.508  0.0839  0.3150 -0.3719
 6540SOL     OW31081   1.306   2.157   6.223  0.5280  0.1357  0.2718
 6540SOL    HW131082   1.242   2.098   6.183  0.4573  2.1597 -2.6026
 6540SOL    HW231083   1.331   2.093   6.290  1.5503  0.5462  0.2694
 6541SOL     OW31084   4.562   3.692   6.434  0.6517  0.6016  0.5711
 6541SOL    HW131085   4.638   3.641   6.406  0.0424  0.0793 -0.1041
 6541SOL    HW231086   4.601   3.779   6.439  2.5096 -0.2326  0.6121
 6542SOL     OW31087   4.292   2.993   0.446 -0.0537 -0.4982  0.2361
 6542SOL    HW131088   4.318   3.069   0.394  0.4686  0.6760  2.2245
 6542SOL    HW231089   4.201   2.988   0.415 -0.0182  0.2864 -0.0027
 6543SOL     OW31090   3.514   3.644   7.544 -0.0584  0.2607  0.0193
 6543SOL    HW131091   3.490   3.733   7.570 -0.0847  0.5142 -0.8770
 6543SOL    HW231092   3.609   3.645   7.540 -0.0792 -0.3141 -0.6313
 6544SOL     OW31093   3.109   2.093   5.231  0.4259  0.0137  0.1463
 6544SOL    HW131094   3.197   2.076   5.263  0.7960 -0.1713 -0.9930
 6544SOL    HW231095   3.061   2.035   5.292 -2.3205  0.0263 -1.9991
 6545SOL     OW31096   2.604   4.157   9.034  0.0071  0.9114  0.2651
 6545SOL    HW131097   2.688   4.112   9.038  0.3773  1.4886 -0.9548
 6545SOL    HW231098   2.612   4.225   9.102 -1.5500  1.2258  0.1518
 6546SOL     OW31099   0.509   0.963  17.010  0.3993  0.0080  0.0065
 6546SOL    HW131100   0.430   1.011  17.034 -1.0308 -1.8128 -1.1068
 6546SOL    HW231101   0.569   0.977  17.084  1.5443  0.7788 -1.0799
 6547SOL     OW31102   2.626   0.690   6.109  0.9727  0.1492  0.2903
 6547SOL    HW131103   2.542   0.734   6.098  1.5579  1.0249 -0.7201
 6547SOL    HW231104   2.672   0.710   6.027 -0.3944 -2.0357 -1.0227
 6548SOL     OW31105   1.592   0.715   6.941 -0.1259  0.8527  0.6215
 6548SOL    HW131106   1.657   0.646   6.927  0.8295  2.4049 -2.5965
 6548SOL    HW231107   1.521   0.664   6.904  1.3422 -0.3121 -0.6025
 6549SOL     OW31108   2.107   1.943  12.186 -0.0835 -0.0891 -0.4048
 6549SOL    HW131109   2.115   2.033  12.216 -0.9577  0.1187 -0.8164
 6549SOL    HW231110   2.113   1.894  12.269  0.8885  2.4108  1.0108
 6550SOL     OW31111   3.264   1.037   8.085  0.3270  0.2514 -0.0597
 6550SOL    HW131112   3.172   1.013   8.082  0.6902 -1.1037  0.0076
 6550SOL    HW231113   3.272   1.100   8.156  1.0299  0.1475 -0.0493
 6551SOL     OW31114   3.439   2.480   8.041 -0.4401  0.0030  0.3157
 6551SOL    HW131115   3.348   2.498   8.021 -0.0765  0.7349 -0.6854
 6551SOL    HW231116   3.436   2.486   8.136 -1.1918  1.5791  0.1832
 6552SOL     OW31117   2.634   3.844   9.599 -0.2326 -0.3338  0.6043
 6552SOL    HW131118   2.631   3.839   9.695 -1.7097  1.5309  0.6584
 6552SOL    HW231119   2.581   3.923   9.586  0.6761  0.2165  0.1992
 6553SOL     OW31120   2.002   1.799   2.305  0.3511  0.1515  0.1512
 6553SOL    HW131121   1.922   1.760   2.340  0.1513  1.0099  0.6550
 6553SOL    HW231122   2.052   1.720   2.282 -0.7106 -0.3610 -0.3750
 6554SOL     OW31123   0.240   3.737   6.977  0.0643 -0.0819 -0.2864
 6554SOL    HW131124   0.315   3.697   7.022 -0.0419 -2.6659 -2.3922
 6554SOL    HW231125   0.268   3.738   6.885 -0.1508  0.0180 -0.3514
 6555SOL     OW31126   4.480   1.287   0.597 -0.2918 -0.3554  0.2269
 6555SOL    HW131127   4.466   1.382   0.599 -2.5620 -0.6764 -0.7950
 6555SOL    HW231128   4.430   1.255   0.672 -0.9604  0.0875 -0.0321
 6556SOL     OW31129   0.716   0.755  11.850 -0.3702  0.2748 -0.0536
 6556SOL    HW131130   0.710   0.849  11.835 -0.2164  0.5137  1.4084
 6556SOL    HW231131   0.632   0.715  11.831 -1.2341  1.8148  0.5648
 6557SOL     OW31132   3.859   1.253   8.985 -0.0490 -0.0356  0.0395
 6557SOL    HW131133   3.832   1.321   9.047  0.4546  1.0229 -0.8937
 6557SOL    HW231134   3.952   1.264   8.967 -0.0933  0.4586  0.0984
 6558SOL     OW31135   3.146   1.403   8.517 -0.1302  0.7736  0.1942
 6558SOL    HW131136   3.206   1.372   8.585 -0.0181  1.3648  0.3634
 6558SOL    HW231137   3.176   1.493   8.504  0.2558  0.4390 -1.2782
 6559SOL     OW31138   2.105   3.100   1.505 -0.3547  0.3408  0.0811
 6559SOL    HW131139   2.132   3.009   1.490 -1.7768 -0.4667  2.3789
 6559SOL    HW231140   2.140   3.104   1.594 -0.8707 -0.4238  0.3205
 6560SOL     OW31141   4.195   0.700   3.530 -0.3668  0.1833 -0.6490
 6560SOL    HW131142   4.142   0.679   3.454  0.8138  1.3163 -1.7896
 6560SOL    HW231143   4.133   0.660   3.591 -0.1657  1.0794  0.1604
 6561SOL     OW31144   2.897   3.283   1.710  0.1797 -0.1277 -0.3135
 6561SOL    HW131145   2.986   3.276   1.678 -0.1399  1.0280 -1.4514
 6561SOL    HW231146   2.909   3.354   1.774  0.9044  0.9779 -1.7014
 6562SOL     OW31147   2.687   1.305   2.064 -0.1366  0.0988  0.3146
 6562SOL    HW131148   2.780   1.316   2.045  0.0920 -1.8259  0.3001
 6562SOL    HW231149   2.685   1.211   2.081 -0.1474  0.1998  0.8699
 6563SOL     OW31150   3.982   4.311   2.476  0.2942  0.5530  0.5756
 6563SOL    HW131151   4.065   4.315   2.429  0.4074  1.4054  0.8604
 6563SOL    HW231152   3.923   4.315   2.401  0.5397  1.2540  0.4210
 6564SOL     OW31153   3.967   3.101  17.050  0.6200  0.0755  0.4291
 6564SOL    HW131154   4.017   3.104  17.132  0.7593 -0.9871  0.3779
 6564SOL    HW231155   3.884   3.131  17.086 -0.7034 -2.2098 -0.6958
 6565SOL     OW31156   0.607   1.848   4.221  0.1925  0.5496 -0.0237
 6565SOL    HW131157   0.544   1.848   4.149  1.7760  1.0358 -1.4217
 6565SOL    HW231158   0.662   1.772   4.202  0.3324 -0.0057  2.6694
 6566SOL     OW31159   3.647   4.213   9.713  0.4454  0.8566  0.0139
 6566SOL    HW131160   3.693   4.273   9.655 -0.3147  0.2982 -1.1626
 6566SOL    HW231161   3.718   4.148   9.718  1.0827  1.4070 -2.0325
 6567SOL     OW31162   2.496   0.423   4.860 -0.0213 -0.5715 -0.4318
 6567SOL    HW131163   2.561   0.362   4.825  1.3831 -0.3692  1.8372
 6567SOL    HW231164   2.448   0.449   4.781  0.2204 -2.0880 -1.0795
 6568SOL     OW31165   0.065   4.333   9.116 -0.5486  0.2980 -0.3759
 6568SOL    HW131166   0.076   4.390   9.040 -1.3143 -0.4657 -1.0698
 6568SOL    HW231167   0.027   4.399   9.174  1.7418  1.2263  0.0341
 6569SOL     OW31168   3.257   1.256   4.292  0.0186  0.0443 -0.1649
 6569SOL    HW131169   3.301   1.254   4.207 -1.0586  1.2790 -0.7466
 6569SOL    HW231170   3.201   1.333   4.285 -0.0468  0.1957  2.2169
 6570SOL     OW31171   2.450   1.082   6.482 -0.4432 -0.1458 -0.1702
 6570SOL    HW131172   2.438   1.031   6.562 -0.3948  0.3225  0.1336
 6570SOL    HW231173   2.381   1.146   6.497  0.3470  0.5999  0.2478
 6571SOL     OW31174   2.649   1.056   1.208  0.0011  0.0301 -0.1799
 6571SOL    HW131175   2.697   1.101   1.138  0.4649 -0.4966 -0.1953
 6571SOL    HW231176   2.558   1.084   1.194  0.9865  3.2106 -0.3336
 6572SOL     OW31177   4.565   3.131  10.905 -0.1603 -0.0439 -0.2620
 6572SOL    HW131178   4.555   3.035  10.904 -1.2774  0.0849 -0.4031
 6572SOL    HW231179   4.479   3.153  10.939 -1.2332 -1.1190 -2.2979
 6573SOL     OW31180   1.455   3.413  14.006 -0.7870  0.3178  0.7442
 6573SOL    HW131181   1.459   3.509  14.006 -1.2945  0.3347 -0.4475
 6573SOL    HW231182   1.543   3.382  13.986 -1.6724 -1.9253  0.3918
 6574SOL     OW31183   3.602   4.174   3.601  0.0176  0.0060 -0.0226
 6574SOL    HW131184   3.530   4.131   3.647  0.1547 -0.4305 -0.2162
 6574SOL    HW231185   3.603   4.264   3.635  0.9334  0.0080 -0.0633
 6575SOL     OW31186   4.665   2.997   6.541  0.6827 -0.1462 -0.1540
 6575SOL    HW131187   4.598   2.947   6.587  0.6943  0.6018  0.6769
 6575SOL    HW231188   4.605   3.068   6.518  1.8404  0.4386 -1.4393
 6576SOL     OW31189   3.962   1.344   3.374  0.1811  0.5435  0.1740
 6576SOL    HW131190   3.877   1.324   3.336 -0.2952  0.9077  1.0671
 6576SOL    HW231191   3.964   1.438   3.357 -0.6652  0.5649  0.2122
 6577SOL     OW31192   2.614   1.998   6.729 -0.1798  0.0398  1.2063
 6577SOL    HW131193   2.669   2.005   6.807  0.3144 -2.6059  1.1220
 6577SOL    HW231194   2.657   2.056   6.666  1.8811 -0.2276  2.3616
 6578SOL     OW31195   0.182   4.285   3.680  0.2759  0.2803 -0.3252
 6578SOL    HW131196   0.200   4.232   3.603  1.2633  0.1725 -0.0225
 6578SOL    HW231197   0.146   4.217   3.736 -2.0941  0.4730 -1.6279
 6579SOL     OW31198   1.056   2.062   9.868 -0.0944  0.2472 -0.1073
 6579SOL    HW131199   1.148   2.062   9.842 -0.0991  0.5654 -0.1172
 6579SOL    HW231200   1.026   2.140   9.821 -0.8144  0.4032  0.6138
 6580SOL     OW31201   0.878   2.321   7.018  0.2518  0.3352  0.1595
 6580SOL    HW131202   0.970   2.297   7.032  0.5562  1.5805  0.2528
 6580SOL    HW231203   0.880   2.412   7.046 -0.2156  0.4079 -0.0510
 6581SOL     OW31204   4.128   3.303  16.288  0.0781  0.0074 -0.2083
 6581SOL    HW131205   4.142   3.358  16.365  3.6452 -1.5991  0.2934
 6581SOL    HW231206   4.057   3.349  16.243  0.1772 -1.1318 -1.5544
 6582SOL     OW31207   0.912   1.541   1.290  0.2698 -0.0900  0.4641
 6582SOL    HW131208   0.926   1.528   1.196  0.4846  0.9008  0.3533
 6582SOL    HW231209   0.817   1.539   1.297  0.0341 -0.2585 -2.8945
 6583SOL     OW31210   4.233   0.532  14.216  0.2556 -0.0421 -0.2495
 6583SOL    HW131211   4.262   0.594  14.149 -1.6885  1.0142 -0.1264
 6583SOL    HW231212   4.309   0.475  14.209 -0.5361 -1.1441  0.1813
 6584SOL     OW31213   4.428   4.465   9.562 -0.1565 -0.9145  0.4981
 6584SOL    HW131214   4.497   4.449   9.626  0.9740  0.5738 -0.3557
 6584SOL    HW231215   4.435   4.386   9.508  0.6138  0.8687 -2.0097
 6585SOL     OW31216   0.709   0.440   1.984  0.5107 -0.4804  0.2237
 6585SOL    HW131217   0.784   0.409   1.932  0.2823 -0.8661  0.1270
 6585SOL    HW231218   0.751   0.508   2.037  0.0327  0.8919 -1.1667
 6586SOL     OW31219   1.351   3.792   2.833 -0.2831 -0.0472  0.2515
 6586SOL    HW131220   1.340   3.872   2.781 -1.0954  0.1849  0.7722
 6586SOL    HW231221   1.444   3.775   2.820 -1.1928 -2.7908 -2.7494
 6587SOL     OW31222   3.140   3.473   2.191  0.1237  0.2326  0.3154
 6587SOL    HW131223   3.080   3.419   2.243  0.2452  0.3556  0.5838
 6587SOL    HW231224   3.220   3.420   2.189  0.9076  1.4739 -1.0836
 6588SOL     OW31225   4.364   3.891   2.295  0.5447  0.1127  0.5111
 6588SOL    HW131226   4.416   3.934   2.227 -0.5635 -2.3527 -1.8814
 6588SOL    HW231227   4.302   3.833   2.251  1.0922  1.3351 -1.9026
 6589SOL     OW31228   1.786   4.308   2.386 -0.1048 -0.3888 -0.3999
 6589SOL    HW131229   1.837   4.347   2.315  1.3769 -0.2183  0.7342
 6589SOL    HW231230   1.852   4.330   2.452 -0.0755 -0.4965 -0.3946
 6590SOL     OW31231   1.435   4.345   0.286 -0.2981 -0.2296  0.2961
 6590SOL    HW131232   1.423   4.319   0.195  2.0417 -2.3675  0.5958
 6590SOL    HW231233   1.517   4.394   0.281  0.1909 -1.4636 -3.3887
 6591SOL     OW31234   1.848   1.072  14.036  0.1202 -0.3198 -0.2493
 6591SOL    HW131235   1.776   1.073  14.100  1.3150  0.9056  1.0678
 6591SOL    HW231236   1.897   1.146  14.069 -3.7119  1.6284  1.1386
 6592SOL     OW31237   0.685   3.590   3.113  0.3233 -0.3501  0.6587
 6592SOL    HW131238   0.707   3.613   3.023  1.7596  0.1920  1.1547
 6592SOL    HW231239   0.748   3.521   3.135  0.7304  0.1107  0.9396
 6593SOL     OW31240   3.281   1.422   5.540 -0.1350  0.0731 -0.3222
 6593SOL    HW131241   3.286   1.356   5.471 -0.1290 -1.6737  1.3507
 6593SOL    HW231242   3.187   1.438   5.532  0.0941  1.7264  0.3083
 6594SOL     OW31243   0.630   4.476   6.300  0.1236 -0.3146 -0.1890
 6594SOL    HW131244   0.535   4.468   6.311  0.2298 -0.7422  0.3621
 6594SOL    HW231245   0.655   4.390   6.266 -0.6070 -0.1798 -1.0807
 6595SOL     OW31246   1.159   0.231  13.579 -0.0245 -0.4504 -0.7616
 6595SOL    HW131247   1.085   0.286  13.605  0.5745 -0.0058  0.0085
 6595SOL    HW231248   1.230   0.295  13.581 -1.2203  0.7649  1.8945
 6596SOL     OW31249   2.936   3.648   7.144 -0.6484  0.1511 -0.7767
 6596SOL    HW131250   2.969   3.705   7.074  0.9514 -0.0269 -0.1590
 6596SOL    HW231251   3.018   3.604   7.164 -1.1155 -0.7302 -0.8038
 6597SOL     OW31252   2.094   1.391   6.777 -0.3661  0.4125 -0.0644
 6597SOL    HW131253   2.032   1.368   6.708 -0.4439 -0.4015  0.2837
 6597SOL    HW231254   2.031   1.415   6.845 -0.6463 -0.1988 -0.1136
 6598SOL     OW31255   1.420   3.144   8.223  0.3397 -0.0685 -0.7098
 6598SOL    HW131256   1.461   3.138   8.309  0.1873 -0.2969 -0.6529
 6598SOL    HW231257   1.334   3.102   8.235 -0.5398  1.6091 -1.0840
 6599SOL     OW31258   0.897   3.420   4.353  0.0465 -0.4801  0.7778
 6599SOL    HW131259   0.807   3.414   4.383 -0.9580  0.0434 -2.1859
 6599SOL    HW231260   0.884   3.382   4.266 -0.2684 -0.5325  0.8499
 6600SOL     OW31261   3.400   0.459   9.164 -0.0414  0.6524  0.6362
 6600SOL    HW131262   3.317   0.452   9.210 -0.2902 -0.1076  0.0710
 6600SOL    HW231263   3.371   0.487   9.077  0.8654  1.1449  0.4896
 6601SOL     OW31264   0.866   4.178  17.622 -0.1830  0.4559 -0.0203
 6601SOL    HW131265   0.922   4.223  17.559 -1.3675  1.5202 -0.3200
 6601SOL    HW231266   0.925   4.157  17.694 -0.9785 -1.6851  0.0099
 6602SOL     OW31267   3.718   0.065   3.988  0.3658  0.4158  0.0345
 6602SOL    HW131268   3.808   0.064   4.020 -0.1529  1.3311  1.5234
 6602SOL    HW231269   3.698   0.157   4.007 -0.7288  0.2563 -0.3391
 6603SOL     OW31270   0.173   3.515   5.748 -0.1631  0.1911  0.5187
 6603SOL    HW131271   0.104   3.569   5.786  0.8387  0.5994  1.7726
 6603SOL    HW231272   0.218   3.577   5.690 -1.7474  1.8728  1.1053
 6604SOL     OW31273   4.656   0.197   2.721  0.3361 -0.4615  0.0174
 6604SOL    HW131274   4.562   0.184   2.710  0.3367  0.3370 -0.9983
 6604SOL    HW231275   4.644   0.281   2.765 -1.3133 -0.9805  0.5588
 6605SOL     OW31276   2.505   3.374   8.620 -0.1211  0.2500  0.7029
 6605SOL    HW131277   2.417   3.351   8.589 -0.9250  1.2778  2.2412
 6605SOL    HW231278   2.552   3.410   8.545 -0.7751  1.3528  0.8294
 6606SOL     OW31279   0.134   4.230   2.769 -0.0306 -0.2201  0.3912
 6606SOL    HW131280   0.136   4.137   2.744  0.3388 -0.9975  3.3270
 6606SOL    HW231281   0.064   4.265   2.715 -1.9233 -2.3739  1.4349
 6607SOL     OW31282   1.418   1.565   6.309  0.0730  0.0985 -0.0248
 6607SOL    HW131283   1.398   1.587   6.400 -1.1361 -0.0248 -0.2581
 6607SOL    HW231284   1.407   1.651   6.269 -1.7997 -0.0468  0.1793
 6608SOL     OW31285   3.167   1.676   8.463 -0.0718  0.0872 -0.4135
 6608SOL    HW131286   3.136   1.746   8.406  0.8681  0.1863 -0.7966
 6608SOL    HW231287   3.261   1.688   8.472 -0.2669  1.5662 -0.2676
 6609SOL     OW31288   3.640   4.464   0.248 -0.2015  0.5403  0.1154
 6609SOL    HW131289   3.587   4.536   0.215 -0.4687  1.8869  3.4444
 6609SOL    HW231290   3.653   4.484   0.341  0.8953 -2.8888  0.6954
 6610SOL     OW31291   0.425   0.234   2.712 -0.1544 -0.5214 -0.2629
 6610SOL    HW131292   0.336   0.204   2.728 -0.6246  0.7592 -0.5016
 6610SOL    HW231293   0.419   0.327   2.693 -3.0637 -0.5850  0.2878
 6611SOL     OW31294   0.411   3.944   1.280 -0.4087 -0.5128  0.1703
 6611SOL    HW131295   0.452   4.007   1.221 -1.8527 -1.6327 -2.0451
 6611SOL    HW231296   0.467   3.867   1.269 -0.3553 -0.6818  1.6956
 6612SOL     OW31297   4.560   0.269  15.260 -0.0481 -0.1943  0.2195
 6612SOL    HW131298   4.587   0.292  15.350 -2.2055 -1.1201  1.0938
 6612SOL    HW231299   4.646   0.245  15.225 -0.2678 -2.6712  1.4320
 6613SOL     OW31300   3.427   4.162  12.555 -0.1933 -0.8760 -0.5666
 6613SOL    HW131301   3.379   4.226  12.608  0.9447 -1.3517  1.0389
 6613SOL    HW231302   3.492   4.135  12.620  1.9556  0.7956 -2.0207
 6614SOL     OW31303   0.186   0.675   4.902  0.1657  0.3998  0.0160
 6614SOL    HW131304   0.191   0.763   4.865  0.8400  0.6625  0.7102
 6614SOL    HW231305   0.109   0.643   4.854  0.3182  0.2134 -0.1052
 6615SOL     OW31306   2.296   0.201   5.365 -0.3968 -0.8640 -0.0334
 6615SOL    HW131307   2.260   0.218   5.278  1.1395  0.4060 -0.4159
 6615SOL    HW231308   2.390   0.216   5.358 -0.3093 -1.5653 -0.4090
 6616SOL     OW31309   1.613   4.007   8.741 -0.3799  0.3963  0.7823
 6616SOL    HW131310   1.613   4.090   8.693 -2.1008 -0.3768 -0.5512
 6616SOL    HW231311   1.528   4.019   8.783 -1.1754  0.8803 -0.9615
 6617SOL     OW31312   4.070   4.240   4.154  0.2093 -0.3445  0.6776
 6617SOL    HW131313   4.000   4.222   4.217 -1.4224 -0.1396 -1.0328
 6617SOL    HW231314   4.116   4.157   4.144  0.2484 -0.3058  0.5326
 6618SOL     OW31315   1.677   3.194   8.088 -0.3653  0.4618 -0.4416
 6618SOL    HW131316   1.598   3.166   8.135  0.7110 -0.4452  0.8227
 6618SOL    HW231317   1.743   3.183   8.156 -1.6137 -0.8494  0.5519
 6619SOL     OW31318   3.727   2.602   4.794 -0.8674 -0.2977 -0.1989
 6619SOL    HW131319   3.775   2.575   4.716  0.7788 -2.1063  1.4336
 6619SOL    HW231320   3.768   2.688   4.805  1.3648 -1.6628  2.2181
 6620SOL     OW31321   0.151   3.068   4.190 -0.3452  0.1158 -0.4868
 6620SOL    HW131322   0.175   3.157   4.164  0.8321  0.3450  1.3993
 6620SOL    HW231323   0.177   3.023   4.110  0.4892  0.4589 -0.4070
 6621SOL     OW31324   2.053   2.626   7.917 -0.4711  0.0432 -0.1629
 6621SOL    HW131325   2.017   2.630   8.005 -0.3727 -1.5046 -0.0533
 6621SOL    HW231326   2.013   2.710   7.892 -0.1472  1.2023  3.1984
 6622SOL     OW31327   1.749   0.612  11.946  0.4146  0.0131 -0.2398
 6622SOL    HW131328   1.733   0.520  11.925  0.2846 -0.5688  2.4269
 6622SOL    HW231329   1.767   0.648  11.859  3.5104  0.8707  0.7630
 6623SOL     OW31330   0.161   2.035   6.153  0.1401  0.1908 -0.2566
 6623SOL    HW131331   0.127   2.027   6.064 -1.1445 -0.1175  0.2539
 6623SOL    HW231332   0.225   2.106   6.148  0.2027  0.1239 -0.3953
 6624SOL     OW31333   1.335   4.431   3.023  0.1889 -0.2302 -0.5393
 6624SOL    HW131334   1.251   4.459   2.988  0.6654  1.8717 -0.0630
 6624SOL    HW231335   1.333   4.338   3.000  1.6621 -0.5892  0.7810
 6625SOL     OW31336   0.535   1.350   8.846  0.0955  0.2352 -0.3984
 6625SOL    HW131337   0.467   1.383   8.787 -1.1733 -0.4088  0.7223
 6625SOL    HW231338   0.525   1.403   8.925  0.1716  1.6631 -1.3451
 6626SOL     OW31339   4.100   3.059   8.222  0.0127 -0.3955 -0.2451
 6626SOL    HW131340   4.173   3.100   8.268  0.3630  0.8753 -1.9625
 6626SOL    HW231341   4.051   3.012   8.290 -2.1283  0.3638 -1.2428
 6627SOL     OW31342   0.706   3.000   3.632 -1.0465  0.3088  0.5979
 6627SOL    HW131343   0.688   2.960   3.547  0.2958  4.4663 -1.6349
 6627SOL    HW231344   0.685   3.089   3.604  0.0787  0.8352  1.4389
 6628SOL     OW31345   1.293   1.523   3.274 -0.6889 -0.0144 -0.2849
 6628SOL    HW131346   1.271   1.563   3.190 -1.8009 -1.3962 -0.6607
 6628SOL    HW231347   1.275   1.431   3.252 -1.4481  0.0191  0.1878
 6629SOL     OW31348   3.050   3.780   2.960 -0.0543 -0.1047  0.4209
 6629SOL    HW131349   3.129   3.747   3.003  0.4037  0.6193  0.1279
 6629SOL    HW231350   3.082   3.812   2.876  0.3185 -1.8335 -0.0967
 6630SOL     OW31351   1.666   2.036   9.208 -0.2672 -0.1641 -0.0082
 6630SOL    HW131352   1.610   2.104   9.247 -0.5076  0.9350 -2.2670
 6630SOL    HW231353   1.622   1.952   9.203  0.1587 -0.2998 -1.5131
 6631SOL     OW31354   3.512   4.646   0.545 -0.1316 -0.0459  0.6484
 6631SOL    HW131355   3.590   4.628   0.491 -1.6659 -1.3823 -1.1383
 6631SOL    HW231356   3.456   4.705   0.494 -0.2729  1.6702  2.8222
 6632SOL     OW31357   1.915   0.221   1.250 -0.3227 -0.0114  0.4803
 6632SOL    HW131358   1.862   0.142   1.256  0.7907 -0.7110  1.2145
 6632SOL    HW231359   1.873   0.279   1.313 -0.3529  0.6191 -0.1092
 6633SOL     OW31360   1.424   0.100   2.564  0.4384  0.5984  0.1070
 6633SOL    HW131361   1.365   0.026   2.551 -1.7822  2.3165  0.4816
 6633SOL    HW231362   1.514   0.067   2.557  0.1743 -0.3618  1.2581
 6634SOL     OW31363   1.402   3.455   3.601  0.4118 -0.0720  0.1937
 6634SOL    HW131364   1.369   3.451   3.691  2.2434  0.2083  0.8692
 6634SOL    HW231365   1.478   3.396   3.603 -0.0760 -0.7555 -2.3696
 6635SOL     OW31366   2.139   4.603  17.648  0.2317 -0.1009  0.3702
 6635SOL    HW131367   2.084   4.577   0.020 -0.9551 -0.1812 -0.5308
 6635SOL    HW231368   2.161   4.692  17.676 -0.9481  0.7134 -1.2526
 6636SOL     OW31369   0.088   1.350   2.523  0.3855 -0.2808  0.1936
 6636SOL    HW131370   0.111   1.295   2.448  2.2678 -1.8505  1.9078
 6636SOL    HW231371   0.006   1.394   2.501 -0.1402 -1.3900 -0.0639
 6637SOL     OW31372   2.262   1.956   4.612 -0.7036  0.4752  0.3338
 6637SOL    HW131373   2.350   1.983   4.636 -0.1888 -2.2276  1.5102
 6637SOL    HW231374   2.238   2.016   4.542  1.0347 -0.7813 -1.3432
 6638SOL     OW31375   1.330   1.279   3.185 -0.6130 -0.3768 -0.6834
 6638SOL    HW131376   1.308   1.192   3.152 -0.8050 -1.2189  1.6848
 6638SOL    HW231377   1.323   1.323   3.100  1.4204  2.1333  0.4783
 6639SOL     OW31378   4.236   4.430   7.992  0.0749 -0.0734  0.4004
 6639SOL    HW131379   4.326   4.462   7.988  0.4251 -1.0330  0.6644
 6639SOL    HW231380   4.243   4.374   8.070 -0.7285  3.1125  2.7695
 6640SOL     OW31381   0.047   0.415   3.085 -0.2010 -0.4695 -0.1328
 6640SOL    HW131382   0.016   0.374   3.165  1.7977  0.2045  0.9912
 6640SOL    HW231383   4.688   0.446   3.050  1.0555  2.5452 -0.5525
 6641SOL     OW31384   1.303   0.268   2.371 -0.0980  0.3173  0.3368
 6641SOL    HW131385   1.218   0.234   2.398  0.7460 -2.6038 -0.6782
 6641SOL    HW231386   1.353   0.221   2.437 -1.5152 -0.3421  0.9364
 6642SOL     OW31387   1.451   0.566   7.491 -0.1515 -0.8401 -0.3066
 6642SOL    HW131388   1.462   0.473   7.473  1.8637 -0.5768 -0.5150
 6642SOL    HW231389   1.535   0.593   7.452 -0.9073  2.5293  0.3602
 6643SOL     OW31390   2.248   4.591   9.222  0.0475  0.2655  0.2562
 6643SOL    HW131391   2.284   4.518   9.172  0.1215 -0.6064  1.6032
 6643SOL    HW231392   2.175   4.550   9.268  1.0975 -1.2855  0.5340
 6644SOL     OW31393   0.463   2.033  11.300 -0.4009  0.0175  0.0903
 6644SOL    HW131394   0.424   2.006  11.217  3.2176 -0.5926 -1.3771
 6644SOL    HW231395   0.382   2.057  11.346 -1.0419  0.0038 -1.0179
 6645SOL     OW31396   1.724   0.663   2.359  0.0693 -0.1766  0.9449
 6645SOL    HW131397   1.799   0.672   2.300  0.6720 -3.1230  1.2439
 6645SOL    HW231398   1.716   0.751   2.396 -0.5816  0.3104 -0.3285
 6646SOL     OW31399   2.531   0.090   4.557  0.2633 -0.2103  0.2742
 6646SOL    HW131400   2.505   0.009   4.513 -2.2189  0.8508 -0.1793
 6646SOL    HW231401   2.467   0.157   4.535  0.8216  0.4351  0.6388
 6647SOL     OW31402   0.876   3.307   3.419  0.3688 -0.0443  0.2777
 6647SOL    HW131403   0.916   3.221   3.429  0.2937  0.1483  2.1656
 6647SOL    HW231404   0.950   3.364   3.439  0.7033 -0.8992  1.4370
 6648SOL     OW31405   1.535   4.723   6.427  0.0013 -0.0056 -0.5125
 6648SOL    HW131406   1.588   0.039   6.359  1.4414  1.3396  1.4312
 6648SOL    HW231407   1.447   4.713   6.391 -0.5064  0.7625  0.5320
 6649SOL     OW31408   0.986   0.763  17.074 -0.3591 -0.0269  0.2977
 6649SOL    HW131409   1.079   0.751  17.054 -0.5235  1.3669 -1.2678
 6649SOL    HW231410   0.964   0.851  17.103 -1.7248 -0.3308  0.2096
 6650SOL     OW31411   3.691   1.701  13.055 -0.3691  0.3918 -0.2870
 6650SOL    HW131412   3.678   1.613  13.090  2.5014 -0.1118 -0.4706
 6650SOL    HW231413   3.782   1.717  13.078 -0.6334  0.0841  0.9560
 6651SOL     OW31414   0.720   4.537  16.012  0.6236  0.2332 -0.0612
 6651SOL    HW131415   0.744   4.483  15.936 -1.8106  1.7104 -1.8862
 6651SOL    HW231416   0.625   4.527  16.003  0.5934  0.8895 -0.4526
 6652SOL     OW31417   0.008   2.672   4.473 -0.2318  0.3317 -0.2320
 6652SOL    HW131418   0.027   2.582   4.447  0.9911  0.3200  0.6879
 6652SOL    HW231419   4.641   2.670   4.448 -0.6178  1.0953  1.0851
 6653SOL     OW31420   1.442   2.258   8.939 -0.3117 -0.3077 -0.0499
 6653SOL    HW131421   1.375   2.299   8.884  1.3811  0.1244 -1.7813
 6653SOL    HW231422   1.388   2.226   9.010  0.4701  0.0052  0.6865
 6654SOL     OW31423   1.487   1.260   3.407  0.0113  0.3022 -0.4176
 6654SOL    HW131424   1.501   1.170   3.377 -0.7876  0.4727 -1.2852
 6654SOL    HW231425   1.434   1.286   3.331  0.7061 -0.3220 -1.1275
 6655SOL     OW31426   4.328   1.233   0.796  0.0095  0.4112 -0.1541
 6655SOL    HW131427   4.282   1.307   0.836 -0.9793 -0.2815  0.0063
 6655SOL    HW231428   4.269   1.158   0.806  0.0083  0.2597 -1.2309
 6656SOL     OW31429   2.282   1.781  15.163  0.5806  0.0183 -0.2448
 6656SOL    HW131430   2.242   1.852  15.213  2.4975  0.7664  0.2108
 6656SOL    HW231431   2.295   1.718  15.233 -0.6940 -2.3844 -2.1534
 6657SOL     OW31432   1.237   2.210  16.117  0.0276 -0.0542 -0.2175
 6657SOL    HW131433   1.264   2.121  16.094 -1.1850 -0.8824  1.5576
 6657SOL    HW231434   1.295   2.231  16.190 -2.6783 -0.9206  2.1921
 6658SOL     OW31435   4.458   0.501  11.636  0.5259  0.3572 -0.2153
 6658SOL    HW131436   4.458   0.412  11.671 -1.0577 -0.2313 -1.7137
 6658SOL    HW231437   4.428   0.473  11.550 -0.1890 -0.4661  0.3009
 6659SOL     OW31438   2.248   2.106   7.213 -0.0871 -0.1357 -0.5004
 6659SOL    HW131439   2.220   2.017   7.191  0.9787 -0.7311  0.5887
 6659SOL    HW231440   2.237   2.151   7.129 -1.3624  2.1972  0.9037
 6660SOL     OW31441   0.531   4.429   1.380  0.0138  0.4772 -0.0709
 6660SOL    HW131442   0.534   4.462   1.290  1.0069  0.3617 -0.0833
 6660SOL    HW231443   0.622   4.410   1.404  0.2534  0.6702 -0.8376
 6661SOL     OW31444   0.979   3.835   5.946 -0.0311  0.2766 -0.3507
 6661SOL    HW131445   1.052   3.773   5.949 -0.7975 -0.6454 -0.8917
 6661SOL    HW231446   0.988   3.865   5.856  3.3219  0.3711 -0.0018
 6662SOL     OW31447   4.060   1.486  13.692  0.1010 -0.5454 -0.3299
 6662SOL    HW131448   4.087   1.578  13.703  1.8706 -0.9500 -1.2219
 6662SOL    HW231449   3.979   1.507  13.647  1.9067  0.3964 -3.1646
 6663SOL     OW31450   3.705   2.093   8.350  0.1585 -0.2274 -0.1485
 6663SOL    HW131451   3.760   2.146   8.408 -2.1480  0.2182  1.5999
 6663SOL    HW231452   3.759   2.059   8.278 -0.7989 -1.5863 -0.2090
 6664SOL     OW31453   3.702   4.694   6.454  0.0444  0.5577  0.1678
 6664SOL    HW131454   3.623   4.663   6.499 -0.1686  2.6761  1.2337
 6664SOL    HW231455   3.693   0.062   6.475  0.3320  0.5309  0.4060
 6665SOL     OW31456   0.572   1.350   7.626 -0.8503 -0.0093  0.6160
 6665SOL    HW131457   0.577   1.388   7.539  1.2154 -0.4111  0.5624
 6665SOL    HW231458   0.485   1.311   7.623 -0.3600 -0.9445 -1.3203
 6666SOL     OW31459   4.172   2.883   5.865 -0.4197  0.0610  0.2665
 6666SOL    HW131460   4.090   2.840   5.888 -1.0989  0.8660 -0.6942
 6666SOL    HW231461   4.227   2.849   5.936  0.1725 -0.8382 -0.6148
 6667SOL     OW31462   2.926   0.723   3.145  0.0403  0.2819 -0.0042
 6667SOL    HW131463   2.871   0.678   3.209  1.7747  0.0551  1.3543
 6667SOL    HW231464   2.985   0.649   3.130 -0.0729  0.0893  0.5075
 6668SOL     OW31465   2.552   0.038  15.591 -0.1884  0.2944 -0.2088
 6668SOL    HW131466   2.484   0.027  15.524 -0.0267 -1.8095 -0.0219
 6668SOL    HW231467   2.622   4.709  15.555  0.6684  1.7172 -0.7074
 6669SOL     OW31468   0.654   1.455   0.990  0.3189 -0.3578  0.3708
 6669SOL    HW131469   0.681   1.453   0.898  0.1889 -1.3482  0.3491
 6669SOL    HW231470   0.639   1.550   0.993  0.0968 -0.4284  1.2274
 6670SOL     OW31471   3.547   1.138   0.937  0.4358 -0.1488  0.0738
 6670SOL    HW131472   3.522   1.189   0.860 -0.9551  1.8445  1.8507
 6670SOL    HW231473   3.505   1.056   0.914 -0.0162  0.2160 -0.4025
 6671SOL     OW31474   0.242   0.148  12.462  0.4631  0.3695  0.3872
 6671SOL    HW131475   0.315   0.132  12.522  1.0291 -1.1381 -0.6888
 6671SOL    HW231476   0.174   0.176  12.523  0.2825  1.2825 -0.2275
 6672SOL     OW31477   1.839   4.135   6.131 -0.2240 -0.0288 -0.1770
 6672SOL    HW131478   1.841   4.098   6.219 -0.2714  0.3272 -0.0264
 6672SOL    HW231479   1.909   4.199   6.137 -0.7581  0.3629  2.0052
 6673SOL     OW31480   3.111   2.238  16.473 -0.0706  0.5378 -0.4391
 6673SOL    HW131481   3.027   2.279  16.451 -0.0764 -0.0891 -1.6143
 6673SOL    HW231482   3.121   2.277  16.560  0.5476  1.7917 -1.0718
 6674SOL     OW31483   2.836   1.392  12.297 -0.4514  0.0799 -0.3650
 6674SOL    HW131484   2.765   1.333  12.271  1.9358 -2.0094 -2.2121
 6674SOL    HW231485   2.814   1.470  12.246  0.2036  0.5038  0.0131
 6675SOL     OW31486   2.748   2.540   4.867 -0.2984 -0.0860 -0.6992
 6675SOL    HW131487   2.834   2.576   4.890 -0.2216  0.6878 -2.1680
 6675SOL    HW231488   2.732   2.502   4.953  0.2181  0.4753 -0.3505
 6676SOL     OW31489   3.572   2.960  13.899 -0.2759 -0.0555 -0.0046
 6676SOL    HW131490   3.510   3.012  13.848  1.1948  2.5647  0.8794
 6676SOL    HW231491   3.613   2.911  13.828  1.2050  0.1958  0.6760
 6677SOL     OW31492   4.437   3.638   7.369 -0.3635  0.1587  0.2250
 6677SOL    HW131493   4.342   3.649   7.372 -0.4052 -0.9776  2.8894
 6677SOL    HW231494   4.452   3.652   7.462 -1.1715 -0.3567  0.4306
 6678SOL     OW31495   2.881   3.100   7.557  0.1293  0.3388  0.4262
 6678SOL    HW131496   2.828   3.179   7.563 -2.4661 -1.3770 -0.1574
 6678SOL    HW231497   2.970   3.135   7.560  0.2192  0.0996  0.5242
 6679SOL     OW31498   1.161   3.725  13.535 -0.0453  0.1849 -0.1296
 6679SOL    HW131499   1.075   3.700  13.571 -0.3663 -0.8909 -1.6694
 6679SOL    HW231500   1.198   3.739  13.622 -2.6763  0.5411  0.9380
 6680SOL     OW31501   2.406   4.125  13.154 -0.1600  0.5969  0.4860
 6680SOL    HW131502   2.418   4.177  13.074 -0.2508 -0.1436 -0.0193
 6680SOL    HW231503   2.481   4.067  13.163 -0.3759  0.0078 -1.3537
 6681SOL     OW31504   3.022   0.612   2.200 -0.2214 -0.4261  0.3460
 6681SOL    HW131505   2.981   0.606   2.287 -2.9438  0.0327 -0.9215
 6681SOL    HW231506   3.111   0.630   2.233 -0.0600 -0.6831  0.0454
 6682SOL     OW31507   3.083   1.343  12.388  0.1961 -0.0804 -0.2234
 6682SOL    HW131508   2.996   1.340  12.348 -0.1733  0.2206  0.5607
 6682SOL    HW231509   3.131   1.340  12.306  1.0933  2.1532  0.2217
 6683SOL     OW31510   3.806   1.761   1.513  0.5276  0.0844 -0.4056
 6683SOL    HW131511   3.785   1.818   1.440  0.8790 -0.7231 -1.1378
 6683SOL    HW231512   3.838   1.681   1.472 -2.5161 -1.1699 -0.3027
 6684SOL     OW31513   0.285   2.476   2.854 -0.0472 -0.2321  0.7713
 6684SOL    HW131514   0.285   2.549   2.792 -0.5019  1.3948  2.7045
 6684SOL    HW231515   0.371   2.488   2.896 -0.3882  1.7789  0.8721
 6685SOL     OW31516   0.826   2.237   2.756  0.6106 -0.4034 -0.0022
 6685SOL    HW131517   0.842   2.252   2.663 -0.7482 -0.4290 -0.2438
 6685SOL    HW231518   0.871   2.312   2.795  1.0450 -0.6171 -0.0953
 6686SOL     OW31519   0.906   3.943  10.253 -0.0901  0.3945  0.1850
 6686SOL    HW131520   0.977   4.006  10.244  1.0682 -0.8250  0.7968
 6686SOL    HW231521   0.834   4.004  10.270 -1.2510 -0.5804 -1.2635
 6687SOL     OW31522   1.369   4.648   0.482 -0.3093 -0.4496 -0.4085
 6687SOL    HW131523   1.433   4.669   0.413  0.9695  1.8050  1.4534
 6687SOL    HW231524   1.396   4.567   0.524 -1.2477  0.1362  1.3443
 6688SOL     OW31525   3.029   4.130   2.537  0.2112  0.1508  0.6395
 6688SOL    HW131526   2.942   4.167   2.528  0.0997 -0.4640 -0.8352
 6688SOL    HW231527   3.049   4.100   2.449 -0.3756  2.0922 -0.1564
 6689SOL     OW31528   0.079   3.986   6.989  0.0654  0.4926  0.2832
 6689SOL    HW131529   0.045   3.987   7.078  0.7096 -1.3780  0.5475
 6689SOL    HW231530   0.136   3.910   6.992 -0.6672 -0.0990 -0.6252
 6690SOL     OW31531   2.691   0.047   3.012  0.2771  0.4605 -0.2601
 6690SOL    HW131532   2.745   4.715   3.068  2.4297  1.0603 -1.7215
 6690SOL    HW231533   2.694   0.126   3.065  0.9383 -0.8232  1.6270
 6691SOL     OW31534   1.872   1.958   5.169  0.4485 -0.0867 -0.0186
 6691SOL    HW131535   1.804   1.972   5.103  0.4578 -1.6017 -0.3426
 6691SOL    HW231536   1.881   1.865   5.149 -1.2694 -0.6801  2.0177
 6692SOL     OW31537   3.060   2.027   4.955 -0.4567  0.2724 -0.7511
 6692SOL    HW131538   3.002   2.047   5.028 -0.0710  2.4584 -1.0616
 6692SOL    HW231539   3.150   2.052   4.976 -1.1979  0.2449  2.4272
 6693SOL     OW31540   2.883   4.343   2.796 -0.1138  0.3277  0.5501
 6693SOL    HW131541   2.895   4.385   2.882 -1.9097  0.4054  0.7618
 6693SOL    HW231542   2.790   4.321   2.808 -0.2430  1.7118  2.1747
 6694SOL     OW31543   2.666   1.034   0.827  0.0005 -0.0663 -0.2054
 6694SOL    HW131544   2.676   1.074   0.740  1.5495  1.4169  0.6683
 6694SOL    HW231545   2.576   1.056   0.851 -0.2333 -1.2419 -0.0265
 6695SOL     OW31546   3.067   0.051   3.249  0.6262 -0.2761 -0.1215
 6695SOL    HW131547   2.977   0.083   3.237  0.5162 -0.4967  0.1070
 6695SOL    HW231548   3.125   0.126   3.237 -1.3451  0.8192 -2.5892
 6696SOL     OW31549   2.147   4.144  10.662 -0.3363  0.0002  0.3175
 6696SOL    HW131550   2.083   4.181  10.601 -0.9595 -0.7283  0.5235
 6696SOL    HW231551   2.183   4.078  10.602 -0.7850  0.3142 -0.2965
 6697SOL     OW31552   0.057   1.664   4.633 -0.1355 -0.0402  0.4021
 6697SOL    HW131553   0.104   1.746   4.622  0.5741 -0.3347  1.2419
 6697SOL    HW231554   4.691   1.691   4.626 -0.1848 -0.1246  0.7200
 6698SOL     OW31555   0.419   3.642   6.221 -0.0851  0.1988 -0.3238
 6698SOL    HW131556   0.390   3.551   6.234 -1.1817  0.3173 -2.0372
 6698SOL    HW231557   0.505   3.639   6.262 -0.3887 -1.0898  0.2194
 6699SOL     OW31558   0.951   4.424   2.557  0.4666 -0.1034 -0.2417
 6699SOL    HW131559   0.912   4.502   2.518  2.9772  0.3156 -1.8669
 6699SOL    HW231560   0.871   4.394   2.601  0.9876 -1.0182  0.0956
 6700SOL     OW31561   0.816   1.307  12.408 -0.2186 -0.4423 -0.1181
 6700SOL    HW131562   0.879   1.239  12.383 -0.3688  0.2103 -2.3036
 6700SOL    HW231563   0.746   1.252  12.445 -2.4736  2.6553  0.2152
 6701SOL     OW31564   0.527   1.141  12.277  0.1101  0.0624 -0.2690
 6701SOL    HW131565   0.513   1.236  12.284 -1.2723 -0.0768 -1.0570
 6701SOL    HW231566   0.573   1.127  12.360  0.1296 -0.9208 -0.4471
 6702SOL     OW31567   0.197   1.467  10.419 -0.0126  0.3154 -0.4432
 6702SOL    HW131568   0.125   1.448  10.359 -1.1817 -1.5514  1.5294
 6702SOL    HW231569   0.196   1.378  10.455 -0.6136  0.7116  0.5225
 6703SOL     OW31570   0.158   1.838   3.501 -0.9228 -0.4671  0.4774
 6703SOL    HW131571   0.214   1.902   3.457  0.0492 -0.2678  1.9857
 6703SOL    HW231572   0.082   1.846   3.444  0.3388  0.3522 -1.0847
 6704SOL     OW31573   2.944   2.202  13.288  0.0505 -0.8903  0.1134
 6704SOL    HW131574   2.984   2.285  13.315  1.8155 -0.9115 -2.5079
 6704SOL    HW231575   2.880   2.232  13.223  0.2821  1.1502  0.8096
 6705SOL     OW31576   4.345   0.622   0.701 -0.2667 -0.5771  0.0814
 6705SOL    HW131577   4.293   0.701   0.684 -0.8459 -0.9519  0.1010
 6705SOL    HW231578   4.315   0.596   0.788 -1.5871 -2.0063 -0.8070
 6706SOL     OW31579   0.397   0.235  11.078  0.2054 -0.0561 -0.0560
 6706SOL    HW131580   0.479   0.270  11.044  1.9666 -1.6027  2.6220
 6706SOL    HW231581   0.364   0.313  11.122  1.4426 -0.3122  1.3393
 6707SOL     OW31582   1.620   2.928   2.799 -0.0472 -0.2500 -0.1453
 6707SOL    HW131583   1.635   3.022   2.807  1.5682 -0.5217  0.0650
 6707SOL    HW231584   1.563   2.918   2.723 -0.5125  1.0026  0.0415
 6708SOL     OW31585   1.405   1.849   0.222  0.9590  0.6903  0.6684
 6708SOL    HW131586   1.461   1.790   0.172 -0.5227  0.3165 -0.5513
 6708SOL    HW231587   1.372   1.908   0.154  0.0342  0.8697  1.2815
 6709SOL     OW31588   1.597   0.952   0.297  0.3846  0.7557  0.4905
 6709SOL    HW131589   1.539   1.028   0.298 -0.5534  0.0942 -3.9978
 6709SOL    HW231590   1.644   0.974   0.217 -1.1820  1.2555 -0.2916
 6710SOL     OW31591   0.921   3.554   6.779 -0.4835 -0.1642  0.0313
 6710SOL    HW131592   0.876   3.503   6.713 -1.2649 -0.3515  0.7104
 6710SOL    HW231593   1.012   3.543   6.751 -0.4133  0.3501  0.0485
 6711SOL     OW31594   1.219   2.652  13.258 -0.2657 -0.4392  0.8324
 6711SOL    HW131595   1.161   2.577  13.272  1.5042 -1.9089  0.4071
 6711SOL    HW231596   1.305   2.614  13.239 -0.1112 -0.3944  1.4661
 6712SOL     OW31597   1.949   4.149  14.691  0.0356 -0.0813 -0.3732
 6712SOL    HW131598   2.033   4.187  14.717 -0.4402  0.5187  0.2987
 6712SOL    HW231599   1.941   4.064  14.734 -0.7503  0.4916  0.6253
 6713SOL     OW31600   3.116   3.307   3.421  0.3537  0.0475  0.5205
 6713SOL    HW131601   3.033   3.338   3.455 -0.0135 -1.6763  1.1965
 6713SOL    HW231602   3.164   3.389   3.410 -1.1068  0.7462 -0.5673
 6714SOL     OW31603   4.374   3.056   3.141  0.6932 -0.4859 -0.0036
 6714SOL    HW131604   4.439   3.057   3.212  0.1835  0.7747  0.4388
 6714SOL    HW231605   4.421   3.013   3.070 -0.4790 -0.6364 -0.6784
 6715SOL     OW31606   4.520   0.926   3.691 -0.8345  0.2656 -0.0963
 6715SOL    HW131607   4.443   0.953   3.741 -1.1657 -0.4008 -0.2505
 6715SOL    HW231608   4.534   0.849   3.747  2.0988  1.3590  0.6746
 6716SOL     OW31609   4.546   3.383  15.613  0.4413 -0.8820 -0.0491
 6716SOL    HW131610   4.641   3.371  15.615  0.3158 -1.8529 -0.0087
 6716SOL    HW231611   4.527   3.290  15.623 -0.9373 -0.4616  1.2592
 6717SOL     OW31612   1.517   2.119   6.876  0.4999  0.0806 -0.0275
 6717SOL    HW131613   1.467   2.164   6.808 -0.4767 -1.2785 -0.2079
 6717SOL    HW231614   1.472   2.152   6.954  0.8643 -0.1315  0.2670
 6718SOL     OW31615   1.631   0.403  17.670  0.1810 -0.0327 -0.0647
 6718SOL    HW131616   1.563   0.364   0.024  1.6620 -0.6498  1.2998
 6718SOL    HW231617   1.625   0.495  17.699  1.9144  0.0120  0.1504
 6719SOL     OW31618   3.865   0.805   8.307 -0.1707 -0.1919  0.0269
 6719SOL    HW131619   3.901   0.808   8.218 -1.9625 -0.5455 -0.7088
 6719SOL    HW231620   3.922   0.743   8.351 -0.9638 -1.1875 -0.3401
 6720SOL     OW31621   3.325   2.615   8.924 -0.3758  0.1920  0.0388
 6720SOL    HW131622   3.265   2.638   8.995  0.3517  1.5365  0.2103
 6720SOL    HW231623   3.269   2.556   8.874  0.8159  0.6596 -1.8617
 6721SOL     OW31624   2.076   0.097   4.785 -0.1417  0.2082  0.1561
 6721SOL    HW131625   1.982   0.117   4.786  0.2697  2.2474 -0.9393
 6721SOL    HW231626   2.114   0.185   4.775  1.7755 -0.4099  2.0775
 6722SOL     OW31627   2.660   1.174   8.321 -0.8399  0.4978  0.4682
 6722SOL    HW131628   2.588   1.224   8.359 -1.4365  0.1521 -0.2221
 6722SOL    HW231629   2.684   1.228   8.245 -0.3736 -1.2804 -0.6516
 6723SOL     OW31630   4.219   4.350   3.328 -0.0148 -0.0769  0.4354
 6723SOL    HW131631   4.162   4.387   3.261  0.6630 -1.3957 -0.8647
 6723SOL    HW231632   4.298   4.388   3.288 -0.3041 -0.5351 -0.5771
 6724SOL     OW31633   1.072   0.313   1.053  0.2361 -0.5157  0.7607
 6724SOL    HW131634   1.165   0.289   1.045 -0.8027 -3.5458 -1.9296
 6724SOL    HW231635   1.025   0.236   1.084  0.1640  0.0320  2.0231
 6725SOL     OW31636   4.647   3.871  16.509 -0.3893  0.0300  0.9880
 6725SOL    HW131637   4.705   3.800  16.481  0.2827  1.0188 -0.1489
 6725SOL    HW231638   4.570   3.863  16.452  0.6329  0.5344 -0.4628
 6726SOL     OW31639   3.956   2.634   6.728  0.1628 -0.5693  0.1612
 6726SOL    HW131640   4.031   2.624   6.788  1.0807 -1.3982 -1.1309
 6726SOL    HW231641   3.893   2.661   6.795 -1.0374  1.4004 -1.7762
 6727SOL     OW31642   4.612   3.171   1.862  0.4784  0.7436 -0.5763
 6727SOL    HW131643   4.667   3.196   1.936 -1.4529 -1.0360  1.4594
 6727SOL    HW231644   4.611   3.254   1.814  1.7028  0.8540 -0.3882
 6728SOL     OW31645   1.534   0.070   0.319 -0.0816 -0.2435 -0.1753
 6728SOL    HW131646   1.566   0.116   0.397  0.4104 -2.2145  0.7632
 6728SOL    HW231647   1.611   0.015   0.304  0.2927 -0.1743  1.4641
 6729SOL     OW31648   3.692   3.836  14.111  0.3123 -0.2775  0.6384
 6729SOL    HW131649   3.719   3.928  14.111  1.0909 -0.5070  0.8997
 6729SOL    HW231650   3.634   3.825  14.036  1.3784  0.5446 -0.3124
 6730SOL     OW31651   1.187   0.290  14.221 -0.1283 -0.5128  0.1898
 6730SOL    HW131652   1.095   0.307  14.198 -0.2698 -0.5510  0.7289
 6730SOL    HW231653   1.180   0.247  14.306  2.0355  1.5193  1.3974
 6731SOL     OW31654   1.244   0.004   8.156 -0.5499 -0.4507 -0.3509
 6731SOL    HW131655   1.289   4.665   8.100  0.9167  1.5238 -1.4599
 6731SOL    HW231656   1.283   0.088   8.130 -2.8204  0.2484 -1.4372
 6732SOL     OW31657   0.351   1.365   3.224 -0.2773 -0.5490 -0.1553
 6732SOL    HW131658   0.324   1.313   3.148 -1.2160 -1.4066  0.7554
 6732SOL    HW231659   0.352   1.455   3.192  0.6270 -0.4963  0.0385
 6733SOL     OW31660   4.581   1.689   5.021 -0.1629 -1.2826  0.0550
 6733SOL    HW131661   4.605   1.779   5.040  1.3784 -2.2699  2.8112
 6733SOL    HW231662   4.562   1.712   4.930 -1.9083  1.4457  1.1274
 6734SOL     OW31663   3.744   0.887   8.596 -0.0328 -0.1250 -0.3805
 6734SOL    HW131664   3.828   0.934   8.600  0.8561 -1.5915 -1.7972
 6734SOL    HW231665   3.764   0.809   8.648 -0.8953  0.6729  1.1695
 6735SOL     OW31666   2.174   1.663   6.799 -0.4400 -0.0109  0.2944
 6735SOL    HW131667   2.241   1.657   6.867  0.5411 -1.5349 -0.7913
 6735SOL    HW231668   2.150   1.570   6.803  1.4797 -0.4300  2.1528
 6736SOL     OW31669   2.603   3.013   5.248  0.2632  0.0125  0.0144
 6736SOL    HW131670   2.634   2.927   5.276  0.5335 -0.2557 -1.1127
 6736SOL    HW231671   2.620   3.059   5.330  0.1588  0.1381 -0.0355
 6737SOL     OW31672   1.050   0.615   2.031  0.1125 -0.3269 -0.0511
 6737SOL    HW131673   1.010   0.546   1.978 -0.9807  0.2371  0.0379
 6737SOL    HW231674   1.142   0.590   2.036  0.1539 -0.6218 -2.2095
 6738SOL     OW31675   1.354   0.283   5.131 -0.6912 -0.4139 -0.2407
 6738SOL    HW131676   1.288   0.215   5.120 -1.4885  0.4626 -1.0401
 6738SOL    HW231677   1.383   0.262   5.219  0.6267  0.0717 -0.5529
 6739SOL     OW31678   3.764   2.105   8.711 -0.0140 -0.1301 -0.4672
 6739SOL    HW131679   3.766   2.131   8.803 -0.4072  0.1598 -0.5350
 6739SOL    HW231680   3.816   2.168   8.661  1.4670 -0.0217  1.2013
 6740SOL     OW31681   3.007   0.714  11.769 -0.0379 -0.2444 -0.0146
 6740SOL    HW131682   2.912   0.712  11.776 -0.2358  1.2880 -2.2155
 6740SOL    HW231683   3.020   0.657  11.844 -1.8880 -0.2710  0.2863
 6741SOL     OW31684   4.511   3.193   7.160  0.5409 -0.2114 -0.0263
 6741SOL    HW131685   4.519   3.161   7.250  0.2365 -3.0940 -1.0146
 6741SOL    HW231686   4.580   3.144   7.114 -1.1159 -2.5177 -0.0540
 6742SOL     OW31687   3.557   0.906   3.678  0.0250  0.4442  0.2169
 6742SOL    HW131688   3.607   0.830   3.648 -0.1498  0.8824 -1.2238
 6742SOL    HW231689   3.471   0.882   3.643 -0.0054  1.4542 -0.4276
 6743SOL     OW31690   2.482   1.763   2.377  0.3647 -0.0333 -0.3251
 6743SOL    HW131691   2.467   1.834   2.439  2.7906  0.0534  0.1294
 6743SOL    HW231692   2.443   1.805   2.300  0.2406 -0.7190 -0.6305
 6744SOL     OW31693   3.612   1.761  11.036  1.3544  0.2454  0.3277
 6744SOL    HW131694   3.695   1.746  11.081  1.4199  0.1074  0.1597
 6744SOL    HW231695   3.611   1.855  11.015  0.9759  0.3349  0.7374
 6745SOL     OW31696   1.787   1.562  17.355 -0.1413  0.1313 -0.3740
 6745SOL    HW131697   1.825   1.643  17.390 -0.8042  0.2115  0.1490
 6745SOL    HW231698   1.849   1.490  17.368 -0.4675  0.1317  1.1799
 6746SOL     OW31699   2.104   0.166   1.740 -0.4349  0.3304  0.4064
 6746SOL    HW131700   2.095   0.086   1.688 -1.3471  1.0456 -0.5449
 6746SOL    HW231701   2.187   0.149   1.786 -1.0170 -0.3688  1.1873
 6747SOL     OW31702   0.024   0.984   8.618  0.3689  0.0177  0.0023
 6747SOL    HW131703   0.050   1.034   8.696  2.9457 -5.8660  2.9839
 6747SOL    HW231704   4.681   0.923   8.645 -0.5248  1.0577  0.0917
 6748SOL     OW31705   2.159   2.615   6.820 -0.6693 -0.8115 -0.1025
 6748SOL    HW131706   2.200   2.550   6.762  1.6428  0.7925 -0.2445
 6748SOL    HW231707   2.067   2.612   6.794  0.0912 -0.3067 -2.8921
 6749SOL     OW31708   2.760   0.206  17.442 -0.3986 -1.2350 -0.1670
 6749SOL    HW131709   2.685   0.211  17.500 -1.5146 -1.0835 -1.6224
 6749SOL    HW231710   2.723   0.243  17.362 -1.3775 -1.3430  0.2462
 6750SOL     OW31711   3.061   1.335   3.266 -0.0523  0.1229  0.5036
 6750SOL    HW131712   3.068   1.405   3.331 -0.1664 -2.0542  2.8633
 6750SOL    HW231713   3.010   1.272   3.318  1.7478 -1.3668  0.4757
 6751SOL     OW31714   2.347   2.761   8.470 -0.4540 -0.1831 -0.3815
 6751SOL    HW131715   2.311   2.700   8.534 -1.7926  1.2438  0.2392
 6751SOL    HW231716   2.283   2.760   8.398  0.2319  0.3579 -1.0010
 6752SOL     OW31717   0.013   1.321   6.166  0.3435 -0.9009 -0.1884
 6752SOL    HW131718   0.055   1.402   6.194  0.5236 -1.4362  1.0953
 6752SOL    HW231719   4.656   1.351   6.127  1.2556 -1.3505 -2.5007
 6753SOL     OW31720   2.117   2.330   2.640 -0.2444 -0.8484 -0.2659
 6753SOL    HW131721   2.194   2.303   2.690  1.7058 -1.0942 -3.4483
 6753SOL    HW231722   2.157   2.379   2.569 -1.3263  1.3822  0.6779
 6754SOL     OW31723   4.304   0.112  13.954  0.2638 -0.5528 -0.3499
 6754SOL    HW131724   4.387   0.130  13.910 -0.5621  0.6902 -1.4095
 6754SOL    HW231725   4.328   0.106  14.046 -0.4178 -0.1836 -0.1504
 6755SOL     OW31726   1.208   4.377   8.555  0.2791 -0.4982 -0.0201
 6755SOL    HW131727   1.285   4.430   8.574 -0.1788 -0.0371  0.5189
 6755SOL    HW231728   1.154   4.413   8.624 -0.7452 -2.4465  0.1860
 6756SOL     OW31729   0.600   2.959   7.246  0.3653  0.3409 -0.0026
 6756SOL    HW131730   0.560   2.980   7.162 -0.5890 -2.5441 -0.2726
 6756SOL    HW231731   0.683   2.923   7.213 -0.9520 -0.3891 -2.5237
 6757SOL     OW31732   2.161   0.339  14.122 -0.3726  0.1918 -0.3551
 6757SOL    HW131733   2.188   0.247  14.134 -0.1654  0.2167 -0.6344
 6757SOL    HW231734   2.246   0.369  14.089 -0.9872  1.0195 -1.1800
 6758SOL     OW31735   0.501   1.326   8.286 -0.2392  0.0824 -0.1633
 6758SOL    HW131736   0.562   1.297   8.218 -0.9914 -1.0610 -0.3543
 6758SOL    HW231737   0.554   1.332   8.366 -0.8660  0.2469  0.2359
 6759SOL     OW31738   1.068   3.397   6.169 -0.1380 -0.1370  0.3298
 6759SOL    HW131739   1.159   3.366   6.165 -0.0324  0.3345 -1.1352
 6759SOL    HW231740   1.026   3.357   6.093 -1.2772  1.2299  0.2356
 6760SOL     OW31741   0.379   4.688   4.162 -0.0775  0.8969 -0.1305
 6760SOL    HW131742   0.430   0.041   4.186  0.1161  1.0782 -1.1308
 6760SOL    HW231743   0.433   4.651   4.092 -1.5682 -0.3956 -0.5836
 6761SOL     OW31744   0.357   1.473   8.677 -0.5022  0.3157 -0.1416
 6761SOL    HW131745   0.277   1.469   8.729 -0.0548  0.8821  0.5898
 6761SOL    HW231746   0.335   1.434   8.593 -0.0789 -0.7747  0.2554
 6762SOL     OW31747   0.210   0.124  12.198 -0.0188 -0.2252  0.0258
 6762SOL    HW131748   0.204   0.116  12.293 -2.0877  1.0332  0.0133
 6762SOL    HW231749   0.296   0.164  12.190 -0.1395 -0.0116 -0.2232
 6763SOL     OW31750   4.404   1.124   5.068  0.4794 -1.1492 -0.1415
 6763SOL    HW131751   4.410   1.212   5.106 -0.6242 -0.3799 -1.7292
 6763SOL    HW231752   4.332   1.086   5.118 -0.3679  0.4018 -0.1859
 6764SOL     OW31753   0.056   2.643   7.764 -0.3946  0.0884 -0.2984
 6764SOL    HW131754   0.033   2.735   7.755  0.2253  0.3178  0.5061
 6764SOL    HW231755   4.715   2.599   7.712  1.3155 -2.5457 -0.2464
 6765SOL     OW31756   1.621   0.949  16.654 -0.3250  0.2422  0.0115
 6765SOL    HW131757   1.709   0.938  16.690 -0.1689 -1.4441 -0.8907
 6765SOL    HW231758   1.616   0.886  16.583  0.5430  1.2696 -0.9587
 6766SOL     OW31759   2.265   2.871   1.503 -0.8837 -0.1194  0.5028
 6766SOL    HW131760   2.333   2.858   1.569  0.5600  2.9870 -0.3593
 6766SOL    HW231761   2.301   2.811   1.438 -1.1791  0.8709 -0.5803
 6767SOL     OW31762   0.384   1.951   8.287 -0.0852  0.4465  0.3828
 6767SOL    HW131763   0.391   1.868   8.240 -0.1695  1.0984 -0.8109
 6767SOL    HW231764   0.474   1.938   8.315  0.2141  1.5761 -0.0349
 6768SOL     OW31765   0.814   1.066   2.089 -0.5343 -0.7635  0.1195
 6768SOL    HW131766   0.857   0.988   2.125  2.5478 -0.1258 -2.2184
 6768SOL    HW231767   0.739   1.079   2.148 -2.7413 -0.5072 -2.7427
 6769SOL     OW31768   1.721   0.018   6.187  0.1660  0.6667 -0.3661
 6769SOL    HW131769   1.781   0.010   6.261 -2.3179 -2.3832  1.3492
 6769SOL    HW231770   1.685   4.654   6.184  1.6698  0.0763 -1.3498
 6770SOL     OW31771   4.306   0.120   4.777 -0.1929 -0.0060 -0.4661
 6770SOL    HW131772   4.337   0.044   4.728  0.3842 -0.1243  0.0958
 6770SOL    HW231773   4.340   0.103   4.865 -3.3784  1.7342  1.1016
 6771SOL     OW31774   1.854   2.413  10.578  0.4785 -0.0763 -0.2324
 6771SOL    HW131775   1.868   2.423  10.484 -1.6568 -0.8534 -0.6398
 6771SOL    HW231776   1.878   2.500  10.610  1.9854  0.2140 -2.1749
 6772SOL     OW31777   0.183   3.125   7.955  0.0490  0.2469  0.5366
 6772SOL    HW131778   0.182   3.205   7.902 -0.0761  0.7485  1.2943
 6772SOL    HW231779   0.193   3.161   8.043 -3.7238  1.1674  0.5761
 6773SOL     OW31780   1.195   4.497   4.875 -0.2459 -0.3508  0.2032
 6773SOL    HW131781   1.288   4.481   4.889  0.3731  1.6341 -1.7112
 6773SOL    HW231782   1.158   4.419   4.916  0.1267  0.3734  1.8937
 6774SOL     OW31783   3.360   2.837   5.538 -0.1286  0.4814 -0.2635
 6774SOL    HW131784   3.424   2.893   5.582  0.0442 -0.7761  1.0734
 6774SOL    HW231785   3.373   2.866   5.447 -2.6674 -0.0578 -0.7848
 6775SOL     OW31786   3.289   3.549   8.682  0.5545  0.1567  0.9949
 6775SOL    HW131787   3.257   3.463   8.710 -0.9218 -0.2281 -1.8852
 6775SOL    HW231788   3.234   3.611   8.728  0.5459  2.4993 -2.1859
 6776SOL     OW31789   4.639   0.492   4.033  0.1583  0.1179 -0.4880
 6776SOL    HW131790   4.614   0.421   3.974  2.5172 -2.8260  2.0495
 6776SOL    HW231791   4.624   0.573   3.984  1.5948  1.0454  0.5879
 6777SOL     OW31792   1.188   2.648  11.858 -0.4061 -0.8451  0.1034
 6777SOL    HW131793   1.098   2.617  11.873 -0.8604  0.9575  1.0740
 6777SOL    HW231794   1.190   2.734  11.899  0.8085 -1.0894  0.5563
 6778SOL     OW31795   1.616   1.341   4.727  0.4675  0.3986  0.1866
 6778SOL    HW131796   1.569   1.368   4.806 -0.7854 -2.5469  0.4376
 6778SOL    HW231797   1.555   1.291   4.674  0.2760 -0.3120  1.0858
 6779SOL     OW31798   0.684   0.310   6.742  0.1945  0.1192 -0.1358
 6779SOL    HW131799   0.672   0.342   6.652  0.4486 -1.9878 -0.9213
 6779SOL    HW231800   0.745   0.238   6.728  0.4497 -0.0633  1.9000
 6780SOL     OW31801   3.128   0.324   7.200  0.0156  0.1000 -0.0296
 6780SOL    HW131802   3.194   0.256   7.190 -0.3134 -0.4972  1.9136
 6780SOL    HW231803   3.088   0.317   7.113  0.9667 -2.1828 -0.2737
 6781SOL     OW31804   2.273   4.264   7.397 -0.3066 -0.0002 -0.4461
 6781SOL    HW131805   2.200   4.242   7.455 -1.0822  1.2744 -0.9612
 6781SOL    HW231806   2.326   4.184   7.411  1.1865  1.1205  0.3660
 6782SOL     OW31807   0.969   1.787   4.030  0.4392  0.2948  0.4137
 6782SOL    HW131808   0.990   1.866   4.079  2.0657  0.1901 -0.1124
 6782SOL    HW231809   0.929   1.814   3.947  0.8858  0.2321  0.1794
 6783SOL     OW31810   4.666   3.520   7.718 -0.3119 -0.2216 -0.5574
 6783SOL    HW131811   4.654   3.514   7.623  0.4972  0.5064 -0.6935
 6783SOL    HW231812   4.686   3.613   7.727  1.8825 -1.0319  2.8203
 6784SOL     OW31813   2.035   0.564   3.872  0.7631  0.0006 -0.4584
 6784SOL    HW131814   1.978   0.640   3.872  0.4690 -0.2150  0.1073
 6784SOL    HW231815   2.099   0.581   3.803  0.2040  0.0332 -0.9663
 6785SOL     OW31816   2.454   0.494   6.705 -0.2334 -0.2127 -0.2568
 6785SOL    HW131817   2.468   0.524   6.616  1.3450 -0.5699 -0.1249
 6785SOL    HW231818   2.539   0.517   6.741  0.3674 -2.2546 -0.3873
 6786SOL     OW31819   3.752   1.744  16.566  0.1445 -0.4071  0.0184
 6786SOL    HW131820   3.747   1.797  16.487 -1.8303 -0.4140  0.1393
 6786SOL    HW231821   3.789   1.664  16.529  1.9965  0.3373  0.2895
 6787SOL     OW31822   1.239   0.477   5.959 -0.5816  0.3108 -0.7412
 6787SOL    HW131823   1.308   0.413   5.942 -0.3887  0.2912  0.1180
 6787SOL    HW231824   1.277   0.507   6.042  1.9017 -0.2153 -1.6804
 6788SOL     OW31825   1.813   0.993   8.371  0.3306  0.4041 -0.3212
 6788SOL    HW131826   1.770   0.939   8.437  0.3278 -1.2021 -1.6414
 6788SOL    HW231827   1.905   0.969   8.387  0.4748  0.1930 -1.4378
 6789SOL     OW31828   2.295   1.372  13.523 -0.0878  0.8962 -0.3161
 6789SOL    HW131829   2.344   1.292  13.537 -0.6387  0.1575 -2.6260
 6789SOL    HW231830   2.273   1.368  13.429  0.6643  0.8461 -0.4863
 6790SOL     OW31831   3.659   3.046   7.107  0.0029  0.1663 -0.0955
 6790SOL    HW131832   3.615   3.121   7.068 -2.1350 -1.2339 -0.3934
 6790SOL    HW231833   3.715   3.092   7.170  2.5127 -0.9631 -1.4739
 6791SOL     OW31834   4.700   1.400   7.605  0.3758 -0.1785  0.2326
 6791SOL    HW131835   4.681   1.485   7.565 -0.1780  0.1570  1.2105
 6791SOL    HW231836   4.630   1.389   7.669  0.6763  0.4347  0.6669
 6792SOL     OW31837   4.584   2.881   5.113  0.3604 -0.0217  0.6736
 6792SOL    HW131838   4.608   2.878   5.021  1.4197  5.0827  0.7814
 6792SOL    HW231839   4.668   2.881   5.159  1.1615 -1.7540 -0.8282
 6793SOL     OW31840   0.001   3.361   3.116  0.2375 -0.4143  0.5237
 6793SOL    HW131841   4.638   3.388   3.142  0.4006  1.2396 -0.7029
 6793SOL    HW231842   0.004   3.372   3.021  0.8678 -0.4145  0.5483
 6794SOL     OW31843   4.285   1.700   6.802  0.1709  0.2196  0.1726
 6794SOL    HW131844   4.304   1.705   6.895 -2.4486 -0.3812  0.7526
 6794SOL    HW231845   4.242   1.616   6.783 -3.9182  2.2713  0.2145
 6795SOL     OW31846   3.348   0.298   2.635  0.1501  0.7915 -0.1894
 6795SOL    HW131847   3.348   0.276   2.729  0.6076 -1.4587 -0.7193
 6795SOL    HW231848   3.382   0.387   2.629  2.6680 -0.1144  0.4185
 6796SOL     OW31849   3.192   4.442   6.316  0.2392  0.0512  0.2906
 6796SOL    HW131850   3.160   4.524   6.278 -0.4746 -0.5050 -0.2855
 6796SOL    HW231851   3.203   4.390   6.237  2.0768 -0.2319  0.7397
 6797SOL     OW31852   2.819   1.856   6.436  0.0870  0.4639 -0.0457
 6797SOL    HW131853   2.788   1.913   6.506 -0.6597  0.4456 -0.3655
 6797SOL    HW231854   2.832   1.773   6.483  1.2133  0.2765 -0.6708
 6798SOL     OW31855   4.084   1.461   1.907  0.5571  0.4138 -0.0038
 6798SOL    HW131856   4.091   1.554   1.927  1.0090  0.5692 -0.8760
 6798SOL    HW231857   3.992   1.447   1.883  0.6678 -1.0256  0.4181
 6799SOL     OW31858   0.090   3.554   6.428  0.1533 -0.1813 -0.1683
 6799SOL    HW131859   0.154   3.577   6.496  0.7501 -0.5451 -0.5988
 6799SOL    HW231860   0.051   3.473   6.462  0.9328 -1.3037 -1.9645
 6800SOL     OW31861   2.281   4.221   5.771 -0.4840 -0.2639  0.0922
 6800SOL    HW131862   2.343   4.293   5.777  0.1947 -0.7158 -1.2822
 6800SOL    HW231863   2.294   4.158   5.842  0.1131  0.3792  0.5373
 6801SOL     OW31864   0.466   1.361   6.786 -0.3388  0.1881  1.0312
 6801SOL    HW131865   0.408   1.437   6.790 -0.3307  0.1691  1.5001
 6801SOL    HW231866   0.404   1.298   6.749  0.0874 -0.3304  1.1833
 6802SOL     OW31867   4.102   3.618   7.099  0.0719 -0.0338  0.1541
 6802SOL    HW131868   4.132   3.532   7.070  1.1516  0.6132 -0.6421
 6802SOL    HW231869   4.067   3.607   7.188 -0.1594  1.3879  0.2303
 6803SOL     OW31870   3.668   3.507   4.288 -0.0420 -0.3355 -0.2593
 6803SOL    HW131871   3.654   3.428   4.341 -0.3841 -1.5570 -2.1790
 6803SOL    HW231872   3.651   3.483   4.197  1.6377 -1.6149 -0.2448
 6804SOL     OW31873   1.634   0.000   1.750  0.4476 -0.3335  0.3540
 6804SOL    HW131874   1.589   4.693   1.828 -2.6363 -2.0352 -2.1299
 6804SOL    HW231875   1.563   0.000   1.686 -1.1784  1.2090  2.1318
 6805SOL     OW31876   4.332   2.944   2.771  0.0398  0.2224  0.1338
 6805SOL    HW131877   4.285   2.865   2.798 -0.9844 -0.2323 -3.0102
 6805SOL    HW231878   4.266   2.978   2.709  0.1684 -2.5081 -1.4732
 6806SOL     OW31879   3.148   2.650   9.585  0.8812  0.3447  0.2817
 6806SOL    HW131880   3.224   2.625   9.638  0.8107  0.5737  0.4927
 6806SOL    HW231881   3.110   2.720   9.639  0.3503 -0.0151  0.3751
 6807SOL     OW31882   1.745   2.586  12.736  0.2513  0.1729  0.3241
 6807SOL    HW131883   1.789   2.622  12.813  2.7735 -0.8812 -0.6371
 6807SOL    HW231884   1.707   2.514  12.786  0.3612  0.3604  0.6711
 6808SOL     OW31885   3.546   1.206   5.522  0.0439 -0.2905  0.8981
 6808SOL    HW131886   3.596   1.235   5.446  2.4314  1.5667  3.1871
 6808SOL    HW231887   3.465   1.256   5.509  1.1864  1.9343  2.5233
 6809SOL     OW31888   2.308   1.530   4.909 -0.1076  0.5883 -0.5745
 6809SOL    HW131889   2.329   1.622   4.891 -1.3162  1.3626  1.9349
 6809SOL    HW231890   2.357   1.485   4.840  1.8985 -0.7273  1.7358
 6810SOL     OW31891   3.527   4.415  11.306 -0.7755  0.2087  0.3917
 6810SOL    HW131892   3.498   4.412  11.214 -0.1962  2.8662  0.1133
 6810SOL    HW231893   3.502   4.325  11.325 -0.6719 -0.0165 -0.5220
 6811SOL     OW31894   0.635   0.267   8.448 -0.0048  0.8968 -0.3072
 6811SOL    HW131895   0.665   0.318   8.373 -1.1966 -0.2041 -1.5076
 6811SOL    HW231896   0.548   0.303   8.467 -0.5604 -0.1151 -0.9969
 6812SOL     OW31897   3.803   3.612  11.198  0.6828  0.1925  0.1369
 6812SOL    HW131898   3.833   3.645  11.114 -0.9994  1.0162 -0.1249
 6812SOL    HW231899   3.826   3.522  11.174 -1.3213  0.2245 -1.9365
 6813SOL     OW31900   4.377   1.996   8.600 -0.1643 -0.5019  0.4202
 6813SOL    HW131901   4.374   2.031   8.511  0.7245  1.9076  1.3480
 6813SOL    HW231902   4.368   1.901   8.587 -2.2391 -0.4217  1.4238
 6814SOL     OW31903   2.422   2.091   4.826 -0.1304 -0.4969 -0.0170
 6814SOL    HW131904   2.353   2.084   4.891 -1.3727  0.3077 -1.2573
 6814SOL    HW231905   2.440   2.185   4.823  0.1785 -0.5503  0.1272
 6815SOL     OW31906   3.961   3.172   3.364 -0.5221 -0.3724  0.2127
 6815SOL    HW131907   3.934   3.243   3.306 -1.5542 -2.5496 -2.0202
 6815SOL    HW231908   3.885   3.113   3.362  1.5686 -2.9164 -4.1024
 6816SOL     OW31909   3.222   2.956  11.119 -0.2570 -0.2231  0.3824
 6816SOL    HW131910   3.151   2.992  11.066  1.5200 -0.5875 -2.2065
 6816SOL    HW231911   3.193   2.865  11.127 -0.0061 -0.2576  0.9184
 6817SOL     OW31912   2.337   4.137   2.992 -0.4214 -0.0725  0.1508
 6817SOL    HW131913   2.418   4.094   2.966 -1.2873 -0.5411 -1.7988
 6817SOL    HW231914   2.295   4.165   2.910  1.3377  0.6284 -0.5227
 6818SOL     OW31915   0.634   3.427  12.982  0.1683  0.0091  0.1255
 6818SOL    HW131916   0.639   3.501  12.922  1.3287 -0.6055 -0.5467
 6818SOL    HW231917   0.708   3.374  12.951 -0.5257 -1.2086  0.5786
 6819SOL     OW31918   3.568   4.580   6.778 -0.5159 -0.1387 -0.7417
 6819SOL    HW131919   3.491   4.611   6.827  0.0676  2.8271 -1.6844
 6819SOL    HW231920   3.591   4.496   6.817  0.7717  1.3809  1.8047
 6820SOL     OW31921   3.463   0.063   7.517  0.3524 -0.4063 -0.1331
 6820SOL    HW131922   3.414   0.031   7.441  0.1527 -1.4053  0.4180
 6820SOL    HW231923   3.398   0.129   7.543  0.7260  0.7885 -2.1625
 6821SOL     OW31924   1.751   1.152   6.936  0.2704 -0.3434 -0.1947
 6821SOL    HW131925   1.733   1.065   6.900 -0.0292 -0.7657  0.9925
 6821SOL    HW231926   1.844   1.149   6.914 -0.0973  0.6175 -1.9756
 6822SOL     OW31927   1.178   0.126   3.469 -0.3706 -0.5040 -0.1008
 6822SOL    HW131928   1.206   0.101   3.557  1.2327 -0.8735 -0.7105
 6822SOL    HW231929   1.210   0.216   3.456  2.3849 -1.5289 -0.3500
 6823SOL     OW31930   0.546   0.203   4.186  0.1483  0.3240 -0.2245
 6823SOL    HW131931   0.637   0.217   4.215  0.1566  0.7175 -0.4467
 6823SOL    HW231932   0.511   0.291   4.196  0.1260  0.3863 -0.8772
 6824SOL     OW31933   3.842   4.535   8.009  0.6285  0.0395  0.6481
 6824SOL    HW131934   3.911   4.586   8.051  1.5699  0.8497 -1.9181
 6824SOL    HW231935   3.886   4.496   7.934  1.3655  1.0094  0.5847
 6825SOL     OW31936   2.433   2.022   4.101 -0.0318 -0.2427 -1.5816
 6825SOL    HW131937   2.497   2.029   4.031  0.5204  1.9102 -0.8535
 6825SOL    HW231938   2.386   1.949   4.061 -1.2016 -1.2626  1.6517
 6826SOL     OW31939   3.010   2.460   2.169 -1.0228  0.1342 -0.1146
 6826SOL    HW131940   3.076   2.391   2.165 -0.3715  0.7264  0.4787
 6826SOL    HW231941   3.057   2.531   2.125  0.4914 -1.1587 -0.5641
 6827SOL     OW31942   1.732   1.773   4.785  0.5488 -0.2924  0.0002
 6827SOL    HW131943   1.745   1.710   4.713  0.9573 -0.1729 -0.0272
 6827SOL    HW231944   1.800   1.747   4.846  2.2896  0.8637 -1.4357
 6828SOL     OW31945   1.036   1.854   0.435  0.2223 -0.2983 -0.0877
 6828SOL    HW131946   1.104   1.908   0.475  0.3960 -1.9003  1.7302
 6828SOL    HW231947   1.082   1.802   0.370  2.1621  0.6124  0.5737
 6829SOL     OW31948   1.956   3.333   9.792  0.2678  0.0801 -0.1860
 6829SOL    HW131949   1.918   3.395   9.854 -0.2181 -0.1161 -0.2882
 6829SOL    HW231950   1.897   3.328   9.716  1.3835  0.7878 -1.1050
 6830SOL     OW31951   1.321   4.250   5.119 -0.2209  0.4608 -0.1342
 6830SOL    HW131952   1.247   4.249   5.058 -0.4420  1.9243  0.1273
 6830SOL    HW231953   1.309   4.159   5.147  2.1461 -0.4397 -2.0306
 6831SOL     OW31954   2.577   3.256  12.271  0.2045 -0.3442 -0.4758
 6831SOL    HW131955   2.660   3.296  12.297 -0.0353  0.2219 -0.5640
 6831SOL    HW231956   2.518   3.330  12.255  1.4218  1.3124  2.6765
 6832SOL     OW31957   0.466   1.524  10.399 -0.0769  0.3000  0.1897
 6832SOL    HW131958   0.381   1.485  10.420 -0.6920  1.6923  0.2854
 6832SOL    HW231959   0.453   1.602  10.452  0.7787 -0.0338  0.8905
 6833SOL     OW31960   3.490   4.406   4.579  0.5065  0.2888 -0.1316
 6833SOL    HW131961   3.416   4.446   4.533 -0.8834 -4.3015 -1.9256
 6833SOL    HW231962   3.495   4.447   4.665  0.4178 -1.4859  0.7326
 6834SOL     OW31963   2.743   1.207   1.595 -0.1226 -0.6180 -0.1025
 6834SOL    HW131964   2.833   1.206   1.628 -0.3382  0.7149  0.5212
 6834SOL    HW231965   2.726   1.301   1.593  1.4113 -0.3761 -2.5925
 6835SOL     OW31966   0.525   2.204   4.696  0.6794  0.1534  0.3813
 6835SOL    HW131967   0.479   2.257   4.762 -0.3795  0.1627 -0.3568
 6835SOL    HW231968   0.483   2.218   4.611  1.1070 -0.1776  0.1209
 6836SOL     OW31969   1.339   0.341   3.480 -0.1640 -0.5058 -0.1846
 6836SOL    HW131970   1.423   0.322   3.438 -0.4156 -3.7379  0.7875
 6836SOL    HW231971   1.306   0.410   3.422 -0.6280 -0.9385 -0.4328
 6837SOL     OW31972   0.635   3.371   4.592  0.0594 -0.1497 -0.1378
 6837SOL    HW131973   0.540   3.371   4.605  0.2790 -1.1942  1.5036
 6837SOL    HW231974   0.640   3.338   4.503  1.6292  1.8600 -0.7902
 6838SOL     OW31975   1.712   2.130   2.186 -0.5756 -0.5335 -1.2776
 6838SOL    HW131976   1.747   2.149   2.099 -3.4274  2.4742 -1.7660
 6838SOL    HW231977   1.783   2.091   2.237  0.8534  2.7398 -0.7382
 6839SOL     OW31978   1.694   2.221  11.095  0.1901 -0.4150 -0.5940
 6839SOL    HW131979   1.749   2.240  11.171 -0.8081  0.8284 -0.1812
 6839SOL    HW231980   1.678   2.309  11.062  1.9037 -0.4126 -1.3615
 6840SOL     OW31981   2.232   0.981   0.338 -0.4230  0.1704 -0.5628
 6840SOL    HW131982   2.303   0.985   0.274  0.4002  3.2973  0.5219
 6840SOL    HW231983   2.158   0.987   0.278 -1.2296 -1.2754  0.3033
 6841SOL     OW31984   2.433   0.909  15.874 -0.7223  0.3956  0.1830
 6841SOL    HW131985   2.411   0.842  15.939  4.0571 -0.0540  1.3473
 6841SOL    HW231986   2.475   0.850  15.812  0.0413 -0.0772  1.1550
 6842SOL     OW31987   4.145   3.021  14.011 -0.0207  0.2424 -0.0420
 6842SOL    HW131988   4.234   3.054  14.021 -0.1071  0.6415 -0.5831
 6842SOL    HW231989   4.149   2.965  13.934 -1.5709 -1.7394  1.3216
 6843SOL     OW31990   2.421   4.715   1.543  0.0726  0.5145 -0.0431
 6843SOL    HW131991   2.396   4.622   1.544 -1.1012  0.8256 -0.6187
 6843SOL    HW231992   2.437   0.004   1.449 -0.8484  1.5482 -0.0267
 6844SOL     OW31993   0.031   4.331   4.831 -0.3329  0.0760  0.4004
 6844SOL    HW131994   0.061   4.314   4.742  0.6664  1.9757  0.3682
 6844SOL    HW231995   0.110   4.323   4.885  1.6715  0.9257 -2.4210
 6845SOL     OW31996   2.795   3.652   2.799 -0.5335 -0.4220  0.0767
 6845SOL    HW131997   2.885   3.683   2.788 -1.1984  1.1837 -0.8054
 6845SOL    HW231998   2.749   3.718   2.747  2.1834 -0.1258 -1.9492
 6846SOL     OW31999   2.113   0.828   4.869 -0.2450  0.5633 -0.0354
 6846SOL    HW132000   2.088   0.832   4.777  0.9968  1.0858 -0.3604
 6846SOL    HW232001   2.189   0.886   4.859 -1.0120  1.1487 -2.4212
 6847SOL     OW32002   3.077   1.533   1.076 -0.6338 -0.7948  0.0996
 6847SOL    HW132003   3.089   1.457   1.019  0.6803  0.5728 -1.4714
 6847SOL    HW232004   2.996   1.577   1.051  1.5510  2.0736 -2.0179
 6848SOL     OW32005   1.157   0.615   5.742  0.6141 -0.1471 -0.4031
 6848SOL    HW132006   1.194   0.560   5.811  0.2068 -0.0477 -0.1064
 6848SOL    HW232007   1.237   0.633   5.692  0.4108 -1.9032 -1.3419
 6849SOL     OW32008   4.679   0.751   5.851 -0.0995  0.3994 -0.1263
 6849SOL    HW132009   4.719   0.823   5.803  1.5301  0.0671  0.7446
 6849SOL    HW232010   4.688   0.688   5.780 -0.3909  2.8057 -2.2721
 6850SOL     OW32011   1.933   2.436   8.933  0.2505 -1.4121  0.4140
 6850SOL    HW132012   1.868   2.414   8.999  0.0340 -2.4646 -0.1575
 6850SOL    HW232013   1.984   2.507   8.973 -1.3366  1.1191 -2.1153
 6851SOL     OW32014   4.171   4.393  10.644 -0.1793  0.1438  0.3250
 6851SOL    HW132015   4.215   4.405  10.729  0.2401 -1.9462  0.3940
 6851SOL    HW232016   4.231   4.330  10.606 -0.4220 -1.3352  2.3505
 6852SOL     OW32017   3.958   4.158   3.183  0.0081  0.0187 -1.0029
 6852SOL    HW132018   3.913   4.176   3.265  0.9785  0.2031 -0.5122
 6852SOL    HW232019   3.879   4.137   3.133 -0.7050 -0.5817  0.3690
 6853SOL     OW32020   4.295   4.570   2.747  0.4923 -0.8115 -0.5722
 6853SOL    HW132021   4.353   4.616   2.808  1.2587  0.6981 -2.4537
 6853SOL    HW232022   4.361   4.532   2.690  0.8617 -1.3882  0.2363
 6854SOL     OW32023   4.647   1.291   4.716 -0.4794 -0.4633 -0.6807
 6854SOL    HW132024   4.719   1.236   4.748  0.2645  0.2792 -1.0932
 6854SOL    HW232025   4.619   1.327   4.800 -0.8061 -0.5303 -0.7623
 6855SOL     OW32026   2.605   2.308   2.827 -0.3708 -0.4566  0.7639
 6855SOL    HW132027   2.588   2.300   2.733 -1.4267 -0.0795  0.9183
 6855SOL    HW232028   2.554   2.387   2.846 -1.7424 -1.4314  1.1700
 6856SOL     OW32029   2.897   4.243   3.591 -0.1037  0.0890  0.8987
 6856SOL    HW132030   2.907   4.310   3.659  0.4199  1.4480 -0.5128
 6856SOL    HW232031   2.941   4.169   3.633 -2.3083 -0.0096  3.0544
 6857SOL     OW32032   3.038   1.443   4.207  0.6190  0.6218 -0.1920
 6857SOL    HW132033   2.951   1.403   4.199 -0.8006  3.5935 -0.0861
 6857SOL    HW232034   3.025   1.500   4.131  0.8760  1.5343  0.4462
 6858SOL     OW32035   1.248   2.150  15.663 -0.0511  0.3798 -0.1217
 6858SOL    HW132036   1.220   2.106  15.583 -2.6395 -0.1109  1.0539
 6858SOL    HW232037   1.280   2.077  15.716 -0.0424  0.6282  0.2159
 6859SOL     OW32038   1.350   1.156  11.259  0.0574 -0.1547  0.1814
 6859SOL    HW132039   1.323   1.071  11.292 -0.4386  0.0193  0.2223
 6859SOL    HW232040   1.301   1.212  11.319  0.5128 -0.3936  0.7693
 6860SOL     OW32041   1.790   4.471  12.169 -0.7908 -0.1843 -0.0526
 6860SOL    HW132042   1.777   4.381  12.139 -2.6010 -0.4150  1.4458
 6860SOL    HW232043   1.770   4.519  12.088  1.0160 -2.0422 -1.5860
 6861SOL     OW32044   3.616   3.832   3.345  0.8296  0.3031 -0.2722
 6861SOL    HW132045   3.671   3.905   3.319 -0.1246  0.4867 -1.7749
 6861SOL    HW232046   3.623   3.836   3.440  0.3532 -0.6968 -0.1984
 6862SOL     OW32047   3.256   0.579   7.170  0.0360 -0.1339 -0.6240
 6862SOL    HW132048   3.248   0.536   7.255  0.5894  3.1415  1.0969
 6862SOL    HW232049   3.238   0.509   7.106 -0.6244  0.1311 -0.7265
 6863SOL     OW32050   1.194   0.033   3.189 -0.6704  0.1899  0.2338
 6863SOL    HW132051   1.242   4.675   3.197 -1.0521  0.1978  2.6637
 6863SOL    HW232052   1.172   0.049   3.280 -1.5918 -0.4440  0.1167
 6864SOL     OW32053   0.547   0.134   9.740 -0.0009 -0.5859  0.0664
 6864SOL    HW132054   0.464   0.108   9.699  0.0341 -2.1701  1.0250
 6864SOL    HW232055   0.503   0.187   9.807 -2.1769 -4.3202  1.5475
 6865SOL     OW32056   1.985   3.176   7.109 -0.0847  0.0994 -0.0052
 6865SOL    HW132057   2.043   3.107   7.077  0.0553  0.2768 -0.1286
 6865SOL    HW232058   2.003   3.255   7.058 -1.0506  2.8674  3.9255
 6866SOL     OW32059   3.716   0.272  10.547  0.0427 -0.3273 -0.6386
 6866SOL    HW132060   3.749   0.362  10.547 -1.2949  0.1653 -2.6098
 6866SOL    HW232061   3.790   0.233  10.501  0.1314  1.4414 -1.9792
 6867SOL     OW32062   1.295   3.063   6.125  0.7386  0.5401 -0.1694
 6867SOL    HW132063   1.220   3.017   6.162 -0.2746  1.1247 -1.4727
 6867SOL    HW232064   1.350   2.997   6.083  0.5923 -1.8428  3.4425
 6868SOL     OW32065   4.255   4.091  12.319  0.6167  0.0946  0.7231
 6868SOL    HW132066   4.289   4.016  12.367 -0.1737 -0.4065  0.5025
 6868SOL    HW232067   4.231   4.150  12.391  0.4379  0.8725  0.0263
 6869SOL     OW32068   2.816   0.101   8.932 -0.0591 -0.3031 -0.0361
 6869SOL    HW132069   2.827   0.021   8.983  3.4167 -2.5234 -4.3004
 6869SOL    HW232070   2.845   0.080   8.843  0.3882 -0.6150  0.1856
 6870SOL     OW32071   4.191   3.396  16.525 -0.0221 -0.6410 -0.4750
 6870SOL    HW132072   4.251   3.470  16.537 -0.1947 -0.6572  0.4347
 6870SOL    HW232073   4.125   3.401  16.593 -0.2593  0.1420 -0.7667
 6871SOL     OW32074   4.211   4.466   0.532  0.0449  0.1063 -0.4294
 6871SOL    HW132075   4.271   4.431   0.465 -2.6740 -1.2289 -2.1902
 6871SOL    HW232076   4.196   4.389   0.587 -0.4643  0.9756  0.6345
 6872SOL     OW32077   0.792   0.233  14.856 -0.3990 -0.7942  0.3664
 6872SOL    HW132078   0.805   0.213  14.763 -0.6442 -0.7007  0.3120
 6872SOL    HW232079   0.856   0.299  14.884  0.1926 -1.4393  0.5290
 6873SOL     OW32080   3.160   2.579  14.146 -0.5050  0.4745  0.0970
 6873SOL    HW132081   3.139   2.529  14.067 -1.0259  0.1045  0.4721
 6873SOL    HW232082   3.142   2.671  14.127  0.0695  1.0812  2.4448
 6874SOL     OW32083   1.924   3.886  14.774  0.3538 -0.1263 -0.3080
 6874SOL    HW132084   1.888   3.809  14.730  0.6932  0.4696 -1.6274
 6874SOL    HW232085   2.013   3.854  14.792  0.8006  0.3450 -1.6877
 6875SOL     OW32086   1.140   3.516   0.735 -0.3119  0.7363 -0.4262
 6875SOL    HW132087   1.160   3.569   0.658 -2.0558  0.7107 -0.8962
 6875SOL    HW232088   1.228   3.493   0.768 -0.9205 -0.8778  0.1053
 6876SOL     OW32089   0.350   0.708   5.653 -0.8305 -0.1773  0.0837
 6876SOL    HW132090   0.369   0.616   5.669 -1.3618 -0.3661 -0.3764
 6876SOL    HW232091   0.437   0.745   5.635 -0.1923 -1.4829  0.5238
 6877SOL     OW32092   0.015   4.601   4.773  0.3150  0.5343 -0.6155
 6877SOL    HW132093   4.656   4.620   4.815  1.7602  2.1846  1.5724
 6877SOL    HW232094   0.039   4.519   4.816 -2.3358  0.0613 -0.0146
 6878SOL     OW32095   1.655   4.668  11.210  0.3309  0.1725  0.0889
 6878SOL    HW132096   1.597   4.708  11.275 -0.5525 -2.3560  0.8443
 6878SOL    HW232097   1.666   4.581  11.248 -3.0284 -1.0503 -1.6870
 6879SOL     OW32098   0.446   2.780   4.207  0.1850  0.7481 -0.5682
 6879SOL    HW132099   0.505   2.845   4.169 -1.7331  2.0591 -1.2992
 6879SOL    HW232100   0.507   2.707   4.218 -1.1977 -0.4015 -0.6124
 6880SOL     OW32101   3.367   1.721   3.372  0.0677  0.1367  0.4621
 6880SOL    HW132102   3.458   1.745   3.388  0.0660  0.8654 -0.5890
 6880SOL    HW232103   3.384   1.678   3.288 -0.3289  1.0613 -0.0926
 6881SOL     OW32104   2.476   0.738   0.642 -0.1082  0.0583  0.0287
 6881SOL    HW132105   2.439   0.652   0.661 -0.9502 -0.4414 -3.8994
 6881SOL    HW232106   2.398   0.791   0.659 -0.0995  0.1749 -0.3044
 6882SOL     OW32107   0.756   3.247  17.477 -0.4737 -0.4572  0.4543
 6882SOL    HW132108   0.669   3.259  17.514  0.3920  1.3386  1.8752
 6882SOL    HW232109   0.757   3.151  17.474  0.3297 -0.4669  0.9642
 6883SOL     OW32110   3.570   2.119  13.159  0.4936 -0.4718  0.5981
 6883SOL    HW132111   3.593   2.042  13.212 -0.4785  0.9221  3.0592
 6883SOL    HW232112   3.518   2.164  13.225 -3.4193 -2.3373 -1.2029
 6884SOL     OW32113   1.996   4.368  13.870  0.3029  0.4222  0.0500
 6884SOL    HW132114   1.998   4.384  13.776 -1.9027 -1.9177 -0.4027
 6884SOL    HW232115   1.925   4.303  13.873  0.2259  0.4925 -0.2603
 6885SOL     OW32116   0.593   1.680   8.560  0.1674 -0.2626  0.8516
 6885SOL    HW132117   0.595   1.725   8.645 -2.8374 -1.4667  1.5628
 6885SOL    HW232118   0.585   1.589   8.589 -1.6552 -0.9567 -1.8632
 6886SOL     OW32119   2.661   4.541  13.244 -0.1591 -0.2418  0.0843
 6886SOL    HW132120   2.603   4.617  13.248  1.7600  1.1850  0.1210
 6886SOL    HW232121   2.728   4.578  13.188  1.9555 -1.9290  1.5062
 6887SOL     OW32122   2.770   2.748   9.273 -0.6619 -0.5675 -0.3252
 6887SOL    HW132123   2.729   2.783   9.352  2.0297  0.0057  0.8223
 6887SOL    HW232124   2.840   2.812   9.258 -0.7803 -0.5885 -0.9894
 6888SOL     OW32125   0.843   3.130   7.723  0.7284 -0.3905 -0.4589
 6888SOL    HW132126   0.825   3.194   7.654 -0.9121 -0.3334  0.0108
 6888SOL    HW232127   0.937   3.131   7.738  0.7903 -0.9376 -0.8235
 6889SOL     OW32128   1.699   0.841   0.714  0.2450 -0.3078 -0.1091
 6889SOL    HW132129   1.665   0.877   0.796 -1.7542  0.1815 -1.1584
 6889SOL    HW232130   1.622   0.815   0.664  0.7698  2.8298 -2.5067
 6890SOL     OW32131   4.658   3.200   5.162  0.2100 -0.0601 -0.0613
 6890SOL    HW132132   4.653   3.110   5.132 -1.1985 -0.4122  1.1939
 6890SOL    HW232133   4.569   3.233   5.145  0.2063  0.0134  0.0969
 6891SOL     OW32134   2.036   2.534  12.963 -0.1093  0.0135 -0.3384
 6891SOL    HW132135   1.945   2.564  12.972 -0.9605 -1.6735 -3.0903
 6891SOL    HW232136   2.075   2.589  12.894 -0.9543  1.4569  0.3317
 6892SOL     OW32137   4.327   2.606  12.609 -0.1347 -0.2322  0.4075
 6892SOL    HW132138   4.408   2.605  12.660 -0.0401 -0.3371  0.2572
 6892SOL    HW232139   4.315   2.700  12.595 -0.1511 -0.1922  0.6963
 6893SOL     OW32140   0.113   2.383   2.673 -0.3718  0.4595 -0.3951
 6893SOL    HW132141   0.180   2.428   2.725 -0.8096  0.0336  0.5303
 6893SOL    HW232142   0.162   2.326   2.614 -2.2585 -1.0798 -0.4791
 6894SOL     OW32143   2.478   3.486   8.856 -0.0293  0.0048 -0.2630
 6894SOL    HW132144   2.411   3.547   8.825  0.7702  0.5109 -1.0241
 6894SOL    HW232145   2.489   3.447   8.769 -1.4554 -1.9925  0.4560
 6895SOL     OW32146   1.477   0.171  15.394 -0.9905 -0.2933  0.3690
 6895SOL    HW132147   1.440   0.093  15.436  0.8437 -0.2059  2.1078
 6895SOL    HW232148   1.444   0.160  15.304  1.3500  0.5437 -0.5846
 6896SOL     OW32149   4.569   2.425   2.431 -0.3662 -0.5827 -0.6387
 6896SOL    HW132150   4.605   2.344   2.468 -0.5107  0.0724  0.9118
 6896SOL    HW232151   4.604   2.428   2.342  0.5267  1.3526 -0.2233
 6897SOL     OW32152   2.240   0.048   2.356 -0.0261 -0.1844 -0.3206
 6897SOL    HW132153   2.165   0.018   2.409 -0.3337 -0.7315 -1.0688
 6897SOL    HW232154   2.196   0.088   2.282  1.1762  1.8153  0.0524
 6898SOL     OW32155   1.814   3.910   1.318  0.3380 -0.4121 -0.0328
 6898SOL    HW132156   1.889   3.852   1.309  0.7226  0.1332 -0.3448
 6898SOL    HW232157   1.815   3.934   1.411  0.9649 -0.9784  0.0979
 6899SOL     OW32158   1.960   2.587   9.357 -0.2664  0.5001 -0.3598
 6899SOL    HW132159   2.036   2.529   9.365 -0.1966  0.7893  1.0784
 6899SOL    HW232160   1.890   2.524   9.374  0.6408 -0.6984 -1.0348
 6900SOL     OW32161   1.262   2.674   8.504  0.1186 -0.1817 -0.1093
 6900SOL    HW132162   1.338   2.679   8.561 -0.7698 -0.2642  1.0912
 6900SOL    HW232163   1.277   2.589   8.464 -0.2140 -0.5542  0.5550
 6901SOL     OW32164   0.527   4.724   7.961  0.1355 -0.1422 -0.4983
 6901SOL    HW132165   0.468   0.024   7.890  0.1563 -0.2582 -0.5572
 6901SOL    HW232166   0.601   4.684   7.915 -0.3596 -0.7957 -0.7257
 6902SOL     OW32167   1.004   0.994   8.667 -0.2660  0.8941 -0.7518
 6902SOL    HW132168   0.928   1.010   8.722  0.3162 -2.3226  0.9645
 6902SOL    HW232169   1.015   0.901   8.684 -1.3956  0.8438 -0.3132
 6903SOL     OW32170   1.537   4.682   3.910 -0.2943 -0.2641 -0.6539
 6903SOL    HW132171   1.507   0.027   3.851 -0.5733 -0.2114 -0.4541
 6903SOL    HW232172   1.452   4.640   3.927 -0.2680 -0.1287 -0.1807
 6904SOL     OW32173   3.813   3.888  11.615 -0.1769 -0.0788 -0.1906
 6904SOL    HW132174   3.839   3.796  11.614  2.3280  0.6319  1.5338
 6904SOL    HW232175   3.871   3.934  11.675 -0.4461 -1.1864  0.8918
 6905SOL     OW32176   1.930   1.840   1.376  0.0567  0.1667  0.2469
 6905SOL    HW132177   1.870   1.767   1.389 -1.4348  1.3853  0.2093
 6905SOL    HW232178   1.932   1.864   1.469  1.0305 -1.2600  0.6074
 6906SOL     OW32179   0.162   2.487   4.681  0.3363 -0.0092  0.5593
 6906SOL    HW132180   0.226   2.441   4.626 -2.4132 -2.6438 -0.3823
 6906SOL    HW232181   0.118   2.416   4.727 -1.0902  0.9546  0.6896
 6907SOL     OW32182   0.333   4.089   4.299 -0.2312 -0.5121 -0.2688
 6907SOL    HW132183   0.400   4.022   4.311 -0.1574 -0.3345  0.3095
 6907SOL    HW232184   0.355   4.152   4.367  1.7673  1.5379 -2.8511
 6908SOL     OW32185   2.316   3.379   8.288 -0.7735  0.3319  0.2481
 6908SOL    HW132186   2.233   3.370   8.240 -0.7244  0.0059  0.2237
 6908SOL    HW232187   2.362   3.410   8.211  0.7180 -1.0960  0.5676
 6909SOL     OW32188   2.252   0.156   3.788 -0.1652  0.2181 -0.3429
 6909SOL    HW132189   2.314   0.083   3.789 -2.8190 -2.0115  0.7467
 6909SOL    HW232190   2.292   0.220   3.729  3.3646 -0.4753  1.2757
 6910SOL     OW32191   4.274   0.690   7.813 -0.7950 -0.3385  0.0699
 6910SOL    HW132192   4.198   0.732   7.773 -1.3218 -1.2301  0.1244
 6910SOL    HW232193   4.338   0.707   7.745  0.1691  0.8355  1.2713
 6911SOL     OW32194   3.678   0.047  13.491 -0.1060 -0.3631  0.3138
 6911SOL    HW132195   3.605   4.718  13.461 -0.2470  0.7694 -1.4048
 6911SOL    HW232196   3.727   4.711  13.546 -1.2248  0.2519  1.9814
 6912SOL     OW32197   2.320   4.651  15.175 -0.3103 -0.4137 -0.4072
 6912SOL    HW132198   2.255   4.631  15.108 -2.3495  2.3233  0.7740
 6912SOL    HW232199   2.401   4.634  15.128  0.5812 -0.1751  1.0516
 6913SOL     OW32200   1.126   3.964   3.917  0.2457 -0.7462 -0.2456
 6913SOL    HW132201   1.073   3.901   3.965 -1.2221  0.5665 -0.1519
 6913SOL    HW232202   1.102   3.955   3.825  2.3502 -0.1600 -0.8671
 6914SOL     OW32203   2.336   0.435   1.938  0.2880  0.7652 -0.1686
 6914SOL    HW132204   2.424   0.416   1.907  0.5513 -1.8569  2.1389
 6914SOL    HW232205   2.295   0.356   1.903  0.0012  0.7512  0.1992
 6915SOL     OW32206   0.397   4.456  15.611  0.2592 -0.0973  0.0838
 6915SOL    HW132207   0.351   4.502  15.541  1.1781  0.3062 -0.2587
 6915SOL    HW232208   0.322   4.429  15.664  0.3284  1.2728  0.9043
 6916SOL     OW32209   2.831   1.980   3.380  0.2086 -0.5222 -0.2865
 6916SOL    HW132210   2.738   1.993   3.399  0.4308 -2.6072  2.2926
 6916SOL    HW232211   2.839   1.899   3.431  1.8487 -0.1519  0.0250
 6917SOL     OW32212   3.422   2.216   4.442 -0.6192  0.1899 -0.1746
 6917SOL    HW132213   3.476   2.294   4.427  0.3223 -0.2565  0.8518
 6917SOL    HW232214   3.366   2.207   4.365 -0.9684  1.8529 -0.1277
 6918SOL     OW32215   0.617   1.802   8.805  0.0156 -0.2972  0.1405
 6918SOL    HW132216   0.553   1.861   8.844  3.1345  3.4521 -0.4158
 6918SOL    HW232217   0.659   1.754   8.876  2.1925  0.4207 -0.6539
 6919SOL     OW32218   1.787   4.616  11.937  0.0455 -0.1244 -0.8849
 6919SOL    HW132219   1.872   4.623  11.894  0.2408  1.6519 -0.2019
 6919SOL    HW232220   1.743   4.564  11.870  0.2286 -1.0800 -0.2577
 6920SOL     OW32221   4.051   0.085  15.197 -0.2437  0.1859 -0.4575
 6920SOL    HW132222   3.965   0.042  15.190  0.6478 -1.6749 -0.0611
 6920SOL    HW232223   4.037   0.169  15.153  0.2446 -0.0380 -1.0420
 6921SOL     OW32224   0.437   0.993   7.539 -0.5347  0.2372  0.3254
 6921SOL    HW132225   0.467   0.926   7.477 -0.7110 -0.1496  0.6561
 6921SOL    HW232226   0.519   1.037   7.560 -1.0059  0.8589  0.8542
 6922SOL     OW32227   1.679   1.968   3.079 -0.3124 -0.0628 -0.1601
 6922SOL    HW132228   1.707   1.917   3.003  0.5109  1.3658 -0.8115
 6922SOL    HW232229   1.621   2.035   3.045 -1.6027 -1.0408  0.0896
 6923SOL     OW32230   1.958   0.384   5.682 -0.1735  0.2069  0.4013
 6923SOL    HW132231   1.891   0.342   5.736 -0.1633  0.8864  0.9544
 6923SOL    HW232232   2.035   0.369   5.737  0.2759 -1.1132 -0.5942
 6924SOL     OW32233   1.429   0.047  11.333  0.0579 -0.3095  0.3070
 6924SOL    HW132234   1.345   0.016  11.299 -0.4588  1.6109 -0.1710
 6924SOL    HW232235   1.387   0.122  11.374 -0.9299 -0.6169 -0.1445
 6925SOL     OW32236   2.577   0.777   8.035 -0.6769 -0.0835  0.0260
 6925SOL    HW132237   2.570   0.872   8.032  0.4451 -0.0200 -0.4385
 6925SOL    HW232238   2.669   0.763   8.014 -1.0859  0.9858 -2.3900
 6926SOL     OW32239   1.016   4.285   7.080  0.8040 -0.4566  0.0339
 6926SOL    HW132240   1.004   4.292   7.174  0.2659  1.0025 -0.1471
 6926SOL    HW232241   1.110   4.300   7.070  0.6151  0.8518  0.2936
 6927SOL     OW32242   1.310   1.739   2.103 -0.0155  0.4384 -0.0620
 6927SOL    HW132243   1.315   1.719   2.010 -2.3885 -1.1384  0.1703
 6927SOL    HW232244   1.234   1.797   2.106 -1.1018 -1.0987  2.1576
 6928SOL     OW32245   2.515   0.011   8.595 -0.1257  0.4302  0.0043
 6928SOL    HW132246   2.522   4.682   8.674 -1.4372  2.2436  1.3622
 6928SOL    HW232247   2.585   4.704   8.537 -0.4552  0.0620 -0.1913
 6929SOL     OW32248   0.369   3.050   3.303  0.0839  0.5228  0.4698
 6929SOL    HW132249   0.380   3.095   3.220  3.3289  0.6841  1.0006
 6929SOL    HW232250   0.279   3.078   3.322  0.2504  0.8670  0.7360
 6930SOL     OW32251   2.377   4.313  17.343 -0.1485 -0.5158  0.6005
 6930SOL    HW132252   2.363   4.352  17.429 -2.0609 -1.0490  0.5280
 6930SOL    HW232253   2.294   4.267  17.344  1.1519 -2.8555  1.4032
 6931SOL     OW32254   2.927   1.892  13.310  0.3463  0.5008 -0.1721
 6931SOL    HW132255   2.948   1.974  13.353  4.2488  0.1313 -1.4292
 6931SOL    HW232256   2.970   1.907  13.226 -1.1236 -1.8389 -1.3644
 6932SOL     OW32257   0.627   2.589   9.573 -0.1620 -0.7457  0.3599
 6932SOL    HW132258   0.721   2.578   9.588 -0.0647 -0.9174 -0.4121
 6932SOL    HW232259   0.636   2.681   9.548  0.4718 -1.7230 -2.9289
 6933SOL     OW32260   0.327   0.895  15.244  0.2415 -0.4269  0.0590
 6933SOL    HW132261   0.312   0.800  15.239 -2.0433  0.0567 -2.8094
 6933SOL    HW232262   0.343   0.902  15.338  0.1745 -2.6910  0.2316
 6934SOL     OW32263   2.752   2.975   8.031  0.2606  0.0241  0.7223
 6934SOL    HW132264   2.747   3.038   7.960  0.6077 -0.4266  0.2955
 6934SOL    HW232265   2.832   3.008   8.073  1.3026 -2.3489  0.6392
 6935SOL     OW32266   1.862   3.280   4.794 -0.2746 -0.3211  0.3162
 6935SOL    HW132267   1.914   3.251   4.869 -1.5217 -1.6358  0.6792
 6935SOL    HW232268   1.930   3.317   4.738 -0.4584  0.4217  0.5817
 6936SOL     OW32269   4.066   0.911  12.975  0.0029  0.3096  0.2113
 6936SOL    HW132270   4.047   0.861  12.896  1.8729 -1.6559  0.9972
 6936SOL    HW232271   3.985   0.914  13.025  0.1979  1.5038  0.4565
 6937SOL     OW32272   2.098   1.550   0.717 -0.0444  0.2379  0.1490
 6937SOL    HW132273   2.144   1.634   0.718  1.3218 -0.5277  0.9731
 6937SOL    HW232274   2.039   1.571   0.790  1.1107  1.1257  0.8408
 6938SOL     OW32275   2.549   0.432   8.848  0.5964 -0.1447  0.5292
 6938SOL    HW132276   2.570   0.409   8.758  0.2857 -0.3612  0.5098
 6938SOL    HW232277   2.515   0.347   8.877  0.8057 -0.2586  0.4433
 6939SOL     OW32278   3.807   3.665  14.295  0.0245  0.0590 -0.3548
 6939SOL    HW132279   3.781   3.743  14.247 -2.1735 -0.0265  0.6623
 6939SOL    HW232280   3.755   3.690  14.372 -1.8081 -2.5608 -0.7314
 6940SOL     OW32281   1.361   0.885  14.406  0.3881 -0.3734  0.4782
 6940SOL    HW132282   1.369   0.926  14.492  0.6750  1.2707 -0.3484
 6940SOL    HW232283   1.267   0.898  14.393  0.1171 -5.2633 -2.4022
 6941SOL     OW32284   3.993   1.407   5.276 -0.0455  0.2255 -0.5880
 6941SOL    HW132285   4.018   1.429   5.186  0.5664  0.3885 -0.3724
 6941SOL    HW232286   4.024   1.317   5.289 -2.4631 -0.9398 -2.8398
 6942SOL     OW32287   4.683   4.169  12.039  0.4058  0.8046 -0.7750
 6942SOL    HW132288   0.007   4.177  11.957 -0.0374  2.1095 -0.9125
 6942SOL    HW232289   4.594   4.185  12.006  0.0899  0.7512  0.0587
 6943SOL     OW32290   3.080   3.062   6.895 -0.0837  0.2996  0.0820
 6943SOL    HW132291   2.992   3.090   6.921 -0.1247  1.7716 -1.6286
 6943SOL    HW232292   3.078   3.070   6.800 -0.3941 -0.2659  0.0359
 6944SOL     OW32293   3.318   0.809   9.290  0.0216  0.5519 -0.1408
 6944SOL    HW132294   3.266   0.748   9.343 -1.7907  0.9999 -1.4012
 6944SOL    HW232295   3.260   0.854   9.229 -0.7708 -0.0768  0.1458
 6945SOL     OW32296   0.170   0.066   4.871  0.0193 -0.7320  0.1315
 6945SOL    HW132297   0.092   0.031   4.829  0.0547  0.3026 -0.8172
 6945SOL    HW232298   0.234   0.005   4.833  0.0012 -0.6629 -0.0087
 6946SOL     OW32299   2.628   4.713   1.026  0.6470 -0.5141 -0.1135
 6946SOL    HW132300   2.697   4.650   1.007  1.1463 -0.6242  2.0991
 6946SOL    HW232301   2.657   0.056   0.965  0.9717 -1.8228 -1.4410
 6947SOL     OW32302   4.397   2.216   2.946  0.5772  0.2688 -0.0635
 6947SOL    HW132303   4.492   2.227   2.939  0.9194 -0.7222  3.0312
 6947SOL    HW232304   4.384   2.143   2.885 -1.4710 -0.4967  1.2988
 6948SOL     OW32305   4.526   3.607   8.155  0.2849  0.2411  0.0468
 6948SOL    HW132306   4.540   3.537   8.219  0.6904  0.2289 -0.0571
 6948SOL    HW232307   4.569   3.569   8.078  2.1905  2.6072 -0.0250
 6949SOL     OW32308   1.679   2.727   9.356 -0.2359 -1.1378 -0.6081
 6949SOL    HW132309   1.735   2.695   9.427 -0.6175 -0.5230 -0.0268
 6949SOL    HW232310   1.734   2.787   9.305 -1.1976  0.9453  0.7839
 6950SOL     OW32311   1.489   4.431  12.247 -0.1992 -0.0584  0.1879
 6950SOL    HW132312   1.508   4.406  12.156  0.1344  0.7549  0.0232
 6950SOL    HW232313   1.455   4.350  12.283  0.1245 -0.8186 -1.2184
 6951SOL     OW32314   0.705   3.286   3.728 -0.0004  0.0908  0.9042
 6951SOL    HW132315   0.647   3.279   3.805  0.5042  3.1022  1.5451
 6951SOL    HW232316   0.788   3.249   3.758  0.8117  0.7378 -0.5402
 6952SOL     OW32317   1.159   2.742   1.210 -0.4687  0.0266 -0.1306
 6952SOL    HW132318   1.084   2.702   1.166 -1.2960 -0.6301  1.9016
 6952SOL    HW232319   1.193   2.799   1.140 -0.3674 -2.2339 -1.9217
 6953SOL     OW32320   1.297   2.649   9.575 -0.6905  0.6068 -0.4253
 6953SOL    HW132321   1.228   2.683   9.518  0.9547  1.5813 -1.8536
 6953SOL    HW232322   1.314   2.732   9.620 -2.2522  0.2891  0.7510
 6954SOL     OW32323   1.335   0.492  14.366 -0.2492  0.6967 -0.2895
 6954SOL    HW132324   1.286   0.436  14.305  2.7245 -1.8778 -0.2774
 6954SOL    HW232325   1.332   0.435  14.442  0.2002 -1.0545 -1.5884
 6955SOL     OW32326   2.415   3.633   3.678 -0.0114 -0.0798 -0.2554
 6955SOL    HW132327   2.395   3.726   3.666  0.8854  0.0637 -0.5904
 6955SOL    HW232328   2.436   3.611   3.588 -1.0085 -1.5242 -0.1314
 6956SOL     OW32329   0.170   0.673   6.891 -0.4265  0.6750 -0.3628
 6956SOL    HW132330   0.098   0.707   6.838 -0.7952 -0.9413 -0.8951
 6956SOL    HW232331   0.169   0.725   6.971 -2.0217  2.1533 -1.3464
 6957SOL     OW32332   3.899   2.804   8.128 -0.2874  0.1125 -0.4152
 6957SOL    HW132333   3.813   2.826   8.092 -0.6541 -0.5741  0.0459
 6957SOL    HW232334   3.915   2.868   8.198  0.0361 -0.0167 -0.3709
 6958SOL     OW32335   0.186   1.034   5.466  0.2278  0.9050 -0.2166
 6958SOL    HW132336   0.198   0.956   5.412 -0.3295  0.0212  0.9611
 6958SOL    HW232337   0.271   1.041   5.509 -0.0375  1.4154  0.2198
 6959SOL     OW32338   1.371   3.917   3.091 -0.1268 -0.0706  0.5438
 6959SOL    HW132339   1.354   3.837   3.041 -1.9777 -0.9260  2.5457
 6959SOL    HW232340   1.367   3.895   3.184  0.5411 -2.6750 -0.0612
 6960SOL     OW32341   0.522   4.417   8.630  0.4472 -0.1918 -0.5277
 6960SOL    HW132342   0.468   4.474   8.685 -1.4306 -1.4168 -1.1421
 6960SOL    HW232343   0.472   4.421   8.549  4.3956 -1.3101 -3.0440
 6961SOL     OW32344   1.825   2.147   0.945 -0.2900 -0.3267  0.0428
 6961SOL    HW132345   1.790   2.128   0.858  0.0660 -0.3140 -0.1027
 6961SOL    HW232346   1.743   2.167   0.990 -0.9298 -1.1024 -0.7855
 6962SOL     OW32347   2.094   4.075   4.081 -0.3928 -0.0899  0.4821
 6962SOL    HW132348   2.131   4.079   4.169  1.6724  0.9205 -0.4228
 6962SOL    HW232349   2.073   4.168   4.069 -0.0464  0.1596  1.8613
 6963SOL     OW32350   4.562   3.086   3.345  0.0801  0.3058  0.1832
 6963SOL    HW132351   4.656   3.072   3.332 -0.0524 -1.4837  1.1137
 6963SOL    HW232352   4.549   3.088   3.439 -1.3989  2.4630 -0.0820
 6964SOL     OW32353   0.122   1.087  15.223  0.1515 -0.2596  0.1241
 6964SOL    HW132354   0.194   1.026  15.210 -0.9437 -1.5883  0.3164
 6964SOL    HW232355   0.089   1.058  15.308  2.0286 -0.0526  0.9320
 6965SOL     OW32356   0.907   3.663  16.216  0.1005  0.4287  0.1811
 6965SOL    HW132357   0.964   3.701  16.283  0.9109 -1.3503  0.4982
 6965SOL    HW232358   0.888   3.574  16.244  1.5137 -0.0779 -0.4857
 6966SOL     OW32359   3.607   2.473  12.650  0.6713  0.2286 -0.3456
 6966SOL    HW132360   3.700   2.460  12.633  1.0798  0.2919  1.9544
 6966SOL    HW232361   3.568   2.386  12.664  1.6792 -0.0780  0.4977
 6967SOL     OW32362   3.569   4.013  12.737  0.3666 -0.6498  0.1408
 6967SOL    HW132363   3.643   3.953  12.728 -1.8297 -3.5712  1.5894
 6967SOL    HW232364   3.590   4.047  12.824  3.0177 -0.0264 -0.7400
 6968SOL     OW32365   1.230   2.237   5.471 -0.7201  0.4992 -0.6900
 6968SOL    HW132366   1.145   2.252   5.512  0.4302  1.0050  1.5034
 6968SOL    HW232367   1.289   2.206   5.540  0.6574  4.5929 -0.0664
 6969SOL     OW32368   2.141   1.849   3.655 -0.7011 -0.2292 -0.0101
 6969SOL    HW132369   2.206   1.782   3.675 -1.1607 -1.3155 -2.1825
 6969SOL    HW232370   2.055   1.820   3.686 -1.4980  3.0313  0.8282
 6970SOL     OW32371   2.548   2.326   4.829 -0.1147 -0.8031  0.3645
 6970SOL    HW132372   2.495   2.367   4.898  0.3738  0.6138 -0.1070
 6970SOL    HW232373   2.618   2.390   4.815 -0.7274  0.0576  1.1745
 6971SOL     OW32374   4.154   3.423  12.661 -0.3463 -0.1117 -0.6319
 6971SOL    HW132375   4.176   3.355  12.597  0.1649  0.5155 -1.1176
 6971SOL    HW232376   4.133   3.371  12.739  0.6784  1.6914  0.8185
 6972SOL     OW32377   1.403   0.690   0.072 -0.1639 -0.5435  0.3466
 6972SOL    HW132378   1.371   0.734   0.151 -0.9793  0.3503 -0.4766
 6972SOL    HW232379   1.349   0.613   0.091  0.5620 -1.0514  0.3588
 6973SOL     OW32380   3.775   1.158   7.482 -0.7249 -0.2312  0.1954
 6973SOL    HW132381   3.751   1.250   7.467 -1.1559 -0.1700  1.2810
 6973SOL    HW232382   3.723   1.136   7.559 -1.0271  0.2646  0.1388
 6974SOL     OW32383   1.333   3.486   7.697  0.0882 -0.3841 -0.0507
 6974SOL    HW132384   1.360   3.503   7.787  0.1426 -0.0061 -0.1411
 6974SOL    HW232385   1.237   3.481   7.699  0.1298 -1.4607 -0.6586
 6975SOL     OW32386   2.393   0.658   4.324  0.4500 -0.1776  0.1887
 6975SOL    HW132387   2.411   0.694   4.237  0.3639  1.2365  0.7547
 6975SOL    HW232388   2.460   0.687   4.386 -1.0593  0.5009  1.5140
 6976SOL     OW32389   1.332   0.648   3.206 -0.0573  0.4434  0.5906
 6976SOL    HW132390   1.423   0.641   3.177 -1.0271  0.7299 -2.6313
 6976SOL    HW232391   1.284   0.629   3.125 -1.5280 -0.5524  1.7012
 6977SOL     OW32392   3.049   0.100   5.936  0.6124  0.2323  0.8339
 6977SOL    HW132393   3.048   0.080   5.843  0.9386 -1.5783  1.2287
 6977SOL    HW232394   2.957   0.083   5.954  0.3758  0.1332 -0.4635
 6978SOL     OW32395   0.633   0.597  11.250  0.2719 -0.3405  0.1456
 6978SOL    HW132396   0.685   0.529  11.293 -0.2747 -0.9050 -0.1007
 6978SOL    HW232397   0.703   0.637  11.198 -1.7384  3.5289  0.3693
 6979SOL     OW32398   0.733   3.688   6.341  0.6332  0.3502  0.1753
 6979SOL    HW132399   0.675   3.763   6.359  0.6279  0.1583  0.9246
 6979SOL    HW232400   0.758   3.707   6.250  1.5894 -0.0842  0.3546
 6980SOL     OW32401   3.847   3.891   8.757  0.1726  0.3078 -0.1072
 6980SOL    HW132402   3.932   3.853   8.734 -1.1692 -1.7643 -1.5588
 6980SOL    HW232403   3.864   3.983   8.734  1.2069  0.3499  0.8158
 6981SOL     OW32404   1.009   1.754  10.964 -0.2923  0.3781  0.2480
 6981SOL    HW132405   1.060   1.675  10.945  3.0195  2.2581  1.4485
 6981SOL    HW232406   0.966   1.765  10.879  0.1870 -0.4554 -0.1013
 6982SOL     OW32407   3.202   0.362   8.810 -0.3665  0.1440  0.5825
 6982SOL    HW132408   3.148   0.367   8.730 -1.3362  2.2453  1.3558
 6982SOL    HW232409   3.144   0.331   8.880 -1.1516  1.6188  0.5864
 6983SOL     OW32410   2.124   4.519  14.560  0.9824  0.6406  0.5752
 6983SOL    HW132411   2.042   4.508  14.512  1.5526 -0.4078 -0.1628
 6983SOL    HW232412   2.156   4.429  14.557  0.8642  0.6374 -0.6109
 6984SOL     OW32413   3.872   0.073   4.928 -0.2746  0.3944  0.1725
 6984SOL    HW132414   3.874   4.723   4.869 -4.2500 -0.4998  1.1771
 6984SOL    HW232415   3.901   0.031   5.009  1.0769  1.3155  0.1698
 6985SOL     OW32416   0.836   1.030   1.818  0.0606  0.4918  0.7200
 6985SOL    HW132417   0.925   1.064   1.811  0.0265  0.6364  0.9858
 6985SOL    HW232418   0.820   1.030   1.912 -1.3440  2.5847  0.4693
 6986SOL     OW32419   1.468   3.135   1.752  0.6745  0.2179 -0.3020
 6986SOL    HW132420   1.504   3.102   1.835 -1.3401 -0.1439  0.4196
 6986SOL    HW232421   1.458   3.052   1.706  1.6873 -0.0919  0.0344
 6987SOL     OW32422   4.472   2.565   9.504 -0.1722  0.1537 -0.5015
 6987SOL    HW132423   4.506   2.533   9.588 -0.3454 -1.3666 -1.0140
 6987SOL    HW232424   4.394   2.512   9.494  0.9745 -1.4922 -0.6690
 6988SOL     OW32425   2.804   1.748   2.249  0.2548 -0.0422  0.4371
 6988SOL    HW132426   2.783   1.709   2.164  1.9770 -0.2683  0.1109
 6988SOL    HW232427   2.732   1.710   2.299  1.3797 -0.3540  1.8035
 6989SOL     OW32428   2.973   3.205  15.863 -0.1793  0.2448  0.2528
 6989SOL    HW132429   3.058   3.242  15.884 -0.7603  1.1307  1.0534
 6989SOL    HW232430   2.930   3.279  15.819 -0.4167  0.1382  0.3041
 6990SOL     OW32431   2.479   4.588   8.829 -0.1444 -0.2882 -0.0164
 6990SOL    HW132432   2.402   4.637   8.857 -0.1048  0.4203 -1.1367
 6990SOL    HW232433   2.528   4.573   8.909  2.8008  0.2671 -1.7201
 6991SOL     OW32434   1.084   1.952   4.213  0.3478 -0.2009  0.4296
 6991SOL    HW132435   1.149   2.009   4.173  1.5235 -1.0257  1.1457
 6991SOL    HW232436   1.098   1.968   4.307  2.6534 -0.7230  0.1810
 6992SOL     OW32437   2.052   1.386  16.951  0.4679  0.0906  0.2383
 6992SOL    HW132438   2.052   1.416  17.042 -0.3876 -2.2513  1.0126
 6992SOL    HW232439   1.958   1.382  16.933  0.2138 -1.2773  1.8173
 6993SOL     OW32440   1.123   2.094   0.237  0.4428  0.1221 -0.6906
 6993SOL    HW132441   1.044   2.098   0.290  1.0377 -1.5831  0.3590
 6993SOL    HW232442   1.182   2.140   0.297 -3.9046  2.3502  1.7888
 6994SOL     OW32443   4.339   4.150  14.369 -0.1960 -0.3688 -0.0800
 6994SOL    HW132444   4.426   4.181  14.347 -0.2389 -0.0211  0.2501
 6994SOL    HW232445   4.332   4.072  14.313 -2.8113  1.6325 -2.4753
 6995SOL     OW32446   1.861   2.809   4.256 -0.3677 -1.0822 -0.7497
 6995SOL    HW132447   1.802   2.871   4.300 -1.9539 -1.8726 -1.7626
 6995SOL    HW232448   1.807   2.730   4.263 -3.5491  1.0931 -0.5890
 6996SOL     OW32449   2.346   1.052   0.962  0.1184  0.1811  0.1569
 6996SOL    HW132450   2.344   1.046   1.057  1.3502 -1.9584  0.0463
 6996SOL    HW232451   2.320   1.143   0.947 -0.1474  0.2203  0.8490
 6997SOL     OW32452   2.441   3.623   3.940 -0.2232 -0.7387  0.1034
 6997SOL    HW132453   2.424   3.629   3.846  1.5345 -0.6391 -0.2055
 6997SOL    HW232454   2.502   3.696   3.949  0.8694 -1.7689  1.1595
 6998SOL     OW32455   0.750   1.491   3.270 -0.4135 -0.1522  1.1714
 6998SOL    HW132456   0.703   1.429   3.327 -0.8531 -1.0357 -0.1396
 6998SOL    HW232457   0.819   1.431   3.242 -0.3080 -0.7806  2.7461
 6999SOL     OW32458   3.794   3.133   3.844 -0.0817  0.2448 -0.2687
 6999SOL    HW132459   3.796   3.217   3.797  0.3468  0.7370  0.6230
 6999SOL    HW232460   3.858   3.142   3.915 -1.3735  0.2639  0.9111
 7000SOL     OW32461   1.808   1.260   3.303 -0.2466 -0.0377 -0.0980
 7000SOL    HW132462   1.740   1.193   3.292 -1.1270  0.9513 -0.6981
 7000SOL    HW232463   1.786   1.315   3.228  0.9007  0.7052  0.1276
 7001SOL     OW32464   0.902   1.216  15.063 -0.3289 -0.6504  0.5811
 7001SOL    HW132465   0.935   1.141  15.112  0.5744 -1.2120 -0.9024
 7001SOL    HW232466   0.807   1.209  15.074 -0.6075  1.2271 -0.6502
 7002SOL     OW32467   2.117   0.905   5.125  0.1960 -0.1136 -0.5378
 7002SOL    HW132468   2.101   0.834   5.188 -3.8123 -0.5619 -2.0535
 7002SOL    HW232469   2.131   0.870   5.037  0.2690 -0.2528 -0.4722
 7003SOL     OW32470   0.161   4.568   2.766  0.7412 -0.3006 -0.1239
 7003SOL    HW132471   0.104   4.583   2.691  0.5220  1.8132  0.4618
 7003SOL    HW232472   0.093   4.532   2.822 -0.1314  2.7181  0.7416
 7004SOL     OW32473   4.017   2.609   5.387 -0.9878  0.4657 -0.0994
 7004SOL    HW132474   3.972   2.537   5.431  0.6747 -0.3656  0.2443
 7004SOL    HW232475   3.948   2.645   5.331 -2.6561  0.5623  2.0262
 7005SOL     OW32476   0.897   0.640   7.777  0.3115  0.1173 -0.0274
 7005SOL    HW132477   0.951   0.710   7.813 -0.4086 -0.5763  2.3401
 7005SOL    HW232478   0.832   0.690   7.727  0.0908 -1.6728 -1.5535
 7006SOL     OW32479   3.892   0.410   8.809  0.5183  0.1652  0.4954
 7006SOL    HW132480   3.867   0.374   8.894  1.4477  2.2178  1.6502
 7006SOL    HW232481   3.988   0.400   8.807  0.4989  0.0108  0.3745
 7007SOL     OW32482   2.098   4.011  15.850  0.8047 -0.5982 -0.4821
 7007SOL    HW132483   2.060   4.056  15.925 -1.3395 -1.1584 -1.2412
 7007SOL    HW232484   2.122   3.926  15.888 -1.2535 -0.8706  0.1865
 7008SOL     OW32485   1.753   3.825   8.607 -0.8355 -0.2763 -0.3390
 7008SOL    HW132486   1.704   3.889   8.658  2.2019  1.7045  0.1012
 7008SOL    HW232487   1.787   3.874   8.532  1.0744 -0.2408  0.5620
 7009SOL     OW32488   0.323   3.713   4.332 -0.0602  0.3354 -0.5589
 7009SOL    HW132489   0.390   3.770   4.368  0.4118 -1.3652  1.2726
 7009SOL    HW232490   0.273   3.771   4.273 -0.8952  0.1892 -0.0044
 7010SOL     OW32491   2.365   2.129  14.999  0.2617  0.5347  0.4985
 7010SOL    HW132492   2.400   2.060  15.056 -0.4018 -1.6166 -1.7030
 7010SOL    HW232493   2.310   2.078  14.940  0.8175  0.3316  0.1488
 7011SOL     OW32494   2.105   0.990   1.307 -0.7591  0.2883 -0.1923
 7011SOL    HW132495   2.072   0.943   1.231 -0.2610  0.3941 -0.4716
 7011SOL    HW232496   2.114   0.916   1.368 -0.5373 -0.0775 -0.6738
 7012SOL     OW32497   3.415   2.710  11.980 -0.5238  0.0001  0.2418
 7012SOL    HW132498   3.448   2.799  11.992  1.7382 -0.4547 -2.7048
 7012SOL    HW232499   3.416   2.671  12.068 -2.0443  1.4051  0.9006
 7013SOL     OW32500   3.392   1.930   0.933 -0.5899 -0.1372 -0.3315
 7013SOL    HW132501   3.415   1.996   0.868 -0.6756  0.0557 -0.1685
 7013SOL    HW232502   3.344   1.863   0.884 -2.1973  0.3338  0.5685
 7014SOL     OW32503   2.002   1.318   1.829 -0.4490 -0.4721  0.0770
 7014SOL    HW132504   1.934   1.287   1.769 -1.0837 -2.4818  1.8726
 7014SOL    HW232505   1.962   1.304   1.914  2.0948  2.6036  1.7859
 7015SOL     OW32506   3.159   0.281  13.294 -0.6571 -0.0589  0.4795
 7015SOL    HW132507   3.180   0.311  13.205  2.1326  1.2046  1.5465
 7015SOL    HW232508   3.076   0.325  13.311 -1.8200 -1.7389 -0.8351
 7016SOL     OW32509   0.937   2.249   9.697 -0.2607 -0.4110 -0.1508
 7016SOL    HW132510   0.977   2.328   9.659  0.8824 -0.6455  0.5543
 7016SOL    HW232511   0.844   2.269   9.685 -0.2923 -1.2623 -1.2898
 7017SOL     OW32512   0.510   2.158  12.371 -0.3956 -0.0821 -0.2203
 7017SOL    HW132513   0.456   2.164  12.450  1.8906  2.1193  1.1793
 7017SOL    HW232514   0.564   2.236  12.383 -1.8055  0.7375  0.7031
 7018SOL     OW32515   1.884   1.088  14.423 -0.1104 -0.8811 -0.2843
 7018SOL    HW132516   1.813   1.033  14.389 -0.2027 -0.2028 -1.1963
 7018SOL    HW232517   1.927   1.019  14.474  0.4862  0.2526  0.7350
 7019SOL     OW32518   0.793   4.455   0.925  0.0187 -0.5977 -0.6916
 7019SOL    HW132519   0.749   4.536   0.902  0.1269 -0.0936  0.9006
 7019SOL    HW232520   0.881   4.480   0.898  0.4943 -1.3990  0.1200
 7020SOL     OW32521   2.025   1.353   2.544 -0.2792 -0.5329 -0.1818
 7020SOL    HW132522   2.027   1.443   2.510  2.1157 -1.2866 -2.0966
 7020SOL    HW232523   1.934   1.326   2.533 -0.1268 -1.0544 -0.1621
 7021SOL     OW32524   4.205   2.516   8.169 -0.0959  0.1638 -0.0644
 7021SOL    HW132525   4.176   2.567   8.245 -0.4921 -0.8638  0.4817
 7021SOL    HW232526   4.154   2.437   8.187  0.6809  0.4424  3.3566
 7022SOL     OW32527   2.953   1.286   1.999 -0.2618  0.3014  0.0629
 7022SOL    HW132528   2.970   1.247   1.914  0.8152 -1.3516  1.0386
 7022SOL    HW232529   3.016   1.357   2.014  1.4039 -0.9532 -1.0105
 7023SOL     OW32530   4.022   0.718   4.982  1.3683  0.0051 -0.0430
 7023SOL    HW132531   4.031   0.739   5.075 -2.0438  0.4484  0.1922
 7023SOL    HW232532   3.943   0.664   4.983  1.0806  0.4557  1.1495
 7024SOL     OW32533   3.060   0.288   8.156  0.5304 -0.2197 -0.0979
 7024SOL    HW132534   3.041   0.211   8.210  0.0607 -1.0419 -1.4247
 7024SOL    HW232535   3.131   0.328   8.206  1.0544  1.7100 -2.3996
 7025SOL     OW32536   0.349   3.919  14.047 -0.3726  0.5646  0.0824
 7025SOL    HW132537   0.433   3.896  14.008  0.0356  0.6264  0.9269
 7025SOL    HW232538   0.379   3.997  14.093  1.8221 -0.8207  0.9877
 7026SOL     OW32539   2.364   0.945   3.013  0.0932 -0.0827 -0.2419
 7026SOL    HW132540   2.277   0.911   3.034 -0.8086  2.8864  0.9818
 7026SOL    HW232541   2.416   0.883   3.064  0.9802  1.6582  0.9825
 7027SOL     OW32542   3.339   1.825  16.921 -0.4972 -0.5031  0.0305
 7027SOL    HW132543   3.427   1.841  16.888 -2.0986  1.9960 -3.0553
 7027SOL    HW232544   3.355   1.783  17.006 -0.4820  0.2887  0.4176
 7028SOL     OW32545   0.940   3.292   7.450 -0.2344 -0.2576  0.5418
 7028SOL    HW132546   0.864   3.262   7.400 -0.8368  2.1641 -0.0008
 7028SOL    HW232547   0.936   3.383   7.421  0.4312  0.5338  2.9488
 7029SOL     OW32548   3.342   2.753   5.252 -0.1533  1.1291 -0.2007
 7029SOL    HW132549   3.289   2.714   5.182 -0.8935 -0.7688  1.4025
 7029SOL    HW232550   3.406   2.795   5.194  2.6455 -1.4026  1.0999
 7030SOL     OW32551   4.529   3.675   5.747 -1.0863 -0.0955 -0.1018
 7030SOL    HW132552   4.469   3.683   5.673  0.0188 -1.5168 -1.1275
 7030SOL    HW232553   4.517   3.767   5.774  1.1449 -0.0498  0.7066
 7031SOL     OW32554   1.300   2.753   2.294 -0.9021  0.0816  0.0257
 7031SOL    HW132555   1.347   2.715   2.220 -0.5601 -0.8960  0.7399
 7031SOL    HW232556   1.375   2.773   2.349 -1.2864  0.3308  0.4589
 7032SOL     OW32557   1.187   1.130   6.665 -0.0327  0.1252  0.4547
 7032SOL    HW132558   1.196   1.189   6.740  1.5852 -2.1406  2.0421
 7032SOL    HW232559   1.105   1.085   6.686 -0.3401  1.3077  1.8488
 7033SOL     OW32560   1.757   2.327   9.134 -0.1233  0.3254 -0.1681
 7033SOL    HW132561   1.746   2.239   9.099 -0.5082  0.0978  0.5369
 7033SOL    HW232562   1.751   2.319   9.229  0.7612  3.3239  0.1663
 7034SOL     OW32563   2.443   3.624   2.881  0.2663  0.1954  0.1037
 7034SOL    HW132564   2.533   3.624   2.914  0.3626  1.3381 -0.1517
 7034SOL    HW232565   2.423   3.531   2.889 -1.9380  0.6154 -0.5992
 7035SOL     OW32566   4.437   0.364  14.197 -0.2495  0.0912  0.1942
 7035SOL    HW132567   4.477   0.378  14.283  0.4130 -0.6706  0.0055
 7035SOL    HW232568   4.515   0.318  14.164 -0.6981  0.4065 -1.3147
 7036SOL     OW32569   2.911   2.408   4.596 -0.1101 -0.0011  0.1669
 7036SOL    HW132570   2.981   2.373   4.541  0.7051  0.3004  1.0024
 7036SOL    HW232571   2.910   2.344   4.667  2.3625 -0.4913 -0.2406
 7037SOL     OW32572   4.402   3.783   3.998 -0.0411  0.2193 -0.0676
 7037SOL    HW132573   4.446   3.851   4.048  0.4985  0.0805 -0.3623
 7037SOL    HW232574   4.435   3.798   3.909 -2.2690 -0.8550 -1.0836
 7038SOL     OW32575   0.310   4.251   3.291  0.0562  0.3546 -0.6820
 7038SOL    HW132576   0.259   4.253   3.211  0.4398  1.3043 -0.9005
 7038SOL    HW232577   0.304   4.345   3.308  2.9806  0.3171  0.5776
 7039SOL     OW32578   3.538   3.270  10.474  0.0819  0.0077  0.4200
 7039SOL    HW132579   3.630   3.285  10.493  0.0384  0.7557  0.0389
 7039SOL    HW232580   3.505   3.360  10.475 -0.5147 -0.2143  0.5433
 7040SOL     OW32581   0.550   2.143   9.268  0.0873  0.1371 -0.1777
 7040SOL    HW132582   0.626   2.093   9.297 -1.3220 -1.7360  0.2637
 7040SOL    HW232583   0.562   2.228   9.311  0.2795 -0.7610  1.5331
 7041SOL     OW32584   1.040   1.433   3.703  0.2398  0.6727  0.4606
 7041SOL    HW132585   1.094   1.416   3.626 -1.0646  0.2210 -0.3671
 7041SOL    HW232586   0.988   1.510   3.680 -0.5730  0.2454  0.8613
 7042SOL     OW32587   2.414   4.213  12.552  0.4034  0.0659 -0.1171
 7042SOL    HW132588   2.376   4.283  12.605  0.7842 -1.5579  2.2834
 7042SOL    HW232589   2.464   4.165  12.618 -0.8293  0.1621  0.8796
 7043SOL     OW32590   4.223   2.987   1.674 -0.4524 -0.5160 -0.0212
 7043SOL    HW132591   4.210   3.034   1.591  1.7998  0.2006  0.0326
 7043SOL    HW232592   4.240   2.900   1.638 -1.0762 -0.9991  0.8501
 7044SOL     OW32593   3.608   2.972  17.069  0.2773 -0.0688  0.2113
 7044SOL    HW132594   3.672   2.906  17.042  0.8063 -0.3249  2.1187
 7044SOL    HW232595   3.653   3.041  17.118  1.1678 -0.6043  0.1521
 7045SOL     OW32596   1.633   3.233   3.598 -0.2087 -0.0630 -0.1318
 7045SOL    HW132597   1.728   3.241   3.584 -0.4930 -1.4229 -2.7623
 7045SOL    HW232598   1.622   3.147   3.558  0.6922  0.8379 -2.3157
 7046SOL     OW32599   0.521   0.465  12.024 -0.6152  0.3012  0.0991
 7046SOL    HW132600   0.494   0.462  12.116  1.8822 -1.0495  0.8065
 7046SOL    HW232601   0.518   0.554  11.990  2.8105 -0.0881 -1.2559
 7047SOL     OW32602   1.689   0.572   3.635  0.3003  0.1020  0.0166
 7047SOL    HW132603   1.595   0.582   3.619  0.4522 -1.2213 -1.6175
 7047SOL    HW232604   1.694   0.542   3.726 -0.9105 -1.1803 -0.3472
 7048SOL     OW32605   0.665   0.293  14.195  0.1318  0.2284  0.4054
 7048SOL    HW132606   0.751   0.281  14.156 -1.3798 -0.6524 -2.6766
 7048SOL    HW232607   0.678   0.252  14.281  0.9568 -1.8002 -0.6823
 7049SOL     OW32608   3.011   1.974   7.012 -0.1028  0.1107  0.5520
 7049SOL    HW132609   3.027   2.017   6.927  1.1373 -2.6813 -0.6236
 7049SOL    HW232610   2.916   1.978   7.009 -0.0385  0.8403 -0.8782
 7050SOL     OW32611   0.247   1.850   8.506  0.3113  0.0710  0.0036
 7050SOL    HW132612   0.320   1.872   8.564  2.3240 -3.2800 -1.2949
 7050SOL    HW232613   0.256   1.909   8.431  0.5638  0.7488  0.5679
 7051SOL     OW32614   4.289   1.939   6.979  0.1033 -0.6706 -0.1339
 7051SOL    HW132615   4.230   1.888   7.036  0.2847  0.9374  1.4959
 7051SOL    HW232616   4.215   1.981   6.935  1.5950  1.0968 -0.9137
 7052SOL     OW32617   0.635   4.501   8.381 -0.0292 -0.4622  0.3621
 7052SOL    HW132618   0.563   4.545   8.427 -0.2106  0.3574 -0.7298
 7052SOL    HW232619   0.668   4.570   8.323  0.2659 -0.9023  0.0072
 7053SOL     OW32620   0.548   2.030   2.785  0.4147 -0.1635 -0.6205
 7053SOL    HW132621   0.514   2.092   2.849  1.8774 -0.7989  0.7403
 7053SOL    HW232622   0.559   2.093   2.713  4.6454  1.7475  1.7100
 7054SOL     OW32623   4.561   3.457   1.855  0.2073  0.4658  0.5941
 7054SOL    HW132624   4.497   3.468   1.785 -1.1768 -1.4211  1.5508
 7054SOL    HW232625   4.602   3.543   1.853  0.7618  0.1971  0.0387
 7055SOL     OW32626   4.222   1.549  17.286  0.5317 -0.3440  0.2354
 7055SOL    HW132627   4.249   1.619  17.345 -0.4414 -0.5743  0.9538
 7055SOL    HW232628   4.155   1.595  17.236  1.0792  0.1898 -0.0008
 7056SOL     OW32629   0.827   1.537   9.311 -0.3367 -0.5320  0.1470
 7056SOL    HW132630   0.758   1.503   9.368  1.4019 -0.7889  2.0918
 7056SOL    HW232631   0.814   1.486   9.231  0.5447  0.5354 -0.6673
 7057SOL     OW32632   1.594   4.064   2.636  0.1449 -0.5617  0.2474
 7057SOL    HW132633   1.551   4.139   2.678  1.1642  1.3085 -2.0894
 7057SOL    HW232634   1.600   4.102   2.548 -2.0702  0.8207  0.6680
 7058SOL     OW32635   0.923   0.046   1.047 -0.1139  0.7697  0.8018
 7058SOL    HW132636   0.892   0.097   1.122 -0.6253  0.7701  0.5901
 7058SOL    HW232637   0.926   4.682   1.084  0.8082  0.1178 -0.8435
 7059SOL     OW32638   1.443   2.840  17.270  0.0814 -0.7334 -0.3632
 7059SOL    HW132639   1.445   2.881  17.356  0.7480 -0.3631 -0.5548
 7059SOL    HW232640   1.510   2.772  17.281  2.0765  1.6541  2.2064
 7060SOL     OW32641   0.504   4.650   5.290  0.3336  0.0187 -0.2739
 7060SOL    HW132642   0.480   4.674   5.200  0.7959  0.6026 -0.2390
 7060SOL    HW232643   0.597   4.667   5.276  0.8829 -0.9460  2.1468
 7061SOL     OW32644   2.704   0.761  17.362  0.0429 -0.6285 -0.4975
 7061SOL    HW132645   2.642   0.761  17.290 -0.0877  0.5044 -0.3888
 7061SOL    HW232646   2.781   0.738  17.310 -0.2550  0.4711 -1.4108
 7062SOL     OW32647   0.147   1.120   0.883  0.2691  0.4872 -0.2253
 7062SOL    HW132648   0.167   1.179   0.956  2.0656  0.5628 -0.7836
 7062SOL    HW232649   0.073   1.074   0.922  1.1495 -1.2325 -0.6239
 7063SOL     OW32650   3.910   4.690  16.330 -0.0774 -0.3604 -0.1734
 7063SOL    HW132651   3.873   4.614  16.374 -3.1767  0.1716 -1.8620
 7063SOL    HW232652   3.847   4.718  16.264 -1.4871 -1.5479  0.6729
 7064SOL     OW32653   3.232   3.349  15.086  0.2535  0.0757 -0.1720
 7064SOL    HW132654   3.200   3.265  15.054 -1.4006  1.3847 -1.9379
 7064SOL    HW232655   3.233   3.401  15.005 -1.0141 -2.7517 -2.0010
 7065SOL     OW32656   4.574   3.248   8.218 -0.1483 -0.4528 -0.3348
 7065SOL    HW132657   4.613   3.280   8.136  0.3821  2.2121  0.9433
 7065SOL    HW232658   4.611   3.314   8.277 -0.1969 -0.2403 -0.5390
 7066SOL     OW32659   0.739   3.159  10.481 -0.2536 -0.2738  0.0670
 7066SOL    HW132660   0.820   3.183  10.526  0.0769  1.1960 -1.3055
 7066SOL    HW232661   0.766   3.125  10.396  1.8788 -0.0395  0.6518
 7067SOL     OW32662   1.052   1.137   3.336 -0.0531 -0.0556  0.4058
 7067SOL    HW132663   0.988   1.155   3.267  0.6470  0.1152 -0.2084
 7067SOL    HW232664   1.041   1.042   3.335  0.2201 -0.0759 -1.1657
 7068SOL     OW32665   4.184   3.019   3.372  0.7809 -0.1510 -0.1264
 7068SOL    HW132666   4.094   3.050   3.380  0.6781 -0.5657  0.3076
 7068SOL    HW232667   4.208   3.059   3.288  0.5901 -1.1475 -0.6509
 7069SOL     OW32668   3.706   4.226   6.075  0.9076 -0.1574  0.1916
 7069SOL    HW132669   3.752   4.251   5.995  0.3979  0.9770  0.2575
 7069SOL    HW232670   3.712   4.130   6.071 -0.3478 -0.1280 -2.2976
 7070SOL     OW32671   3.673   0.679   8.941 -0.4372  0.3859  0.0766
 7070SOL    HW132672   3.681   0.679   8.846  0.4167 -3.9997  0.1550
 7070SOL    HW232673   3.582   0.665   8.965 -1.2521  2.1821 -2.0392
 7071SOL     OW32674   3.241   3.031   7.697 -0.1602 -0.1765 -0.4707
 7071SOL    HW132675   3.335   3.015   7.703  0.1338  1.8841  0.1729
 7071SOL    HW232676   3.208   2.952   7.653 -1.0773 -0.7261  1.1966
 7072SOL     OW32677   3.595   2.346  17.419  0.5611  0.4674 -0.1481
 7072SOL    HW132678   3.547   2.391  17.489 -0.5227 -2.4509  0.9771
 7072SOL    HW232679   3.678   2.323  17.462  0.1146 -0.8279  0.0280
 7073SOL     OW32680   1.405   1.102   7.769 -0.1880  0.1039 -0.1117
 7073SOL    HW132681   1.396   1.025   7.713 -1.2755  0.8100 -0.9093
 7073SOL    HW232682   1.399   1.063   7.856  1.4894  0.0267 -0.0349
 7074SOL     OW32683   4.105   3.447   4.247 -0.1198 -0.1184 -0.6852
 7074SOL    HW132684   4.174   3.390   4.211 -0.0503 -1.4189  1.4858
 7074SOL    HW232685   4.104   3.418   4.338  0.0336  0.5599 -0.4681
 7075SOL     OW32686   3.235   2.870  17.409  0.0557  0.2658  0.1979
 7075SOL    HW132687   3.232   2.965  17.418 -2.1783  0.2266 -0.2866
 7075SOL    HW232688   3.245   2.857  17.315  1.1704 -1.1114  0.5103
 7076SOL     OW32689   4.074   1.628   4.714  0.0901 -0.2682  0.1116
 7076SOL    HW132690   4.134   1.556   4.733  0.5427  0.2730  0.7168
 7076SOL    HW232691   3.996   1.580   4.687 -0.3685 -0.4719  1.8162
 7077SOL     OW32692   1.064   3.402   0.963  0.0957 -0.2233 -0.4533
 7077SOL    HW132693   1.113   3.443   0.891  0.7059 -0.0057  0.0956
 7077SOL    HW232694   0.995   3.357   0.914  0.7322 -1.4367 -0.2323
 7078SOL     OW32695   2.955   2.025  16.527 -0.1466 -0.7866 -0.0267
 7078SOL    HW132696   3.028   2.077  16.493  0.3996 -2.3689 -1.2421
 7078SOL    HW232697   2.898   2.038  16.452 -2.0193 -3.0581  1.0129
 7079SOL     OW32698   1.365   1.648   4.141  0.1745 -0.3712  0.3556
 7079SOL    HW132699   1.395   1.718   4.082 -0.4105  0.0841  0.5927
 7079SOL    HW232700   1.365   1.573   4.081  0.0519 -0.2072  0.1465
 7080SOL     OW32701   3.518   0.648   8.313  0.1338  0.6284 -0.3976
 7080SOL    HW132702   3.563   0.704   8.250 -0.3605  1.3358 -0.1163
 7080SOL    HW232703   3.592   0.592   8.337 -0.2098  0.9800  1.4904
 7081SOL     OW32704   0.508   1.109   4.442  0.0121 -0.3698  0.7507
 7081SOL    HW132705   0.555   1.026   4.435 -0.8969 -0.8024 -0.2396
 7081SOL    HW232706   0.512   1.138   4.351  0.4955 -0.2675  0.8066
 7082SOL     OW32707   2.344   1.007   3.516 -0.5140  0.2512  0.2061
 7082SOL    HW132708   2.268   0.955   3.541 -0.1785 -0.1007  0.5017
 7082SOL    HW232709   2.414   0.957   3.559 -2.3611 -1.4505  1.2338
 7083SOL     OW32710   1.606   3.158   7.677  0.4829 -0.3600 -0.2837
 7083SOL    HW132711   1.659   3.215   7.732  0.7024 -1.0796  0.2452
 7083SOL    HW232712   1.613   3.083   7.736 -1.1061 -0.5700 -0.3420
 7084SOL     OW32713   0.078   1.907   5.302 -0.1643 -0.0327 -0.3771
 7084SOL    HW132714   0.039   1.978   5.251  0.6222 -0.8949 -2.1660
 7084SOL    HW232715   0.160   1.886   5.258  1.7405  0.7711  2.7784
 7085SOL     OW32716   0.880   1.740   3.344  0.1696 -0.3244 -0.3388
 7085SOL    HW132717   0.833   1.795   3.281  3.6327 -1.3176 -3.8126
 7085SOL    HW232718   0.831   1.661   3.321  0.7163 -0.9888  0.7845
 7086SOL     OW32719   1.479   0.165   1.429  0.2560  0.7087 -0.3303
 7086SOL    HW132720   1.556   0.161   1.374 -0.3634 -0.6248 -1.1010
 7086SOL    HW232721   1.409   0.130   1.374 -1.0715  1.5526  0.8142
 7087SOL     OW32722   1.070   2.572   6.996  0.6434 -0.6197  0.4776
 7087SOL    HW132723   1.014   2.642   6.963  0.9454  0.0733  1.4391
 7087SOL    HW232724   1.114   2.601   7.076 -1.8482 -0.7677  1.8866
 7088SOL     OW32725   3.220   2.880   4.962 -0.4080  0.5609  0.1158
 7088SOL    HW132726   3.301   2.922   4.936  0.5574 -1.8726 -0.8863
 7088SOL    HW232727   3.166   2.958   4.949  1.2892  1.8865  1.1123
 7089SOL     OW32728   0.077   2.536   3.533 -0.0197 -0.3660 -0.1711
 7089SOL    HW132729   0.019   2.508   3.461 -0.8178  1.1702 -0.1167
 7089SOL    HW232730   0.062   2.630   3.523  0.0389 -0.3566 -0.1662
 7090SOL     OW32731   1.110   4.155   4.098  0.1220 -0.0337  0.3462
 7090SOL    HW132732   1.119   4.085   4.033 -0.7781  1.7289 -1.6653
 7090SOL    HW232733   1.020   4.183   4.085 -0.1603 -1.2648 -0.3370
 7091SOL     OW32734   1.698   0.017   3.130  0.2625  0.1130  0.0434
 7091SOL    HW132735   1.650   0.096   3.105  1.4975  1.2484  1.2256
 7091SOL    HW232736   1.677   4.682   3.059 -0.0091  2.2938 -1.6930
 7092SOL     OW32737   3.311   4.623   6.885 -0.1675  0.1565  0.6956
 7092SOL    HW132738   3.223   4.661   6.888 -0.6151 -0.8874  1.0912
 7092SOL    HW232739   3.290   4.530   6.898 -0.2710  0.0776 -0.0740
 7093SOL     OW32740   3.535   2.669   6.366  0.2366  1.1651 -0.1680
 7093SOL    HW132741   3.609   2.727   6.382 -0.0421  1.6472 -0.6134
 7093SOL    HW232742   3.476   2.728   6.320 -2.0640 -1.2941 -0.3847
 7094SOL     OW32743   4.022   0.683  10.277  0.0131  0.1052 -0.0205
 7094SOL    HW132744   4.024   0.589  10.258  1.9901 -0.1334  1.2892
 7094SOL    HW232745   4.044   0.686  10.370 -0.3268 -0.3164  0.0728
 7095SOL     OW32746   3.992   1.216   4.071  0.5770  0.0212 -0.4576
 7095SOL    HW132747   3.973   1.133   4.116 -3.2783  0.6986 -0.8197
 7095SOL    HW232748   3.929   1.209   3.999 -1.9920 -0.5478  1.8259
 7096SOL     OW32749   3.484   2.982  11.976  0.2486  0.0670  0.7516
 7096SOL    HW132750   3.492   3.003  11.883  0.1677 -2.7502  0.0971
 7096SOL    HW232751   3.445   3.064  12.007  1.8910  1.9849 -2.2329
 7097SOL     OW32752   2.398   4.499   6.149  0.1469  0.1414 -0.3299
 7097SOL    HW132753   2.458   4.424   6.154 -1.9284 -1.4610  0.2172
 7097SOL    HW232754   2.342   4.467   6.219  0.0187 -1.3744 -1.1079
 7098SOL     OW32755   1.743   1.547   5.138 -0.7467 -0.5417 -0.0036
 7098SOL    HW132756   1.776   1.523   5.225  0.5893 -1.2395 -0.7024
 7098SOL    HW232757   1.743   1.464   5.090  1.4999 -1.6832  1.9490
 7099SOL     OW32758   4.428   4.306   6.376 -0.7528 -0.1869 -0.1210
 7099SOL    HW132759   4.517   4.340   6.384 -0.2324 -1.0753 -2.3486
 7099SOL    HW232760   4.442   4.212   6.389 -0.7688 -0.3478 -1.2560
 7100SOL     OW32761   1.986   3.846   7.066 -0.2793 -0.3779 -0.4755
 7100SOL    HW132762   1.910   3.799   7.099  1.8836 -0.9714  3.6967
 7100SOL    HW232763   1.974   3.938   7.088 -1.6474  0.1725 -3.5508
 7101SOL     OW32764   2.957   4.190   5.630 -0.1548  1.0649  0.0833
 7101SOL    HW132765   3.000   4.175   5.545  0.8289  2.7508  0.2756
 7101SOL    HW232766   3.002   4.136   5.694  0.1008 -0.4546 -1.3861
 7102SOL     OW32767   1.761   0.506   5.024  0.3287  0.2757  0.0499
 7102SOL    HW132768   1.808   0.430   5.058  2.3518  1.9405  0.9787
 7102SOL    HW232769   1.791   0.493   4.934  0.5189  1.3563 -0.0451
 7103SOL     OW32770   0.264   3.766   8.101 -0.6978 -0.2217  0.0961
 7103SOL    HW132771   0.337   3.748   8.161  0.0747  1.2098 -0.4278
 7103SOL    HW232772   0.227   3.677   8.103 -0.0903 -0.4581  0.9116
 7104SOL     OW32773   0.726   3.887   6.693 -0.0771  0.5574 -0.0902
 7104SOL    HW132774   0.800   3.870   6.634  0.5927 -0.8677  1.1316
 7104SOL    HW232775   0.718   3.981   6.705 -0.6407  0.3756  0.9499
 7105SOL     OW32776   2.508   0.044  13.235 -0.0006  0.1404 -0.5319
 7105SOL    HW132777   2.518   0.136  13.257 -0.7003  0.0782  0.0724
 7105SOL    HW232778   2.413   0.036  13.246  0.2616  0.5124  1.9168
 7106SOL     OW32779   3.233   3.292   8.761  0.3042 -0.4952  0.1021
 7106SOL    HW132780   3.204   3.241   8.685  1.0066  1.0060 -1.1734
 7106SOL    HW232781   3.278   3.221   8.806  1.2990  0.3069  0.3862
 7107SOL     OW32782   0.885   0.509   8.606  0.1934  0.1631  0.6664
 7107SOL    HW132783   0.845   0.498   8.692 -1.0275 -0.5752  0.0069
 7107SOL    HW232784   0.891   0.418   8.574 -0.4864  0.8357 -1.3823
 7108SOL     OW32785   3.476   4.358   2.155  0.3376  0.2038  0.5891
 7108SOL    HW132786   3.525   4.276   2.154 -0.1125 -0.0788  2.6162
 7108SOL    HW232787   3.395   4.321   2.190  1.3966 -1.2552  1.4937
 7109SOL     OW32788   0.393   0.432  12.474  0.3644 -0.7147 -0.4467
 7109SOL    HW132789   0.372   0.344  12.442 -0.4663 -0.6490 -0.0689
 7109SOL    HW232790   0.441   0.461  12.396  1.9602 -1.5263  0.2267
 7110SOL     OW32791   0.158   3.790   6.658 -0.6374  0.1987  0.8495
 7110SOL    HW132792   0.084   3.783   6.718 -0.3908 -0.1721  1.1116
 7110SOL    HW232793   0.196   3.703   6.665 -1.1609 -0.0395  0.7110
 7111SOL     OW32794   3.187   1.033   3.855 -0.1689 -0.2470 -0.4362
 7111SOL    HW132795   3.222   0.976   3.786  0.0831  0.8365 -1.2004
 7111SOL    HW232796   3.266   1.041   3.907  1.0404 -0.1448 -2.3049
 7112SOL     OW32797   1.321   1.374  17.557  0.2999 -0.2322  0.0421
 7112SOL    HW132798   1.405   1.333  17.575 -0.8158 -1.2463  2.9735
 7112SOL    HW232799   1.306   1.446  17.617  0.1758  1.0590 -1.5439
 7113SOL     OW32800   1.263   3.725   1.830  0.4808 -0.0171 -0.0664
 7113SOL    HW132801   1.236   3.643   1.871 -0.1520  0.3131  0.1778
 7113SOL    HW232802   1.217   3.735   1.747 -0.2115  2.4249  0.6155
 7114SOL     OW32803   2.919   1.621   6.554  0.5468  0.1527 -0.1435
 7114SOL    HW132804   2.897   1.542   6.505  2.1484  0.5566 -1.5199
 7114SOL    HW232805   3.012   1.633   6.534  0.5182  2.7244  1.1619
 7115SOL     OW32806   4.320   0.442  11.426  0.6934  0.0854  0.0086
 7115SOL    HW132807   4.249   0.503  11.408  0.7364  0.1850  0.1811
 7115SOL    HW232808   4.264   0.365  11.411  2.1755 -0.6687 -1.6735
 7116SOL     OW32809   2.015   4.307  13.077 -0.6648 -0.0379 -0.3876
 7116SOL    HW132810   2.061   4.243  13.024  0.7371  1.5059 -1.0369
 7116SOL    HW232811   1.949   4.258  13.127  2.5208 -1.1214  2.7016
 7117SOL     OW32812   3.837   2.031   6.422 -0.5150  0.0915 -0.9183
 7117SOL    HW132813   3.757   1.990   6.387 -1.4790 -0.6565  2.2153
 7117SOL    HW232814   3.893   1.954   6.421 -0.9651 -0.2436  0.0039
 7118SOL     OW32815   4.060   0.152   8.437 -0.1152  0.6344  0.1587
 7118SOL    HW132816   4.138   0.130   8.387 -1.0492  1.8167 -1.7900
 7118SOL    HW232817   4.022   0.226   8.390 -3.5751 -0.0360  1.9168
 7119SOL     OW32818   2.693   2.659  13.262 -0.0752 -0.1788  0.1426
 7119SOL    HW132819   2.617   2.603  13.246  1.7220 -2.4651 -0.3750
 7119SOL    HW232820   2.669   2.737  13.211  0.8712 -0.2735 -0.4371
 7120SOL     OW32821   0.408   4.004   3.227 -0.0559 -0.2870  0.2430
 7120SOL    HW132822   0.419   3.976   3.318  0.1380  0.9331  0.5993
 7120SOL    HW232823   0.391   4.097   3.247  0.4932 -0.2244  0.4032
 7121SOL     OW32824   1.738   1.131   6.408 -0.2950  0.2460 -0.3160
 7121SOL    HW132825   1.706   1.112   6.496 -0.8588 -0.9325 -0.7688
 7121SOL    HW232826   1.684   1.206   6.383 -1.0267 -0.5861 -1.2618
 7122SOL     OW32827   3.622   2.289  12.958  0.2580  0.5253  0.7643
 7122SOL    HW132828   3.557   2.250  12.900  0.9918 -0.1362  0.3753
 7122SOL    HW232829   3.638   2.233  13.034  0.4940  2.5932  2.2373
 7123SOL     OW32830   0.103   0.774  13.660  0.0983  0.0605  0.3463
 7123SOL    HW132831   0.138   0.695  13.619  1.7027  1.2830 -0.6452
 7123SOL    HW232832   0.107   0.747  13.752 -0.7546 -1.6808 -0.1269
 7124SOL     OW32833   1.788   3.347   5.732 -0.4603  0.0380  0.1665
 7124SOL    HW132834   1.710   3.400   5.716  0.5597  1.5937  0.3895
 7124SOL    HW232835   1.762   3.296   5.809  0.2359  0.0994  0.4435
 7125SOL     OW32836   0.892   1.311  10.153 -0.1540 -0.2590 -0.4975
 7125SOL    HW132837   0.848   1.254  10.090  0.9086  0.8168 -2.1878
 7125SOL    HW232838   0.814   1.330  10.205  0.8399 -0.3903  1.0470
 7126SOL     OW32839   3.318   0.789  13.563  0.1227  0.2363  0.5263
 7126SOL    HW132840   3.222   0.793  13.565 -0.0450 -1.8254 -2.7217
 7126SOL    HW232841   3.333   0.807  13.470 -1.7074 -2.3690 -0.2964
 7127SOL     OW32842   1.463   0.369   7.139 -0.4099 -0.3106  0.0752
 7127SOL    HW132843   1.495   0.349   7.227  0.0549  0.1321  0.0066
 7127SOL    HW232844   1.405   0.445   7.151  0.9589  0.6963  0.3312
 7128SOL     OW32845   2.344   0.384   6.918 -0.3343 -0.0326 -0.3298
 7128SOL    HW132846   2.387   0.454   6.967 -0.1192 -0.3485 -0.0626
 7128SOL    HW232847   2.358   0.420   6.831  1.4335  1.3983  0.5362
 7129SOL     OW32848   1.819   0.000   5.083 -0.7704 -0.0994  0.2581
 7129SOL    HW132849   1.873   4.653   5.050 -1.7274 -1.1428  0.9936
 7129SOL    HW232850   1.782   4.685   5.161  1.6955  0.6799  1.8515
 7130SOL     OW32851   1.975   1.957  17.606 -0.5449 -0.2347  0.2158
 7130SOL    HW132852   1.921   2.034  17.620 -1.3988 -0.4340 -1.8663
 7130SOL    HW232853   1.993   1.969  17.513  1.1074 -2.4317  0.2465
 7131SOL     OW32854   4.497   1.673  12.437  0.0109  0.2085 -0.0146
 7131SOL    HW132855   4.474   1.761  12.466  1.5830  1.0959 -1.4558
 7131SOL    HW232856   4.588   1.695  12.414  0.5917 -0.4599  1.6381
 7132SOL     OW32857   2.485   0.143   7.041  0.2857 -0.1112  0.1865
 7132SOL    HW132858   2.544   0.211   7.074  0.7783 -0.4872  0.0862
 7132SOL    HW232859   2.425   0.199   6.992  0.0146  1.7247  2.5983
 7133SOL     OW32860   1.774   1.373   3.057  0.2344  0.5794  0.1285
 7133SOL    HW132861   1.718   1.421   2.996  1.9525  1.3581 -0.8260
 7133SOL    HW232862   1.838   1.444   3.061  0.1880  0.6404 -0.2379
 7134SOL     OW32863   1.161   3.095   8.367  0.2876 -0.1036 -0.2656
 7134SOL    HW132864   1.209   3.061   8.443  0.6363 -0.0487 -0.4630
 7134SOL    HW232865   1.129   3.179   8.400 -2.1090 -1.3245  0.5156
 7135SOL     OW32866   0.772   1.494   8.700 -0.0644  0.0302  0.4520
 7135SOL    HW132867   0.803   1.490   8.791  1.1083 -2.5094 -0.0447
 7135SOL    HW232868   0.830   1.563   8.668 -1.7294  0.8649 -0.7307
 7136SOL     OW32869   2.447   1.619   7.368 -0.7005 -0.1065 -0.0115
 7136SOL    HW132870   2.391   1.598   7.443  0.5457 -1.3283  0.5625
 7136SOL    HW232871   2.492   1.701   7.388  0.1343 -0.6514  0.3312
 7137SOL     OW32872   3.443   2.203   0.032 -0.1753 -0.1829 -0.2360
 7137SOL    HW132873   3.365   2.166   0.074  1.5814 -3.5722  0.0479
 7137SOL    HW232874   3.427   2.297   0.033  1.0078  0.0028  0.7739
 7138SOL     OW32875   4.195   4.233   5.625  0.4856 -0.4213  0.2500
 7138SOL    HW132876   4.186   4.327   5.637  3.6653  0.2205 -2.2774
 7138SOL    HW232877   4.291   4.222   5.621  0.2066 -3.1067  0.4777
 7139SOL     OW32878   2.223   2.549   7.688 -0.2114 -0.0348  0.1761
 7139SOL    HW132879   2.243   2.628   7.638 -0.4639 -0.4693 -0.6072
 7139SOL    HW232880   2.167   2.582   7.759  1.7953  0.8514  1.3264
 7140SOL     OW32881   2.188   1.882  12.450 -0.4317  0.1033 -0.0204
 7140SOL    HW132882   2.176   1.937  12.527  0.6494 -1.5251  1.3000
 7140SOL    HW232883   2.237   1.808  12.484 -1.9671 -1.1932 -0.6142
 7141SOL     OW32884   4.188   3.718   2.151 -0.0485  0.0135 -0.2064
 7141SOL    HW132885   4.166   3.630   2.181  1.1547 -1.4887 -3.7548
 7141SOL    HW232886   4.105   3.741   2.110  0.9085  0.2885 -1.9415
 7142SOL     OW32887   0.903   1.170   9.628 -0.5222  0.8909 -0.0663
 7142SOL    HW132888   0.808   1.167   9.612 -1.0119  0.0111  2.9019
 7142SOL    HW232889   0.932   1.254   9.592 -0.2184 -0.1745 -2.2790
 7143SOL     OW32890   3.212   2.336  15.767 -0.2752  0.0146 -0.1801
 7143SOL    HW132891   3.251   2.249  15.765  1.6092  0.8268  0.9319
 7143SOL    HW232892   3.288   2.394  15.766  1.1007 -1.7473  1.4433
 7144SOL     OW32893   1.154   3.053   6.495 -0.0953  0.1595 -0.0237
 7144SOL    HW132894   1.122   3.093   6.576 -0.5434  0.0519 -0.1458
 7144SOL    HW232895   1.086   2.989   6.475  0.1373 -0.3531  0.7966
 7145SOL     OW32896   3.083   0.996   4.551  0.1411 -0.0333 -0.1430
 7145SOL    HW132897   3.087   0.906   4.582  0.3460 -0.4639 -1.4268
 7145SOL    HW232898   3.175   1.022   4.558  0.7477 -2.3385  0.3219
 7146SOL     OW32899   1.855   0.262   5.120 -0.6896 -0.5719  0.1963
 7146SOL    HW132900   1.821   0.177   5.093 -0.0539 -0.3904 -1.2368
 7146SOL    HW232901   1.804   0.272   5.199 -1.2029  2.2454 -0.4704
 7147SOL     OW32902   0.653   1.225   7.171 -0.0554 -0.1347  0.2424
 7147SOL    HW132903   0.730   1.177   7.202 -0.7515 -1.1874  0.3411
 7147SOL    HW232904   0.681   1.244   7.081  2.6635 -2.6146  0.5926
 7148SOL     OW32905   2.844   1.703   7.339  0.2199 -0.5847  0.1419
 7148SOL    HW132906   2.825   1.797   7.338 -0.4674 -0.7350 -0.2496
 7148SOL    HW232907   2.903   1.709   7.414  0.4923 -0.8354 -0.0553
 7149SOL     OW32908   0.836   1.221  17.656 -0.0490  0.3640  0.0134
 7149SOL    HW132909   0.785   1.299  17.677  0.4672  0.7237 -0.0888
 7149SOL    HW232910   0.893   1.200   0.028  1.1380 -1.3671 -1.3906
 7150SOL     OW32911   0.358   0.834  14.450  0.3114  0.3213 -0.3479
 7150SOL    HW132912   0.428   0.848  14.514  1.1732 -1.9036 -0.7969
 7150SOL    HW232913   0.311   0.758  14.486 -1.6418  0.9379 -1.5841
 7151SOL     OW32914   2.485   2.674   5.474  0.6526 -0.5615  0.3095
 7151SOL    HW132915   2.556   2.709   5.422 -1.8718 -1.0691 -3.4535
 7151SOL    HW232916   2.512   2.697   5.563 -0.1452 -1.8400  0.8921
 7152SOL     OW32917   0.003   3.847  11.812 -0.0254  0.3668  0.0199
 7152SOL    HW132918   0.033   3.892  11.891  1.2423  2.3895 -1.6583
 7152SOL    HW232919   0.079   3.799  11.780 -1.0773 -0.2056 -1.6450
 7153SOL     OW32920   1.403   3.950   1.873  0.5609  0.0769 -0.3837
 7153SOL    HW132921   1.374   3.975   1.961 -0.0143 -1.6062 -0.1005
 7153SOL    HW232922   1.347   3.874   1.860 -0.4244  0.7413 -0.0216
 7154SOL     OW32923   4.197   2.945   9.802 -0.0599 -0.3320  0.3082
 7154SOL    HW132924   4.121   2.900   9.837  0.1281 -2.2890 -1.7717
 7154SOL    HW232925   4.259   2.930   9.873  1.7515  1.1279 -0.9537
 7155SOL     OW32926   0.717   1.550  12.512 -0.2846  0.2609  0.6480
 7155SOL    HW132927   0.795   1.604  12.497 -0.6266  0.6489  0.3089
 7155SOL    HW232928   0.729   1.474  12.455  0.7528  1.4272 -0.6823
 7156SOL     OW32929   0.409   1.149  10.679  0.2122 -0.5118  0.1456
 7156SOL    HW132930   0.380   1.076  10.734 -1.3513 -1.5012 -1.9913
 7156SOL    HW232931   0.496   1.161  10.717 -0.2672  0.2927  0.9878
 7157SOL     OW32932   1.393   2.340  17.059  0.2495  0.3071 -0.1812
 7157SOL    HW132933   1.418   2.432  17.060 -0.5658  0.5125  0.7686
 7157SOL    HW232934   1.386   2.323  16.965 -2.3288 -0.5872  0.1692
 7158SOL     OW32935   3.785   4.037   0.124 -0.4793  0.0535  0.1006
 7158SOL    HW132936   3.742   4.113   0.164  1.6210  1.7532 -0.7914
 7158SOL    HW232937   3.842   4.085   0.063  1.3852 -0.5659  1.3678
 7159SOL     OW32938   3.291   0.511   0.756  0.0022 -0.2220 -0.5328
 7159SOL    HW132939   3.364   0.449   0.752 -0.0479 -0.3224  0.0752
 7159SOL    HW232940   3.286   0.527   0.851  0.0235  1.6643 -0.8523
 7160SOL     OW32941   1.633   3.013   3.435 -0.5213 -0.5063  0.0963
 7160SOL    HW132942   1.727   3.011   3.453 -0.8583  0.0688  1.9563
 7160SOL    HW232943   1.611   2.932   3.482 -0.4344 -0.7890 -0.3585
 7161SOL     OW32944   0.106   0.984   9.546  0.4211 -0.2221  0.4918
 7161SOL    HW132945   0.120   1.064   9.595 -1.9506  0.1858  0.4938
 7161SOL    HW232946   0.011   0.980   9.553  0.5119 -3.2427  0.2772
 7162SOL     OW32947   2.310   1.538   7.597  0.0420 -0.0012  0.4647
 7162SOL    HW132948   2.294   1.506   7.686  1.5168  0.5773  0.9315
 7162SOL    HW232949   2.299   1.631   7.618 -1.9170 -0.3822  1.1968
 7163SOL     OW32950   3.390   0.920   0.870 -0.2665 -0.2511 -0.2751
 7163SOL    HW132951   3.300   0.889   0.869  0.0000 -1.0313 -0.4889
 7163SOL    HW232952   3.424   0.894   0.955 -2.4032  1.9814  1.2608
 7164SOL     OW32953   3.606   3.936  13.810 -0.1788 -0.0850  0.8414
 7164SOL    HW132954   3.523   3.969  13.845  0.1810  1.0940  0.5707
 7164SOL    HW232955   3.668   4.008  13.820  0.4179 -0.6101  0.8708
 7165SOL     OW32956   1.100   1.965   3.718  0.7313 -0.0683  0.3084
 7165SOL    HW132957   1.160   1.915   3.775  0.5928 -2.4086 -1.6198
 7165SOL    HW232958   1.150   1.964   3.637  0.8915 -2.4438  0.4153
 7166SOL     OW32959   1.569   0.680  14.380 -0.2434 -0.4469 -0.2501
 7166SOL    HW132960   1.495   0.737  14.399  2.0719  2.8485 -1.0967
 7166SOL    HW232961   1.533   0.600  14.419  0.4429 -0.1410  1.0323
 7167SOL     OW32962   2.097   0.962   3.291 -0.1750  0.0458  0.2806
 7167SOL    HW132963   2.098   0.870   3.317  0.0298 -0.1977 -0.5940
 7167SOL    HW232964   2.179   0.987   3.333 -0.6623  0.3447  1.0680
 7168SOL     OW32965   3.579   3.231   0.256  0.4914  0.3146 -0.3591
 7168SOL    HW132966   3.523   3.223   0.179  1.2484 -1.0802 -0.7593
 7168SOL    HW232967   3.532   3.304   0.296  2.3206  1.4812 -0.3339
 7169SOL     OW32968   4.113   1.262   8.846 -0.3152 -0.1729  0.0315
 7169SOL    HW132969   4.149   1.180   8.813  0.1054 -0.3008  0.8195
 7169SOL    HW232970   4.144   1.318   8.775 -0.0539 -1.0265 -0.5257
 7170SOL     OW32971   1.049   2.721  16.054 -0.0555 -0.4093 -1.0318
 7170SOL    HW132972   0.986   2.788  16.028 -1.5613 -1.5712 -0.3282
 7170SOL    HW232973   1.001   2.646  16.089  0.9055 -0.4911  0.1412
 7171SOL     OW32974   0.185   1.270   1.102 -0.3971  0.6207 -0.3595
 7171SOL    HW132975   0.099   1.292   1.137  1.3584  1.3061  3.5621
 7171SOL    HW232976   0.231   1.354   1.108  0.5352  0.1060 -0.2889
 7172SOL     OW32977   4.539   1.001   6.503 -0.2239  0.1212  0.2627
 7172SOL    HW132978   4.462   0.952   6.476  1.9446 -2.0992 -1.9744
 7172SOL    HW232979   4.525   1.076   6.445  1.4040  0.5769  0.4585
 7173SOL     OW32980   1.281   1.036   0.865  0.1378  0.1785 -0.1950
 7173SOL    HW132981   1.239   0.991   0.939  0.8647 -1.0057 -0.5050
 7173SOL    HW232982   1.341   0.970   0.830  1.8566  0.6479  1.8903
 7174SOL     OW32983   3.594   3.532   0.211  0.4465 -0.2398  0.2056
 7174SOL    HW132984   3.590   3.469   0.139 -1.3581  0.3059 -0.1969
 7174SOL    HW232985   3.649   3.603   0.177  0.9140 -0.4585  0.5135
 7175SOL     OW32986   3.009   3.269   3.736 -0.1986  0.0158 -0.2167
 7175SOL    HW132987   2.942   3.317   3.785  0.3917 -0.6432  1.2096
 7175SOL    HW232988   2.984   3.177   3.729 -0.6053  0.1633 -0.6608
 7176SOL     OW32989   0.485   3.525   1.818 -0.0633  0.2505 -0.2727
 7176SOL    HW132990   0.479   3.470   1.896  0.1175 -2.3012 -2.0562
 7176SOL    HW232991   0.392   3.547   1.817 -0.3974 -1.1024  1.0892
 7177SOL     OW32992   0.447   3.828   7.504 -0.5628  0.6235 -0.1939
 7177SOL    HW132993   0.428   3.870   7.588 -1.6141  0.5501 -0.3846
 7177SOL    HW232994   0.520   3.769   7.521 -1.0679  0.3336  0.9897
 7178SOL     OW32995   2.888   4.380   1.790  0.1635 -0.0270  0.4135
 7178SOL    HW132996   2.822   4.430   1.741 -0.1604 -1.1384 -0.2750
 7178SOL    HW232997   2.966   4.370   1.736 -0.0167 -0.6362  0.2729
 7179SOL     OW32998   2.442   1.836   8.536 -0.3163 -0.2989 -0.2507
 7179SOL    HW132999   2.382   1.814   8.465 -1.3584  1.1781  0.1785
 7179SOL    HW233000   2.446   1.930   8.520  2.2781 -0.7412 -2.1465
 7180SOL     OW33001   1.881   2.962   6.377 -0.1750 -0.8219 -0.1379
 7180SOL    HW133002   1.958   2.911   6.399 -0.1900 -0.2353  1.2470
 7180SOL    HW233003   1.912   3.038   6.328  2.4125 -1.8920 -0.1722
 7181SOL     OW33004   3.746   2.137   1.457 -0.4442  0.3607 -0.0205
 7181SOL    HW133005   3.678   2.197   1.428 -0.2531  0.6081  0.0502
 7181SOL    HW233006   3.744   2.063   1.396 -1.5327  0.2239  0.1817
 7182SOL     OW33007   0.391   3.203   9.724  0.2663 -0.0661  0.0474
 7182SOL    HW133008   0.368   3.112   9.740  1.0167 -0.6068 -2.0024
 7182SOL    HW233009   0.468   3.213   9.780  0.5937 -0.1710 -0.3866
 7183SOL     OW33010   0.198   0.631   8.864  0.2910  0.1660  0.2506
 7183SOL    HW133011   0.137   0.603   8.796 -2.2729  0.2745  2.5344
 7183SOL    HW233012   0.139   0.634   8.939  1.2561  1.7006  0.9533
 7184SOL     OW33013   2.035   3.669   1.979 -0.0802  0.0335  0.1354
 7184SOL    HW133014   2.123   3.680   2.014  0.0625 -1.8241  0.3456
 7184SOL    HW233015   2.047   3.716   1.897  0.5375  1.9421  1.3233
 7185SOL     OW33016   2.174   0.106   6.414  0.3654  0.0829 -0.9279
 7185SOL    HW133017   2.214   0.100   6.327 -0.5711  0.5892 -1.3896
 7185SOL    HW233018   2.243   0.055   6.456  0.0725  0.6079  0.1725
 7186SOL     OW33019   3.533   1.340   5.796 -0.2795 -0.0150 -0.4925
 7186SOL    HW133020   3.568   1.419   5.755  0.8389 -1.1860 -1.7619
 7186SOL    HW233021   3.553   1.284   5.721  0.3735 -1.6621  0.9370
 7187SOL     OW33022   0.837   2.556   5.147  0.5385 -0.2495 -0.2014
 7187SOL    HW133023   0.916   2.607   5.161  0.3132  1.0995 -3.7297
 7187SOL    HW233024   0.862   2.481   5.094 -0.1445 -1.1895  0.8151
 7188SOL     OW33025   0.217   0.082   3.059 -0.0838 -0.1241  0.4042
 7188SOL    HW133026   0.207   0.107   2.968 -1.9936 -2.7635 -0.1120
 7188SOL    HW233027   0.285   0.016   3.052  1.7323  1.6430  1.3038
 7189SOL     OW33028   1.763   0.701  15.818 -0.0177  0.3034 -0.0896
 7189SOL    HW133029   1.737   0.790  15.839 -1.1851 -0.3664  1.3153
 7189SOL    HW233030   1.727   0.689  15.730 -1.4759  1.3946  0.3644
 7190SOL     OW33031   3.187   3.529   7.248  0.1737  0.5152 -0.5006
 7190SOL    HW133032   3.255   3.469   7.218  0.9469  0.6819  0.9590
 7190SOL    HW233033   3.224   3.551   7.333  1.0696  2.3374 -1.3482
 7191SOL     OW33034   1.017   3.382   6.428  0.0915 -0.2728  0.1372
 7191SOL    HW133035   0.944   3.321   6.419  0.8306 -0.6789 -2.8919
 7191SOL    HW233036   1.037   3.395   6.336 -0.6002 -1.3491 -0.1706
 7192SOL     OW33037   4.286   0.358  16.757  0.0570 -0.1668 -0.2745
 7192SOL    HW133038   4.230   0.387  16.686  0.1503  1.0345  0.1422
 7192SOL    HW233039   4.232   0.309  16.819 -1.3171  0.6948 -0.7990
 7193SOL     OW33040   0.893   3.292   4.725 -0.2843 -0.3348  0.3845
 7193SOL    HW133041   0.893   3.269   4.632 -0.4853  0.5580  0.1641
 7193SOL    HW233042   0.841   3.222   4.766  0.2427 -0.1854  1.3189
 7194SOL     OW33043   2.554   4.204   7.550  0.0545 -0.2620 -0.6423
 7194SOL    HW133044   2.499   4.212   7.628  2.1357 -0.5301  0.8720
 7194SOL    HW233045   2.613   4.280   7.557 -1.6837  1.1866 -1.6542
 7195SOL     OW33046   0.264   3.193   7.145 -0.1940  0.1519 -0.2883
 7195SOL    HW133047   0.208   3.202   7.222  2.4164 -1.5134  1.8539
 7195SOL    HW233048   0.338   3.237   7.187  1.0170 -1.1271 -1.0663
 7196SOL     OW33049   1.336   0.633  17.478 -0.7009 -0.0799 -0.1641
 7196SOL    HW133050   1.301   0.721  17.494 -1.0791 -0.4071  0.7811
 7196SOL    HW233051   1.394   0.658  17.406 -1.1921  2.3961  0.2771
 7197SOL     OW33052   3.806   4.000   3.581  0.1881 -0.2533 -0.3252
 7197SOL    HW133053   3.870   4.026   3.647 -0.9387 -0.2211  0.7444
 7197SOL    HW233054   3.740   4.069   3.577  0.1496 -0.2081  1.3644
 7198SOL     OW33055   1.524   2.776   3.177  0.3693  0.1182  0.4287
 7198SOL    HW133056   1.435   2.750   3.153  0.9116 -2.6362  1.4091
 7198SOL    HW233057   1.571   2.697   3.203  0.3648  0.2680  0.8791
 7199SOL     OW33058   0.177   0.851   7.098  0.4489  0.1032 -0.6617
 7199SOL    HW133059   0.116   0.922   7.120  0.0726 -0.4950  0.2088
 7199SOL    HW233060   0.149   0.781   7.157  1.3468  0.1022 -0.2444
 7200SOL     OW33061   1.291   3.720  13.775  0.7095 -0.1942  0.1104
 7200SOL    HW133062   1.353   3.792  13.765  0.3105  0.1750  0.2688
 7200SOL    HW233063   1.284   3.703  13.868 -1.4965 -0.3296 -0.0794
 7201SOL     OW33064   0.689   0.067   2.068  0.2383 -0.2401  0.0689
 7201SOL    HW133065   0.602   0.028   2.070 -0.2127  0.8199  1.1598
 7201SOL    HW233066   0.684   0.126   1.993 -0.1725 -0.5322 -0.1285
 7202SOL     OW33067   1.708   0.471   1.192  0.0475  0.2192 -0.1174
 7202SOL    HW133068   1.736   0.503   1.107 -1.4862  0.8515 -0.3795
 7202SOL    HW233069   1.652   0.541   1.223 -1.0158 -0.5875 -0.1932
 7203SOL     OW33070   4.386   2.043   7.541 -0.2174  0.8309  0.0083
 7203SOL    HW133071   4.446   2.117   7.533  0.0065  0.6888  0.3278
 7203SOL    HW233072   4.310   2.083   7.584  0.1725  1.9605 -0.3630
 7204SOL     OW33073   1.247   1.193   0.354 -0.0109  0.1795  0.2722
 7204SOL    HW133074   1.228   1.107   0.392 -1.5525  0.9197  1.1907
 7204SOL    HW233075   1.261   1.183   0.260 -3.4255 -0.7679 -0.1419
 7205SOL     OW33076   2.304   4.496   3.682 -0.2177 -0.1000  1.0401
 7205SOL    HW133077   2.377   4.480   3.623 -1.1857 -1.0892  0.1041
 7205SOL    HW233078   2.334   4.573   3.729 -0.8814  1.2272 -0.7050
 7206SOL     OW33079   1.621   0.711  14.005 -0.0098  0.2062 -0.9551
 7206SOL    HW133080   1.628   0.671  13.918  0.8366  1.0921 -1.2932
 7206SOL    HW233081   1.675   0.649  14.054 -0.6686 -0.8761 -1.5902
 7207SOL     OW33082   2.425   3.925   5.728 -0.3705  0.8611  0.3336
 7207SOL    HW133083   2.435   3.895   5.638 -1.8487  1.5467 -0.0716
 7207SOL    HW233084   2.341   3.972   5.720 -0.6204  0.7597  2.2666
 7208SOL     OW33085   1.187   2.750   9.070 -0.4170  0.0405  0.0113
 7208SOL    HW133086   1.118   2.694   9.106 -1.3664 -0.2992 -2.3426
 7208SOL    HW233087   1.262   2.744   9.129  0.3021  0.9404 -0.8145
 7209SOL     OW33088   1.564   1.264  14.095  0.0561  0.0502  0.9256
 7209SOL    HW133089   1.500   1.236  14.030  2.1099 -1.0894 -0.6190
 7209SOL    HW233090   1.578   1.194  14.159  0.6966  0.4726  1.2559
 7210SOL     OW33091   2.346   2.800   9.349  0.1793 -0.1981 -0.0715
 7210SOL    HW133092   2.387   2.884   9.366 -0.6854 -0.2079  2.0153
 7210SOL    HW233093   2.309   2.773   9.433  0.5798  0.3451  0.2774
 7211SOL     OW33094   0.127   0.692  15.651 -0.0683  0.0025 -0.3443
 7211SOL    HW133095   0.112   0.702  15.557 -0.1281  1.8466 -0.1459
 7211SOL    HW233096   0.035   0.679  15.674 -0.0072  1.1462  0.5842
 7212SOL     OW33097   4.165   1.111   1.849  0.0588  0.1576  0.3020
 7212SOL    HW133098   4.226   1.131   1.921 -0.1680  1.0501  0.2509
 7212SOL    HW233099   4.084   1.097   1.897 -0.6280  0.8978 -0.6480
 7213SOL     OW33100   2.749   4.222   5.360 -0.2922 -0.4573 -0.0975
 7213SOL    HW133101   2.681   4.233   5.292  0.0858 -0.2401 -0.4390
 7213SOL    HW233102   2.705   4.274   5.428  0.1631  0.7349 -0.7128
 7214SOL     OW33103   3.049   3.240   5.735 -0.0112  0.1043  0.1955
 7214SOL    HW133104   3.024   3.149   5.752  2.3165 -0.5961 -0.1809
 7214SOL    HW233105   2.961   3.276   5.726 -0.8428 -2.0303 -0.3681
 7215SOL     OW33106   0.503   2.070   8.644 -0.1948  0.1190 -0.6931
 7215SOL    HW133107   0.566   2.016   8.596  0.3616  1.5394 -1.5538
 7215SOL    HW233108   0.526   2.155   8.607  0.8261  0.2754  0.2954
 7216SOL     OW33109   4.396   3.865   5.214  0.3953 -0.3751  0.0148
 7216SOL    HW133110   4.329   3.814   5.168 -0.9258  0.7348  0.6959
 7216SOL    HW233111   4.329   3.906   5.269 -1.2147  0.4418 -2.5591
 7217SOL     OW33112   0.108   2.927  16.676  0.2322 -0.2828  0.0524
 7217SOL    HW133113   0.034   2.954  16.731  1.8312 -0.7956  2.4752
 7217SOL    HW233114   0.177   2.929  16.743  0.8274 -1.9442 -0.5348
 7218SOL     OW33115   3.498   0.553  13.499  0.1227 -1.0917 -0.0023
 7218SOL    HW133116   3.435   0.625  13.502  1.4950  0.1170 -0.1166
 7218SOL    HW233117   3.453   0.486  13.447 -0.8351 -1.2941  1.0710
 7219SOL     OW33118   1.710   1.101  10.952  0.1090  0.0497 -0.1956
 7219SOL    HW133119   1.686   1.125  10.863 -1.3636  1.3412  0.5506
 7219SOL    HW233120   1.710   1.006  10.941 -1.2400  0.1595 -1.2515
 7220SOL     OW33121   4.226   1.489   5.994 -0.6243 -0.2113  0.2482
 7220SOL    HW133122   4.315   1.466   5.968 -0.8592 -0.8083 -0.0447
 7220SOL    HW233123   4.177   1.418   5.951  0.0814  0.0148 -0.9322
 7221SOL     OW33124   0.752   0.613   8.015 -0.2873 -0.2613  0.1281
 7221SOL    HW133125   0.784   0.587   7.929  1.3601  1.0482  0.3249
 7221SOL    HW233126   0.808   0.691   8.027  0.5519 -0.4724 -2.4052
 7222SOL     OW33127   2.952   3.083   9.191  0.0658  0.5202  0.3483
 7222SOL    HW133128   2.975   3.053   9.279  1.1678  0.5022  0.0614
 7222SOL    HW233129   2.952   3.000   9.143  1.5807 -0.3322  1.8181
 7223SOL     OW33130   0.642   1.791  15.329 -0.1082 -0.3385  0.3347
 7223SOL    HW133131   0.605   1.863  15.279  0.6548  0.8987  1.5811
 7223SOL    HW233132   0.656   1.723  15.262 -1.5162 -0.6894  0.3958
 7224SOL     OW33133   2.399   1.646   3.115  0.3027  0.1043 -0.0012
 7224SOL    HW133134   2.488   1.610   3.117  1.0442  1.9120 -0.5372
 7224SOL    HW233135   2.353   1.586   3.173  1.1527 -0.8484 -0.3020
 7225SOL     OW33136   3.247   2.058   3.853  0.3140  0.0410  0.3532
 7225SOL    HW133137   3.258   1.987   3.917  0.8827  0.1392  0.3678
 7225SOL    HW233138   3.237   2.001   3.777  1.0180  1.5463 -0.8720
 7226SOL     OW33139   2.801   1.868  16.924 -0.3788  0.2470  0.4601
 7226SOL    HW133140   2.749   1.794  16.956  0.0763  1.2547  3.5183
 7226SOL    HW233141   2.729   1.931  16.918  1.2986  2.2494  1.1536
 7227SOL     OW33142   1.742   1.998   7.252  1.0537  0.2074 -0.1112
 7227SOL    HW133143   1.732   1.978   7.345 -0.3469 -2.8600 -0.8957
 7227SOL    HW233144   1.789   2.078   7.273  0.4481  0.0736  1.8318
 7228SOL     OW33145   2.711   2.772   4.058 -0.8253 -0.2749 -0.4541
 7228SOL    HW133146   2.726   2.847   4.115  0.0446 -1.0487  0.3232
 7228SOL    HW233147   2.639   2.726   4.101 -0.8080 -0.0437 -0.1820
 7229SOL     OW33148   1.490   4.642   2.021  0.2120  0.3206  0.6196
 7229SOL    HW133149   1.432   4.567   2.033  1.2082 -0.4012  0.9056
 7229SOL    HW233150   1.574   4.604   2.047 -0.4429 -2.7937 -1.7666
 7230SOL     OW33151   4.305   1.931   8.967 -0.2171  0.0559  0.3782
 7230SOL    HW133152   4.383   1.980   8.993  1.6156 -2.5594 -0.1749
 7230SOL    HW233153   4.303   1.866   9.037 -1.0456  0.2237  0.5144
 7231SOL     OW33154   0.428   3.785   8.647  0.3682 -0.8933  0.1242
 7231SOL    HW133155   0.381   3.842   8.586 -0.3741  0.2845  1.8011
 7231SOL    HW233156   0.494   3.842   8.686 -0.5452 -0.7290  1.4129
 7232SOL     OW33157   0.179   2.242   8.118 -0.2717 -0.5226  0.1859
 7232SOL    HW133158   0.151   2.161   8.077 -2.0990 -0.1246  0.6343
 7232SOL    HW233159   0.217   2.202   8.195  0.8896  0.8836  0.3422
 7233SOL     OW33160   4.689   0.643  11.746 -0.2762 -0.9646  0.4828
 7233SOL    HW133161   4.652   0.570  11.697 -0.8504 -0.8657  0.7709
 7233SOL    HW233162   4.610   0.697  11.750  0.6325  0.4739 -0.9081
 7234SOL     OW33163   4.571   3.080   2.804 -0.3818 -0.2613  0.4742
 7234SOL    HW133164   4.493   3.033   2.776  0.2932  0.6832 -2.9841
 7234SOL    HW233165   4.595   3.023   2.877 -1.9994 -0.5534  0.7707
 7235SOL     OW33166   3.424   0.795   1.101 -0.5282  0.2490 -0.0451
 7235SOL    HW133167   3.487   0.821   1.168 -0.9570 -0.7951  0.7577
 7235SOL    HW233168   3.341   0.828   1.135 -0.9111 -0.4844 -0.2777
 7236SOL     OW33169   0.620   1.930   5.702 -0.4854  0.3550 -0.0373
 7236SOL    HW133170   0.526   1.920   5.693 -0.4796 -0.6575  1.0011
 7236SOL    HW233171   0.655   1.842   5.690 -0.4124  0.3066  0.4926
 7237SOL     OW33172   4.367   3.735   5.543  0.1004 -0.3908  0.6152
 7237SOL    HW133173   4.272   3.724   5.540  0.2330 -1.5050  0.6794
 7237SOL    HW233174   4.403   3.669   5.484 -1.8917 -0.6920 -0.2528
 7238SOL     OW33175   2.332   0.785   8.665 -0.0024 -0.1048 -0.1881
 7238SOL    HW133176   2.292   0.871   8.679  1.5644  1.2033 -3.5939
 7238SOL    HW233177   2.267   0.743   8.609  1.0185 -1.2865 -0.4862
 7239SOL     OW33178   0.323   3.152   2.866 -0.5055 -0.1626  0.0765
 7239SOL    HW133179   0.327   3.188   2.954  2.2341 -1.0112  0.2931
 7239SOL    HW233180   0.239   3.182   2.830  0.0620 -0.3887 -1.4531
 7240SOL     OW33181   2.852   4.635  15.010 -0.5492 -0.3993  0.1323
 7240SOL    HW133182   2.864   4.559  15.066 -1.3439 -1.0169 -0.5313
 7240SOL    HW233183   2.937   4.645  14.967 -0.5913  2.0254  0.5957
 7241SOL     OW33184   2.809   2.514  12.933  0.6363 -0.1137  0.0536
 7241SOL    HW133185   2.838   2.605  12.929 -1.2519  0.5461  1.1163
 7241SOL    HW233186   2.715   2.522  12.947  0.3554 -0.7955 -1.4577
 7242SOL     OW33187   3.200   3.357   8.364  0.4584  0.7850  0.6580
 7242SOL    HW133188   3.222   3.279   8.415 -0.5336  0.8029  1.1014
 7242SOL    HW233189   3.287   3.371   8.327 -0.0341  2.0162 -0.0222
 7243SOL     OW33190   2.977   4.328   6.420  1.0228  0.7049  0.4698
 7243SOL    HW133191   3.067   4.348   6.392  1.6757 -1.1197  1.2860
 7243SOL    HW233192   2.914   4.382   6.372  3.3123  1.0330 -2.2094
 7244SOL     OW33193   2.629   3.968   4.262 -0.3978  0.2378  0.4655
 7244SOL    HW133194   2.702   3.948   4.321 -0.5409  0.5209  0.7398
 7244SOL    HW233195   2.559   3.991   4.323  0.4366  1.9073  0.7893
 7245SOL     OW33196   2.426   4.216   7.792 -0.1596  0.3490  0.8753
 7245SOL    HW133197   2.390   4.304   7.788 -2.2404 -0.5527 -0.1504
 7245SOL    HW233198   2.405   4.188   7.881  0.3038  1.9152  1.4653
 7246SOL     OW33199   0.599   3.958   8.365  0.3909 -0.4077  0.3155
 7246SOL    HW133200   0.575   4.039   8.410 -0.5469 -0.2907 -0.4205
 7246SOL    HW233201   0.639   4.000   8.289  0.3608  1.2570  1.2023
 7247SOL     OW33202   4.217   2.101   2.032 -0.3807  0.0049 -0.0261
 7247SOL    HW133203   4.197   2.112   1.939 -0.8519  0.6386  0.1488
 7247SOL    HW233204   4.258   2.015   2.041  0.4630  0.2960 -1.0250
 7248SOL     OW33205   2.015   1.054   7.350 -0.1947 -0.0891  0.0799
 7248SOL    HW133206   1.993   1.118   7.283 -0.5691 -2.0968 -1.7119
 7248SOL    HW233207   2.109   1.074   7.360 -0.2672 -0.9374  2.4299
 7249SOL     OW33208   4.688   0.238  14.182  0.2348 -0.1417  0.6512
 7249SOL    HW133209   4.713   0.315  14.232  1.4692  0.1076 -0.3426
 7249SOL    HW233210   4.649   0.184  14.251 -1.3625  0.5898  0.2965
 7250SOL     OW33211   1.318   4.501   0.760  0.5274  0.2073 -0.7123
 7250SOL    HW133212   1.356   4.456   0.684 -0.0807  0.5193 -1.2073
 7250SOL    HW233213   1.367   4.582   0.754  1.7813 -0.6374 -1.8694
 7251SOL     OW33214   3.451   1.284   6.544  0.1170  0.3037 -0.6799
 7251SOL    HW133215   3.483   1.196   6.566  0.4614  1.0485  1.7758
 7251SOL    HW233216   3.478   1.304   6.454  0.1155 -1.2603 -1.0365
 7252SOL     OW33217   3.609   2.333  14.396  0.0815  0.0480  0.1942
 7252SOL    HW133218   3.544   2.365  14.333 -1.9204 -3.1252  0.6174
 7252SOL    HW233219   3.605   2.389  14.473  0.6491  1.2456 -0.6496
 7253SOL     OW33220   3.924   3.477   6.241  0.2092 -0.3535 -0.4224
 7253SOL    HW133221   3.917   3.469   6.336  1.1277  0.3810 -0.2908
 7253SOL    HW233222   4.006   3.527   6.235  0.8112 -1.2052  0.5799
 7254SOL     OW33223   2.786   0.012   8.030  0.0319  0.3941  0.3115
 7254SOL    HW133224   2.724   0.082   8.009 -0.7825 -0.2370  0.5783
 7254SOL    HW233225   2.811   4.709   7.942  0.8496 -1.2201  1.0568
 7255SOL     OW33226   3.700   4.374   2.912 -0.8189  0.0080 -0.4105
 7255SOL    HW133227   3.761   4.355   2.841  1.1370 -2.2099  1.8673
 7255SOL    HW233228   3.616   4.337   2.886  0.2990 -1.9275 -1.1956
 7256SOL     OW33229   2.605   3.953   5.464  0.4469  0.2005 -0.1493
 7256SOL    HW133230   2.536   3.998   5.415 -0.5614  0.7940  1.8464
 7256SOL    HW233231   2.627   4.015   5.533  0.6128 -0.2498  0.2026
 7257SOL     OW33232   4.394   0.635   4.158 -0.0133 -0.2885 -0.5964
 7257SOL    HW133233   4.343   0.618   4.238  1.2166  1.9568  0.6848
 7257SOL    HW233234   4.469   0.690   4.181  0.5352 -1.6503  0.7952
 7258SOL     OW33235   4.553   1.986   3.562  0.3404 -0.4321 -0.0182
 7258SOL    HW133236   4.537   1.901   3.522  0.2441 -0.6295  0.4338
 7258SOL    HW233237   4.517   2.046   3.497  0.9693 -0.3321 -0.2778
 7259SOL     OW33238   0.771   2.102   6.863 -0.0931  0.0811  0.7634
 7259SOL    HW133239   0.857   2.073   6.833  0.1488 -0.0037  1.5378
 7259SOL    HW233240   0.791   2.184   6.909 -2.2346  0.7885  0.4576
 7260SOL     OW33241   0.843   4.546   5.439 -0.4439 -0.3167  0.4907
 7260SOL    HW133242   0.772   4.504   5.488 -1.1697 -1.5676 -1.6208
 7260SOL    HW233243   0.844   4.629   5.486 -0.2198 -1.7250  2.9497
 7261SOL     OW33244   4.179   2.154  13.814  0.7446 -0.5490 -0.0709
 7261SOL    HW133245   4.158   2.243  13.843  1.7526 -0.4556  0.3654
 7261SOL    HW233246   4.246   2.181  13.751 -0.4098  2.0787 -0.1743
 7262SOL     OW33247   3.959   2.173   9.501  0.7631  0.4283  0.6481
 7262SOL    HW133248   3.915   2.258   9.490  0.4416 -0.0387 -1.7740
 7262SOL    HW233249   3.919   2.134   9.578  0.8611  0.3973  0.6820
 7263SOL     OW33250   1.576   0.358  10.343 -0.0425  0.1942 -0.0458
 7263SOL    HW133251   1.588   0.295  10.414  0.2028  0.2121 -0.0713
 7263SOL    HW233252   1.491   0.399  10.359 -1.1926 -2.4990  0.6953
 7264SOL     OW33253   2.870   3.456  12.042  0.3101  0.9416 -1.0650
 7264SOL    HW133254   2.825   3.534  12.075 -0.3495  0.2518 -0.3260
 7264SOL    HW233255   2.961   3.466  12.068 -0.5041  0.1229  2.0832
 7265SOL     OW33256   2.118   4.111   4.390  0.0260 -0.4930 -0.0857
 7265SOL    HW133257   2.046   4.050   4.406 -0.1975 -0.6451 -1.6664
 7265SOL    HW233258   2.158   4.112   4.476  0.0526 -5.5663 -0.0419
 7266SOL     OW33259   1.002   0.309   5.845  0.8128  0.2483 -0.0454
 7266SOL    HW133260   1.042   0.387   5.881  1.8858 -0.7799  0.9993
 7266SOL    HW233261   0.942   0.284   5.915  0.3504 -0.6322 -0.7512
 7267SOL     OW33262   4.584   1.941   6.457  0.4127  0.1535  0.2240
 7267SOL    HW133263   4.579   1.845   6.453 -0.9802  0.0884  3.0231
 7267SOL    HW233264   4.566   1.942   6.551  1.6012  0.7863  0.4390
 7268SOL     OW33265   2.773   3.298   2.764 -0.1709  0.5580 -0.0620
 7268SOL    HW133266   2.824   3.375   2.789 -1.1685  1.1706  0.0756
 7268SOL    HW233267   2.692   3.335   2.729 -0.4473  0.2298  0.2339
 7269SOL     OW33268   2.642   3.006   7.102  0.3163  0.0350 -0.3138
 7269SOL    HW133269   2.700   2.930   7.107 -1.7901 -1.6513 -1.7357
 7269SOL    HW233270   2.626   3.021   7.195 -0.0651 -3.4984  0.2172
 7270SOL     OW33271   4.155   3.494   8.713 -0.3964 -0.3443  0.0329
 7270SOL    HW133272   4.216   3.482   8.787 -0.9026 -0.9837  0.3388
 7270SOL    HW233273   4.217   3.468   8.644  0.8974 -2.4711  1.9836
 7271SOL     OW33274   3.304   3.732  15.238  0.3810  0.4214 -0.3600
 7271SOL    HW133275   3.386   3.779  15.255 -0.1540  1.1825  0.1350
 7271SOL    HW233276   3.299   3.673  15.314  1.0627  3.5253  2.1046
 7272SOL     OW33277   4.420   3.901  14.592 -0.0742 -0.4498 -0.3418
 7272SOL    HW133278   4.500   3.917  14.541 -0.2728  1.6730  0.0104
 7272SOL    HW233279   4.404   3.807  14.602  0.2022 -0.4423  0.1315
 7273SOL     OW33280   3.314   0.867  15.378 -0.0478  0.0774  0.1358
 7273SOL    HW133281   3.266   0.788  15.356  1.1067 -0.4667 -0.4263
 7273SOL    HW233282   3.341   0.851  15.468 -2.1829 -0.5109  0.6535
 7274SOL     OW33283   4.207   4.082   3.298 -0.0794  0.3306  0.2653
 7274SOL    HW133284   4.226   4.175   3.306 -0.6157  0.4954 -0.4189
 7274SOL    HW233285   4.120   4.085   3.259 -0.2147 -0.9624  0.4678
 7275SOL     OW33286   4.639   0.993   5.537 -0.1776  0.5053 -0.0585
 7275SOL    HW133287   4.717   1.000   5.482 -0.0943  0.3463  0.0377
 7275SOL    HW233288   4.684   1.016   5.619  0.3440  1.2357 -0.5491
 7276SOL     OW33289   3.934   0.074   1.889 -0.1862 -0.0934  0.5634
 7276SOL    HW133290   3.883   0.026   1.824  1.0939 -0.2672 -0.2885
 7276SOL    HW233291   4.017   0.033   1.867 -0.5443 -0.9860  0.8551
 7277SOL     OW33292   4.060   3.052   4.320  0.0441  0.1006  0.5286
 7277SOL    HW133293   4.082   3.000   4.243 -0.4527 -0.1846  0.5770
 7277SOL    HW233294   4.126   3.121   4.312  1.3652 -1.5172 -2.1863
 7278SOL     OW33295   1.252   0.950   9.842  0.3134  0.6398 -0.9390
 7278SOL    HW133296   1.301   0.870   9.821  0.0704 -0.6086  3.2145
 7278SOL    HW233297   1.182   0.934   9.779  0.2366 -1.4810 -0.3070
 7279SOL     OW33298   0.594   3.507   9.786 -0.0375  0.1270 -0.0321
 7279SOL    HW133299   0.609   3.412   9.791  0.6527  0.2314 -0.2409
 7279SOL    HW233300   0.595   3.515   9.691  0.0356 -2.8468 -0.3068
 7280SOL     OW33301   1.191   1.756  14.752 -0.5341 -0.0434  0.1607
 7280SOL    HW133302   1.101   1.768  14.722 -0.9083 -3.0831  0.0641
 7280SOL    HW233303   1.202   1.835  14.806 -1.2451 -1.6389  2.6409
 7281SOL     OW33304   1.749   2.715   2.394  0.0663  0.0357  0.2737
 7281SOL    HW133305   1.792   2.629   2.387 -1.5345 -0.5615 -2.2154
 7281SOL    HW233306   1.819   2.776   2.417  0.5351 -0.5037  0.2873
 7282SOL     OW33307   1.076   2.072  12.748  0.0857  0.4093 -0.5679
 7282SOL    HW133308   1.093   2.113  12.833  1.3117  1.5581 -1.3751
 7282SOL    HW233309   1.158   2.045  12.708 -0.4724 -1.1398 -0.6551
 7283SOL     OW33310   4.208   0.057   9.293  0.0445 -0.5017 -0.8402
 7283SOL    HW133311   4.178   4.701   9.333  1.4853 -1.3128 -1.4053
 7283SOL    HW233312   4.254   0.093   9.369 -2.7254  1.7960 -0.2494
 7284SOL     OW33313   1.219   3.726   5.930 -0.0797  0.0632  0.5445
 7284SOL    HW133314   1.300   3.775   5.946  0.3954 -0.7434  0.6203
 7284SOL    HW233315   1.235   3.668   5.855 -0.4450 -1.6822  1.8303
 7285SOL     OW33316   1.489   4.492   8.613  0.0403 -0.1134 -0.1781
 7285SOL    HW133317   1.535   4.556   8.666 -1.9585  0.3261  1.0420
 7285SOL    HW233318   1.501   4.539   8.531 -0.7279 -1.1708 -0.9102
 7286SOL     OW33319   4.561   1.996   9.238  0.1350 -0.1192  0.1246
 7286SOL    HW133320   4.549   2.050   9.159 -1.0322  0.0310  0.4013
 7286SOL    HW233321   4.517   2.061   9.293 -0.3716 -0.3042 -0.0556
 7287SOL     OW33322   1.224   3.286  10.367 -1.0050  0.1734  0.3824
 7287SOL    HW133323   1.247   3.273  10.275 -0.1693  0.5357  0.5420
 7287SOL    HW233324   1.310   3.267  10.405 -0.7854  0.2581 -0.0731
 7288SOL     OW33325   0.632   4.518   2.436 -0.0799  0.4355 -0.4171
 7288SOL    HW133326   0.599   4.479   2.517  0.2095  2.1495  0.5303
 7288SOL    HW233327   0.654   4.436   2.391 -2.6925 -0.6403  0.2735
 7289SOL     OW33328   4.403   1.697  10.524  0.0256 -0.5189  0.0619
 7289SOL    HW133329   4.345   1.687  10.600  0.1495 -1.1236  0.0731
 7289SOL    HW233330   4.402   1.792  10.512  1.2760 -0.6514 -1.0166
 7290SOL     OW33331   1.096   4.379  13.085  0.0603  0.3736 -0.4398
 7290SOL    HW133332   1.019   4.385  13.027  1.1671 -2.2760 -2.1815
 7290SOL    HW233333   1.056   4.417  13.163  0.5148  2.9709 -1.4371
 7291SOL     OW33334   3.228   1.776   9.785 -0.0638  0.1571  0.4103
 7291SOL    HW133335   3.141   1.815   9.774  0.5680  1.1567 -1.0853
 7291SOL    HW233336   3.226   1.764   9.879  0.8942 -2.2716  0.1268
 7292SOL     OW33337   3.949   0.524  16.406  0.3159  0.0853 -0.2891
 7292SOL    HW133338   3.908   0.608  16.426  2.4665  0.7130  1.4617
 7292SOL    HW233339   3.877   0.473  16.370 -0.0115  1.0574 -0.9938
 7293SOL     OW33340   1.442   2.746   1.291  0.1516 -0.1191  0.3057
 7293SOL    HW133341   1.490   2.817   1.248  0.8811  0.3329  1.8575
 7293SOL    HW233342   1.349   2.751   1.269 -0.0885 -1.1679  1.0957
 7294SOL     OW33343   1.105   2.778   7.892 -0.2327 -0.3222  0.4841
 7294SOL    HW133344   1.097   2.697   7.942  1.0269  1.2236  3.1673
 7294SOL    HW233345   1.035   2.824   7.938  0.4323  2.5623 -1.4071
 7295SOL     OW33346   2.530   4.709   3.297  0.2047  0.0718 -0.5204
 7295SOL    HW133347   2.578   0.041   3.237  0.2589  0.7389  0.1555
 7295SOL    HW233348   2.442   0.017   3.278  0.2780 -0.3733 -1.6290
 7296SOL     OW33349   1.138   0.831   7.733  0.4369  0.1029  0.0347
 7296SOL    HW133350   1.167   0.739   7.732  2.1713  0.6695 -2.4480
 7296SOL    HW233351   1.197   0.852   7.660  0.8038 -2.5791 -0.4702
 7297SOL     OW33352   4.624   3.327   9.228  0.4047 -0.1832  0.0395
 7297SOL    HW133353   4.716   3.341   9.252  0.9161  0.7267 -2.4377
 7297SOL    HW233354   4.606   3.314   9.321  0.1293  0.6249  0.0977
 7298SOL     OW33355   3.602   1.892   8.673  0.6957 -0.2557 -0.1642
 7298SOL    HW133356   3.573   1.871   8.762  1.0864 -0.2458 -0.0357
 7298SOL    HW233357   3.653   1.970   8.693  0.8542 -1.1141  2.8841
 7299SOL     OW33358   3.419   2.979   7.352  0.1890  0.2810  0.0540
 7299SOL    HW133359   3.386   2.970   7.263  1.9179  0.5039 -0.6183
 7299SOL    HW233360   3.364   2.909   7.389  0.6083  0.0176  0.1916
 7300SOL     OW33361   2.447   1.499   8.135 -0.2823  0.2669  0.0119
 7300SOL    HW133362   2.512   1.480   8.067  1.3244  0.3045  1.5534
 7300SOL    HW233363   2.415   1.588   8.116  0.0364  0.0039 -1.7534
 7301SOL     OW33364   0.389   4.489   5.909 -0.4444  0.0158 -0.0241
 7301SOL    HW133365   0.413   4.420   5.971  0.0120 -2.2795 -2.7231
 7301SOL    HW233366   0.434   4.562   5.951 -2.3369  0.9367  0.3666
 7302SOL     OW33367   1.747   4.243  14.932 -0.2941  0.6715 -0.3801
 7302SOL    HW133368   1.694   4.203  15.002 -1.1348 -0.8249 -1.8550
 7302SOL    HW233369   1.829   4.261  14.976 -0.3146  1.6311 -0.7504
 7303SOL     OW33370   2.087   0.745  10.135  0.3292  0.1397 -0.4982
 7303SOL    HW133371   2.157   0.806  10.158  0.2752 -0.0577  0.1950
 7303SOL    HW233372   2.047   0.759  10.220  0.6053  0.5929 -0.4423
 7304SOL     OW33373   1.637   1.209   7.708  0.2630  1.0345 -0.0659
 7304SOL    HW133374   1.550   1.171   7.716  0.9426 -0.6593 -0.5235
 7304SOL    HW233375   1.685   1.164   7.777 -0.0010  1.4073  0.3539
 7305SOL     OW33376   4.246   3.119   7.488 -0.1271 -0.0952 -0.0746
 7305SOL    HW133377   4.289   3.184   7.543 -3.1218  0.6188  1.4610
 7305SOL    HW233378   4.170   3.096   7.542 -0.1346  0.2187  0.0503
 7306SOL     OW33379   0.673   2.183   6.073 -0.3853 -0.4567  0.1132
 7306SOL    HW133380   0.746   2.135   6.114 -0.6714  0.5117  1.7655
 7306SOL    HW233381   0.616   2.107   6.068  1.8463 -2.2538  1.6930
 7307SOL     OW33382   3.646   3.781   3.615 -1.0494  0.0233  0.2075
 7307SOL    HW133383   3.696   3.862   3.604  0.9009 -1.5054 -2.0155
 7307SOL    HW233384   3.678   3.751   3.701 -2.1023  0.5372  0.7823
 7308SOL     OW33385   3.168   1.833  10.034 -0.1500 -0.0442  0.3202
 7308SOL    HW133386   3.236   1.877  10.086  1.0539 -0.0648 -1.2346
 7308SOL    HW233387   3.134   1.767  10.094  1.2897 -0.7539  0.3647
 7309SOL     OW33388   4.413   3.235   9.799 -0.1642 -0.0519 -0.5193
 7309SOL    HW133389   4.422   3.215   9.892  3.1478 -0.8363 -0.9959
 7309SOL    HW233390   4.491   3.290   9.785  1.0383 -1.4710  0.6055
 7310SOL     OW33391   2.459   1.882   7.031  0.1271 -0.0425  0.4686
 7310SOL    HW133392   2.477   1.800   6.984 -0.1289  0.1988 -0.0548
 7310SOL    HW233393   2.401   1.850   7.099  1.3614 -1.3561  0.9105
 7311SOL     OW33394   1.490   0.429   1.515  0.3510 -0.6532 -0.3219
 7311SOL    HW133395   1.484   0.344   1.471 -2.7214 -0.9539  0.6272
 7311SOL    HW233396   1.399   0.457   1.525 -0.0755 -1.4724 -1.7841
 7312SOL     OW33397   3.065   3.145   0.123 -0.3361  0.1465  0.1594
 7312SOL    HW133398   3.118   3.110   0.196  0.4334  1.2029  0.1013
 7312SOL    HW233399   2.982   3.161   0.167  0.7604 -1.2266  2.7517
 7313SOL     OW33400   1.502   2.315   6.412 -0.0767  0.2809  0.1944
 7313SOL    HW133401   1.474   2.257   6.482  1.8839 -0.1038  0.6570
 7313SOL    HW233402   1.453   2.394   6.432  0.4902  0.3224  1.4056
 7314SOL     OW33403   3.598   0.426   3.789 -0.2281 -0.2741 -0.1491
 7314SOL    HW133404   3.656   0.489   3.746  0.3597 -1.9705 -1.8216
 7314SOL    HW233405   3.514   0.456   3.756 -0.0461  1.0773  0.5777
 7315SOL     OW33406   4.693   2.634   0.868 -0.0139  0.2436 -0.6484
 7315SOL    HW133407   4.700   2.620   0.773 -1.1755  0.2668 -0.7316
 7315SOL    HW233408   4.618   2.575   0.873  0.3619 -0.3530 -1.8537
 7316SOL     OW33409   3.172   2.175  16.760 -0.2679  0.1172  0.1016
 7316SOL    HW133410   3.088   2.172  16.804 -0.2362  0.9536  0.2304
 7316SOL    HW233411   3.212   2.090  16.779 -0.4637  0.0487  0.1955
 7317SOL     OW33412   0.780   0.631   6.002  0.3665  0.5163 -0.2149
 7317SOL    HW133413   0.864   0.660   5.967 -0.1823 -0.9221 -2.7416
 7317SOL    HW233414   0.742   0.713   6.033 -0.2369  1.0290 -2.3220
 7318SOL     OW33415   4.424   1.886   4.832 -0.6041 -0.0209 -0.3590
 7318SOL    HW133416   4.362   1.954   4.803  0.7643  0.8863 -1.1409
 7318SOL    HW233417   4.409   1.888   4.927  1.2303 -0.2344 -0.0671
 7319SOL     OW33418   4.246   3.213  11.811  0.0767  0.0427  0.3329
 7319SOL    HW133419   4.302   3.238  11.884  0.3994 -1.0960  0.4689
 7319SOL    HW233420   4.293   3.258  11.741  1.4662 -1.5209  0.2806
 7320SOL     OW33421   0.580   1.779   5.158  0.4568  0.2552  0.2988
 7320SOL    HW133422   0.642   1.851   5.147  2.5876 -1.9837 -2.1612
 7320SOL    HW233423   0.576   1.740   5.071 -0.6282  0.4025  0.2779
 7321SOL     OW33424   0.260   0.817   8.546  0.1084 -0.5537 -0.5393
 7321SOL    HW133425   0.206   0.810   8.624  1.0877  0.7714  0.2730
 7321SOL    HW233426   0.199   0.868   8.492  0.2950  1.5288  1.2093
 7322SOL     OW33427   0.404   4.328  17.046 -0.0022  0.6621 -0.4421
 7322SOL    HW133428   0.479   4.355  16.993 -0.4360 -0.1497 -1.4640
 7322SOL    HW233429   0.370   4.255  16.994 -0.7683  1.9656 -1.7750
 7323SOL     OW33430   1.664   4.353   3.424  0.2179 -0.8440  0.3581
 7323SOL    HW133431   1.592   4.322   3.479  1.4461 -0.7110  2.0360
 7323SOL    HW233432   1.668   4.275   3.368 -0.4831 -0.5798 -0.0616
 7324SOL     OW33433   3.742   3.685   5.768  0.2630  0.2535 -0.2171
 7324SOL    HW133434   3.766   3.733   5.689 -2.4162  0.4949 -0.8970
 7324SOL    HW233435   3.690   3.755   5.807 -0.2245 -0.5622  0.6000
 7325SOL     OW33436   3.302   1.424  11.784  0.5647 -0.4205 -0.1696
 7325SOL    HW133437   3.279   1.456  11.697  0.5467  2.1575  0.8113
 7325SOL    HW233438   3.364   1.492  11.808 -0.3544  1.0267 -1.9466
 7326SOL     OW33439   3.186   2.532   6.434  0.1017  0.8577 -0.1449
 7326SOL    HW133440   3.222   2.444   6.425 -1.9791 -0.0797  0.6901
 7326SOL    HW233441   3.204   2.566   6.347 -1.0964 -1.7902 -1.4010
 7327SOL     OW33442   0.996   4.192   7.502 -0.4470 -0.2492 -0.1579
 7327SOL    HW133443   0.907   4.157   7.494 -0.4732  0.0073 -1.0447
 7327SOL    HW233444   0.986   4.233   7.588  0.4942 -0.5615  0.1024
 7328SOL     OW33445   1.083   0.142   2.087  0.3386  0.5292  0.4007
 7328SOL    HW133446   1.019   0.210   2.111 -2.3993 -1.4039 -1.3505
 7328SOL    HW233447   1.067   0.079   2.158 -1.3504  1.2015  0.6279
 7329SOL     OW33448   3.731   2.354   2.498 -0.2811  0.2512  0.3114
 7329SOL    HW133449   3.644   2.384   2.525  0.6292  1.8108  1.5389
 7329SOL    HW233450   3.777   2.434   2.473  0.6965  0.4681  2.8048
 7330SOL     OW33451   0.064   2.003  10.021 -0.2976 -0.2503  0.2052
 7330SOL    HW133452   0.078   1.939  10.091 -1.0834 -1.8029 -1.0680
 7330SOL    HW233453   0.143   2.056  10.035 -0.5286  0.3607 -0.8276
 7331SOL     OW33454   3.723   2.475  17.174 -0.2383  0.1882 -0.1793
 7331SOL    HW133455   3.662   2.450  17.243  1.3090 -1.7194  0.4943
 7331SOL    HW233456   3.676   2.453  17.094 -0.2800 -0.0251 -0.0959
 7332SOL     OW33457   2.688   3.776   3.491 -0.5225 -0.1410 -0.4244
 7332SOL    HW133458   2.636   3.856   3.506 -1.0692 -0.3518 -1.1438
 7332SOL    HW233459   2.656   3.753   3.403 -1.5532 -0.6597  0.0892
 7333SOL     OW33460   1.584   0.250   1.065 -0.2483  0.1092 -0.1241
 7333SOL    HW133461   1.642   0.231   0.992  1.0399 -0.2795  0.9952
 7333SOL    HW233462   1.644   0.298   1.122 -1.5640  0.0205  1.3604
 7334SOL     OW33463   2.988   3.764   4.155  0.6568  0.1643  0.1445
 7334SOL    HW133464   3.067   3.712   4.137  0.8796  0.5949 -0.1143
 7334SOL    HW233465   2.930   3.688   4.157 -0.1849  0.7599 -1.2972
 7335SOL     OW33466   4.571   1.574   6.174 -0.1799 -0.0855 -0.6780
 7335SOL    HW133467   4.534   1.561   6.086  2.1739  0.8756 -1.7923
 7335SOL    HW233468   4.510   1.639   6.209  0.0793 -0.4593  0.4548
 7336SOL     OW33469   3.880   0.841   6.840 -0.0206  0.0351  0.2461
 7336SOL    HW133470   3.955   0.787   6.866 -0.5580 -0.6883  0.3051
 7336SOL    HW233471   3.866   0.891   6.919 -0.2415 -0.3437  0.4482
 7337SOL     OW33472   0.847   2.073   5.690 -0.2570 -0.3822 -0.1193
 7337SOL    HW133473   0.806   2.156   5.669 -0.8822 -0.6262  0.1245
 7337SOL    HW233474   0.763   2.027   5.685 -0.0438 -0.9944  1.6710
 7338SOL     OW33475   4.156   0.036   2.614  0.7404  0.3235  0.0235
 7338SOL    HW133476   4.078   4.718   2.650 -0.2234 -0.6930 -3.3213
 7338SOL    HW233477   4.218   4.699   2.654 -0.8738 -0.1169  1.8578
 7339SOL     OW33478   3.225   0.214   7.605 -0.0028  0.3984  0.3418
 7339SOL    HW133479   3.236   0.282   7.671 -0.7251 -1.0255  1.9316
 7339SOL    HW233480   3.175   0.146   7.649  0.6030  0.7386  1.5385
 7340SOL     OW33481   3.788   3.915   9.368 -0.0946  0.0403 -0.0275
 7340SOL    HW133482   3.880   3.894   9.353  0.3375  0.9212  1.3198
 7340SOL    HW233483   3.774   3.975   9.295  1.4300  1.2307  0.6495
 7341SOL     OW33484   2.141   1.730   0.042  0.4116  0.4679  0.0847
 7341SOL    HW133485   2.209   1.747   0.107  1.2849  0.8394 -0.9411
 7341SOL    HW233486   2.120   1.820   0.015  1.6833  0.9178  0.5752
 7342SOL     OW33487   4.392   1.171   5.476 -0.4849 -0.4553 -0.3204
 7342SOL    HW133488   4.380   1.207   5.388  1.0713  1.1776  0.1394
 7342SOL    HW233489   4.476   1.125   5.479  0.2385  0.9763  1.4624
 7343SOL     OW33490   0.075   0.001  15.544  0.0929 -0.2868  0.7591
 7343SOL    HW133491   0.053   0.060  15.472 -0.6391 -1.9259 -0.3588
 7343SOL    HW233492   0.076   0.055  15.623  0.9115  1.6232 -0.5450
 7344SOL     OW33493   3.100   4.659   0.650 -0.0209 -0.0702  0.0233
 7344SOL    HW133494   3.180   4.622   0.612 -0.6819 -1.7700  0.2800
 7344SOL    HW233495   3.125   0.026   0.657  0.7656 -0.1888 -1.1564
 7345SOL     OW33496   1.844   0.882   6.372 -0.3205 -0.6544  0.2889
 7345SOL    HW133497   1.774   0.827   6.406 -0.1533 -1.5035 -0.7508
 7345SOL    HW233498   1.811   0.971   6.390  0.0701 -0.1280 -1.5719
 7346SOL     OW33499   4.255   3.938  11.988 -0.4167 -0.1466 -0.9285
 7346SOL    HW133500   4.290   3.888  11.914  4.0972 -0.4343  1.4170
 7346SOL    HW233501   4.284   3.884  12.061  0.9038 -1.5869 -2.4988
 7347SOL     OW33502   2.079   2.207   6.237  0.4088  0.0750 -0.1551
 7347SOL    HW133503   2.030   2.214   6.320  0.5875 -1.3633  0.0653
 7347SOL    HW233504   2.062   2.114   6.220  0.8212 -0.0774  0.2679
 7348SOL     OW33505   0.954   3.739   0.447  0.1709  0.0535 -0.1148
 7348SOL    HW133506   1.022   3.788   0.400  0.0410  0.3670  0.0219
 7348SOL    HW233507   0.999   3.672   0.498 -0.5679  1.0847  1.9074
 7349SOL     OW33508   3.530   1.884   4.186 -0.6651 -0.1874  0.5185
 7349SOL    HW133509   3.578   1.946   4.241  0.0199 -1.0230  0.8671
 7349SOL    HW233510   3.520   1.922   4.099  1.5373  0.0847  0.3805
 7350SOL     OW33511   4.127   1.976  15.718 -0.2752 -0.2256  0.1129
 7350SOL    HW133512   4.137   1.896  15.769  2.9715  1.3983  2.0507
 7350SOL    HW233513   4.187   1.950  15.647  0.6784 -1.4812  1.3886
 7351SOL     OW33514   1.945   0.995   7.597  0.4145  0.4411 -0.2958
 7351SOL    HW133515   1.940   1.032   7.509  1.4648  1.3905  0.0297
 7351SOL    HW233516   2.039   0.982   7.609  0.3500 -1.0332 -1.3767
 7352SOL     OW33517   1.987   2.993   8.101 -0.7282 -0.1431 -0.4201
 7352SOL    HW133518   1.965   2.967   8.012  0.3245 -1.2497 -0.3589
 7352SOL    HW233519   2.065   2.939   8.117 -0.7291 -0.8007 -2.7153
 7353SOL     OW33520   2.627   4.365   4.440  0.6679 -0.4673 -0.1879
 7353SOL    HW133521   2.612   4.383   4.347  3.4851  1.6378 -0.2233
 7353SOL    HW233522   2.683   4.438   4.469 -1.1947  0.4208  1.1768
 7354SOL     OW33523   4.500   0.098   3.610 -0.0323  0.2230 -0.1177
 7354SOL    HW133524   4.502   0.045   3.689  1.2896  0.7887  0.2279
 7354SOL    HW233525   4.591   0.086   3.582  0.4904  1.2649  1.1353
 7355SOL     OW33526   3.084   3.811   8.317 -0.6024  0.2018 -0.5439
 7355SOL    HW133527   3.054   3.727   8.283 -0.5988  0.4284 -1.0973
 7355SOL    HW233528   3.010   3.849   8.365 -0.2150  0.5446 -0.2158
 7356SOL     OW33529   0.201   3.265  10.688 -0.5012  0.1299 -0.4284
 7356SOL    HW133530   0.256   3.274  10.610  1.2937  1.5543  1.0194
 7356SOL    HW233531   0.268   3.250  10.754 -2.0084  0.5902  1.1910
 7357SOL     OW33532   4.634   0.339   3.812  0.0669  0.4239 -0.1269
 7357SOL    HW133533   4.568   0.284   3.769  0.4379 -0.5861  0.6044
 7357SOL    HW233534   4.706   0.333   3.749  1.3957  1.6867  1.2867
 7358SOL     OW33535   0.492   2.617   6.104  0.4579  0.0785  0.2276
 7358SOL    HW133536   0.575   2.574   6.081  1.9888  3.0173  0.2326
 7358SOL    HW233537   0.516   2.681   6.171  1.6170 -1.0528  0.8791
 7359SOL     OW33538   3.904   4.652   2.690 -0.0405  0.6983 -0.2191
 7359SOL    HW133539   3.882   0.017   2.710  2.5187  1.4002 -0.5150
 7359SOL    HW233540   3.866   4.640   2.603  2.4985 -0.0531 -1.2425
 7360SOL     OW33541   2.241   1.921  13.100  0.5678  0.0980 -0.1385
 7360SOL    HW133542   2.290   1.878  13.170 -1.2001  0.2476  1.1893
 7360SOL    HW233543   2.283   1.871  13.030  0.7053 -3.7732  2.7149
 7361SOL     OW33544   3.020   0.570   5.925  0.3358 -0.2634  0.2663
 7361SOL    HW133545   3.040   0.602   6.013  1.5070 -0.4975  0.0767
 7361SOL    HW233546   2.937   0.525   5.942  0.1743 -0.4517 -1.0973
 7362SOL     OW33547   3.198   4.390   7.055 -0.3005  0.2692 -0.6217
 7362SOL    HW133548   3.127   4.356   7.001 -1.0380  2.0321 -0.7430
 7362SOL    HW233549   3.207   4.322   7.123 -0.5240  0.3197 -0.5443
 7363SOL     OW33550   3.930   0.741   2.788 -0.6905 -0.0440  0.2251
 7363SOL    HW133551   3.979   0.779   2.862  0.1991  2.0788 -1.4405
 7363SOL    HW233552   3.842   0.766   2.816 -0.9293 -1.7882  0.9992
 7364SOL     OW33553   4.436   1.222   2.366  0.0576 -0.3925  0.0470
 7364SOL    HW133554   4.382   1.148   2.338  2.4614 -1.3019 -2.2175
 7364SOL    HW233555   4.512   1.198   2.312  0.2493 -1.6361  0.8554
 7365SOL     OW33556   4.518   1.970  14.535 -0.9869 -0.1098 -0.0441
 7365SOL    HW133557   4.570   1.989  14.458  1.8619 -1.8726  1.4303
 7365SOL    HW233558   4.434   2.011  14.515 -0.5092  1.0763  0.4195
 7366SOL     OW33559   3.682   0.383   4.648  0.3293 -0.3648 -0.0862
 7366SOL    HW133560   3.618   0.435   4.696  0.2769 -1.3649  0.9322
 7366SOL    HW233561   3.752   0.399   4.712  1.2836  0.8752 -1.4422
 7367SOL     OW33562   4.367   1.876   2.046  0.8467 -0.7014 -0.1374
 7367SOL    HW133563   4.371   1.803   2.109 -0.9610 -0.0749  0.7013
 7367SOL    HW233564   4.451   1.866   2.002  2.1703  0.7137  2.0446
 7368SOL     OW33565   0.340   1.956   5.718  0.0309  0.2506 -0.0465
 7368SOL    HW133566   0.331   2.014   5.642  1.5131 -0.4605 -0.7625
 7368SOL    HW233567   0.318   1.869   5.683  0.9522 -0.3006  0.7719
 7369SOL     OW33568   3.575   0.768   1.792 -0.2880  0.0268  0.0381
 7369SOL    HW133569   3.637   0.797   1.858  0.7617 -1.1858 -0.4073
 7369SOL    HW233570   3.614   0.795   1.709 -0.8549 -1.8924 -0.8559
 7370SOL     OW33571   3.242   1.836   7.061 -0.4623  0.5213 -0.0876
 7370SOL    HW133572   3.205   1.837   7.149  0.6842  0.8552  0.3901
 7370SOL    HW233573   3.176   1.896   7.027 -0.2420  0.0346 -1.4030
 7371SOL     OW33574   2.296   3.446   2.487  0.1343 -0.2491  0.0735
 7371SOL    HW133575   2.317   3.539   2.481 -1.1660  0.0920  0.8099
 7371SOL    HW233576   2.267   3.436   2.397 -0.1219  1.4586 -0.0232
 7372SOL     OW33577   2.737   0.699   4.012 -0.5750 -0.0905 -0.3424
 7372SOL    HW133578   2.743   0.647   4.092 -1.5697 -0.0371 -0.2241
 7372SOL    HW233579   2.818   0.671   3.971 -0.3535  0.2351 -0.1314
 7373SOL     OW33580   1.370   3.421   8.429 -0.0937 -0.1449 -0.5239
 7373SOL    HW133581   1.422   3.499   8.448  0.3183 -1.0891  2.2009
 7373SOL    HW233582   1.383   3.411   8.334  1.6160  0.0012 -0.3033
 7374SOL     OW33583   1.232   1.378  11.381 -0.5157  0.1474 -0.3734
 7374SOL    HW133584   1.281   1.437  11.322  0.7688  1.6924  2.2597
 7374SOL    HW233585   1.148   1.423  11.391 -1.3479 -0.9884 -2.2194
 7375SOL     OW33586   1.963   1.514   5.358 -0.7056 -0.5043  0.0037
 7375SOL    HW133587   1.984   1.605   5.340  2.0312 -1.2694 -0.6108
 7375SOL    HW233588   2.010   1.461   5.294 -0.6361 -1.3296  0.7224
 7376SOL     OW33589   0.230   2.046   0.556  0.4779  0.2674  0.1767
 7376SOL    HW133590   0.172   1.972   0.537  1.0125 -0.6739  2.1972
 7376SOL    HW233591   0.212   2.053   0.650  0.4722 -0.0863  0.2012
 7377SOL     OW33592   3.880   1.183   1.382 -0.3596  0.1968  0.1418
 7377SOL    HW133593   3.946   1.131   1.336 -2.1304 -0.2233 -1.9710
 7377SOL    HW233594   3.814   1.195   1.313  2.6000  1.7272 -2.4078
 7378SOL     OW33595   3.184   3.221   4.289  0.5170 -0.5883 -0.0929
 7378SOL    HW133596   3.267   3.172   4.292  0.2163 -1.2814 -3.1009
 7378SOL    HW233597   3.182   3.231   4.194 -1.8769  0.2764  0.0511
 7379SOL     OW33598   1.698   3.837  14.565  0.2092  0.0503 -0.1486
 7379SOL    HW133599   1.738   3.824  14.479  1.8807  0.1922  0.5996
 7379SOL    HW233600   1.684   3.931  14.565  0.6907  0.1281  1.1791
 7380SOL     OW33601   2.023   0.869  15.168 -0.0142  0.3759  0.2718
 7380SOL    HW133602   2.081   0.904  15.236 -0.7921  0.4104  0.9155
 7380SOL    HW233603   1.964   0.828  15.231  0.0150  1.0090  0.7096
 7381SOL     OW33604   0.238   4.506   7.635 -0.6756  0.3169  0.0877
 7381SOL    HW133605   0.295   4.503   7.558  2.0830  0.3064  2.1046
 7381SOL    HW233606   0.237   4.417   7.670 -2.2995  0.1159 -0.5035
 7382SOL     OW33607   3.520   0.335   0.986 -0.3667  0.1797  0.1120
 7382SOL    HW133608   3.431   0.356   1.015 -1.8080 -1.9108 -2.8229
 7382SOL    HW233609   3.565   0.337   1.070  1.8938  0.2332 -1.1103
 7383SOL     OW33610   3.855   3.111   7.280 -0.2516  0.0871  0.5217
 7383SOL    HW133611   3.916   3.041   7.303  1.1398  0.9903 -0.3991
 7383SOL    HW233612   3.918   3.177   7.251  0.3109 -1.5682 -1.9979
 7384SOL     OW33613   3.429   1.506   7.451 -0.1143  0.4152  0.0550
 7384SOL    HW133614   3.466   1.444   7.388  1.2387  0.6774  0.6055
 7384SOL    HW233615   3.457   1.463   7.532  1.0706  2.3616  0.6770
 7385SOL     OW33616   1.733   0.345   2.361 -0.6339 -0.0226  0.3400
 7385SOL    HW133617   1.800   0.373   2.299 -0.3733 -0.4873  0.4107
 7385SOL    HW233618   1.652   0.382   2.325  0.1115  1.9512  0.7161
 7386SOL     OW33619   2.342   4.280   4.060 -0.4688  1.0269  0.0971
 7386SOL    HW133620   2.250   4.289   4.036 -1.1444 -0.3279  2.1274
 7386SOL    HW233621   2.361   4.186   4.056 -2.3915  0.6633 -0.5029
 7387SOL     OW33622   4.550   1.479  15.955 -0.1849  0.4080  0.0779
 7387SOL    HW133623   4.572   1.562  15.996  0.5422 -0.2050  0.9363
 7387SOL    HW233624   4.458   1.495  15.974 -0.5082 -3.2792  1.6901
 7388SOL     OW33625   1.822   0.823  17.391 -0.9196 -0.7596 -0.0390
 7388SOL    HW133626   1.734   0.793  17.368 -1.2098  2.0555 -2.7071
 7388SOL    HW233627   1.858   0.745  17.431  0.2891 -0.4766 -0.5582
 7389SOL     OW33628   2.016   0.534  15.367 -0.2057  0.1830  0.1795
 7389SOL    HW133629   1.994   0.593  15.295 -0.0674  0.9975  0.8063
 7389SOL    HW233630   2.006   0.605  15.431 -1.6751  2.2096 -2.2944
 7390SOL     OW33631   4.226   2.532   2.109  0.2647  0.0779 -0.6815
 7390SOL    HW133632   4.261   2.547   2.021  0.8277  2.0585 -0.1193
 7390SOL    HW233633   4.231   2.623   2.139  0.6641  0.0189 -0.5723
 7391SOL     OW33634   4.113   0.900  16.204  0.2194 -0.5109 -0.0432
 7391SOL    HW133635   4.152   0.834  16.146 -1.6588 -2.2118  0.6506
 7391SOL    HW233636   4.156   0.874  16.285  0.4733  0.5473  0.1595
 7392SOL     OW33637   1.540   0.281   3.341 -0.4582 -0.0749  0.0157
 7392SOL    HW133638   1.516   0.285   3.249 -1.3141 -2.4297  0.1477
 7392SOL    HW233639   1.529   0.188   3.361  0.6768 -0.1932  0.0716
 7393SOL     OW33640   1.435   0.145  12.090 -0.3375  0.1596  0.4222
 7393SOL    HW133641   1.528   0.131  12.072 -0.9440  0.2517 -2.8051
 7393SOL    HW233642   1.434   0.175  12.181 -2.8050 -2.5270  1.2770
 7394SOL     OW33643   3.443   3.071   3.118 -0.6244 -0.0515 -0.2374
 7394SOL    HW133644   3.383   3.040   3.050 -0.1653 -1.8837  0.2134
 7394SOL    HW233645   3.526   3.067   3.070  0.5506  0.7463  1.7017
 7395SOL     OW33646   2.466   4.327   2.671 -0.4564  0.6115  0.4699
 7395SOL    HW133647   2.495   4.245   2.632  1.9991  1.2211  1.0206
 7395SOL    HW233648   2.517   4.327   2.752 -2.4983  0.7237  1.7556
 7396SOL     OW33649   3.438   3.686  13.669 -0.1565 -0.4465 -0.6284
 7396SOL    HW133650   3.492   3.762  13.646 -1.7061  0.6545 -0.6258
 7396SOL    HW233651   3.361   3.704  13.616  0.5664 -2.3392 -2.2976
 7397SOL     OW33652   1.359   3.728   8.345 -0.3766  0.0543 -0.5486
 7397SOL    HW133653   1.295   3.696   8.409  0.7574  1.6667  1.3974
 7397SOL    HW233654   1.316   3.747   8.262  1.3624 -0.4605 -1.5651
 7398SOL     OW33655   0.029   3.524   9.492  0.1234  0.3683  0.5107
 7398SOL    HW133656   4.693   3.582   9.538  0.0373 -0.2355  1.1676
 7398SOL    HW233657   0.016   3.442   9.541  0.2079 -0.3363 -0.6346
 7399SOL     OW33658   2.820   3.270  14.979 -0.2581  0.4956  0.0307
 7399SOL    HW133659   2.828   3.340  14.914  0.3115  0.1652 -0.2638
 7399SOL    HW233660   2.741   3.220  14.958 -0.0669  1.2277 -2.4967
 7400SOL     OW33661   1.045   1.280   6.209  0.5158 -0.5205  0.0316
 7400SOL    HW133662   1.033   1.227   6.288  2.8414 -1.5839 -0.3623
 7400SOL    HW233663   1.063   1.373   6.227  0.9678 -0.8337  1.2112
 7401SOL     OW33664   0.090   3.207   2.759 -0.3967  0.4583  0.7388
 7401SOL    HW133665   0.004   3.164   2.759  0.3694 -1.0857 -0.7913
 7401SOL    HW233666   0.069   3.255   2.679 -0.2987  0.3738  0.6630
 7402SOL     OW33667   1.439   1.341   5.847 -0.1727 -0.3125 -0.1187
 7402SOL    HW133668   1.457   1.262   5.897 -2.0618 -0.1420  0.8461
 7402SOL    HW233669   1.348   1.352   5.876  0.1216 -1.2029  1.1532
 7403SOL     OW33670   4.691   1.724  12.191 -0.3855  0.0067  0.1590
 7403SOL    HW133671   0.015   1.675  12.257  1.3699 -1.6537 -2.3813
 7403SOL    HW233672   4.701   1.810  12.231 -0.0081 -0.6016  1.3659
 7404SOL     OW33673   4.626   0.335  13.562  0.6023  0.4717 -1.0008
 7404SOL    HW133674   4.536   0.364  13.571  1.1246  2.3614 -1.9134
 7404SOL    HW233675   4.663   0.364  13.646  0.0407 -2.8951  0.3944
 7405SOL     OW33676   0.006   4.642  16.367  1.1210 -0.1353 -0.0340
 7405SOL    HW133677   4.723   4.561  16.418 -1.8395 -0.3772 -0.9256
 7405SOL    HW233678   0.006   4.708  16.437  0.6678  0.8905 -1.0116
 7406SOL     OW33679   3.148   4.516   1.877 -0.0200  0.3172 -0.0989
 7406SOL    HW133680   3.135   4.496   1.784 -0.3527  1.7554 -0.3582
 7406SOL    HW233681   3.241   4.501   1.892 -0.2299  0.7666  1.6328
 7407SOL     OW33682   0.072   3.712   0.837 -0.1359  0.3634 -0.3803
 7407SOL    HW133683   0.140   3.662   0.882  0.9595  3.6920  1.6583
 7407SOL    HW233684   0.087   3.798   0.876  2.1734 -0.1810 -0.0440
 7408SOL     OW33685   1.440   0.255   2.788 -0.6365 -0.1030  0.5427
 7408SOL    HW133686   1.362   0.310   2.793 -0.8749 -0.2661 -1.2739
 7408SOL    HW233687   1.427   0.225   2.698  1.5211  0.3254  0.0722
 7409SOL     OW33688   3.208   4.668  11.062 -0.0358 -0.2216  0.0861
 7409SOL    HW133689   3.173   4.712  11.139  0.5733 -2.3993  1.6157
 7409SOL    HW233690   3.185   4.575  11.061 -1.0792  0.0525 -0.2698
 7410SOL     OW33691   3.798   3.472   8.380  0.4574  0.1262  0.1394
 7410SOL    HW133692   3.751   3.539   8.330 -0.3227 -0.2020  0.4220
 7410SOL    HW233693   3.801   3.508   8.468 -0.6503 -1.7231  0.9339
 7411SOL     OW33694   4.205   3.749  11.260 -0.0602 -0.5682  0.0242
 7411SOL    HW133695   4.231   3.694  11.187  0.3013 -0.7498  0.2957
 7411SOL    HW233696   4.241   3.703  11.336 -0.3411 -2.5786 -1.0876
 7412SOL     OW33697   4.311   2.720   1.680 -0.2061  0.8265 -0.3689
 7412SOL    HW133698   4.254   2.645   1.697 -1.5415  1.7258 -0.9307
 7412SOL    HW233699   4.341   2.715   1.771 -1.7350 -0.5450  0.0603
 7413SOL     OW33700   3.439   2.850   0.969 -0.1605  0.2990  0.0887
 7413SOL    HW133701   3.514   2.855   0.910 -1.4768 -1.0764 -1.6841
 7413SOL    HW233702   3.423   2.943   0.986  0.6604  0.1306  1.7337
 7414SOL     OW33703   2.241   4.437  10.759 -0.8296  0.0404  0.0768
 7414SOL    HW133704   2.190   4.486  10.824  0.1885 -1.8400  2.2675
 7414SOL    HW233705   2.311   4.501  10.745 -2.7015  2.0185 -0.2296
 7415SOL     OW33706   2.555   0.888   0.418 -0.3254 -0.5605 -0.0530
 7415SOL    HW133707   2.543   0.825   0.489 -0.2897 -0.2366  0.2381
 7415SOL    HW233708   2.564   0.972   0.462 -3.0734  0.3528 -1.2278
 7416SOL     OW33709   2.530   1.974  15.276  0.2542 -0.0708 -0.9206
 7416SOL    HW133710   2.604   2.007  15.225  0.5633  0.5954 -0.0396
 7416SOL    HW233711   2.548   1.880  15.280 -0.9685 -0.1802  2.4994
 7417SOL     OW33712   2.909   3.340   2.338  0.4344 -0.6980  0.0486
 7417SOL    HW133713   2.860   3.287   2.275  0.9183  0.9977 -1.7273
 7417SOL    HW233714   2.900   3.280   2.413 -3.3309 -1.2964 -0.9247
 7418SOL     OW33715   1.712   0.130   2.539 -0.1564  0.0801  0.0499
 7418SOL    HW133716   1.788   0.083   2.505  0.9836  1.1195  1.1470
 7418SOL    HW233717   1.723   0.221   2.513  2.0320 -0.2536 -0.2092
 7419SOL     OW33718   3.330   1.346  12.564 -0.3184 -0.1382  0.1487
 7419SOL    HW133719   3.240   1.352  12.530  0.5934 -0.8232 -2.4238
 7419SOL    HW233720   3.374   1.353  12.479  1.4358  2.1962  1.2645
 7420SOL     OW33721   1.909   2.693   7.645 -0.0894  0.0313 -0.5630
 7420SOL    HW133722   1.868   2.721   7.564  1.5848 -0.3180 -1.5433
 7420SOL    HW233723   1.844   2.638   7.689 -0.6522  0.4428 -0.8885
 7421SOL     OW33724   2.719   4.426   4.067  0.0522  0.0844  0.5388
 7421SOL    HW133725   2.745   4.334   4.061 -0.7367 -0.1775  1.0625
 7421SOL    HW233726   2.699   4.430   3.973 -0.0839 -0.4264  0.5465
 7422SOL     OW33727   3.728   3.723   6.384 -0.2549 -0.4837 -0.3800
 7422SOL    HW133728   3.814   3.727   6.426 -0.0574  3.3235 -1.1105
 7422SOL    HW233729   3.739   3.677   6.302 -2.3659  0.6831 -1.3084
 7423SOL     OW33730   3.190   1.432   4.609 -0.5380  0.0610  0.6224
 7423SOL    HW133731   3.117   1.404   4.553  0.9218 -1.1712 -0.6482
 7423SOL    HW233732   3.205   1.353   4.661 -0.6146 -0.6639 -0.4340
 7424SOL     OW33733   3.901   4.093  10.916 -0.1945 -0.5214 -0.6348
 7424SOL    HW133734   3.938   4.103  10.828 -2.3492 -3.1709 -1.8395
 7424SOL    HW233735   3.966   4.026  10.938 -2.0606 -0.9766  3.4470
 7425SOL     OW33736   3.465   0.812  15.099 -0.1062 -1.3160  0.3572
 7425SOL    HW133737   3.379   0.778  15.124 -0.8055 -0.8823 -1.4668
 7425SOL    HW233738   3.524   0.743  15.130  0.5540 -1.5695 -1.4498
 7426SOL     OW33739   1.374   1.847   5.351 -0.1042  0.1611  0.5956
 7426SOL    HW133740   1.320   1.901   5.294  0.7937  0.4989  0.0652
 7426SOL    HW233741   1.423   1.906   5.410  3.9103 -1.8107 -0.7727
 7427SOL     OW33742   3.810   0.190   2.697 -0.4447  0.2527  0.1915
 7427SOL    HW133743   3.782   0.264   2.642  0.9046  1.0412  0.5828
 7427SOL    HW233744   3.745   0.121   2.682 -0.9625  1.0876 -1.4635
 7428SOL     OW33745   3.508   2.318   6.756  0.5693 -0.3900  0.4212
 7428SOL    HW133746   3.513   2.224   6.777 -0.1669 -0.7389 -0.9394
 7428SOL    HW233747   3.494   2.346   6.846 -2.6146 -0.2799 -0.1182
 7429SOL     OW33748   4.077   1.910   7.150  0.0330  0.2169 -0.3066
 7429SOL    HW133749   4.051   1.992   7.192  1.6186  0.9283 -0.7194
 7429SOL    HW233750   4.047   1.849   7.218 -2.2258 -0.1223 -1.6040
 7430SOL     OW33751   1.429   1.360   7.953  0.6224  0.0099 -0.2511
 7430SOL    HW133752   1.413   1.271   7.986  0.4398 -0.1465 -0.7559
 7430SOL    HW233753   1.479   1.339   7.874 -1.6072 -0.0905 -1.6376
 7431SOL     OW33754   3.397   1.196   9.125  0.5046  0.4239 -0.6179
 7431SOL    HW133755   3.396   1.161   9.036  1.9543  0.7100 -0.7443
 7431SOL    HW233756   3.476   1.156   9.162 -1.3082 -2.3459  0.2856
 7432SOL     OW33757   1.570   4.063  11.906  0.0454 -0.1013 -0.0050
 7432SOL    HW133758   1.650   4.011  11.904  0.5772  0.7879 -1.9511
 7432SOL    HW233759   1.510   4.003  11.950  1.0402 -1.3533 -0.3573
 7433SOL     OW33760   4.400   4.390   4.743 -0.1474  0.4568 -0.2059
 7433SOL    HW133761   4.394   4.433   4.828 -0.4423 -2.6023  1.3153
 7433SOL    HW233762   4.368   4.302   4.764  0.8769 -0.0213 -0.6400
 7434SOL     OW33763   4.419   0.194   4.438  0.6287 -0.0565  0.0159
 7434SOL    HW133764   4.384   0.141   4.510  1.7661 -0.6846  0.1091
 7434SOL    HW233765   4.377   0.150   4.364  1.6019  0.5347 -0.8788
 7435SOL     OW33766   1.630   1.991   0.073 -0.0107 -0.6946  0.0329
 7435SOL    HW133767   1.666   1.932   0.007  0.3561 -0.9748  0.4774
 7435SOL    HW233768   1.577   2.036   0.007 -0.7840  0.5348  1.4975
 7436SOL     OW33769   2.311   4.228  15.083  0.4174 -0.4783  0.0758
 7436SOL    HW133770   2.388   4.285  15.076 -0.5827  1.0365  1.4416
 7436SOL    HW233771   2.348   4.160  15.139  1.9104  0.3414  0.1070
 7437SOL     OW33772   2.079   1.562   2.156  0.3543 -0.2281  0.7065
 7437SOL    HW133773   2.136   1.540   2.230 -0.1494 -1.1992  0.7996
 7437SOL    HW233774   2.129   1.536   2.078 -0.4636 -0.2018  0.1717
 7438SOL     OW33775   2.583   1.722   5.893  0.2309 -0.0347  0.2678
 7438SOL    HW133776   2.553   1.813   5.902  1.6224  0.5246 -0.6877
 7438SOL    HW233777   2.504   1.676   5.922  1.1843 -1.5418  0.4919
 7439SOL     OW33778   2.685   1.123   5.749 -0.0208 -0.1909  0.2647
 7439SOL    HW133779   2.630   1.158   5.679  0.6377  0.3324  0.0044
 7439SOL    HW233780   2.734   1.203   5.772  0.2969 -0.3945  0.2983
 7440SOL     OW33781   2.594   2.217   2.579  0.7231 -0.6104 -0.0628
 7440SOL    HW133782   2.573   2.279   2.509  1.7098 -1.4079 -1.0529
 7440SOL    HW233783   2.677   2.186   2.545  1.8884  3.2462 -0.6576
 7441SOL     OW33784   4.595   0.965   7.870 -0.1182  0.0742  0.1268
 7441SOL    HW133785   4.535   1.026   7.912  2.4959  1.6894  1.5012
 7441SOL    HW233786   4.673   1.003   7.912  0.9568 -0.3057 -1.5233
 7442SOL     OW33787   1.416   1.147  12.366  0.1117 -0.0624 -0.0146
 7442SOL    HW133788   1.323   1.169  12.373  0.1754  0.8220 -2.0939
 7442SOL    HW233789   1.417   1.136  12.271 -0.0799  0.0711 -0.0329
 7443SOL     OW33790   1.797   1.373   1.410  0.1240  0.5444  0.1767
 7443SOL    HW133791   1.802   1.305   1.343 -0.4018  0.9393 -0.2640
 7443SOL    HW233792   1.872   1.351   1.465 -0.3286  0.3107  0.7003
 7444SOL     OW33793   2.635   1.338  12.531  0.6449  0.2198  0.2145
 7444SOL    HW133794   2.728   1.342  12.551  0.4934 -0.1545  1.0015
 7444SOL    HW233795   2.630   1.273  12.460 -1.2661  3.5032 -2.6400
 7445SOL     OW33796   0.346   4.503   1.791 -0.1653 -0.3840 -0.4961
 7445SOL    HW133797   0.372   4.454   1.713  1.1696  0.7166 -0.7621
 7445SOL    HW233798   0.428   4.547   1.817 -2.5210  2.7267  1.7134
 7446SOL     OW33799   1.983   1.681  10.344 -0.3484 -0.1247  0.1569
 7446SOL    HW133800   1.990   1.710  10.252  2.8640 -0.3715  0.3186
 7446SOL    HW233801   1.895   1.643  10.341 -0.1907 -0.5576  1.2152
 7447SOL     OW33802   3.532   4.199   2.713 -0.2018  0.1753 -0.2878
 7447SOL    HW133803   3.462   4.261   2.694 -1.3322 -1.0568 -0.1754
 7447SOL    HW233804   3.561   4.183   2.623 -1.2133 -1.0961 -0.4027
 7448SOL     OW33805   1.463   4.389   4.670  0.4142 -0.2197  0.1255
 7448SOL    HW133806   1.548   4.356   4.640 -0.2452 -1.2581 -0.5888
 7448SOL    HW233807   1.415   4.399   4.587  0.5231 -0.7117  0.0001
 7449SOL     OW33808   1.868   3.375   8.494 -0.0545  0.4226  0.0155
 7449SOL    HW133809   1.780   3.339   8.508  0.3208 -0.1073  0.9766
 7449SOL    HW233810   1.918   3.300   8.461 -0.1277  0.0998  0.6493
 7450SOL     OW33811   3.744   1.363   2.323 -0.8020 -0.0598 -0.4046
 7450SOL    HW133812   3.681   1.310   2.373 -0.9650  0.2860 -0.2456
 7450SOL    HW233813   3.725   1.364   2.229 -0.3267  1.4319 -0.4823
 7451SOL     OW33814   0.795   3.806   8.723  0.4211  0.3615 -0.4030
 7451SOL    HW133815   0.810   3.837   8.634 -0.8350 -1.3445 -1.2041
 7451SOL    HW233816   0.744   3.877   8.761  0.1512  0.5212 -1.0695
 7452SOL     OW33817   0.720   2.453   6.013 -0.5799  0.1387  0.5672
 7452SOL    HW133818   0.810   2.435   6.042 -0.1604  0.0705 -0.7974
 7452SOL    HW233819   0.703   2.359   6.003  2.0490 -0.2658  0.0219
 7453SOL     OW33820   3.483   1.967  12.693 -0.0589 -0.2506  0.4397
 7453SOL    HW133821   3.397   1.928  12.680  0.6935 -2.0211  0.6810
 7453SOL    HW233822   3.506   1.923  12.775  0.6609 -1.2335 -0.2801
 7454SOL     OW33823   4.065   2.939   6.903  0.0820  0.0806 -0.4323
 7454SOL    HW133824   4.082   3.033   6.897  1.5688 -0.3588 -3.3857
 7454SOL    HW233825   4.140   2.917   6.958  0.0686 -0.5885 -0.6768
 7455SOL     OW33826   2.118   2.281   8.786  0.0171 -0.1229 -0.1893
 7455SOL    HW133827   2.052   2.330   8.835  1.9253  0.8151  1.4223
 7455SOL    HW233828   2.178   2.353   8.762  0.3490 -0.4845 -0.4386
 7456SOL     OW33829   4.677   2.967  14.618 -0.0675  0.1054 -0.0849
 7456SOL    HW133830   4.623   3.042  14.642 -0.2237  0.0098 -0.1397
 7456SOL    HW233831   4.637   2.897  14.671  0.2300  0.9182  1.2118
 7457SOL     OW33832   0.537   0.191   1.249 -0.4222  0.1362 -0.4803
 7457SOL    HW133833   0.468   0.231   1.303  0.3133 -0.8958  1.2162
 7457SOL    HW233834   0.536   0.103   1.286  0.0975  1.0151  1.6634
 7458SOL     OW33835   3.221   3.063  15.343  0.5160  0.3621  0.0938
 7458SOL    HW133836   3.166   3.114  15.402 -1.0379  0.3320 -1.3138
 7458SOL    HW233837   3.174   3.065  15.260 -1.1919 -1.1146  1.0232
 7459SOL     OW33838   3.805   4.474   6.337  0.6461  0.5531 -0.4007
 7459SOL    HW133839   3.868   4.432   6.394  0.3903  0.9474  0.1810
 7459SOL    HW233840   3.795   4.558   6.382 -0.4085  1.1041 -1.6471
 7460SOL     OW33841   2.804   0.526   8.196 -0.4160  0.3302 -0.0566
 7460SOL    HW133842   2.894   0.492   8.191 -0.2255  0.8384 -0.0374
 7460SOL    HW233843   2.791   0.556   8.106  1.7123  0.5361 -0.2953
 7461SOL     OW33844   1.959   4.192   3.373  0.5156 -0.2489 -0.2080
 7461SOL    HW133845   2.001   4.141   3.304 -1.1383  0.4242 -1.7189
 7461SOL    HW233846   1.871   4.154   3.373  0.5882 -0.4136  1.0690
 7462SOL     OW33847   1.939   3.100  10.515  0.2580 -0.7823  0.0952
 7462SOL    HW133848   2.023   3.136  10.487 -0.5483 -0.0689 -1.4064
 7462SOL    HW233849   1.956   3.010  10.486 -0.3578 -1.0179  0.4573
 7463SOL     OW33850   1.424   2.771   8.172 -0.1580 -0.4244 -0.2511
 7463SOL    HW133851   1.497   2.788   8.232  0.9810 -0.0385 -1.7506
 7463SOL    HW233852   1.417   2.849   8.117 -1.0447 -0.4778 -0.2116
 7464SOL     OW33853   2.836   4.576   9.035 -0.3882 -0.5711  0.6238
 7464SOL    HW133854   2.765   4.550   9.094 -0.2413  1.1754  1.5775
 7464SOL    HW233855   2.865   4.487   9.016 -0.9783 -0.6811  0.2192
 7465SOL     OW33856   2.463   3.172  16.403 -0.1573  0.2084 -0.4220
 7465SOL    HW133857   2.447   3.121  16.482 -0.0056  0.3057 -0.3275
 7465SOL    HW233858   2.402   3.137  16.338  0.1353 -0.3144 -0.4092
 7466SOL     OW33859   0.931   4.515   0.215  0.2714  0.3719  0.3748
 7466SOL    HW133860   0.988   4.439   0.227 -1.0911 -0.5925  0.6596
 7466SOL    HW233861   0.877   4.495   0.138  2.5970 -0.5316 -1.0292
 7467SOL     OW33862   0.330   4.149   1.890 -0.0886 -0.0619  0.4970
 7467SOL    HW133863   0.280   4.212   1.942 -1.8645 -0.4144 -0.7962
 7467SOL    HW233864   0.270   4.140   1.816 -0.7538 -0.8327  1.1342
 7468SOL     OW33865   1.410   1.841   9.989 -0.6362  0.1031 -0.1619
 7468SOL    HW133866   1.427   1.752   9.959  0.4103 -0.4765  2.1617
 7468SOL    HW233867   1.477   1.848  10.057  1.4850  1.6746 -2.4187
 7469SOL     OW33868   3.623   2.618   5.608  0.3617 -0.2998  0.1218
 7469SOL    HW133869   3.586   2.673   5.677 -0.9755  0.5331 -1.2421
 7469SOL    HW233870   3.706   2.590   5.646  1.2343  3.2741  0.8689
 7470SOL     OW33871   0.262   2.962   6.043  0.3005 -0.2980  0.2320
 7470SOL    HW133872   0.203   2.977   6.117  0.4200  0.4384  0.1769
 7470SOL    HW233873   0.209   2.904   5.988 -0.4651  0.0306  0.6222
 7471SOL     OW33874   1.973   0.781  16.989 -0.0772 -0.1693  0.3036
 7471SOL    HW133875   1.959   0.837  17.065  2.1201 -0.8652  1.2091
 7471SOL    HW233876   2.024   0.706  17.019  1.9036  2.3437  3.2358
 7472SOL     OW33877   3.660   2.412  10.424  0.4542 -0.1112  0.3232
 7472SOL    HW133878   3.631   2.365  10.346  1.0506  0.0456 -0.0016
 7472SOL    HW233879   3.624   2.500  10.411 -0.3015 -0.4275  0.2951
 7473SOL     OW33880   2.505   4.712   6.766 -0.1751  0.1160 -0.0608
 7473SOL    HW133881   2.591   0.007   6.728  1.2229  0.3239  3.1782
 7473SOL    HW233882   2.516   4.723   6.861  0.1044 -2.2332  0.1895
 7474SOL     OW33883   3.354   3.672   5.939 -0.1445  0.1629 -0.3198
 7474SOL    HW133884   3.331   3.690   6.030 -2.1538 -0.3270 -0.7401
 7474SOL    HW233885   3.445   3.701   5.948  0.0186 -0.4251 -0.0986
 7475SOL     OW33886   1.503   1.097   2.091  0.0964  0.7549 -0.3968
 7475SOL    HW133887   1.469   1.053   2.014  0.4974 -0.8995  0.3774
 7475SOL    HW233888   1.500   1.186   2.055 -1.2012  1.1690  0.7211
 7476SOL     OW33889   1.848   3.114   2.303  0.3731  0.0903 -0.3812
 7476SOL    HW133890   1.765   3.146   2.337  1.3162 -0.3013  2.2683
 7476SOL    HW233891   1.825   3.040   2.247 -1.4423  0.8480 -0.6465
 7477SOL     OW33892   0.394   2.419   4.808  0.4658  0.3095  0.2835
 7477SOL    HW133893   0.316   2.473   4.822  0.0059 -0.4287  0.6043
 7477SOL    HW233894   0.461   2.486   4.816 -0.6911  1.3406  1.2595
 7478SOL     OW33895   3.264   3.535   6.871 -0.4684  0.3433 -0.5522
 7478SOL    HW133896   3.247   3.453   6.918 -0.0152 -0.0211 -1.0164
 7478SOL    HW233897   3.299   3.507   6.787  2.2070 -1.0827  1.0421
 7479SOL     OW33898   3.686   4.064   6.571  0.2088  0.4066  0.9420
 7479SOL    HW133899   3.669   4.136   6.510 -0.1125  0.2570  0.8574
 7479SOL    HW233900   3.733   4.121   6.633  5.0170 -1.6847 -0.7413
 7480SOL     OW33901   3.503   0.323   0.717  0.0514  0.3355  0.0522
 7480SOL    HW133902   3.537   0.331   0.806 -2.2750  2.0261  0.8065
 7480SOL    HW233903   3.536   0.408   0.689 -0.4770 -0.1170 -1.9676
 7481SOL     OW33904   3.574   1.574  10.100 -0.3607 -0.3088  0.0689
 7481SOL    HW133905   3.557   1.480  10.088  3.4250 -1.1366  0.8990
 7481SOL    HW233906   3.528   1.588  10.183 -0.1251  0.4509  0.0656
 7482SOL     OW33907   1.429   1.997  17.293  0.4257  0.5976  0.1032
 7482SOL    HW133908   1.517   1.975  17.325  1.2471  2.6482 -0.7359
 7482SOL    HW233909   1.391   1.912  17.273  2.0784  0.2522 -1.6226
 7483SOL     OW33910   0.127   3.981   2.613 -0.2959 -1.3901 -0.0646
 7483SOL    HW133911   0.095   3.909   2.667 -1.0687 -1.6038 -0.7988
 7483SOL    HW233912   0.184   3.938   2.549  1.0769  1.0507 -0.5078
 7484SOL     OW33913   0.102   4.497   1.520 -0.0443  0.1628 -0.1219
 7484SOL    HW133914   0.179   4.440   1.519 -0.6119 -0.5761 -1.4303
 7484SOL    HW233915   0.054   4.461   1.595 -2.6650  1.6707 -1.0424
 7485SOL     OW33916   3.185   2.188   7.461 -0.2060  0.0485 -0.1925
 7485SOL    HW133917   3.115   2.192   7.526 -1.6649  0.5619 -1.8276
 7485SOL    HW233918   3.130   2.156   7.391 -0.4367  0.1260 -0.0467
 7486SOL     OW33919   0.152   1.951   4.365  0.2329 -0.0006  0.0579
 7486SOL    HW133920   0.233   1.937   4.316 -0.1563 -2.7839  0.2075
 7486SOL    HW233921   0.092   1.885   4.330 -0.3215  0.5388  0.0006
 7487SOL     OW33922   0.473   2.953   4.463  0.8041  0.3394 -0.5020
 7487SOL    HW133923   0.407   3.021   4.469  0.9882  0.6580 -2.0478
 7487SOL    HW233924   0.413   2.878   4.462  0.0710  0.9220  0.0833
 7488SOL     OW33925   1.658   1.336  16.614 -0.7367 -0.3079 -0.4774
 7488SOL    HW133926   1.587   1.281  16.582 -0.6093 -1.2691  0.8811
 7488SOL    HW233927   1.687   1.365  16.528 -1.0997  2.4228  0.3188
 7489SOL     OW33928   1.372   2.136  13.549  0.3296  0.2098  0.1810
 7489SOL    HW133929   1.294   2.165  13.502 -0.1576  0.0286  0.8764
 7489SOL    HW233930   1.341   2.049  13.572  2.1830 -0.7373 -0.9143
 7490SOL     OW33931   2.741   0.597   1.736  0.1057  0.1645 -0.3665
 7490SOL    HW133932   2.809   0.618   1.799 -0.5018 -0.8205  0.6226
 7490SOL    HW233933   2.685   0.537   1.786 -0.4089  2.9126  2.3563
 7491SOL     OW33934   4.494   3.888   5.914 -0.0869 -0.4307 -0.1316
 7491SOL    HW133935   4.519   3.807   5.957  1.6806  0.6451  0.8807
 7491SOL    HW233936   4.546   3.958   5.954 -0.9678  0.3194 -0.2999
 7492SOL     OW33937   0.434   4.696   0.757 -0.1198  0.1003 -0.1169
 7492SOL    HW133938   0.406   4.616   0.713 -2.0842  0.9870 -0.4496
 7492SOL    HW233939   0.397   0.030   0.691  2.3921  0.6408 -1.0697
 7493SOL     OW33940   3.623   1.931   6.309  0.3349  0.2610  0.4028
 7493SOL    HW133941   3.626   1.839   6.283 -1.2144  0.0600  0.9492
 7493SOL    HW233942   3.529   1.935   6.326  0.0179 -2.0753 -0.8359
 7494SOL     OW33943   4.065   3.205   5.883  0.4246  0.2442  0.7516
 7494SOL    HW133944   4.107   3.160   5.810  2.4211 -0.7023  2.4755
 7494SOL    HW233945   4.137   3.249   5.928 -0.3298 -1.9287  4.1154
 7495SOL     OW33946   3.651   2.064   3.265  0.4450 -0.6103  0.2475
 7495SOL    HW133947   3.606   2.083   3.183  1.1381 -2.3702 -0.5632
 7495SOL    HW233948   3.586   2.071   3.334 -1.1646 -1.2408 -1.2068
 7496SOL     OW33949   1.186   2.257   3.406 -0.1690 -0.0253  0.2086
 7496SOL    HW133950   1.212   2.167   3.387 -0.2473  0.6881 -3.3474
 7496SOL    HW233951   1.102   2.247   3.449 -1.9913  3.9366 -2.3610
 7497SOL     OW33952   2.895   4.014   7.024  0.2917 -0.7596 -0.0304
 7497SOL    HW133953   2.988   4.000   7.008 -0.1098 -1.0668 -2.0955
 7497SOL    HW233954   2.857   3.934   6.987 -0.8691 -0.6241  0.8778
 7498SOL     OW33955   3.526   3.267   9.672 -0.8148 -0.3259 -0.3966
 7498SOL    HW133956   3.451   3.297   9.620 -0.7447 -0.6215 -0.6686
 7498SOL    HW233957   3.501   3.182   9.707 -1.5523 -0.4592 -1.2489
 7499SOL     OW33958   4.224   2.775  10.843  0.4181  0.1017  0.5905
 7499SOL    HW133959   4.166   2.742  10.775  1.5718  2.2852 -1.4604
 7499SOL    HW233960   4.300   2.721  10.821  0.4980  0.2745  0.4436
 7500SOL     OW33961   2.529   0.828   6.403  0.1149  0.0029 -0.3879
 7500SOL    HW133962   2.520   0.915   6.442 -0.4153  0.6163 -1.8820
 7500SOL    HW233963   2.621   0.834   6.380  0.4003  1.4569  1.0307
 7501SOL     OW33964   1.118   0.515   3.320  0.3570  0.0895 -0.2492
 7501SOL    HW133965   1.111   0.565   3.402 -0.3543 -1.9576  0.9372
 7501SOL    HW233966   1.207   0.541   3.295 -0.7470  3.4073 -0.6407
 7502SOL     OW33967   3.587   3.406  14.565  0.7506  0.0943 -0.1236
 7502SOL    HW133968   3.618   3.330  14.515  0.3644 -0.8766  1.1303
 7502SOL    HW233969   3.497   3.406  14.531 -0.3530 -1.1066  2.8339
 7503SOL     OW33970   3.045   3.764   7.579 -0.2037  0.4576 -0.5876
 7503SOL    HW133971   3.018   3.693   7.520 -1.4076 -0.9500  1.6057
 7503SOL    HW233972   3.020   3.727   7.664 -2.6180 -1.0029 -1.9291
 7504SOL     OW33973   4.256   2.208   3.649  0.1516  0.1410 -0.4819
 7504SOL    HW133974   4.223   2.188   3.561  0.4542  0.6695 -0.7161
 7504SOL    HW233975   4.286   2.119   3.672 -0.8121 -0.2315 -0.6796
 7505SOL     OW33976   2.899   4.332   6.025 -0.7787  0.0809  0.4057
 7505SOL    HW133977   2.837   4.259   6.023  1.4195 -1.7933 -0.0504
 7505SOL    HW233978   2.969   4.276   6.060  0.8932  1.9130 -0.0199
 7506SOL     OW33979   2.960   2.400   5.848  0.8851 -0.4284  0.0028
 7506SOL    HW133980   2.865   2.390   5.861  0.9263 -1.2140 -0.2876
 7506SOL    HW233981   2.980   2.447   5.928  2.4119  0.0350 -0.6503
 7507SOL     OW33982   1.192   0.083   5.079  0.0551  0.3608  0.3632
 7507SOL    HW133983   1.156   0.100   4.992  1.7329 -0.2288 -0.4420
 7507SOL    HW233984   1.128   0.019   5.112  1.4691 -0.0628  2.3194
 7508SOL     OW33985   1.382   1.807   5.873 -0.3951 -0.3434 -0.1558
 7508SOL    HW133986   1.418   1.833   5.958  1.0159  1.2957 -1.2471
 7508SOL    HW233987   1.438   1.732   5.854 -0.1646 -0.3563  0.6009
 7509SOL     OW33988   1.962   4.515   0.129 -0.8383 -0.0232 -0.1198
 7509SOL    HW133989   1.938   4.445   0.190  0.3984 -0.8206 -0.5475
 7509SOL    HW233990   1.883   4.517   0.075 -0.0653 -2.0353 -1.3565
 7510SOL     OW33991   2.552   1.330  10.101  0.1669  0.2518 -0.0366
 7510SOL    HW133992   2.622   1.366  10.157 -0.2090 -1.9325  1.8024
 7510SOL    HW233993   2.582   1.344  10.011  1.1068  0.5529  0.3167
 7511SOL     OW33994   4.183   0.703  16.039 -0.1405 -0.5782 -0.3807
 7511SOL    HW133995   4.167   0.677  15.949 -0.3679 -0.2745 -0.4273
 7511SOL    HW233996   4.178   0.620  16.086 -1.3348  0.1319  0.7950
 7512SOL     OW33997   2.242   1.297   8.203 -0.6623 -0.2451  0.3389
 7512SOL    HW133998   2.293   1.373   8.175  0.8271 -0.4521  2.5036
 7512SOL    HW233999   2.300   1.243   8.258  1.4560  1.1607 -0.5231
 7513SOL     OW34000   3.930   2.829   1.896  0.3559 -0.2849 -0.4123
 7513SOL    HW134001   3.853   2.834   1.839 -0.0841  1.0091  0.3047
 7513SOL    HW234002   3.947   2.920   1.921  1.6102 -0.5659 -0.2304
 7514SOL     OW34003   4.200   0.237   0.150  0.5030  0.6689 -0.6088
 7514SOL    HW134004   4.276   0.265   0.099  2.4534 -1.7207  0.9378
 7514SOL    HW234005   4.158   0.171   0.095 -0.2701 -0.6479  1.5666
 7515SOL     OW34006   1.586   1.325   5.068  0.1452 -0.7205 -0.0595
 7515SOL    HW134007   1.577   1.328   5.163 -1.6220  1.0656 -0.2805
 7515SOL    HW234008   1.612   1.233   5.059  1.9204 -0.1481 -0.6827
 7516SOL     OW34009   2.299   4.513   7.717 -0.2694  0.0201 -0.1673
 7516SOL    HW134010   2.204   4.526   7.728 -0.0657  1.3272  0.0061
 7516SOL    HW234011   2.307   4.508   7.621  1.1728 -0.5427 -0.0045
 7517SOL     OW34012   2.694   2.376   5.933  0.1166  0.1379 -0.6646
 7517SOL    HW134013   2.697   2.286   5.966 -1.5946 -0.5200 -2.2929
 7517SOL    HW234014   2.606   2.385   5.897 -1.5657  0.9438  3.6395
 7518SOL     OW34015   1.231   2.359   5.217  0.0671 -0.1330  0.4192
 7518SOL    HW134016   1.281   2.314   5.285 -1.1120  0.7751  1.8578
 7518SOL    HW234017   1.155   2.392   5.264  2.2443 -0.2014  3.9446
 7519SOL     OW34018   1.613   0.429  12.639  0.3950  0.0331  0.2261
 7519SOL    HW134019   1.532   0.385  12.613  0.0918 -0.1093  1.4097
 7519SOL    HW234020   1.615   0.420  12.734 -0.4990 -0.3493  0.2128
 7520SOL     OW34021   3.862   2.759   3.416  0.7884 -0.3367  0.7773
 7520SOL    HW134022   3.875   2.693   3.348  2.1116  1.7851 -1.0349
 7520SOL    HW234023   3.939   2.748   3.472  0.1031  0.5018  1.8716
 7521SOL     OW34024   3.929   0.307   6.840 -0.0508 -0.3579 -0.3652
 7521SOL    HW134025   3.848   0.356   6.822 -1.2668 -1.7119  1.4351
 7521SOL    HW234026   3.932   0.252   6.762  1.1979 -1.3883  0.4165
 7522SOL     OW34027   0.871   4.130   1.668  0.3677 -0.2409  0.3389
 7522SOL    HW134028   0.872   4.225   1.678  3.4387 -0.1683 -0.3982
 7522SOL    HW234029   0.776   4.124   1.667  0.3116  0.8351 -0.4116
 7523SOL     OW34030   0.391   3.679   5.039  0.0269  0.1365 -0.4502
 7523SOL    HW134031   0.350   3.740   5.100  1.3458  0.4580  0.1228
 7523SOL    HW234032   0.388   3.603   5.096 -0.3159  0.7740  0.3804
 7524SOL     OW34033   2.163   1.672  17.119 -0.2115 -0.1228 -0.0767
 7524SOL    HW134034   2.163   1.767  17.106  1.3798 -0.0312  0.5808
 7524SOL    HW234035   2.084   1.637  17.076 -0.5156  0.8791 -0.3421
 7525SOL     OW34036   3.664   1.615   0.742 -0.7407 -0.3147 -0.3310
 7525SOL    HW134037   3.681   1.709   0.741 -1.3555 -0.2128 -0.7477
 7525SOL    HW234038   3.703   1.579   0.822 -0.9054 -0.1497 -0.1780
 7526SOL     OW34039   2.745   0.651   0.367 -0.3622  0.2909  0.4825
 7526SOL    HW134040   2.737   0.686   0.278  2.6876 -2.0253 -0.6784
 7526SOL    HW234041   2.773   0.734   0.406 -0.7761 -0.8236  3.1732
 7527SOL     OW34042   3.260   4.194  12.813 -0.1846 -0.0327  0.6954
 7527SOL    HW134043   3.285   4.162  12.900 -2.2935 -0.5421  1.1166
 7527SOL    HW234044   3.167   4.215  12.821  0.4082  2.5134  1.0680
 7528SOL     OW34045   3.697   0.842  14.413  0.0028 -0.4274 -0.7851
 7528SOL    HW134046   3.678   0.755  14.378  4.5726 -1.8360  0.2044
 7528SOL    HW234047   3.737   0.881  14.335  0.6936  2.2741  0.9326
 7529SOL     OW34048   1.752   0.023   7.745  0.3603 -0.1338 -0.3790
 7529SOL    HW134049   1.760   0.114   7.716 -0.4839  0.5538  1.6107
 7529SOL    HW234050   1.761   4.699   7.663 -0.0437 -1.9925  0.6860
 7530SOL     OW34051   2.068   2.433  14.580 -0.5959 -0.0671 -0.5056
 7530SOL    HW134052   2.035   2.349  14.548 -0.4879 -0.9700  1.8168
 7530SOL    HW234053   2.147   2.434  14.526  1.7799  0.0521  3.0179
 7531SOL     OW34054   0.308   4.523   3.349  0.1445  0.3522  0.2697
 7531SOL    HW134055   0.265   4.587   3.405 -1.0881  0.0265 -0.2906
 7531SOL    HW234056   0.386   4.568   3.318  0.1281 -0.3056 -0.7459
 7532SOL     OW34057   4.095   3.094   3.081 -0.0778 -0.3121  0.1824
 7532SOL    HW134058   4.048   3.023   3.038 -0.5720  1.3163 -1.9243
 7532SOL    HW234059   4.176   3.042   3.084 -1.1199 -2.0011 -1.2536
 7533SOL     OW34060   4.481   4.513   8.006 -0.1039  0.1818  0.1650
 7533SOL    HW134061   4.566   4.475   7.984 -0.3283 -0.9965  1.3758
 7533SOL    HW234062   4.471   4.593   7.953 -1.6512  1.6509  2.6457
 7534SOL     OW34063   3.940   0.658  13.900 -0.5931  0.2524 -0.0400
 7534SOL    HW134064   3.921   0.741  13.856  2.0788  0.7452 -0.3067
 7534SOL    HW234065   3.851   0.626  13.910  0.5013 -2.6696  0.2885
 7535SOL     OW34066   0.464   0.392   3.944  0.0068  0.9113  0.4373
 7535SOL    HW134067   0.370   0.372   3.945  0.3497 -0.8681 -0.8014
 7535SOL    HW234068   0.500   0.306   3.919 -0.3884  0.6058  0.9201
 7536SOL     OW34069   1.268   1.756   4.361  0.2992 -0.6461 -0.4520
 7536SOL    HW134070   1.280   1.726   4.271  1.1961  0.6722 -0.7751
 7536SOL    HW234071   1.210   1.684   4.383 -0.2205 -0.1647 -0.2675
 7537SOL     OW34072   2.901   4.202   0.287  0.3328  0.7201  0.9966
 7537SOL    HW134073   2.896   4.106   0.288 -1.1208  0.7779  0.0210
 7537SOL    HW234074   2.993   4.215   0.309  0.1506  0.0512  2.1067
 7538SOL     OW34075   4.035   3.747   7.687 -0.0097  0.4778 -0.2053
 7538SOL    HW134076   4.016   3.684   7.757  1.5337 -1.5454 -1.6087
 7538SOL    HW234077   4.110   3.701   7.649 -0.9004 -2.1370  1.2390
 7539SOL     OW34078   3.203   2.537   7.984 -0.0438 -0.2267 -0.0527
 7539SOL    HW134079   3.143   2.603   8.019  0.6396  0.3646  0.0015
 7539SOL    HW234080   3.138   2.478   7.946  0.3236 -1.0516  0.6148
 7540SOL     OW34081   4.206   4.512   3.544 -0.2997 -0.1608 -0.3190
 7540SOL    HW134082   4.184   4.464   3.464 -1.6448 -2.9014  1.7023
 7540SOL    HW234083   4.300   4.490   3.549 -0.8517 -2.3588  0.5072
 7541SOL     OW34084   3.444   1.494   5.228  0.2076  0.4534 -0.2657
 7541SOL    HW134085   3.439   1.551   5.305 -0.3632  0.6205 -0.4266
 7541SOL    HW234086   3.509   1.545   5.179 -0.5535 -0.8994 -2.6938
 7542SOL     OW34087   2.070   4.594   2.071  0.3365  0.4525 -0.4766
 7542SOL    HW134088   2.040   4.617   1.983  0.4666 -0.3386 -0.7240
 7542SOL    HW234089   2.142   4.656   2.082  1.5135 -0.7851 -1.1074
 7543SOL     OW34090   1.171   2.335   0.845 -0.1472 -0.0407  0.1795
 7543SOL    HW134091   1.157   2.416   0.796  0.2373  1.6413  2.8398
 7543SOL    HW234092   1.172   2.371   0.934 -0.2296  0.8142 -0.1619
 7544SOL     OW34093   1.060   4.364  15.525  0.2306  0.0489  0.6766
 7544SOL    HW134094   1.108   4.354  15.607 -0.3361 -1.5106  0.8163
 7544SOL    HW234095   1.014   4.281  15.538  0.2525 -0.2934 -1.5054
 7545SOL     OW34096   0.976   1.190   8.466  0.0358  0.2465  0.0847
 7545SOL    HW134097   0.902   1.162   8.412 -0.8438  1.0974  0.8568
 7545SOL    HW234098   0.982   1.110   8.520 -0.3335  0.0354 -0.1858
 7546SOL     OW34099   4.252   3.625   3.797  0.3816  0.6607  0.0407
 7546SOL    HW134100   4.260   3.641   3.891 -2.5236 -1.3407  0.6085
 7546SOL    HW234101   4.320   3.558   3.786  1.8128  1.9964  0.7295
 7547SOL     OW34102   4.089   4.284   1.342 -0.4095  0.2222  0.2805
 7547SOL    HW134103   3.997   4.287   1.316 -0.7247 -1.8208  1.1281
 7547SOL    HW234104   4.090   4.200   1.387 -3.3340 -1.3750 -2.6414
 7548SOL     OW34105   4.646   3.179  11.898 -0.6507 -0.1811 -0.0675
 7548SOL    HW134106   0.009   3.151  11.871  0.8022  2.4011  2.0256
 7548SOL    HW234107   4.671   3.195  11.989 -0.1821 -3.0115  0.3013
 7549SOL     OW34108   2.395   3.485   7.036  0.1862  0.0145 -0.1194
 7549SOL    HW134109   2.430   3.455   7.119  2.5870  2.1096 -0.3955
 7549SOL    HW234110   2.410   3.576   7.058  1.0074  0.1276 -1.1300
 7550SOL     OW34111   1.514   2.854   6.494 -0.0246 -0.2505 -0.0592
 7550SOL    HW134112   1.463   2.808   6.560 -1.8020  1.6679 -0.0968
 7550SOL    HW234113   1.500   2.941   6.531 -0.0169  0.4219 -1.6262
 7551SOL     OW34114   2.444   2.430   5.883  0.6415 -0.3034  0.2164
 7551SOL    HW134115   2.431   2.524   5.886  1.8577 -0.0990 -1.1298
 7551SOL    HW234116   2.352   2.402   5.878 -0.0077  1.5915  1.5021
 7552SOL     OW34117   0.161   0.061   5.874  0.0116 -0.2499  0.0124
 7552SOL    HW134118   0.159   4.694   5.898 -1.4498  0.4342  2.5464
 7552SOL    HW234119   0.243   0.092   5.913 -0.2933  0.4312  0.1202
 7553SOL     OW34120   2.805   1.265   2.748  0.4345  0.4148  0.3757
 7553SOL    HW134121   2.796   1.270   2.844  0.9408  0.8126  0.4015
 7553SOL    HW234122   2.766   1.351   2.729  1.1311  1.1425  2.2309
 7554SOL     OW34123   4.654   1.362   5.413  0.0159 -0.2058  0.5531
 7554SOL    HW134124   4.660   1.453   5.383 -0.6780  0.0886  1.2934
 7554SOL    HW234125   4.581   1.334   5.358  0.9172  3.0296 -2.3099
 7555SOL     OW34126   1.141   3.926   1.157  0.9758 -0.8882 -0.8651
 7555SOL    HW134127   1.133   3.988   1.230  0.8946 -1.5635 -0.3069
 7555SOL    HW234128   1.151   3.985   1.082  1.2831  0.8491  0.5318
 7556SOL     OW34129   1.868   0.560  17.490  0.0420 -0.9020 -0.1547
 7556SOL    HW134130   1.919   0.533  17.567 -0.4819 -2.4716 -0.3679
 7556SOL    HW234131   1.799   0.494  17.499  0.2121 -1.0618 -0.0137
 7557SOL     OW34132   0.200   3.965  12.484  0.0547  0.6928  0.2127
 7557SOL    HW134133   0.255   4.038  12.510  0.7247  0.3709 -0.2995
 7557SOL    HW234134   0.110   3.980  12.515  0.0916  0.2956  0.5100
 7558SOL     OW34135   3.885   0.894   9.059  0.5633 -0.0567  0.7100
 7558SOL    HW134136   3.943   0.862   8.990 -0.9483 -1.5222  0.1101
 7558SOL    HW234137   3.840   0.810   9.072 -1.6289  1.0019 -0.1158
 7559SOL     OW34138   4.035   4.679  12.258 -0.8274 -0.1000  0.3069
 7559SOL    HW134139   3.987   0.037  12.266  0.5583  0.6104  1.1533
 7559SOL    HW234140   4.105   4.704  12.198 -0.2860 -0.9246  0.6029
 7560SOL     OW34141   2.040   3.518  17.060 -0.1461 -0.6973  0.1171
 7560SOL    HW134142   2.060   3.576  16.987 -1.8136  0.7423  0.8059
 7560SOL    HW234143   1.972   3.573  17.098 -1.2036  0.1742 -3.0194
 7561SOL     OW34144   0.470   3.580   7.058 -0.2785 -0.3389  0.2264
 7561SOL    HW134145   0.531   3.653   7.049 -0.3436 -0.2527  0.5091
 7561SOL    HW234146   0.491   3.514   6.991 -0.3314 -0.2210  0.0954
 7562SOL     OW34147   4.624   4.635   8.672  0.3569  0.9182 -0.5592
 7562SOL    HW134148   4.697   4.594   8.626 -1.6395  0.5086 -3.4407
 7562SOL    HW234149   4.626   4.719   8.625  1.8710  0.3433 -1.5043
 7563SOL     OW34150   0.871   1.844   7.863  0.4811 -0.1113  0.2197
 7563SOL    HW134151   0.798   1.866   7.920  1.2758  0.8094  0.8859
 7563SOL    HW234152   0.864   1.748   7.863 -0.5704 -0.0372  0.7661
 7564SOL     OW34153   4.029   4.378   5.131  0.3103 -0.6127  0.0691
 7564SOL    HW134154   4.026   4.297   5.182  1.0846 -0.9773 -0.4699
 7564SOL    HW234155   3.941   4.369   5.094  0.5048  0.9431 -0.7583
 7565SOL     OW34156   0.056   2.720   6.283 -0.3453  0.1527 -0.1254
 7565SOL    HW134157   0.069   2.643   6.228  0.4586  0.0868  0.1550
 7565SOL    HW234158   0.086   2.693   6.369  1.1319 -0.4139 -0.8181
 7566SOL     OW34159   3.284   1.966  10.221  0.2126 -0.0149  0.0052
 7566SOL    HW134160   3.254   2.057  10.229  0.1969 -0.1908  2.0619
 7566SOL    HW234161   3.295   1.941  10.313  0.6519 -1.2527 -0.3885
 7567SOL     OW34162   4.092   1.868   1.608 -0.6642 -0.0898 -0.3641
 7567SOL    HW134163   4.071   1.815   1.532  1.2594 -0.4335 -0.6588
 7567SOL    HW234164   4.003   1.891   1.634 -0.5458  0.3300 -0.3303
 7568SOL     OW34165   0.887   4.351   5.252 -0.1827 -0.7832 -0.6175
 7568SOL    HW134166   0.866   4.276   5.308  0.4528 -0.7803 -0.3813
 7568SOL    HW234167   0.866   4.421   5.314  0.4591 -0.9218 -0.2509
 7569SOL     OW34168   3.432   3.106   4.237  0.1757  0.1181 -0.0296
 7569SOL    HW134169   3.431   3.089   4.143 -0.5475  1.9274 -0.3466
 7569SOL    HW234170   3.516   3.151   4.237  0.4775 -0.4295  1.5464
 7570SOL     OW34171   3.364   3.217   2.800  0.0639 -0.1781  0.5505
 7570SOL    HW134172   3.283   3.173   2.772  0.6012  1.1590 -3.1453
 7570SOL    HW234173   3.429   3.171   2.747  0.3844 -0.2849  1.0405
 7571SOL     OW34174   3.006   4.426  15.128  0.2263 -0.1046 -0.9810
 7571SOL    HW134175   3.072   4.481  15.168  0.1529 -0.7999  0.0869
 7571SOL    HW234176   3.038   4.418  15.038 -0.0619  1.5733 -1.2360
 7572SOL     OW34177   3.163   3.208  14.395 -0.5198  0.1657  0.0507
 7572SOL    HW134178   3.151   3.158  14.476  1.1995  2.7620  1.9164
 7572SOL    HW234179   3.204   3.137  14.347  0.7730  0.0089  1.3924
 7573SOL     OW34180   0.337   2.241   6.096 -0.0807 -0.7106 -0.2997
 7573SOL    HW134181   0.393   2.304   6.143 -1.0868  1.2749 -1.7590
 7573SOL    HW234182   0.380   2.216   6.014 -0.5117 -2.0876 -0.1038
 7574SOL     OW34183   0.378   1.564   9.548 -0.4569 -0.3986  0.0173
 7574SOL    HW134184   0.379   1.512   9.468  0.2590  0.1173 -0.3030
 7574SOL    HW234185   0.291   1.606   9.554 -0.4147 -0.2439 -0.4030
 7575SOL     OW34186   2.062   2.370   4.803 -0.6381 -0.3378 -0.3469
 7575SOL    HW134187   2.012   2.333   4.876  1.5513 -0.7431  0.9257
 7575SOL    HW234188   2.092   2.289   4.762 -0.5485  0.0385 -1.0229
 7576SOL     OW34189   3.265   4.484  13.567  0.4664  0.3242 -0.1230
 7576SOL    HW134190   3.221   4.494  13.652 -0.7285 -1.7586 -0.5235
 7576SOL    HW234191   3.199   4.436  13.517 -0.0657  1.5148 -0.5657
 7577SOL     OW34192   1.668   2.661  17.524 -0.3013  0.4445 -0.3176
 7577SOL    HW134193   1.604   2.730  17.540 -0.3436  0.3599 -0.1156
 7577SOL    HW234194   1.669   2.663  17.428  2.6231 -0.5973 -0.3094
 7578SOL     OW34195   4.656   2.180   4.148 -0.3925  0.0999  0.2892
 7578SOL    HW134196   4.627   2.212   4.063  2.1782 -1.7286 -1.2820
 7578SOL    HW234197   4.646   2.086   4.140 -1.8401  0.2545  0.2869
 7579SOL     OW34198   1.703   2.492   3.085 -0.1587 -0.3562  0.0597
 7579SOL    HW134199   1.703   2.563   3.021 -0.1034 -0.4260 -0.0187
 7579SOL    HW234200   1.696   2.415   3.028  0.6163  0.2750 -0.8878
 7580SOL     OW34201   1.458   0.461   0.467 -0.2107 -0.2772 -0.0448
 7580SOL    HW134202   1.494   0.535   0.418 -0.0948 -1.7611 -2.2056
 7580SOL    HW234203   1.467   0.385   0.409  1.5082 -0.3947  0.3758
 7581SOL     OW34204   1.418   3.482   6.885 -0.1429 -0.0312 -0.0129
 7581SOL    HW134205   1.382   3.550   6.828 -0.1618  2.2582  2.7062
 7581SOL    HW234206   1.467   3.438   6.815  0.8727  1.3969 -0.2263
 7582SOL     OW34207   3.131   4.298   3.785 -0.6039 -0.1344  0.2110
 7582SOL    HW134208   3.103   4.386   3.813  0.6406  0.7297 -1.2923
 7582SOL    HW234209   3.145   4.250   3.867 -1.6401  1.4374  1.3271
 7583SOL     OW34210   0.125   2.894   3.196  0.1653 -0.3126  0.5308
 7583SOL    HW134211   0.034   2.869   3.210  0.2456 -0.5676  0.5835
 7583SOL    HW234212   0.108   2.988   3.209 -1.0978 -0.5489  0.6017
 7584SOL     OW34213   4.016   4.134   5.848 -0.1059 -0.2882 -0.2606
 7584SOL    HW134214   4.076   4.174   5.786 -0.1066 -0.3102 -0.2753
 7584SOL    HW234215   3.935   4.182   5.829  0.6848  2.5838  3.6665
 7585SOL     OW34216   2.875   2.608   3.919  1.0203 -0.0041 -0.2542
 7585SOL    HW134217   2.816   2.657   3.978  0.6428  0.0189 -0.6509
 7585SOL    HW234218   2.814   2.543   3.885  0.5593 -1.2705  2.9433
 7586SOL     OW34219   2.760   2.094   4.567  0.5608 -0.4829  0.9288
 7586SOL    HW134220   2.729   2.024   4.625  2.5322 -1.8615  0.3271
 7586SOL    HW234221   2.848   2.114   4.597  0.9689 -0.5794 -0.2214
 7587SOL     OW34222   2.753   0.990   5.374  0.4262 -0.1468  0.1563
 7587SOL    HW134223   2.671   0.942   5.364  1.8976 -2.6176 -0.1233
 7587SOL    HW234224   2.771   0.973   5.467  0.9959 -0.4297 -0.0064
 7588SOL     OW34225   0.520   1.408   1.661 -0.1028 -0.3647  0.5287
 7588SOL    HW134226   0.562   1.420   1.746  0.0675 -1.9715  0.6761
 7588SOL    HW234227   0.527   1.497   1.627 -0.2357 -0.5875 -0.0743
 7589SOL     OW34228   0.494   3.687   2.608  0.1132  0.1982 -0.4074
 7589SOL    HW134229   0.447   3.678   2.691 -1.1360  1.0759 -1.0317
 7589SOL    HW234230   0.588   3.674   2.625  0.2470 -0.8519 -1.9522
 7590SOL     OW34231   0.570   0.552   5.820 -0.3487 -0.3820  0.2859
 7590SOL    HW134232   0.574   0.614   5.747 -1.2626 -1.0371 -0.3192
 7590SOL    HW234233   0.649   0.576   5.869  1.2896  0.5220 -2.7500
 7591SOL     OW34234   3.512   4.127   5.127 -0.6025  0.1593  0.2425
 7591SOL    HW134235   3.455   4.063   5.169  0.0139 -1.0465 -0.7418
 7591SOL    HW234236   3.577   4.070   5.084  0.0448  0.9750  0.1442
 7592SOL     OW34237   3.047   0.263   5.126  0.3826  0.3057  0.4636
 7592SOL    HW134238   3.134   0.222   5.133 -0.1866 -0.6573  2.0920
 7592SOL    HW234239   2.998   0.185   5.099 -0.1736  0.9358 -0.3405
 7593SOL     OW34240   4.421   0.172   7.627 -0.1548  0.0348 -0.2050
 7593SOL    HW134241   4.459   0.237   7.687 -0.6813  2.1056 -2.1194
 7593SOL    HW234242   4.475   0.192   7.551 -1.3869  1.4020 -0.7193
 7594SOL     OW34243   2.156   2.416   7.247  0.2277  0.3262 -0.0553
 7594SOL    HW134244   2.211   2.361   7.191  0.7617 -1.2655  2.0168
 7594SOL    HW234245   2.129   2.494   7.199 -1.3182  1.2107  2.2564
 7595SOL     OW34246   2.402   2.474   7.064 -0.0754  0.0856 -0.1106
 7595SOL    HW134247   2.446   2.550   7.025  0.0910  0.1383  0.1747
 7595SOL    HW234248   2.378   2.417   6.992 -1.0414 -0.2187  0.4476
 7596SOL     OW34249   1.455   3.466   4.778  0.1438 -0.3074 -0.2559
 7596SOL    HW134250   1.522   3.475   4.710  0.7432 -1.6192  0.1506
 7596SOL    HW234251   1.444   3.555   4.811  1.5840  0.0714 -0.7765
 7597SOL     OW34252   3.059   1.143   3.512 -0.3389  0.0504 -0.4392
 7597SOL    HW134253   2.974   1.110   3.484 -0.9643  0.6749  0.7579
 7597SOL    HW234254   3.111   1.063   3.512  2.3961  1.8359  2.3881
 7598SOL     OW34255   3.798   0.685   9.395  0.0693  0.3785 -0.2252
 7598SOL    HW134256   3.828   0.649   9.311  1.1555 -0.3624  0.4734
 7598SOL    HW234257   3.708   0.701   9.366 -0.0361 -0.9820 -0.6627
 7599SOL     OW34258   1.345   2.177  12.333 -1.1803  0.0724 -0.2317
 7599SOL    HW134259   1.356   2.253  12.276  1.1815 -0.9010 -1.0760
 7599SOL    HW234260   1.339   2.227  12.415  0.7790  1.3723 -0.8705
 7600SOL     OW34261   2.472   2.843  14.318 -0.2734 -0.2711  0.8569
 7600SOL    HW134262   2.422   2.761  14.315  0.7703 -0.8701 -0.6395
 7600SOL    HW234263   2.564   2.816  14.323  0.2069  1.2423  0.1002
 7601SOL     OW34264   1.651   2.514   3.397 -0.2609  0.3898 -0.5210
 7601SOL    HW134265   1.638   2.419   3.393 -1.1024  0.6221 -3.0870
 7601SOL    HW234266   1.711   2.528   3.324  0.6779  2.9912  0.7173
 7602SOL     OW34267   4.490   1.041  16.786 -0.1456  0.0452  0.2321
 7602SOL    HW134268   4.470   0.948  16.772  0.5777 -0.2815  1.3025
 7602SOL    HW234269   4.500   1.049  16.881  4.2155  0.6911 -0.3115
 7603SOL     OW34270   1.693   4.475   2.070 -0.4077 -0.1774  0.3763
 7603SOL    HW134271   1.743   4.426   2.136 -0.2298 -1.2491 -0.5528
 7603SOL    HW234272   1.737   4.455   1.988  0.0482  0.3253  0.5031
 7604SOL     OW34273   2.577   3.139   8.908 -0.2274 -0.3351  0.2781
 7604SOL    HW134274   2.563   3.105   8.820 -1.6833 -0.3439  0.5218
 7604SOL    HW234275   2.533   3.075   8.963 -1.0755  1.4260  1.6576
 7605SOL     OW34276   2.034   2.242   2.003 -0.0034  0.3469 -0.1357
 7605SOL    HW134277   1.940   2.244   1.985 -0.4736 -1.2388  1.9706
 7605SOL    HW234278   2.077   2.238   1.918 -4.5799  1.4188 -2.5216
 7606SOL     OW34279   3.938   0.153   2.148  0.2131 -0.2645 -0.1674
 7606SOL    HW134280   3.927   0.133   2.055  3.2170 -1.6421 -0.2219
 7606SOL    HW234281   4.032   0.167   2.139  0.5776 -0.6690  2.8098
 7607SOL     OW34282   1.978   0.319   1.959  0.6695 -0.2197 -0.2614
 7607SOL    HW134283   1.924   0.382   1.911 -0.7755 -0.3142  1.2254
 7607SOL    HW234284   2.001   0.254   1.893  0.1067  1.3610 -2.0222
 7608SOL     OW34285   4.182   0.281   2.958 -0.5909  0.2822  0.2269
 7608SOL    HW134286   4.138   0.317   3.035  0.9804 -1.3283  1.8930
 7608SOL    HW234287   4.114   0.311   2.898 -0.0185  1.4062  0.1417
 7609SOL     OW34288   4.696   2.728   2.775 -0.5042 -0.9652  0.0101
 7609SOL    HW134289   4.719   2.697   2.862  0.9903 -1.5350 -0.5857
 7609SOL    HW234290   4.603   2.745   2.792 -0.3418  0.6591 -0.7594
 7610SOL     OW34291   1.399   0.660   3.660  0.4049  0.1918 -0.1929
 7610SOL    HW134292   1.391   0.706   3.576  1.4991  1.5639  0.4717
 7610SOL    HW234293   1.380   0.735   3.716  0.5118 -0.1977  0.3548
 7611SOL     OW34294   1.846   3.828   5.759 -0.0234 -0.5928  0.8107
 7611SOL    HW134295   1.855   3.774   5.681 -1.4578  1.5603 -0.8083
 7611SOL    HW234296   1.932   3.869   5.754 -0.6292  0.5113 -0.3414
 7612SOL     OW34297   0.702   0.963   6.985  0.6449 -0.1880 -0.0216
 7612SOL    HW134298   0.756   1.035   6.955  2.0694 -1.9535 -1.7111
 7612SOL    HW234299   0.687   0.928   6.897 -1.7769 -0.1045  0.3388
 7613SOL     OW34300   4.329   4.394  13.176  0.5402 -0.2252  0.0498
 7613SOL    HW134301   4.390   4.365  13.244  0.3158 -0.3658  0.1935
 7613SOL    HW234302   4.330   4.315  13.121 -2.1631 -0.8585  0.8956
 7614SOL     OW34303   1.936   2.787   6.099  0.4188  0.0642 -0.6826
 7614SOL    HW134304   1.992   2.750   6.167 -0.0641 -0.6399 -0.6602
 7614SOL    HW234305   1.870   2.830   6.153  1.1389 -1.3290  1.3162
 7615SOL     OW34306   3.806   0.104   0.411  0.3889 -0.0913 -0.5161
 7615SOL    HW134307   3.824   0.013   0.432 -1.4185 -0.0746  1.1521
 7615SOL    HW234308   3.891   0.148   0.406  1.3494 -1.7653  1.5464
 7616SOL     OW34309   0.293   0.242  10.604  0.5191 -0.5140  0.4665
 7616SOL    HW134310   0.307   0.149  10.584  2.1819 -0.5736  1.9257
 7616SOL    HW234311   0.377   0.260  10.645 -0.8765  0.9982  2.6140
 7617SOL     OW34312   0.857   2.872   7.188 -0.3931  0.3214  0.2196
 7617SOL    HW134313   0.836   2.778   7.183  0.7143  0.1460 -1.1965
 7617SOL    HW234314   0.862   2.883   7.283  0.7282 -1.1765  0.3347
 7618SOL     OW34315   1.103   2.371  10.353 -0.5192 -0.2185  0.0753
 7618SOL    HW134316   1.096   2.346  10.261 -0.5016  1.6802 -0.4502
 7618SOL    HW234317   1.134   2.288  10.388 -0.7180 -0.0821  0.5714
 7619SOL     OW34318   3.176   1.010   3.078 -0.0887  0.2591 -0.0735
 7619SOL    HW134319   3.255   0.978   3.123 -0.3840  2.2489  1.8763
 7619SOL    HW234320   3.204   1.101   3.066  1.3000 -0.1666 -0.0628
 7620SOL     OW34321   0.183   1.431  12.587  0.6082  0.0693  0.3776
 7620SOL    HW134322   0.184   1.400  12.496 -0.4663 -0.4876  0.5619
 7620SOL    HW234323   0.274   1.402  12.598  0.0519 -1.7124  0.2697
 7621SOL     OW34324   2.805   3.300   0.275  0.4009 -0.1886 -0.3807
 7621SOL    HW134325   2.825   3.389   0.302 -1.9101  0.4890 -0.9034
 7621SOL    HW234326   2.810   3.317   0.181  2.2933 -0.3066 -0.2985
 7622SOL     OW34327   1.808   0.514   1.822 -0.5465 -0.6610  0.2007
 7622SOL    HW134328   1.735   0.494   1.880  1.0393 -1.7716  1.8099
 7622SOL    HW234329   1.759   0.521   1.740 -0.5664  1.9769  0.4361
 7623SOL     OW34330   3.642   2.881   6.090  0.2528  0.0195  0.4874
 7623SOL    HW134331   3.630   2.970   6.125 -0.6465 -0.0832  0.4282
 7623SOL    HW234332   3.710   2.892   6.024 -1.1834  3.2903 -0.4490
 7624SOL     OW34333   3.270   1.386   7.815  0.1706  0.2182  0.1559
 7624SOL    HW134334   3.182   1.384   7.776  1.0540  3.3030 -1.8980
 7624SOL    HW234335   3.283   1.292   7.829 -1.1616  0.0380  0.1787
 7625SOL     OW34336   3.744   0.082   0.700 -0.3860  0.5947  0.1766
 7625SOL    HW134337   3.669   0.134   0.670 -0.2536  0.5927 -0.1634
 7625SOL    HW234338   3.742   0.008   0.639  0.1271 -1.1559  2.3093
 7626SOL     OW34339   1.276   2.893   8.857 -0.3571 -0.1016 -0.1691
 7626SOL    HW134340   1.222   2.966   8.889 -0.4358 -0.9102  1.5548
 7626SOL    HW234341   1.276   2.843   8.939 -0.8352 -0.3607 -0.3287
 7627SOL     OW34342   1.760   0.297   0.844 -0.2301 -0.0786  0.2569
 7627SOL    HW134343   1.787   0.208   0.868 -1.0678 -1.0997 -2.5074
 7627SOL    HW234344   1.842   0.344   0.834  1.3115 -2.9628 -0.6652
 7628SOL     OW34345   0.946   1.472   6.885 -0.1484  0.6131 -0.2144
 7628SOL    HW134346   0.936   1.548   6.827 -1.2824  0.4569 -0.2050
 7628SOL    HW234347   0.855   1.467   6.912 -0.5843  3.4326 -1.1670
 7629SOL     OW34348   2.279   3.924  15.074 -0.3911 -0.6292 -0.1891
 7629SOL    HW134349   2.287   3.856  15.141 -0.1028 -0.4718 -0.0617
 7629SOL    HW234350   2.368   3.947  15.049 -0.4431  0.2360  0.4358
 7630SOL     OW34351   4.539   4.390   7.555  0.0157 -0.0171 -0.3325
 7630SOL    HW134352   4.470   4.347   7.606  0.9757  0.2918  1.2446
 7630SOL    HW234353   4.515   4.356   7.469 -1.0865 -1.4281  0.5355
 7631SOL     OW34354   1.638   2.330   8.409 -0.0577 -0.2546  0.1281
 7631SOL    HW134355   1.601   2.277   8.481 -0.2962  2.0994  1.7239
 7631SOL    HW234356   1.669   2.265   8.346  0.1363 -0.7498  0.7339
 7632SOL     OW34357   3.036   3.116   2.876 -0.0154  0.5700 -0.3180
 7632SOL    HW134358   3.003   3.030   2.850 -2.9353  1.2987  0.9683
 7632SOL    HW234359   3.037   3.103   2.971 -0.0522 -0.7838 -0.5078
 7633SOL     OW34360   4.716   1.334   8.707 -0.0420 -0.2063 -1.0163
 7633SOL    HW134361   0.043   1.393   8.760 -0.3222 -0.5002 -0.4182
 7633SOL    HW234362   4.705   1.392   8.632  2.0875  0.8213 -0.5226
 7634SOL     OW34363   0.720   1.709  12.164  0.1761 -0.0054 -0.0210
 7634SOL    HW134364   0.663   1.780  12.135 -0.7344 -0.2203  1.2242
 7634SOL    HW234365   0.800   1.760  12.179  0.7637 -0.4066 -1.7792
 7635SOL     OW34366   4.199   3.064   2.501 -0.1957 -0.1908 -0.7178
 7635SOL    HW134367   4.199   3.115   2.420  3.9770 -2.5012 -2.1698
 7635SOL    HW234368   4.255   2.993   2.469 -0.0698 -0.9180  1.1132
 7636SOL     OW34369   3.952   3.833  16.824  0.1047  0.1710  0.2131
 7636SOL    HW134370   3.945   3.924  16.853 -0.5143  0.1010  0.2860
 7636SOL    HW234371   3.859   3.826  16.805 -0.1965 -0.4189  1.9728
 7637SOL     OW34372   1.222   1.237   4.931 -0.5774 -0.3289 -0.2548
 7637SOL    HW134373   1.187   1.179   4.863  0.7741 -1.5674  0.1019
 7637SOL    HW234374   1.224   1.318   4.881 -0.3180  0.1698  0.5645
 7638SOL     OW34375   2.587   4.222  15.244 -0.2741 -0.1043 -0.0059
 7638SOL    HW134376   2.619   4.183  15.325 -0.0879  0.6836  0.2999
 7638SOL    HW234377   2.633   4.168  15.179 -1.0976  1.5089 -1.9269
 7639SOL     OW34378   2.579   0.503  16.962 -0.5343 -0.5318 -0.6929
 7639SOL    HW134379   2.632   0.569  16.917 -2.1399  0.6695 -0.8295
 7639SOL    HW234380   2.519   0.471  16.895 -1.0068  1.7574 -1.3651
 7640SOL     OW34381   2.061   4.027   4.859 -0.2313 -0.1151 -0.2444
 7640SOL    HW134382   2.012   4.072   4.929 -0.6459 -1.1260  0.1081
 7640SOL    HW234383   2.095   4.104   4.813 -2.1725  0.1346 -1.2977
 7641SOL     OW34384   0.006   4.315   9.424  0.2545  0.2653 -0.4309
 7641SOL    HW134385   4.652   4.266   9.404  1.0662 -1.1492 -0.1827
 7641SOL    HW234386   4.704   4.403   9.398 -0.1648  0.6092  1.1672
 7642SOL     OW34387   3.262   4.617   9.471  0.0143  0.2463 -0.2049
 7642SOL    HW134388   3.283   4.655   9.386 -1.7278 -1.4751 -1.4174
 7642SOL    HW234389   3.278   4.683   9.537  0.6118  0.9153 -1.0191
 7643SOL     OW34390   1.142   0.541   4.684  0.3841  0.3044 -0.4512
 7643SOL    HW134391   1.237   0.550   4.677  0.7407 -4.5348 -1.4550
 7643SOL    HW234392   1.118   0.569   4.772 -0.7166 -1.4039 -0.2176
 7644SOL     OW34393   2.001   0.376   5.404  0.5854  0.3990  0.1157
 7644SOL    HW134394   1.916   0.334   5.388  1.2174 -1.1156  0.6787
 7644SOL    HW234395   1.995   0.375   5.499 -1.0229  2.8143  0.0492
 7645SOL     OW34396   0.391   2.078  12.137  0.4245 -0.0237 -0.6979
 7645SOL    HW134397   0.320   2.019  12.163 -1.8439  3.3395  0.6365
 7645SOL    HW234398   0.430   2.106  12.219 -1.4747 -0.8055  0.4627
 7646SOL     OW34399   4.113   3.776   8.682  0.5119  0.3616 -0.0699
 7646SOL    HW134400   4.081   3.687   8.696  0.1188  0.7638  1.6214
 7646SOL    HW234401   4.206   3.753   8.677  0.1928 -0.5225 -1.7265
 7647SOL     OW34402   3.181   1.682  13.145  0.2160 -0.4058  0.4717
 7647SOL    HW134403   3.254   1.636  13.185  0.3691 -0.4301  0.1641
 7647SOL    HW234404   3.111   1.617  13.144 -0.4938  0.3434  0.6448
 7648SOL     OW34405   2.075   3.966   6.798  0.5765  0.6723 -1.0768
 7648SOL    HW134406   2.128   3.889   6.819 -0.3946  0.4520  0.5719
 7648SOL    HW234407   2.068   4.003   6.886 -0.1485 -1.0180 -0.4303
 7649SOL     OW34408   4.604   2.905   3.895  0.1330 -0.0360  0.5084
 7649SOL    HW134409   4.698   2.886   3.893  0.2029  0.5078 -1.2269
 7649SOL    HW234410   4.577   2.922   3.805 -0.0307 -0.8999  0.3999
 7650SOL     OW34411   3.221   0.194   2.007  0.5800 -0.0429  0.6119
 7650SOL    HW134412   3.170   0.174   1.928  1.6439  2.1130 -0.6118
 7650SOL    HW234413   3.292   0.134   1.988  0.9467  1.1824 -1.8018
 7651SOL     OW34414   0.749   0.746   5.367  0.4630 -0.0574  0.0145
 7651SOL    HW134415   0.739   0.652   5.354 -0.2847 -0.2887  2.2635
 7651SOL    HW234416   0.682   0.776   5.306  1.1942  0.7048 -0.4126
 7652SOL     OW34417   3.125   0.608   0.587 -0.0233 -0.6551  0.3026
 7652SOL    HW134418   3.144   0.684   0.532 -0.5928 -1.0091 -0.3984
 7652SOL    HW234419   3.207   0.602   0.636  1.1574 -0.4257 -1.6334
 7653SOL     OW34420   0.025   2.780  12.235  0.1697  0.0408 -0.1244
 7653SOL    HW134421   0.074   2.858  12.210 -0.1058  0.1705 -0.2498
 7653SOL    HW234422   4.711   2.804  12.319  0.2054  0.2550 -0.1692
 7654SOL     OW34423   4.045   3.160   7.946 -0.1386 -0.0067  0.3371
 7654SOL    HW134424   3.970   3.107   7.971 -0.5329 -0.4955 -1.8573
 7654SOL    HW234425   4.112   3.140   8.012  0.9278 -1.5174 -1.1929
 7655SOL     OW34426   2.944   2.342   7.157  0.4962  0.2887 -0.6223
 7655SOL    HW134427   3.028   2.298   7.142  0.8816  0.7153  0.2818
 7655SOL    HW234428   2.980   2.422   7.196  1.5518  0.0414 -1.0834
 7656SOL     OW34429   2.184   2.379   9.380  0.1238  0.4275 -0.0862
 7656SOL    HW134430   2.155   2.337   9.300 -2.6458  1.0144  0.6356
 7656SOL    HW234431   2.257   2.323   9.408 -0.8131 -0.5778  0.3394
 7657SOL     OW34432   2.854   0.001  14.741 -0.3813 -0.5405  1.0010
 7657SOL    HW134433   2.808   4.710  14.823  2.0149 -2.5274  1.9551
 7657SOL    HW234434   2.797   0.068  14.704  0.8376  0.3635  0.7259
 7658SOL     OW34435   3.857   1.079   9.418  0.6792 -0.0759 -0.2163
 7658SOL    HW134436   3.936   1.040   9.454  0.3073 -0.2352  0.4310
 7658SOL    HW234437   3.822   1.142   9.482 -0.7103 -0.5331 -0.5166
 7659SOL     OW34438   3.371   2.103  17.041  0.2263 -0.6612 -0.5766
 7659SOL    HW134439   3.276   2.096  17.051 -0.1624  2.6126 -2.0231
 7659SOL    HW234440   3.377   2.012  17.012 -2.3838 -0.5560 -1.4786
 7660SOL     OW34441   3.595   0.675   3.498  0.6492 -0.2279  0.0157
 7660SOL    HW134442   3.543   0.595   3.510 -1.5054  1.2864  0.8763
 7660SOL    HW234443   3.549   0.709   3.421  0.3327  3.7969  1.9752
 7661SOL     OW34444   2.903   4.363   0.882  0.3067  0.0113 -0.1048
 7661SOL    HW134445   2.901   4.454   0.910 -0.7876  0.2339 -0.8861
 7661SOL    HW234446   2.997   4.352   0.873  0.8719  2.8124  2.5569
 7662SOL     OW34447   0.359   4.175   8.809 -0.2690 -0.1767  0.4498
 7662SOL    HW134448   0.273   4.134   8.818 -0.2343 -0.4137 -0.2328
 7662SOL    HW234449   0.338   4.264   8.781 -1.2620 -0.2787  0.8410
 7663SOL     OW34450   3.801   1.690   8.559 -0.1473 -0.1046 -0.0573
 7663SOL    HW134451   3.724   1.740   8.588  0.6289  1.1207 -0.0887
 7663SOL    HW234452   3.767   1.605   8.532  3.1049 -1.0438 -1.0862
 7664SOL     OW34453   1.205   2.874   4.089  0.5024 -0.0566 -0.4414
 7664SOL    HW134454   1.197   2.787   4.130 -1.1814  0.8091  1.0769
 7664SOL    HW234455   1.259   2.855   4.013 -0.3279 -0.7496 -0.8554
 7665SOL     OW34456   3.485   4.393   5.101  0.0398 -0.2910  0.6799
 7665SOL    HW134457   3.413   4.386   5.039  0.1041 -1.0896  0.6974
 7665SOL    HW234458   3.523   4.305   5.097  0.1644 -0.2562  1.0941
 7666SOL     OW34459   2.270   0.334  15.068  0.6744 -0.7781  0.0700
 7666SOL    HW134460   2.361   0.304  15.058  1.7700  2.9152 -1.1663
 7666SOL    HW234461   2.236   0.336  14.978 -1.6805 -0.3189  0.9825
 7667SOL     OW34462   3.301   2.392   4.234  0.1436 -0.2084  0.3873
 7667SOL    HW134463   3.234   2.348   4.182  0.9764 -0.2521 -0.6465
 7667SOL    HW234464   3.268   2.482   4.230 -1.8211 -0.9091  0.7964
 7668SOL     OW34465   0.705   1.114  13.895  0.0432 -0.2274  0.3212
 7668SOL    HW134466   0.727   1.150  13.809 -0.7349  0.9164  0.6064
 7668SOL    HW234467   0.783   1.134  13.948  1.1376  0.1800 -1.4296
 7669SOL     OW34468   0.634   3.298   4.314  0.3429 -0.3478  0.0909
 7669SOL    HW134469   0.601   3.341   4.235 -0.0568 -1.7672 -0.5134
 7669SOL    HW234470   0.602   3.211   4.293  0.3768 -0.3717  0.1393
 7670SOL     OW34471   1.346   4.662   4.653 -0.3530  0.0156 -0.1865
 7670SOL    HW134472   1.285   4.656   4.580 -1.0117 -0.6210  0.4135
 7670SOL    HW234473   1.391   4.578   4.657 -1.5438 -0.5739  0.8491
 7671SOL     OW34474   1.525   3.320   6.714 -0.4952 -0.1841 -0.3083
 7671SOL    HW134475   1.481   3.240   6.687  0.1865 -1.3676  2.0995
 7671SOL    HW234476   1.608   3.299   6.671 -0.7844  0.7885 -1.3409
 7672SOL     OW34477   2.230   2.863  13.164 -0.3970  0.8456  0.3082
 7672SOL    HW134478   2.212   2.773  13.188 -0.4128  0.7124 -0.2065
 7672SOL    HW234479   2.251   2.852  13.071  2.3237 -1.7765  1.2512
 7673SOL     OW34480   4.534   2.013   9.640  0.3351 -0.1176 -0.1425
 7673SOL    HW134481   4.549   1.919   9.651  0.6945  0.0305  0.5888
 7673SOL    HW234482   4.454   2.018   9.586  0.8936  0.1246 -0.9443
 7674SOL     OW34483   1.530   0.661   4.950  0.2791 -0.8190  0.4925
 7674SOL    HW134484   1.466   0.591   4.943 -1.5292  0.6141  2.7280
 7674SOL    HW234485   1.617   0.622   4.964  0.5092 -0.3745  0.3158
 7675SOL     OW34486   4.445   1.713   5.325 -0.2981 -0.5084 -0.0038
 7675SOL    HW134487   4.353   1.710   5.351 -1.1001  1.6369 -2.5784
 7675SOL    HW234488   4.441   1.771   5.248  1.8353 -0.7176 -0.2853
 7676SOL     OW34489   1.456   0.550   5.612  0.2240  0.4117  0.3937
 7676SOL    HW134490   1.455   0.511   5.699 -1.8049  2.0661  1.0899
 7676SOL    HW234491   1.550   0.556   5.595  0.6752 -1.8069  2.0697
 7677SOL     OW34492   2.460   2.280   7.738 -0.4799  0.5458  0.6044
 7677SOL    HW134493   2.450   2.215   7.807 -0.0798 -0.3439 -0.1803
 7677SOL    HW234494   2.372   2.288   7.701  0.1797  1.9760 -0.6472
 7678SOL     OW34495   1.254   0.439   1.313  0.0392 -0.7204  0.4193
 7678SOL    HW134496   1.189   0.384   1.356 -2.2089  0.9601 -0.8056
 7678SOL    HW234497   1.228   0.526   1.345 -3.7841 -2.0778  0.9605
 7679SOL     OW34498   1.660   1.928  15.454  0.3069  0.1228  0.2146
 7679SOL    HW134499   1.611   1.876  15.390 -2.2285  1.8567  0.7510
 7679SOL    HW234500   1.697   1.990  15.391  0.1316  1.5350  1.5012
 7680SOL     OW34501   0.923   1.158   7.248 -0.5389 -0.4771  0.0291
 7680SOL    HW134502   0.893   1.197   7.331  1.4247  0.1426  0.4450
 7680SOL    HW234503   0.983   1.087   7.268  1.2401  0.7318 -1.0159
 7681SOL     OW34504   1.835   0.094  13.118  0.1355  0.4744 -0.4973
 7681SOL    HW134505   1.894   0.040  13.170  0.1926 -0.1415 -1.2079
 7681SOL    HW234506   1.811   0.159  13.184  0.5459  1.4041 -1.2544
 7682SOL     OW34507   2.603   3.088   7.351  0.2804 -0.2233 -0.0388
 7682SOL    HW134508   2.621   3.161   7.410  1.3545 -0.5881  0.0858
 7682SOL    HW234509   2.552   3.038   7.415 -1.8249  0.4654 -1.1746
 7683SOL     OW34510   4.252   1.170   2.878 -0.2640  0.2056  0.0360
 7683SOL    HW134511   4.183   1.221   2.836 -1.4595  0.6396  2.4823
 7683SOL    HW234512   4.314   1.167   2.805 -0.7987  0.4482 -0.4179
 7684SOL     OW34513   3.123   1.869   8.759 -0.7576  0.1121  0.2479
 7684SOL    HW134514   3.067   1.944   8.778  1.1395  1.5366  0.2395
 7684SOL    HW234515   3.182   1.917   8.701 -1.3181 -0.1274 -0.5161
 7685SOL     OW34516   0.367   1.999   7.079  0.4859 -0.0432  0.2027
 7685SOL    HW134517   0.380   1.920   7.027 -0.5641  1.8410 -2.9652
 7685SOL    HW234518   0.272   1.997   7.076  0.5009 -0.0648 -0.2754
 7686SOL     OW34519   2.832   4.376  11.832 -0.5745 -0.2805  0.1262
 7686SOL    HW134520   2.890   4.336  11.767 -0.8193  1.3372 -1.0880
 7686SOL    HW234521   2.784   4.300  11.863 -0.8705 -0.4763 -0.8509
 7687SOL     OW34522   0.560   4.284   8.253 -0.4946  0.0806 -0.1793
 7687SOL    HW134523   0.608   4.349   8.303  0.5361 -1.1298  0.4092
 7687SOL    HW234524   0.475   4.303   8.293 -0.9669 -1.9896 -0.1986
 7688SOL     OW34525   1.838   3.365   3.951  0.4812  0.0152  0.7602
 7688SOL    HW134526   1.872   3.276   3.942  1.3307  0.7568 -3.3740
 7688SOL    HW234527   1.893   3.411   3.887  1.3110 -0.3565  1.2080
 7689SOL     OW34528   3.351   1.486   4.944  0.0517  0.8298  0.6983
 7689SOL    HW134529   3.323   1.548   5.011 -2.5508  1.5567 -1.0928
 7689SOL    HW234530   3.445   1.474   4.960 -0.1273  0.1614  1.2339
 7690SOL     OW34531   3.951   2.607  17.263 -0.0742 -0.2468  0.2004
 7690SOL    HW134532   3.860   2.592  17.235 -0.0019 -0.7318  0.2294
 7690SOL    HW234533   3.998   2.591  17.181  1.2255 -0.7907  1.0544
 7691SOL     OW34534   1.648   0.189   0.527 -0.4337  0.0503 -0.0415
 7691SOL    HW134535   1.741   0.209   0.539 -0.3887  1.2849 -2.3565
 7691SOL    HW234536   1.628   0.150   0.612  2.2422  1.6629  1.3558
 7692SOL     OW34537   4.198   0.006   5.738 -0.5653 -0.2308  0.0246
 7692SOL    HW134538   4.144   0.023   5.815 -0.2029  1.6172 -0.1343
 7692SOL    HW234539   4.228   0.091   5.706 -1.3581 -0.6413 -1.7990
 7693SOL     OW34540   0.999   4.199   3.340  0.3354  0.3787  0.5978
 7693SOL    HW134541   1.093   4.181   3.331  0.1913  0.4013 -1.0344
 7693SOL    HW234542   0.975   4.210   3.248 -2.6186 -2.2272  1.0575
 7694SOL     OW34543   3.094   1.892   6.388  0.6085 -0.2835 -0.1836
 7694SOL    HW134544   2.999   1.887   6.386  0.6077 -0.6031  0.5388
 7694SOL    HW234545   3.109   1.950   6.463  0.0495 -0.4124  0.0280
 7695SOL     OW34546   1.370   0.795   2.293 -0.0449 -0.1093  0.4627
 7695SOL    HW134547   1.412   0.727   2.345 -1.0305 -0.9297  0.1804
 7695SOL    HW234548   1.278   0.772   2.304 -0.2494 -0.8010 -2.6413
 7696SOL     OW34549   1.719   3.436   7.328 -0.3499  0.0154 -0.0592
 7696SOL    HW134550   1.662   3.412   7.401  1.1466  1.6951  1.6581
 7696SOL    HW234551   1.658   3.468   7.262 -0.3097  0.9114  0.3396
 7697SOL     OW34552   1.881   3.138   5.252 -0.0489  0.2604  0.5406
 7697SOL    HW134553   1.966   3.097   5.271 -1.3358 -0.7042  4.2764
 7697SOL    HW234554   1.864   3.176   5.338 -0.9925 -0.9702  0.9029
 7698SOL     OW34555   4.663   1.462   3.630  0.0206  0.7038  0.1072
 7698SOL    HW134556   4.682   1.464   3.536 -1.2136 -1.0386 -0.1999
 7698SOL    HW234557   0.019   1.452   3.680 -0.5840  1.6092  1.2655
 7699SOL     OW34558   1.045   2.693   3.954 -0.5333  0.2118 -0.5479
 7699SOL    HW134559   1.053   2.758   4.024  1.6056  1.2602 -1.7810
 7699SOL    HW234560   0.991   2.734   3.886 -1.1428  0.9975  0.4208
 7700SOL     OW34561   1.870   2.593   8.164 -0.2775  0.0561  0.4933
 7700SOL    HW134562   1.818   2.527   8.120  0.1298 -2.3361  3.5917
 7700SOL    HW234563   1.854   2.573   8.256 -0.4662  0.0046  0.4486
 7701SOL     OW34564   4.098   2.874   5.525  0.1643  0.5125  0.1434
 7701SOL    HW134565   4.178   2.855   5.574  1.2694 -0.2547 -1.9301
 7701SOL    HW234566   4.061   2.786   5.520 -0.5604  0.8247  0.0567
 7702SOL     OW34567   4.258   1.957  13.034 -0.2519  0.5292  0.4343
 7702SOL    HW134568   4.270   1.991  12.945 -1.2702  0.1120  0.1467
 7702SOL    HW234569   4.280   2.039  13.079 -0.3396  0.3087  0.8694
 7703SOL     OW34570   4.601   1.382   2.787  0.4003 -0.0821 -0.4237
 7703SOL    HW134571   4.543   1.393   2.711 -1.8021  0.2162  1.3126
 7703SOL    HW234572   4.649   1.463   2.770  0.1455  0.3698  1.0755
 7704SOL     OW34573   3.282   4.471  13.923 -0.4792  0.1072  0.0761
 7704SOL    HW134574   3.234   4.552  13.905  1.6185  0.9247 -1.7593
 7704SOL    HW234575   3.373   4.494  13.906 -0.6418  1.5611  1.2197
 7705SOL     OW34576   2.451   3.908  11.527  0.3998 -0.2351 -0.0764
 7705SOL    HW134577   2.394   3.845  11.484 -1.0991  2.3584 -1.8817
 7705SOL    HW234578   2.490   3.957  11.454 -0.4700  0.8938  0.2130
 7706SOL     OW34579   2.239   2.898   6.820  0.4092  0.2812  0.9930
 7706SOL    HW134580   2.258   2.805   6.830 -2.4951 -0.4923 -0.6467
 7706SOL    HW234581   2.326   2.934   6.803  0.2570  0.0646 -0.1940
 7707SOL     OW34582   3.032   3.590   3.784 -0.3261 -0.3197  0.2248
 7707SOL    HW134583   3.010   3.562   3.873 -1.4756  0.7927  0.2866
 7707SOL    HW234584   2.945   3.564   3.753 -0.6334 -0.3410  1.1256
 7708SOL     OW34585   3.754   2.335   9.807 -0.4685 -0.1747  0.0347
 7708SOL    HW134586   3.774   2.242   9.802 -1.4364 -0.3349 -0.7530
 7708SOL    HW234587   3.784   2.341   9.898  0.9003 -0.8971 -0.3751
 7709SOL     OW34588   1.900   1.217   0.242  0.3258  0.0839 -0.0598
 7709SOL    HW134589   1.895   1.158   0.318 -0.9033  1.3471  0.8340
 7709SOL    HW234590   1.992   1.215   0.216 -0.0485 -0.1460 -1.3491
 7710SOL     OW34591   2.530   0.064   7.537  0.4268 -0.5594 -0.7217
 7710SOL    HW134592   2.597   0.069   7.470  0.8747  0.9688 -0.1509
 7710SOL    HW234593   2.449   0.047   7.489 -0.0808 -2.2601  0.7232
 7711SOL     OW34594   4.264   0.705  16.412  0.5572 -0.0287  0.7473
 7711SOL    HW134595   4.187   0.648  16.412  0.0287  0.6818 -0.1593
 7711SOL    HW234596   4.310   0.661  16.483 -0.9609 -1.1197  1.0479
 7712SOL     OW34597   1.226   2.113   1.602  0.0902  0.0280 -0.1906
 7712SOL    HW134598   1.313   2.080   1.578 -1.2180 -2.4127 -1.5113
 7712SOL    HW234599   1.244   2.207   1.613  1.5137 -0.1864 -0.6707
 7713SOL     OW34600   4.548   3.972   2.748  0.0110 -0.5403  0.5697
 7713SOL    HW134601   4.564   3.916   2.672  1.2438 -0.6919  0.9468
 7713SOL    HW234602   4.600   3.922   2.811  2.4354  2.2874  0.8373
 7714SOL     OW34603   2.699   0.160   4.280  0.1574 -0.2234 -0.6268
 7714SOL    HW134604   2.634   0.228   4.298  0.5952 -0.0026  0.1416
 7714SOL    HW234605   2.693   0.122   4.369 -1.0330 -0.4539 -0.8013
 7715SOL     OW34606   0.663   1.348  12.849 -0.2548  0.3355  0.0008
 7715SOL    HW134607   0.626   1.350  12.761 -2.0124 -0.5136  0.7175
 7715SOL    HW234608   0.590   1.350  12.911 -0.1336 -0.4079  0.1716
 7716SOL     OW34609   3.921   3.535   7.860  0.2724  0.5807 -0.2325
 7716SOL    HW134610   3.891   3.477   7.930  1.6131  0.0739 -0.0735
 7716SOL    HW234611   3.872   3.615   7.879 -0.2098  0.0584  0.7350
 7717SOL     OW34612   1.469   2.554   6.561 -0.0006 -0.0126 -0.1155
 7717SOL    HW134613   1.381   2.590   6.553 -0.7306 -1.5789  0.7178
 7717SOL    HW234614   1.515   2.604   6.494 -1.4645  0.2737 -0.8855
 7718SOL     OW34615   0.607   0.368   9.034  0.9627  0.8388 -0.3171
 7718SOL    HW134616   0.537   0.432   9.017  1.0885  1.0346 -0.1068
 7718SOL    HW234617   0.677   0.400   8.978  2.8771 -1.0373  1.0388
 7719SOL     OW34618   3.324   3.900  17.492 -0.3041  0.7758  0.0671
 7719SOL    HW134619   3.373   3.822  17.519 -1.5113  0.1145  0.3822
 7719SOL    HW234620   3.398   3.961  17.488  1.3589 -1.2395 -0.0652
 7720SOL     OW34621   0.265   1.538   6.784 -0.1610  0.3599  0.8065
 7720SOL    HW134622   0.238   1.546   6.692 -0.9844 -2.0930  0.8483
 7720SOL    HW234623   0.186   1.516   6.832  0.5952 -1.4967  1.1848
 7721SOL     OW34624   4.215   3.380   2.077 -0.0662  0.6304 -0.5028
 7721SOL    HW134625   4.223   3.345   1.988  1.0506  1.3282 -0.6791
 7721SOL    HW234626   4.139   3.435   2.057 -0.0618  0.5734 -0.6826
 7722SOL     OW34627   4.715   0.939   2.008  0.9251 -0.5673  0.3169
 7722SOL    HW134628   4.628   0.899   2.011  0.2511  1.0430  1.8528
 7722SOL    HW234629   0.046   0.862   2.015  0.0092 -1.1793  0.8280
 7723SOL     OW34630   1.110   1.062   7.873 -0.4919 -0.1756 -0.0185
 7723SOL    HW134631   1.109   0.984   7.817 -2.8348 -0.3092  0.2212
 7723SOL    HW234632   1.181   1.049   7.936 -0.4912 -0.9592 -0.1740
 7724SOL     OW34633   4.059   0.531  11.601  0.5841 -1.0380 -0.0047
 7724SOL    HW134634   4.034   0.444  11.632  0.0442 -0.8576  0.0642
 7724SOL    HW234635   4.138   0.555  11.649 -0.8508  1.1611  1.2466
 7725SOL     OW34636   3.233   1.703  17.425 -0.1493  0.7914 -0.5968
 7725SOL    HW134637   3.248   1.763  17.352 -1.3061 -0.3390 -1.7694
 7725SOL    HW234638   3.313   1.716  17.475 -0.2927 -1.9795  0.3480
 7726SOL     OW34639   3.580   2.011  15.503 -0.4553 -1.1414  0.3823
 7726SOL    HW134640   3.576   2.098  15.543  1.3688 -0.5542 -0.7397
 7726SOL    HW234641   3.499   2.017  15.453  0.7987  2.1701 -1.2449
 7727SOL     OW34642   1.504   2.531   5.250 -0.7040 -0.2700 -0.4491
 7727SOL    HW134643   1.430   2.577   5.289  0.4551  0.5570  0.7751
 7727SOL    HW234644   1.458   2.472   5.190 -0.2814 -0.5104 -0.5391
 7728SOL     OW34645   1.293   2.500   4.856 -0.6402  0.0633 -0.2902
 7728SOL    HW134646   1.355   2.573   4.848 -2.1523  1.3192 -0.5430
 7728SOL    HW234647   1.212   2.542   4.828 -0.9164 -0.4273 -0.2277
 7729SOL     OW34648   0.273   3.948  12.218 -0.0861  0.2139  0.8652
 7729SOL    HW134649   0.236   3.971  12.303 -0.0249  1.4512  0.5566
 7729SOL    HW234650   0.198   3.893  12.194 -0.9312  1.1652  1.3423
 7730SOL     OW34651   4.601   1.197  11.173 -0.3669 -0.0025 -0.9574
 7730SOL    HW134652   4.603   1.120  11.230  2.5228  0.0873 -0.9331
 7730SOL    HW234653   4.691   1.229  11.179  0.0795 -2.0436  3.3831
 7731SOL     OW34654   0.409   4.150   4.903 -0.0092  0.6562 -0.2333
 7731SOL    HW134655   0.335   4.091   4.918  0.1801  0.4839  0.0127
 7731SOL    HW234656   0.369   4.231   4.936 -1.7967  0.0897 -1.0358
 7732SOL     OW34657   0.136   0.575   9.918  0.4186  0.1902  0.1958
 7732SOL    HW134658   0.165   0.503   9.973  0.8464  1.3150  1.4274
 7732SOL    HW234659   0.219   0.617   9.895 -1.0726  2.6278 -0.7245
 7733SOL     OW34660   3.825   2.218   7.840 -0.4702  0.0695 -0.2515
 7733SOL    HW134661   3.735   2.192   7.820 -0.2136 -0.3778 -0.8334
 7733SOL    HW234662   3.807   2.289   7.901 -0.4667 -0.1212 -0.0306
 7734SOL     OW34663   1.687   2.923  10.644  0.5049  0.2661  0.0069
 7734SOL    HW134664   1.756   2.942  10.709 -0.7722  0.6252  1.2525
 7734SOL    HW234665   1.609   2.892  10.688  0.7186  0.3342  0.4340
 7735SOL     OW34666   1.687   2.683   2.892  0.4094  0.3659  0.0641
 7735SOL    HW134667   1.655   2.772   2.879 -2.4170 -0.4762  1.1658
 7735SOL    HW234668   1.770   2.705   2.936  1.3953 -1.5326 -0.8517
 7736SOL     OW34669   2.004   0.654  15.598 -0.2727 -0.3096  0.3150
 7736SOL    HW134670   1.943   0.713  15.641 -2.3348 -0.6769 -2.1237
 7736SOL    HW234671   1.983   0.575  15.649 -0.9959  1.4544  2.7418
 7737SOL     OW34672   2.791   4.491   6.317  0.0978  0.2961  0.1291
 7737SOL    HW134673   2.717   4.461   6.370 -0.2621  0.8279 -0.0774
 7737SOL    HW234674   2.789   4.582   6.347 -1.3843 -0.3118  1.9039
 7738SOL     OW34675   2.608   0.195  14.675 -0.5917  0.1142  0.5352
 7738SOL    HW134676   2.570   0.263  14.731 -0.7462  0.5558 -0.1038
 7738SOL    HW234677   2.579   0.114  14.718  0.0790  0.0556  0.8802
 7739SOL     OW34678   1.746   0.859   9.187 -0.0859  0.2329  0.3596
 7739SOL    HW134679   1.760   0.867   9.093 -0.0684  1.1426  0.4424
 7739SOL    HW234680   1.806   0.786   9.205 -1.5534 -0.7601  1.2830
 7740SOL     OW34681   2.203   0.031  11.730  0.4907 -0.1916 -0.2139
 7740SOL    HW134682   2.276   0.017  11.791  0.0824  1.7422  0.7106
 7740SOL    HW234683   2.135   4.712  11.779 -1.6794  1.9038 -1.3240
 7741SOL     OW34684   2.869   2.428   2.563  0.0800  0.0666 -0.2173
 7741SOL    HW134685   2.950   2.377   2.563  0.4847  0.7172  1.8580
 7741SOL    HW234686   2.842   2.402   2.651  1.2063 -1.5716 -0.3462
 7742SOL     OW34687   2.446   3.747  10.426 -0.1071  0.1204 -0.5224
 7742SOL    HW134688   2.350   3.755  10.420 -0.2122 -0.5071  0.4147
 7742SOL    HW234689   2.448   3.665  10.475 -0.3660  0.7957  0.6016
 7743SOL     OW34690   0.295   1.849   3.738  0.3290  0.8127  0.0110
 7743SOL    HW134691   0.278   1.828   3.646  3.0404 -1.7924  0.1101
 7743SOL    HW234692   0.230   1.918   3.748 -0.8812  0.4193 -4.8246
 7744SOL     OW34693   2.231   2.436   2.443 -0.1044 -0.0694  0.1551
 7744SOL    HW134694   2.186   2.378   2.382 -1.5898  0.6931  0.5429
 7744SOL    HW234695   2.320   2.416   2.414  0.3394 -1.0978  2.1710
 7745SOL     OW34696   2.434   3.991  10.556 -0.5751 -0.4399 -0.7088
 7745SOL    HW134697   2.348   3.979  10.516  0.0620 -0.7071 -1.9911
 7745SOL    HW234698   2.472   3.921  10.501  2.3770 -0.0294  0.7682
 7746SOL     OW34699   1.096   4.708   2.670  0.3092  0.0263 -0.2140
 7746SOL    HW134700   1.044   4.628   2.658 -2.3324  1.7251  0.0007
 7746SOL    HW234701   1.171   4.672   2.622  1.1585  0.6546  0.6537
 7747SOL     OW34702   3.920   0.935   4.108  0.4406 -0.6295 -0.0910
 7747SOL    HW134703   3.857   0.916   4.039  0.2454 -1.7439  0.3893
 7747SOL    HW234704   3.988   0.869   4.090  0.3085 -0.7140 -0.2780
 7748SOL     OW34705   0.479   3.961   7.725 -0.1866  0.1123 -0.1889
 7748SOL    HW134706   0.547   3.929   7.785  1.5877 -0.5875 -2.5689
 7748SOL    HW234707   0.510   4.052   7.720 -1.7608  0.6825  0.2034
 7749SOL     OW34708   4.528   0.387   5.830 -0.0970 -0.0646  0.2966
 7749SOL    HW134709   4.600   0.333   5.796 -0.6824  0.2479 -1.4570
 7749SOL    HW234710   4.495   0.428   5.751 -0.9585 -1.3581 -0.0196
 7750SOL     OW34711   3.775   1.475   7.951 -0.0900  0.1857  0.5601
 7750SOL    HW134712   3.869   1.492   7.958 -0.1032 -0.1054  1.3865
 7750SOL    HW234713   3.774   1.396   7.897  1.2243  0.2972  0.3598
 7751SOL     OW34714   0.850   3.295  10.191  0.0858 -0.0184 -0.0549
 7751SOL    HW134715   0.754   3.289  10.196  0.1778 -2.1985 -1.1128
 7751SOL    HW234716   0.854   3.311  10.097 -0.2991  1.8029  0.2278
 7752SOL     OW34717   2.642   4.335   6.735  0.2336 -0.8222  0.1089
 7752SOL    HW134718   2.654   4.369   6.824  0.7399  0.8916 -0.6132
 7752SOL    HW234719   2.546   4.336   6.733  0.2799 -0.2073 -1.6097
 7753SOL     OW34720   3.048   1.826   3.574  0.6026 -0.1832 -0.1163
 7753SOL    HW134721   3.092   1.907   3.549 -0.5989  0.8090  0.9974
 7753SOL    HW234722   2.982   1.853   3.638 -0.0080 -0.6695 -0.5294
 7754SOL     OW34723   3.084   3.800   5.046 -0.1431  0.5318  0.2115
 7754SOL    HW134724   3.079   3.804   4.951 -0.1888 -2.8319  0.0897
 7754SOL    HW234725   3.059   3.709   5.060  1.9762 -0.2362 -1.1678
 7755SOL     OW34726   0.977   1.901  10.163 -0.1822 -0.1814 -0.0175
 7755SOL    HW134727   0.917   1.947  10.104  1.0244  2.9146  1.1200
 7755SOL    HW234728   1.062   1.943  10.153  0.7266 -1.9120  0.4862
 7756SOL     OW34729   0.063   0.560   1.874 -0.0404 -0.4938  0.2427
 7756SOL    HW134730   0.032   0.483   1.825  1.6415 -1.1132  0.1593
 7756SOL    HW234731   0.114   0.605   1.807  1.0219 -0.6861  0.9126
 7757SOL     OW34732   3.539   3.515  15.515 -0.5226 -0.1700 -0.0111
 7757SOL    HW134733   3.610   3.519  15.578 -1.1446  1.5227  0.6003
 7757SOL    HW234734   3.599   3.508  15.440  0.2468 -0.5531  0.6420
 7758SOL     OW34735   0.873   3.445   4.973 -0.1593  0.4865  0.0828
 7758SOL    HW134736   0.870   3.405   4.886 -1.3087  0.2084  0.2618
 7758SOL    HW234737   0.946   3.407   5.022 -0.0624  0.1409 -0.3259
 7759SOL     OW34738   0.808   2.916   2.899 -0.2722  0.1749  0.4833
 7759SOL    HW134739   0.787   3.002   2.937 -3.0129 -0.9358  1.4626
 7759SOL    HW234740   0.762   2.922   2.816  0.9215 -0.7675 -0.2379
 7760SOL     OW34741   1.465   0.323  11.617  0.3021 -0.1283  0.6761
 7760SOL    HW134742   1.549   0.333  11.574 -0.3479 -2.5352 -1.1484
 7760SOL    HW234743   1.438   0.405  11.660 -1.2775 -0.2500 -0.0595
 7761SOL     OW34744   2.309   3.905   4.966  0.0343 -0.1938 -0.7170
 7761SOL    HW134745   2.262   3.831   5.004 -2.6997  2.0018  0.2436
 7761SOL    HW234746   2.242   3.944   4.909  0.2283 -0.7815 -1.3544
 7762SOL     OW34747   0.738   0.181   7.024 -0.2797 -0.5481  0.5166
 7762SOL    HW134748   0.788   0.241   6.968 -0.2595 -0.6838  0.3887
 7762SOL    HW234749   0.816   0.141   7.062 -1.3705 -2.7169  0.4914
 7763SOL     OW34750   3.179   3.422   7.991 -0.7140  0.3526 -0.7123
 7763SOL    HW134751   3.199   3.489   7.926  2.5231  0.5409  0.4980
 7763SOL    HW234752   3.262   3.376   7.991  0.3483  2.2893 -1.5631
 7764SOL     OW34753   1.975   4.358   7.195  0.1959  0.5548  0.4144
 7764SOL    HW134754   2.055   4.308   7.213 -0.4667 -0.9068 -0.5990
 7764SOL    HW234755   1.932   4.297   7.134  0.1940 -0.8983  1.8671
 7765SOL     OW34756   4.001   4.702   5.136 -0.1289  0.1210 -0.3639
 7765SOL    HW134757   4.031   0.051   5.188  0.7725 -1.0230  0.7478
 7765SOL    HW234758   4.042   4.631   5.186 -0.6512 -0.7933 -1.2259
 7766SOL     OW34759   1.099   0.843  11.815  0.3095  0.0543  0.0644
 7766SOL    HW134760   1.009   0.849  11.846  1.1577  1.1390  2.3325
 7766SOL    HW234761   1.144   0.847  11.900 -0.7126  0.5725  0.5809
 7767SOL     OW34762   2.833   4.439   7.404 -0.0642  0.3135 -0.2894
 7767SOL    HW134763   2.924   4.439   7.376 -0.2431  2.5058 -0.8595
 7767SOL    HW234764   2.843   4.437   7.499  1.9213  0.9654 -0.5022
 7768SOL     OW34765   2.515   0.993   5.941 -0.4150  0.2243 -0.1713
 7768SOL    HW134766   2.494   1.059   6.008 -1.2074 -1.1684  0.9671
 7768SOL    HW234767   2.567   1.045   5.880  0.2570 -1.0168 -0.6479
 7769SOL     OW34768   4.254   1.674   8.864  0.0016  0.2579  0.5554
 7769SOL    HW134769   4.168   1.665   8.825  0.5788  3.8717 -1.4958
 7769SOL    HW234770   4.265   1.768   8.876 -2.3205  0.6253 -0.3986
 7770SOL     OW34771   0.491   2.317   8.460 -0.0145  0.1767  0.0921
 7770SOL    HW134772   0.550   2.350   8.392 -0.2013 -0.8480 -0.5740
 7770SOL    HW234773   0.522   2.381   8.524 -0.7824 -0.7275  1.3495
 7771SOL     OW34774   2.409   4.550  13.073 -0.3861  0.3285  0.5291
 7771SOL    HW134775   2.436   4.641  13.085 -0.0537  0.8346 -4.0537
 7771SOL    HW234776   2.338   4.540  13.137  0.1226  2.1258  1.3909
 7772SOL     OW34777   0.245   2.804   2.143  0.4278  0.5526  0.2199
 7772SOL    HW134778   0.339   2.789   2.127  0.0773 -1.3724 -0.0961
 7772SOL    HW234779   0.225   2.849   2.061 -1.3455 -0.3729  0.1360
 7773SOL     OW34780   4.713   4.606  10.515 -0.4875  0.3048  0.2221
 7773SOL    HW134781   4.657   4.609  10.437 -0.5143 -1.6990  0.1869
 7773SOL    HW234782   0.010   4.513  10.512 -1.3941  0.1429 -1.7365
 7774SOL     OW34783   4.536   0.155  14.395 -0.7349  0.0039 -0.2361
 7774SOL    HW134784   4.476   0.218  14.434 -0.1555 -0.7342  1.8673
 7774SOL    HW234785   4.474   0.085  14.375 -0.7797 -0.5906  1.9310
 7775SOL     OW34786   1.645   2.194   0.712  0.1861  0.2862 -0.0783
 7775SOL    HW134787   1.628   2.195   0.618  3.4987 -1.4790 -0.6969
 7775SOL    HW234788   1.567   2.149   0.745 -0.6686  0.5350 -1.7789
 7776SOL     OW34789   1.466   1.091   4.810  0.0255 -0.5585 -0.2342
 7776SOL    HW134790   1.557   1.100   4.781  0.0877 -1.3508 -0.2757
 7776SOL    HW234791   1.484   1.090   4.905  0.6990 -2.6254 -0.3804
 7777SOL     OW34792   0.462   2.295   0.323  0.3153  0.3412  0.7315
 7777SOL    HW134793   0.381   2.304   0.273  0.0150  2.7407  1.6581
 7777SOL    HW234794   0.422   2.297   0.410  0.2499  2.9726  0.6308
 7778SOL     OW34795   0.495   1.477  10.043  0.2012  0.0433 -0.5331
 7778SOL    HW134796   0.569   1.536  10.059 -0.3890  0.1936  1.6875
 7778SOL    HW234797   0.496   1.475   9.947  0.0476 -1.4642 -0.4979
 7779SOL     OW34798   3.475   1.790   6.614  0.8883 -0.2316 -0.2279
 7779SOL    HW134799   3.569   1.803   6.610  1.1203 -2.0555 -0.3668
 7779SOL    HW234800   3.479   1.699   6.586 -0.4824  0.0782 -1.4709
 7780SOL     OW34801   3.306   0.063  13.263 -0.2640  0.4579  0.0184
 7780SOL    HW134802   3.239   0.130  13.280 -2.0988 -1.0550 -1.2465
 7780SOL    HW234803   3.359   0.104  13.195 -0.4632 -1.1912 -1.1290
 7781SOL     OW34804   3.370   0.429  13.284  0.3509 -0.3438  0.0446
 7781SOL    HW134805   3.407   0.356  13.235  0.8560  0.1458 -0.3046
 7781SOL    HW234806   3.288   0.389  13.314 -0.5339  0.9764 -0.6056
 7782SOL     OW34807   1.771   3.389   1.918 -0.3378  0.2576  0.7431
 7782SOL    HW134808   1.777   3.368   1.825  1.3285  1.2450  0.6356
 7782SOL    HW234809   1.787   3.301   1.953 -2.0159 -0.2228  0.3103
 7783SOL     OW34810   0.025   1.540  15.757 -0.2263 -0.4644  0.1125
 7783SOL    HW134811   0.028   1.626  15.800 -0.3761 -0.0112 -0.7986
 7783SOL    HW234812   4.685   1.496  15.812  0.2647 -1.4811 -0.1317
 7784SOL     OW34813   3.361   0.682   1.938 -0.1367 -0.5310  0.3383
 7784SOL    HW134814   3.419   0.731   1.880 -1.0074 -0.8882 -0.8185
 7784SOL    HW234815   3.424   0.616   1.967  1.0160  0.2756 -0.3487
 7785SOL     OW34816   4.563   3.203   3.675  0.3532 -0.2295  0.6268
 7785SOL    HW134817   4.479   3.245   3.693 -0.4402 -1.6544  0.3025
 7785SOL    HW234818   4.623   3.271   3.705  0.4109 -0.1559  0.3512
 7786SOL     OW34819   1.584   0.240   4.916 -0.0478  0.8347  0.2731
 7786SOL    HW134820   1.638   0.310   4.880 -1.7245  1.3675 -1.1937
 7786SOL    HW234821   1.525   0.284   4.977 -1.0267 -2.6979  1.9018
 7787SOL     OW34822   0.908   2.197  13.326 -0.1077  0.1354  0.7697
 7787SOL    HW134823   0.886   2.139  13.253  0.7715  1.8117 -0.8223
 7787SOL    HW234824   0.894   2.133  13.396 -2.3888  0.2061  0.3855
 7788SOL     OW34825   2.672   0.628   3.015  0.1336 -0.1186  0.4927
 7788SOL    HW134826   2.743   0.616   2.952  0.1745  1.5718  0.1952
 7788SOL    HW234827   2.611   0.576   2.963  0.8860 -0.7516  0.2415
 7789SOL     OW34828   0.379   1.690  17.289 -0.7035 -0.3621 -0.4195
 7789SOL    HW134829   0.377   1.627  17.217  1.4181 -1.4908  0.5062
 7789SOL    HW234830   0.327   1.758  17.245 -0.6553 -0.5400 -0.7496
 7790SOL     OW34831   2.149   0.696   8.902 -0.4182  0.3556  0.1836
 7790SOL    HW134832   2.187   0.783   8.914  1.0958 -0.0980 -1.2908
 7790SOL    HW234833   2.090   0.708   8.828  0.1752  0.7037 -0.2305
 7791SOL     OW34834   1.701   3.496   4.705 -0.1085  0.2176 -0.2052
 7791SOL    HW134835   1.715   3.407   4.738  0.6377  0.8902  1.3114
 7791SOL    HW234836   1.771   3.538   4.756 -0.8261 -1.5719  2.2414
 7792SOL     OW34837   0.876   4.143   5.461 -0.1326  0.4746 -1.2339
 7792SOL    HW134838   0.886   4.090   5.382  1.5435  0.7245 -1.1868
 7792SOL    HW234839   0.971   4.158   5.468 -0.1224  0.5391 -1.5120
 7793SOL     OW34840   1.438   4.247   3.557 -0.1380  0.4954 -0.1024
 7793SOL    HW134841   1.481   4.230   3.640  0.3997 -1.0082 -0.6985
 7793SOL    HW234842   1.379   4.321   3.573  0.6761  0.4176  3.2665
 7794SOL     OW34843   2.415   4.242   3.267  0.1345 -0.0685  0.2881
 7794SOL    HW134844   2.451   4.329   3.255 -0.6021  0.3598  1.2599
 7794SOL    HW234845   2.373   4.237   3.180 -1.8642 -1.6867  1.3262
 7795SOL     OW34846   0.943   0.210  14.137  0.4887 -0.7300  0.0183
 7795SOL    HW134847   0.934   0.164  14.054  0.6091  2.0963 -1.5271
 7795SOL    HW234848   0.961   0.135  14.195  2.0304 -0.1309  0.3261
 7796SOL     OW34849   1.315   0.801   3.418 -0.4587  0.2554  0.1124
 7796SOL    HW134850   1.258   0.876   3.401 -0.6238  0.1452  0.1727
 7796SOL    HW234851   1.316   0.749   3.338 -1.1928 -2.3867  1.8043
 7797SOL     OW34852   4.061   4.442   5.871 -0.3696  0.5502  0.0711
 7797SOL    HW134853   4.055   4.463   5.778 -1.6371 -0.7068 -0.1337
 7797SOL    HW234854   4.074   4.529   5.910 -0.6110  1.1067 -1.0921
 7798SOL     OW34855   2.769   3.669   5.741  0.1822 -0.3777  1.0262
 7798SOL    HW134856   2.823   3.612   5.796  2.3495 -1.2109 -1.9715
 7798SOL    HW234857   2.683   3.660   5.780  0.6929  0.3125  2.3195
 7799SOL     OW34858   1.835   0.879   9.478  0.4303  0.6921  0.1640
 7799SOL    HW134859   1.885   0.918   9.406 -1.9111  2.4421 -0.5053
 7799SOL    HW234860   1.780   0.951   9.507  0.0616  0.7256 -0.6049
 7800SOL     OW34861   0.994   0.108   1.738 -1.0300 -0.6611 -0.7890
 7800SOL    HW134862   1.024   0.041   1.799  0.3449 -0.0615 -0.8069
 7800SOL    HW234863   1.079   0.145   1.713 -1.2270  2.0385  2.5263
 7801SOL     OW34864   4.711   3.264  11.596 -0.0971  0.0934  0.2381
 7801SOL    HW134865   4.688   3.171  11.604  0.7106  0.0757  2.3845
 7801SOL    HW234866   0.042   3.282  11.671  1.6755  3.1165 -1.8076
 7802SOL     OW34867   1.760   1.306   2.507  0.3603  0.6283 -0.0496
 7802SOL    HW134868   1.693   1.349   2.453  0.7317  0.4806 -0.6282
 7802SOL    HW234869   1.707   1.249   2.562  2.3582 -0.0601  1.1897
 7803SOL     OW34870   1.563   0.914   5.793 -0.5420 -0.4503 -0.4671
 7803SOL    HW134871   1.498   0.946   5.856  0.0270 -0.2732  0.0251
 7803SOL    HW234872   1.547   0.973   5.719  0.5489 -1.1736 -1.2795
 7804SOL     OW34873   4.110   0.618   3.778 -0.1452 -0.0086 -0.2614
 7804SOL    HW134874   4.199   0.591   3.797 -0.6866 -1.6645 -0.0351
 7804SOL    HW234875   4.100   0.697   3.831 -1.9817  0.8813 -1.9139
 7805SOL     OW34876   2.126   2.903   9.184 -0.4809 -0.5137  0.1632
 7805SOL    HW134877   2.184   2.856   9.244  2.0153  0.7856 -1.2450
 7805SOL    HW234878   2.184   2.925   9.112 -0.4642 -0.8604  0.0707
 7806SOL     OW34879   3.447   2.539   5.401  0.2576 -0.3953 -0.5681
 7806SOL    HW134880   3.444   2.624   5.357  1.0413  0.2477  0.6272
 7806SOL    HW234881   3.503   2.563   5.474 -0.8135 -0.5458  0.3054
 7807SOL     OW34882   2.266   0.591  16.875 -0.1440 -0.3226 -0.0392
 7807SOL    HW134883   2.215   0.546  16.942 -0.0157 -1.0524 -0.4295
 7807SOL    HW234884   2.308   0.517  16.829 -0.5357  0.1241 -1.1087
 7808SOL     OW34885   2.498   3.103   3.638  0.0222 -0.2119 -0.1054
 7808SOL    HW134886   2.418   3.064   3.673  0.7186  0.3624  2.1397
 7808SOL    HW234887   2.475   3.105   3.545 -3.6192 -0.7603  0.7999
 7809SOL     OW34888   3.539   2.090  11.262 -0.1128 -0.0815 -0.2528
 7809SOL    HW134889   3.556   2.024  11.330 -0.2650 -0.2265 -0.3572
 7809SOL    HW234890   3.604   2.158  11.282 -1.3154  0.5866  1.4756
 7810SOL     OW34891   2.962   2.703   3.423  0.0231 -0.1421 -0.4686
 7810SOL    HW134892   2.999   2.791   3.417  2.3227 -1.0751  0.0173
 7810SOL    HW234893   2.889   2.698   3.362  1.2968  1.4730 -2.1291
 7811SOL     OW34894   1.093   4.560   6.427  0.6030  0.4442 -0.3657
 7811SOL    HW134895   1.174   4.517   6.455 -0.6373 -1.3805  0.4065
 7811SOL    HW234896   1.124   4.623   6.363 -1.3284  1.2537 -0.5063
 7812SOL     OW34897   2.112   0.454  17.055  0.4224 -0.2636 -0.6704
 7812SOL    HW134898   2.143   0.370  17.088  0.8228 -0.0274 -0.4385
 7812SOL    HW234899   2.088   0.498  17.136  0.4864 -0.8034 -0.3606
 7813SOL     OW34900   3.808   1.687  10.189  0.1254  0.4870  0.6378
 7813SOL    HW134901   3.725   1.649  10.162 -1.0772  3.5330  0.0583
 7813SOL    HW234902   3.867   1.631  10.138 -0.8735  0.8647 -0.9246
 7814SOL     OW34903   4.004   4.308  11.188 -0.1452  0.2847  0.4436
 7814SOL    HW134904   4.092   4.300  11.150  0.1167 -3.3322  1.8880
 7814SOL    HW234905   3.967   4.383  11.141 -0.1462 -0.0106 -0.0200
 7815SOL     OW34906   1.971   4.555   4.842 -0.2284  0.0315  0.0444
 7815SOL    HW134907   2.008   4.643   4.836 -1.0504  0.3669 -0.2045
 7815SOL    HW234908   1.895   4.556   4.783 -0.2695  0.2258  0.0982
 7816SOL     OW34909   0.138   0.813  13.266  0.3888  0.2657 -0.7604
 7816SOL    HW134910   0.053   0.844  13.232  1.6521  2.8089 -1.5882
 7816SOL    HW234911   0.163   0.900  13.297 -0.9674  0.3034  0.2580
 7817SOL     OW34912   0.020   0.486  14.346  0.2247 -0.0303 -0.1022
 7817SOL    HW134913   4.718   0.551  14.411  2.2420  1.7098 -0.9663
 7817SOL    HW234914   0.070   0.544  14.288 -0.8575  0.7543 -0.2392
 7818SOL     OW34915   3.939   2.128   2.161  0.2377  0.3851 -0.1028
 7818SOL    HW134916   3.867   2.114   2.100  0.7834  0.3220 -0.7258
 7818SOL    HW234917   4.013   2.155   2.107  0.9229 -1.8914 -0.2674
 7819SOL     OW34918   0.656   3.246   9.875 -0.0623  0.1830 -0.3929
 7819SOL    HW134919   0.725   3.294   9.920  0.1062 -0.4314  0.0026
 7819SOL    HW234920   0.648   3.176   9.940 -0.1160 -0.3394 -0.9568
 7820SOL     OW34921   0.852   3.375   3.142  0.2913 -0.1172  0.5171
 7820SOL    HW134922   0.888   3.295   3.105 -1.0151  0.8969 -3.0086
 7820SOL    HW234923   0.826   3.347   3.230 -0.2767 -2.7422 -0.5015
 7821SOL     OW34924   4.468   2.164   9.038  0.1490  0.4417 -0.5503
 7821SOL    HW134925   4.448   2.201   8.952 -0.7549 -2.9784 -1.8163
 7821SOL    HW234926   4.426   2.232   9.091 -1.6087 -1.6926  0.8052
 7822SOL     OW34927   2.073   3.422   3.409 -0.2133 -0.2926 -0.6985
 7822SOL    HW134928   2.168   3.424   3.406 -0.1498  0.9980  2.0799
 7822SOL    HW234929   2.047   3.514   3.408 -1.7147 -0.6619  1.6772
 7823SOL     OW34930   2.066   2.940   5.245 -0.0649 -0.0925  0.7067
 7823SOL    HW134931   2.137   2.961   5.306  1.4007 -0.6754 -0.8077
 7823SOL    HW234932   2.111   2.893   5.174  0.9747  1.3887  0.3787
 7824SOL     OW34933   1.576   2.538   9.651 -0.1739  0.0483 -0.3188
 7824SOL    HW134934   1.580   2.524   9.556 -1.9221 -0.6172 -0.2918
 7824SOL    HW234935   1.515   2.611   9.651  0.6941  0.7919  3.3094
 7825SOL     OW34936   4.356   1.986   5.065  0.2573  0.2581  0.5649
 7825SOL    HW134937   4.394   2.073   5.061  1.1861 -0.1512  0.6489
 7825SOL    HW234938   4.280   1.996   5.123 -0.7611  1.0712 -0.8938
 7826SOL     OW34939   4.690   0.116   5.071  0.5812  0.1309 -0.3733
 7826SOL    HW134940   4.692   0.057   5.146 -1.0939 -0.2130 -0.6136
 7826SOL    HW234941   0.056   0.107   5.041  0.2086 -0.5729 -1.3180
 7827SOL     OW34942   0.635   1.399   1.917 -0.2835 -0.0277  0.2395
 7827SOL    HW134943   0.631   1.447   2.000 -0.3954 -1.7888  1.2460
 7827SOL    HW234944   0.730   1.393   1.909 -0.3258  0.8983 -1.0451
 7828SOL     OW34945   3.967   4.161   3.773 -0.0067 -0.9589  0.2090
 7828SOL    HW134946   4.059   4.156   3.797  0.0745  0.5732  0.2233
 7828SOL    HW234947   3.916   4.174   3.853  0.8949  3.2344  0.0996
 7829SOL     OW34948   4.060   4.714   0.664 -0.0418 -0.3044  0.4511
 7829SOL    HW134949   4.037   0.068   0.712  1.3176  1.2891 -1.5227
 7829SOL    HW234950   4.001   4.655   0.710  1.2799  0.8519  3.6615
 7830SOL     OW34951   0.420   4.503   5.635  0.0774  0.3130 -0.5413
 7830SOL    HW134952   0.514   4.485   5.636  0.4841  2.4459  1.2935
 7830SOL    HW234953   0.395   4.472   5.723  0.8803 -3.2535 -1.5460
 7831SOL     OW34954   1.346   0.923   1.213  0.1541  0.0910  0.5830
 7831SOL    HW134955   1.352   0.855   1.280 -3.2691 -3.0445 -2.3553
 7831SOL    HW234956   1.264   0.908   1.167  0.3913  0.9395 -0.1276
 7832SOL     OW34957   4.553   2.029   2.534 -0.6867 -0.3458  0.3395
 7832SOL    HW134958   4.592   1.950   2.572 -0.3398 -0.4529 -0.2292
 7832SOL    HW234959   4.632   2.071   2.500  0.0748 -1.2842  0.9678
 7833SOL     OW34960   3.750   1.838   7.983 -0.3976  0.1743  0.3594
 7833SOL    HW134961   3.806   1.831   7.905  1.0795 -1.5238  1.5747
 7833SOL    HW234962   3.668   1.800   7.951 -0.6495  0.4618  0.6708
 7834SOL     OW34963   4.210   1.498  12.231  0.0020  0.5228 -0.2348
 7834SOL    HW134964   4.194   1.408  12.262 -0.3703 -0.2075 -2.5092
 7834SOL    HW234965   4.254   1.491  12.146  1.1942 -0.8692  0.4872
 7835SOL     OW34966   1.806   3.028  14.442  0.3893 -0.3770  0.3461
 7835SOL    HW134967   1.732   3.046  14.383  0.2425  1.2788  1.0172
 7835SOL    HW234968   1.875   3.061  14.385  0.0170 -0.0212  0.0959
 7836SOL     OW34969   3.821   3.652   7.491  0.7013 -0.2517  0.5916
 7836SOL    HW134970   3.874   3.655   7.571 -1.2078 -0.2235  1.8738
 7836SOL    HW234971   3.880   3.697   7.431 -1.1526  1.2696 -0.0946
 7837SOL     OW34972   3.804   1.419   1.854  0.2054  0.0851 -0.5560
 7837SOL    HW134973   3.802   1.406   1.760 -0.0593  2.4034 -0.8785
 7837SOL    HW234974   3.764   1.506   1.863  0.6089  0.0692  1.4977
 7838SOL     OW34975   3.523   3.996   3.856 -0.4047 -0.1114  0.3988
 7838SOL    HW134976   3.449   3.994   3.797  0.7131  3.4691 -1.0755
 7838SOL    HW234977   3.517   4.085   3.889 -2.1575 -0.4166  0.9101
 7839SOL     OW34978   2.302   1.174  11.658  0.1942 -0.3937 -0.1682
 7839SOL    HW134979   2.240   1.240  11.690  1.1592  0.6674 -0.4552
 7839SOL    HW234980   2.257   1.130  11.586 -1.7572  0.3664  0.5713
 7840SOL     OW34981   3.833   3.010   5.889  0.4619 -0.2502  0.3741
 7840SOL    HW134982   3.918   3.029   5.928  0.0414  1.2217  0.5711
 7840SOL    HW234983   3.838   3.055   5.805 -0.7994 -0.9340 -0.0660
 7841SOL     OW34984   0.742   2.068   4.183  0.0605  0.7995 -0.0405
 7841SOL    HW134985   0.705   1.981   4.196  0.3952  0.4443 -1.4350
 7841SOL    HW234986   0.825   2.080   4.230 -1.0236  0.0791  2.0575
 7842SOL     OW34987   0.998   1.986   2.554 -0.0807 -0.3978  0.4316
 7842SOL    HW134988   0.913   1.972   2.514 -0.1795 -0.0892  0.5275
 7842SOL    HW234989   1.005   2.082   2.559 -0.8922 -0.2046 -2.2594
 7843SOL     OW34990   0.409   4.149  12.521  0.8914  0.5281  0.2510
 7843SOL    HW134991   0.488   4.192  12.554  0.5442 -0.5666  2.5113
 7843SOL    HW234992   0.377   4.229  12.479 -1.0839  0.0128  0.7721
 7844SOL     OW34993   2.178   3.220   6.550 -0.0410  0.1945  0.2825
 7844SOL    HW134994   2.159   3.300   6.598  1.1402  0.4722  0.2844
 7844SOL    HW234995   2.233   3.245   6.476  0.3274  0.0960  0.5212
 7845SOL     OW34996   2.916   3.629  16.971  0.0027 -0.8081 -0.2229
 7845SOL    HW134997   2.831   3.663  16.999  0.8869  1.8052 -0.7186
 7845SOL    HW234998   2.934   3.676  16.890 -1.1146  1.2481  0.7196
 7846SOL     OW34999   3.805   3.188   5.643  0.4517 -0.3672  0.3914
 7846SOL    HW135000   3.849   3.261   5.686 -0.4542  1.5418 -1.9822
 7846SOL    HW235001   3.875   3.184   5.578 -0.5349 -0.7886 -0.6488
 7847SOL     OW35002   3.043   4.369  13.450 -0.6560 -0.2643 -0.0192
 7847SOL    HW135003   2.950   4.346  13.456 -0.0318 -2.8393 -0.0691
 7847SOL    HW235004   3.049   4.433  13.380 -0.6506  0.2912  0.4892
 7848SOL     OW35005   4.290   1.024  14.537  0.0147 -0.1651  0.2631
 7848SOL    HW135006   4.366   0.971  14.512  0.4215  1.2984 -1.5794
 7848SOL    HW235007   4.293   1.013  14.632  3.0220  1.3215  0.3538
 7849SOL     OW35008   2.939   1.049   7.971  0.0725 -0.4624 -0.4684
 7849SOL    HW135009   2.928   1.144   7.977 -2.8290 -0.7341 -1.6860
 7849SOL    HW235010   2.935   1.021   8.063 -1.7029  0.1591 -0.3612
 7850SOL     OW35011   3.390   2.963   8.616 -0.0970 -0.5838 -0.0410
 7850SOL    HW135012   3.371   2.999   8.702  0.9346  2.2331 -0.9980
 7850SOL    HW235013   3.332   2.887   8.618 -3.1184  1.7140 -0.2289
 7851SOL     OW35014   2.109   1.245   1.387 -0.2304 -0.1557  0.1090
 7851SOL    HW135015   2.127   1.225   1.296 -1.0955 -0.0914 -0.0716
 7851SOL    HW235016   2.100   1.155   1.417  0.7017 -0.8771 -1.7831
 7852SOL     OW35017   3.056   3.041  17.579 -0.2842  0.0107  0.0753
 7852SOL    HW135018   3.057   3.078  17.667 -2.1296 -0.1722  0.1751
 7852SOL    HW235019   2.970   3.066  17.544 -1.2412 -2.4648  0.6495
 7853SOL     OW35020   0.670   1.968   3.410  0.1436 -0.1280  0.0852
 7853SOL    HW135021   0.579   1.977   3.440  0.0055 -0.5527 -0.2053
 7853SOL    HW235022   0.656   1.937   3.320  0.1254  1.1209 -0.3549
 7854SOL     OW35023   2.271   4.051   9.044  0.6237  0.9196 -0.3688
 7854SOL    HW135024   2.233   4.129   9.004 -1.3605  0.5104  0.7226
 7854SOL    HW235025   2.199   4.022   9.099  1.4670 -0.6827 -0.0768
 7855SOL     OW35026   4.093   3.772  11.607  0.4714  0.3302 -0.5655
 7855SOL    HW135027   4.072   3.696  11.661 -0.4457  0.8357 -0.2185
 7855SOL    HW235028   4.039   3.752  11.530  3.2569 -1.8846 -1.9561
 7856SOL     OW35029   1.774   3.916  16.896  0.3071  0.2549  0.2341
 7856SOL    HW135030   1.731   3.872  16.970  1.1560 -0.7655  0.1212
 7856SOL    HW235031   1.706   3.968  16.852 -1.0062 -2.7021 -1.2702
 7857SOL     OW35032   2.590   4.276   4.724 -0.5162  0.0476  0.0264
 7857SOL    HW135033   2.567   4.343   4.788  1.6529  1.9455 -1.2003
 7857SOL    HW235034   2.607   4.328   4.645 -0.4097 -0.5450 -0.3406
 7858SOL     OW35035   3.385   4.571   7.317  0.3626  0.4392 -0.4541
 7858SOL    HW135036   3.343   4.503   7.371 -3.4605  1.7999 -1.7390
 7858SOL    HW235037   3.364   4.532   7.232  0.9499  1.0506 -0.8816
 7859SOL     OW35038   3.702   2.433  10.109  0.3774 -0.0631  0.0728
 7859SOL    HW135039   3.757   2.356  10.095 -0.1200 -0.3486 -0.2976
 7859SOL    HW235040   3.627   2.397  10.155 -1.2072  0.7669 -1.8674
 7860SOL     OW35041   0.058   3.273   8.740  0.2730  0.0988  0.0054
 7860SOL    HW135042   4.698   3.241   8.712 -0.6987  3.2517 -0.7186
 7860SOL    HW235043   0.033   3.322   8.818  0.7734  1.1474 -0.4919
 7861SOL     OW35044   0.403   3.019  10.754  0.0322  0.1699  0.4966
 7861SOL    HW135045   0.396   3.108  10.789 -0.1079 -0.2749  1.6007
 7861SOL    HW235046   0.323   2.976  10.784  1.2571 -1.6958  1.1049
 7862SOL     OW35047   3.727   0.395   0.404  0.2980  0.3958  0.3268
 7862SOL    HW135048   3.710   0.302   0.395  2.9039 -0.1657  1.3390
 7862SOL    HW235049   3.637   0.417   0.429 -0.5292 -0.5161 -1.8387
 7863SOL     OW35050   4.290   2.420   3.109 -0.4791 -0.1813 -0.1581
 7863SOL    HW135051   4.315   2.344   3.057 -3.7985  0.3340 -2.4896
 7863SOL    HW235052   4.340   2.495   3.077 -0.3888  0.8981  2.4702
 7864SOL     OW35053   3.258   1.522   1.889 -0.2215  0.1941  0.5637
 7864SOL    HW135054   3.216   1.526   1.803  1.7446  2.0266 -0.3345
 7864SOL    HW235055   3.331   1.461   1.881  1.6394  2.8779 -3.0204
 7865SOL     OW35056   1.212   1.228   0.071 -0.4884 -0.4134 -0.0838
 7865SOL    HW135057   1.262   1.159   0.028  0.4230 -0.0631  0.4178
 7865SOL    HW235058   1.231   1.300   0.012  0.5127  0.5134  1.3803
 7866SOL     OW35059   3.544   1.990   1.678  0.3500  0.0679  0.1437
 7866SOL    HW135060   3.633   2.008   1.647  0.9509  0.8043  2.3315
 7866SOL    HW235061   3.512   1.942   1.602  0.5090  1.1371 -0.6035
 7867SOL     OW35062   0.743   2.780   9.398  0.2816 -0.1654 -0.0064
 7867SOL    HW135063   0.824   2.737   9.428 -0.1861 -0.3468  0.9962
 7867SOL    HW235064   0.759   2.775   9.303  0.1381  1.2053 -0.1016
 7868SOL     OW35065   3.546   0.104   2.616 -0.0198  0.0343  0.6524
 7868SOL    HW135066   3.482   0.173   2.601 -1.9791 -2.1526 -1.1918
 7868SOL    HW235067   3.544   0.059   2.531  1.5801  1.4075 -0.1175
 7869SOL     OW35068   0.296   0.044   6.440  0.2015 -0.5773 -0.4260
 7869SOL    HW135069   0.281   4.715   6.362 -1.8834 -0.2191 -0.2943
 7869SOL    HW235070   0.372   0.095   6.415 -0.6925  0.2363 -1.4899
 7870SOL     OW35071   1.660   0.356   4.376  0.0238 -0.2691 -0.3092
 7870SOL    HW135072   1.675   0.440   4.420 -2.1526 -0.6489  1.1399
 7870SOL    HW235073   1.583   0.379   4.325 -1.2308 -1.4365  1.0763
 7871SOL     OW35074   4.275   0.307   8.614  0.3807 -0.4673 -0.0631
 7871SOL    HW135075   4.263   0.262   8.698 -0.1003  0.2571  0.2550
 7871SOL    HW235076   4.250   0.245   8.546  2.0193 -1.7314  0.4828
 7872SOL     OW35077   1.510   0.019  17.118 -0.1980  0.1422 -0.5953
 7872SOL    HW135078   1.510   0.064  17.202 -0.3437 -0.9107 -0.0361
 7872SOL    HW235079   1.450   0.072  17.066  0.1138  0.8146 -0.2585
 7873SOL     OW35080   3.733   2.969   7.984  0.1777 -0.0645 -0.0155
 7873SOL    HW135081   3.642   2.950   8.007  0.0481 -0.8087 -1.1528
 7873SOL    HW235082   3.750   2.926   7.900  0.2943 -1.7050  0.8579
 7874SOL     OW35083   4.541   4.399   5.075 -0.4118  0.0348 -0.0672
 7874SOL    HW135084   4.493   4.323   5.108 -1.0939  0.9340  1.0244
 7874SOL    HW235085   4.609   4.358   5.022 -1.4921 -0.5730 -0.9961
 7875SOL     OW35086   2.653   1.489   3.123 -0.1427  0.1843 -0.1041
 7875SOL    HW135087   2.664   1.477   3.028  3.0985  0.8270  0.1962
 7875SOL    HW235088   2.646   1.398   3.150  0.6884  0.1973  0.1422
 7876SOL     OW35089   1.732   1.161   1.253  0.1688  0.0630 -0.4036
 7876SOL    HW135090   1.733   1.110   1.335  1.9211  1.6240  0.5352
 7876SOL    HW235091   1.639   1.166   1.228  0.2922 -0.9777 -1.0765
 7877SOL     OW35092   0.121   0.665  14.166  0.0554 -0.2523 -0.2163
 7877SOL    HW135093   0.050   0.677  14.103  0.8209 -2.2642 -1.4307
 7877SOL    HW235094   0.179   0.727  14.122 -0.9680  0.3867 -0.6548
 7878SOL     OW35095   3.849   4.036   4.258  0.2971  0.2858  0.2251
 7878SOL    HW135096   3.821   4.040   4.167 -0.7450  1.8386  0.6142
 7878SOL    HW235097   3.776   4.083   4.298 -1.3691 -2.7334  0.6680
 7879SOL     OW35098   0.869   1.067  10.586  0.4042  0.5943  0.1412
 7879SOL    HW135099   0.928   0.992  10.600 -0.0214  0.6422  2.1622
 7879SOL    HW235100   0.933   1.133  10.561  1.8516 -1.0951 -0.6598
 7880SOL     OW35101   3.480   4.389   7.044  0.2942  0.4522 -0.5917
 7880SOL    HW135102   3.391   4.353   7.035  1.4108 -2.4023 -0.2644
 7880SOL    HW235103   3.528   4.335   6.982  0.8454  1.3883 -0.9853
 7881SOL     OW35104   1.027   1.256   5.740  0.2039  0.1119 -0.1948
 7881SOL    HW135105   1.007   1.165   5.763 -0.1084 -0.1246 -1.4211
 7881SOL    HW235106   1.079   1.276   5.818 -2.5732  0.9956  1.4291
 7882SOL     OW35107   1.586   0.883   2.718 -0.3774  0.3401  0.4489
 7882SOL    HW135108   1.509   0.878   2.774 -0.7976  1.7135 -0.0087
 7882SOL    HW235109   1.651   0.903   2.785  3.3265 -0.9745 -2.7969
 7883SOL     OW35110   1.178   1.845   9.634  0.1952 -0.6292  0.1854
 7883SOL    HW135111   1.153   1.761   9.671 -0.2073  0.1420  1.6614
 7883SOL    HW235112   1.169   1.832   9.539  1.9451  0.3249 -0.1029
 7884SOL     OW35113   1.819   0.788   4.968  0.7436 -0.0104 -0.2597
 7884SOL    HW135114   1.875   0.850   4.920 -2.8664  2.4362 -1.2766
 7884SOL    HW235115   1.844   0.822   5.054 -0.7101 -1.8800  0.8717
 7885SOL     OW35116   0.691   2.618   2.717 -0.0122  0.6995 -0.5502
 7885SOL    HW135117   0.706   2.563   2.640  0.0838 -1.4981  1.0213
 7885SOL    HW235118   0.716   2.707   2.693 -0.0670  0.3510 -1.8576
 7886SOL     OW35119   2.493   2.542  16.915  0.5231  0.1284  0.5268
 7886SOL    HW135120   2.543   2.487  16.975  0.7993  2.1747  2.1813
 7886SOL    HW235121   2.429   2.572  16.980 -0.5732  1.3466 -1.0904
 7887SOL     OW35122   1.052   0.721   8.680 -0.2891  0.0504 -0.0527
 7887SOL    HW135123   1.110   0.692   8.750 -0.6845 -0.7497 -0.0516
 7887SOL    HW235124   1.009   0.639   8.653  2.0547 -1.1285 -0.1751
 7888SOL     OW35125   3.492   3.107   3.988  0.6120  0.6635 -0.2101
 7888SOL    HW135126   3.587   3.116   3.976  0.5850  1.2807  0.0432
 7888SOL    HW235127   3.458   3.100   3.899 -2.1240  1.6324  0.7625
 7889SOL     OW35128   1.990   2.369   6.682 -0.1486 -0.6864 -0.0952
 7889SOL    HW135129   2.068   2.316   6.701  0.9182  1.7137  2.2783
 7889SOL    HW235130   1.958   2.396   6.768 -0.9134 -0.6834 -0.3802
 7890SOL     OW35131   0.129   4.324   4.527 -0.0573  0.2762 -0.0324
 7890SOL    HW135132   0.220   4.303   4.504 -0.0647  0.5625 -0.3194
 7890SOL    HW235133   0.117   4.395   4.465  2.1827  1.3531  0.7701
 7891SOL     OW35134   2.709   2.977   8.359  0.5309 -0.1577  0.3820
 7891SOL    HW135135   2.671   2.897   8.324  1.5091 -0.0596 -0.8978
 7891SOL    HW235136   2.631   3.030   8.375 -0.6397 -1.8603  0.3846
 7892SOL     OW35137   1.573   4.635  12.528  0.0102 -0.1211  0.2095
 7892SOL    HW135138   1.554   4.703  12.593  4.6769  1.6233 -0.2820
 7892SOL    HW235139   1.522   4.559  12.558 -0.5871  0.5348  0.8633
 7893SOL     OW35140   2.585   4.050  11.344  0.1000 -0.2150 -0.0982
 7893SOL    HW135141   2.622   4.132  11.313  2.5256 -0.0751  3.1979
 7893SOL    HW235142   2.662   3.992  11.343  1.1668  1.2010 -0.2740
 7894SOL     OW35143   1.350   2.064   7.814  0.8948 -0.9935 -0.3495
 7894SOL    HW135144   1.380   1.989   7.865  0.5511 -1.8595 -1.4241
 7894SOL    HW235145   1.428   2.111   7.786 -1.2153  2.5103 -0.4099
 7895SOL     OW35146   2.343   3.839   7.618  0.1477  0.6434  0.6124
 7895SOL    HW135147   2.285   3.770   7.651 -0.4219  0.5888 -0.5008
 7895SOL    HW235148   2.424   3.794   7.641 -0.1372 -0.0940  0.1804
 7896SOL     OW35149   1.589   4.537   7.867 -0.0165  0.5091 -0.2586
 7896SOL    HW135150   1.506   4.562   7.828  0.0823  2.0390  0.5505
 7896SOL    HW235151   1.645   4.613   7.853  2.5615 -1.0933  1.3361
 7897SOL     OW35152   2.206   3.674   5.550  0.4099 -0.4992 -0.3432
 7897SOL    HW135153   2.219   3.750   5.494 -1.6376  0.0983  0.0054
 7897SOL    HW235154   2.243   3.607   5.492 -1.2750 -0.3575 -1.5804
 7898SOL     OW35155   0.518   2.986  14.654 -0.1466 -0.1649 -0.1310
 7898SOL    HW135156   0.534   2.894  14.674 -0.0328 -0.0608  0.2476
 7898SOL    HW235157   0.424   2.992  14.638  0.5472 -0.8780 -4.4594
 7899SOL     OW35158   3.493   2.604   5.070  0.4835 -0.1722 -0.1386
 7899SOL    HW135159   3.448   2.592   4.986  0.1104 -0.0525  0.0456
 7899SOL    HW235160   3.545   2.681   5.049 -1.4017  0.5130 -2.3246
 7900SOL     OW35161   0.358   2.620   7.837 -0.3242 -0.3751 -0.1570
 7900SOL    HW135162   0.266   2.626   7.811 -0.4635  1.6726  0.7437
 7900SOL    HW235163   0.356   2.669   7.919 -1.6529 -0.8926  0.1180
 7901SOL     OW35164   4.555   1.611   3.997 -0.7313  0.4480 -0.0162
 7901SOL    HW135165   4.476   1.560   3.976 -1.0317  1.3395 -1.0626
 7901SOL    HW235166   4.563   1.654   3.912  0.8407 -0.4812 -0.3420
 7902SOL     OW35167   1.047   0.742   3.017  0.1409  0.2105  0.1173
 7902SOL    HW135168   1.120   0.706   2.966  1.8709  1.0044  2.0103
 7902SOL    HW235169   0.973   0.690   2.988  0.7557 -1.4917  1.6015
 7903SOL     OW35170   0.015   3.329   6.545 -0.3483 -0.1415  0.0324
 7903SOL    HW135171   4.715   3.251   6.495  2.9583 -0.4394 -1.1395
 7903SOL    HW235172   4.714   3.296   6.631 -1.8254 -1.1288 -0.8061
 7904SOL     OW35173   0.978   3.620  15.586 -0.1849  0.0328  0.1451
 7904SOL    HW135174   0.909   3.679  15.618  0.3703  0.1362  1.1415
 7904SOL    HW235175   1.038   3.694  15.579  0.6161 -0.5658  0.6893
 7905SOL     OW35176   3.127   1.835   7.316  0.1626  0.2523  0.4142
 7905SOL    HW135177   3.147   1.834   7.410  1.6939  1.6921  0.1071
 7905SOL    HW235178   3.082   1.920   7.315  0.5575  0.4742  1.7568
 7906SOL     OW35179   4.645   2.888   7.913 -0.2179  0.1545 -0.0549
 7906SOL    HW135180   4.576   2.832   7.949  0.8716 -0.9472  0.3307
 7906SOL    HW235181   4.697   2.912   7.989  0.9965 -1.6992 -0.2852
 7907SOL     OW35182   2.712   2.786  17.597  0.3375  0.2302 -0.0001
 7907SOL    HW135183   2.628   2.790  17.643 -1.0232  1.9139 -2.6207
 7907SOL    HW235184   2.703   2.842  17.520 -1.2932  0.3624  0.2879
 7908SOL     OW35185   3.472   0.320   4.914 -0.5413 -0.2093 -0.2851
 7908SOL    HW135186   3.497   0.328   5.005 -0.5072 -3.5267  0.0039
 7908SOL    HW235187   3.411   0.393   4.909 -1.7394 -1.1471  0.7421
 7909SOL     OW35188   2.533   2.321   6.700 -0.1926 -0.5568 -0.6192
 7909SOL    HW135189   2.575   2.394   6.654  0.8889  0.5903  2.1569
 7909SOL    HW235190   2.602   2.289   6.759 -0.7467  0.1985  0.4454
 7910SOL     OW35191   3.990   1.635   6.607 -0.1668  0.0674 -0.2116
 7910SOL    HW135192   3.987   1.640   6.703  3.0077 -0.9018 -0.0586
 7910SOL    HW235193   4.067   1.582   6.587 -2.2133 -2.7446 -0.6488
 7911SOL     OW35194   1.263   4.417   3.322  0.1532  0.0187  0.4221
 7911SOL    HW135195   1.342   4.441   3.274  0.1785  1.0954  0.9928
 7911SOL    HW235196   1.251   4.327   3.292  0.4916  0.3413 -0.6630
 7912SOL     OW35197   0.849   3.543   5.402 -0.6321  0.1404 -0.2072
 7912SOL    HW135198   0.939   3.510   5.409 -0.8319 -0.5738 -1.0680
 7912SOL    HW235199   0.810   3.465   5.362 -1.3448 -0.0607  0.8898
 7913SOL     OW35200   1.401   1.766   5.013 -0.3567 -0.4503  0.0079
 7913SOL    HW135201   1.431   1.838   5.069  0.5096 -0.6703 -0.1767
 7913SOL    HW235202   1.335   1.815   4.965  0.5718  1.5051  0.7200
 7914SOL     OW35203   3.416   1.377  11.085  0.3908  0.1617  0.1337
 7914SOL    HW135204   3.419   1.326  11.004 -0.2299  0.4574 -0.0790
 7914SOL    HW235205   3.385   1.301  11.134  1.2191 -0.0744  0.3037
 7915SOL     OW35206   0.377   1.091   1.132 -0.0560 -0.4302  0.2890
 7915SOL    HW135207   0.326   1.020   1.093 -0.5643  0.6427 -1.0090
 7915SOL    HW235208   0.304   1.153   1.120 -0.3992 -1.0372 -0.7952
 7916SOL     OW35209   0.788   3.012   3.245 -0.1001 -0.4202  0.9255
 7916SOL    HW135210   0.821   3.037   3.159 -2.1937 -0.3449  0.1540
 7916SOL    HW235211   0.856   3.029   3.310  0.9903  1.6334 -0.7855
 7917SOL     OW35212   1.910   0.269   7.641 -0.6828  0.1114 -0.5532
 7917SOL    HW135213   1.854   0.338   7.604 -0.7040 -0.0686 -0.8583
 7917SOL    HW235214   1.962   0.245   7.565 -2.8031 -1.2278 -1.5909
 7918SOL     OW35215   1.369   0.892  11.065  0.1326  0.2877  0.0934
 7918SOL    HW135216   1.362   0.987  11.063  2.5928  0.4876  1.3449
 7918SOL    HW235217   1.433   0.884  11.136 -0.0236 -1.1884  0.0601
 7919SOL     OW35218   0.506   0.004   8.467  0.1384  0.9196 -0.5141
 7919SOL    HW135219   0.436   0.057   8.506  0.7704 -0.3906  2.4371
 7919SOL    HW235220   0.569   0.074   8.447  0.8035 -0.1096 -1.9626
 7920SOL     OW35221   3.055   4.311  13.033 -0.3967  0.0656  0.3726
 7920SOL    HW135222   3.046   4.376  13.103 -1.6171 -1.9580  2.1096
 7920SOL    HW235223   3.058   4.366  12.954 -0.6441 -2.6654 -1.5201
 7921SOL     OW35224   1.239   0.266  10.512  0.2908  0.1502  0.0767
 7921SOL    HW135225   1.218   0.240  10.422  2.3001  1.4577 -0.7625
 7921SOL    HW235226   1.150   0.279  10.544 -0.4393 -1.3824 -1.2932
 7922SOL     OW35227   4.424   0.780  16.744  0.5850  0.1550  0.3855
 7922SOL    HW135228   4.404   0.719  16.815 -0.6828  1.0590  0.7999
 7922SOL    HW235229   4.470   0.720  16.685  0.1617 -0.4440  0.6629
 7923SOL     OW35230   1.076   0.593   1.053 -0.4546  0.3067 -0.0345
 7923SOL    HW135231   1.034   0.521   1.100 -0.8501 -0.6161 -1.7899
 7923SOL    HW235232   1.163   0.559   1.030  0.1056  0.7813  1.3940
 7924SOL     OW35233   1.111   3.363   8.426 -0.0058  0.6291  0.4788
 7924SOL    HW135234   1.206   3.373   8.432  0.1051  0.2516 -0.6272
 7924SOL    HW235235   1.084   3.438   8.375 -1.0498 -0.7307 -0.9611
 7925SOL     OW35236   4.164   3.454   5.251 -0.5359 -0.0312  0.1422
 7925SOL    HW135237   4.177   3.469   5.345  1.3503 -0.4319 -0.0510
 7925SOL    HW235238   4.087   3.397   5.258 -1.4852  1.2428  0.1451
 7926SOL     OW35239   2.209   4.473   2.630  0.4699  0.2066 -0.1633
 7926SOL    HW135240   2.292   4.460   2.675 -1.4563 -3.2380  2.3612
 7926SOL    HW235241   2.236   4.505   2.544  2.8198  0.1514  0.5515
 7927SOL     OW35242   2.486   2.574   7.751 -0.2202 -0.0405  0.9833
 7927SOL    HW135243   2.493   2.619   7.668  0.2797 -0.7487  0.6408
 7927SOL    HW235244   2.397   2.539   7.752  0.1060 -0.8724  2.3326
 7928SOL     OW35245   1.739   4.525   3.812 -0.5916 -0.9187 -0.5162
 7928SOL    HW135246   1.663   4.578   3.836  0.5010 -0.8756  2.9137
 7928SOL    HW235247   1.764   4.551   3.723  0.8702 -1.0688 -0.1545
 7929SOL     OW35248   3.354   4.631  14.789 -0.1917  0.1204 -0.1963
 7929SOL    HW135249   3.281   4.594  14.741 -0.1695 -1.4647  0.9784
 7929SOL    HW235250   3.336   4.608  14.880  1.0261  0.6903  0.1963
 7930SOL     OW35251   0.512   3.913   6.075 -0.7443  0.2474  0.0708
 7930SOL    HW135252   0.467   3.966   6.141 -2.6874 -0.2739 -0.8544
 7930SOL    HW235253   0.502   3.831   6.124  2.9618  0.4866  1.2462
 7931SOL     OW35254   0.898   3.896   0.994 -0.2449 -0.3604  0.1604
 7931SOL    HW135255   0.960   3.968   0.989 -0.1516 -0.5916 -2.2238
 7931SOL    HW235256   0.843   3.917   0.918 -0.6031  0.2407  0.5819
 7932SOL     OW35257   1.658   1.170  10.697  0.0134 -0.6514 -0.1487
 7932SOL    HW135258   1.669   1.184  10.603  0.1685 -1.0855 -0.1990
 7932SOL    HW235259   1.601   1.242  10.721  0.9074 -0.1761  0.5755
 7933SOL     OW35260   0.349   3.827  13.126  0.2133  0.5956  0.8294
 7933SOL    HW135261   0.286   3.818  13.055  1.0435 -0.9119  0.3043
 7933SOL    HW235262   0.431   3.822  13.077  0.6205 -1.1903  1.6999
 7934SOL     OW35263   1.337   2.929   4.935  0.2050 -0.0630  0.2245
 7934SOL    HW135264   1.366   2.986   4.864  1.6078  2.6387  3.0126
 7934SOL    HW235265   1.413   2.933   4.994 -2.5568  0.2754  3.7309
 7935SOL     OW35266   0.997   1.163   5.408  0.1956 -0.0805  0.8522
 7935SOL    HW135267   1.014   1.215   5.329  0.4318 -0.0289  0.9363
 7935SOL    HW235268   1.071   1.188   5.464  1.1626 -0.5776 -0.2053
 7936SOL     OW35269   1.541   2.472   6.830  0.0119 -0.2576 -0.4515
 7936SOL    HW135270   1.530   2.494   6.737  0.8977  3.5838  0.3386
 7936SOL    HW235271   1.473   2.525   6.871  1.7354 -0.1443  2.2564
 7937SOL     OW35272   2.690   3.008   7.768  1.1187 -0.3040 -0.3934
 7937SOL    HW135273   2.717   3.056   7.689 -0.4016  1.6725  0.2873
 7937SOL    HW235274   2.594   3.017   7.764  0.9530 -0.3658  3.1394
 7938SOL     OW35275   1.056   3.496   7.754  0.2919 -0.4608  0.3477
 7938SOL    HW135276   1.027   3.412   7.789  1.9768 -2.0474 -2.0677
 7938SOL    HW235277   1.087   3.526   7.839  0.1958  0.8587 -0.0865
 7939SOL     OW35278   2.989   4.711  14.166 -0.8039 -0.4183  0.5606
 7939SOL    HW135279   3.045   0.055  14.132 -0.3876 -1.4900 -0.9100
 7939SOL    HW235280   3.040   4.630  14.160  0.1288  0.0010  2.6455
 7940SOL     OW35281   4.415   1.100   8.045  0.4277 -0.3614  0.5644
 7940SOL    HW135282   4.344   1.082   8.107 -1.0721  0.7199 -0.8334
 7940SOL    HW235283   4.457   1.178   8.081  1.8980 -0.8599 -0.0650
 7941SOL     OW35284   3.872   0.441   0.065  0.0972 -0.0283 -0.1390
 7941SOL    HW135285   3.788   0.434   0.021 -0.3685  2.9526  0.2619
 7941SOL    HW235286   3.872   0.372   0.131  3.7150  0.1584  0.0748
 7942SOL     OW35287   2.142   3.256  10.391  0.0083 -0.0182 -0.3376
 7942SOL    HW135288   2.203   3.329  10.393 -1.0112  0.7904  1.7794
 7942SOL    HW235289   2.060   3.305  10.398  1.5477  2.4853 -0.1874
 7943SOL     OW35290   4.202   1.534   4.324 -0.4809 -0.2147 -0.2096
 7943SOL    HW135291   4.234   1.587   4.251  1.1754  2.6459  2.5843
 7943SOL    HW235292   4.278   1.478   4.339  1.8387  2.2741 -2.6129
 7944SOL     OW35293   3.327   3.794   7.231 -0.1389 -0.1902 -0.3233
 7944SOL    HW135294   3.251   3.736   7.225 -0.4184  0.2995 -1.4565
 7944SOL    HW235295   3.318   3.825   7.321  3.2192  1.6527 -0.6316
 7945SOL     OW35296   1.914   1.053   4.886 -0.5465  0.4300  0.0644
 7945SOL    HW135297   1.990   1.048   4.944 -0.1008  0.6280 -0.5104
 7945SOL    HW235298   1.903   1.144   4.862  3.5059  0.2291 -2.5081
 7946SOL     OW35299   4.375   0.305   7.253  0.9264  0.2652 -0.0403
 7946SOL    HW135300   4.355   0.222   7.210 -0.6897  1.1378 -0.9728
 7946SOL    HW235301   4.348   0.369   7.187 -0.7733 -0.1901  0.2080
 7947SOL     OW35302   1.870   4.666   4.380  0.1588  0.1400 -0.0883
 7947SOL    HW135303   1.902   4.608   4.450  0.8131  0.3015 -0.2536
 7947SOL    HW235304   1.939   0.006   4.368  0.2552  0.2853  1.1759
 7948SOL     OW35305   4.448   3.073   2.309 -0.2521 -0.0241  0.7051
 7948SOL    HW135306   4.379   3.105   2.252 -0.3157 -0.8646  0.3106
 7948SOL    HW235307   4.514   3.141   2.297  1.0778 -1.2187  1.2613
 7949SOL     OW35308   0.790   3.756   2.413 -0.2872 -0.0008  0.1338
 7949SOL    HW135309   0.850   3.821   2.448 -1.5906  0.3234  1.7264
 7949SOL    HW235310   0.792   3.684   2.476 -0.0442 -0.1646 -0.0597
 7950SOL     OW35311   1.024   4.472   8.255  0.5041  0.1632  0.2796
 7950SOL    HW135312   0.980   4.501   8.174 -1.5117 -2.2257  0.5318
 7950SOL    HW235313   0.952   4.423   8.295  0.6451 -0.0712  0.2455
 7951SOL     OW35314   4.588   3.317   4.216 -0.1112  0.5118  0.4615
 7951SOL    HW135315   4.557   3.402   4.185  0.0339  1.1959  2.1836
 7951SOL    HW235316   4.677   3.340   4.244  0.7449 -2.1811 -0.1261
 7952SOL     OW35317   0.769   4.198   1.001 -0.2556 -0.4291  0.0279
 7952SOL    HW135318   0.797   4.278   0.955 -0.2868 -0.1407  0.5109
 7952SOL    HW235319   0.773   4.136   0.928  0.5987 -0.1797 -0.1359
 7953SOL     OW35320   2.445   1.034   2.425 -0.0346  0.0439  0.2291
 7953SOL    HW135321   2.412   0.954   2.384 -1.4173  0.7645 -0.0519
 7953SOL    HW235322   2.387   1.105   2.400 -0.3753 -0.9534 -1.8219
 7954SOL     OW35323   4.687   3.929   6.512  0.4997 -0.2930  0.3576
 7954SOL    HW135324   0.030   3.917   6.578  0.1114  0.7836  0.9622
 7954SOL    HW235325   0.013   3.976   6.446 -0.3129 -1.7852 -1.3235
 7955SOL     OW35326   3.055   2.125   6.046 -0.3710  0.0110  0.2688
 7955SOL    HW135327   3.135   2.086   6.012 -0.8609 -0.0312 -0.8502
 7955SOL    HW235328   2.992   2.081   5.989  0.7839  1.4050 -2.0759
 7956SOL     OW35329   1.613   4.146   1.645  0.2878 -0.2604 -0.0301
 7956SOL    HW135330   1.620   4.231   1.602 -0.3460 -1.2503 -2.0939
 7956SOL    HW235331   1.574   4.163   1.730  2.7588  0.5016  0.9370
 7957SOL     OW35332   0.592   0.429   9.903 -0.6556  0.1499  0.4640
 7957SOL    HW135333   0.665   0.419   9.842  0.0567  2.8657  0.8380
 7957SOL    HW235334   0.629   0.502   9.954 -2.0443 -0.2103  1.9588
 7958SOL     OW35335   3.995   3.418   1.948  0.5961  0.2334 -0.2893
 7958SOL    HW135336   3.963   3.369   2.024 -2.1340  0.8883 -1.0295
 7958SOL    HW235337   3.970   3.355   1.881  0.8359 -0.2844  0.1092
 7959SOL     OW35338   4.553   0.937   3.301  0.2352 -0.5556  0.3647
 7959SOL    HW135339   4.612   0.909   3.370  1.8491 -0.0583 -0.8248
 7959SOL    HW235340   4.466   0.948   3.340 -0.8319 -0.3329 -2.0201
 7960SOL     OW35341   4.451   1.014   3.062  0.0882  0.0221  0.3921
 7960SOL    HW135342   4.409   0.928   3.053  1.9514 -0.8307 -0.2867
 7960SOL    HW235343   4.500   0.985   3.140 -0.9911  0.1305  1.1081
 7961SOL     OW35344   3.114   2.694   7.735 -0.6138  0.5792  0.0429
 7961SOL    HW135345   3.034   2.716   7.783 -0.5817 -1.3339  0.9926
 7961SOL    HW235346   3.131   2.608   7.775  1.3141  0.4128 -1.1571
 7962SOL     OW35347   2.579   0.139   0.074  0.3208  0.5475  0.3698
 7962SOL    HW135348   2.668   0.153   0.105  0.8997 -1.3799 -0.3592
 7962SOL    HW235349   2.544   0.067   0.127  0.4008 -1.3259 -2.0750
 7963SOL     OW35350   1.411   3.498   8.753  0.7565 -0.1815  0.0216
 7963SOL    HW135351   1.450   3.568   8.700  1.0802 -0.1420  0.3129
 7963SOL    HW235352   1.321   3.523   8.775  0.1590 -2.2873 -0.0716
 7964SOL     OW35353   2.594   1.154   4.821 -0.0452  0.0660 -0.1875
 7964SOL    HW135354   2.552   1.239   4.807 -0.8713 -0.2123  0.5720
 7964SOL    HW235355   2.661   1.148   4.754  0.6404 -1.0901  0.6100
 7965SOL     OW35356   1.414   1.220   4.564 -0.0082  0.1210 -0.2153
 7965SOL    HW135357   1.323   1.232   4.537  0.8002  1.5641 -2.2486
 7965SOL    HW235358   1.395   1.168   4.643 -1.6153 -0.7985 -1.1971
 7966SOL     OW35359   0.969   3.040   0.516  0.1903 -0.9677 -0.5213
 7966SOL    HW135360   1.007   3.089   0.589 -1.8303 -1.1816  0.6747
 7966SOL    HW235361   0.877   3.050   0.537  1.1158  1.8624  2.0886
 7967SOL     OW35362   0.511   4.682   1.473 -0.2174  0.0897 -0.5645
 7967SOL    HW135363   0.602   4.685   1.504  0.0302  0.7638 -1.3582
 7967SOL    HW235364   0.497   4.594   1.440  1.2464 -0.6182  0.6599
 7968SOL     OW35365   2.837   4.700  14.407  0.0084  0.7033 -0.3182
 7968SOL    HW135366   2.900   4.697  14.335 -1.3562 -1.2984 -1.4599
 7968SOL    HW235367   2.797   0.061  14.400 -0.2699  0.8121  2.4684
 7969SOL     OW35368   0.721   3.634   2.174  0.0969  0.9447 -0.6678
 7969SOL    HW135369   0.781   3.560   2.186 -1.0624 -0.0387 -0.8899
 7969SOL    HW235370   0.740   3.682   2.254 -0.6138 -1.5668  0.9988
 7970SOL     OW35371   4.291   4.467  13.664  0.1530 -0.3966  0.3946
 7970SOL    HW135372   4.337   4.545  13.633 -1.0724  0.6784  1.2515
 7970SOL    HW235373   4.210   4.512  13.687 -0.0046  0.4436 -1.9124
 7971SOL     OW35374   1.956   1.689   9.133 -0.6299 -0.2477  0.2006
 7971SOL    HW135375   1.865   1.670   9.111 -0.3100 -0.5231 -0.8914
 7971SOL    HW235376   1.982   1.763   9.078 -0.7493 -0.8583 -0.6792
 7972SOL     OW35377   0.157   2.342   6.352 -0.5276  0.6171  0.0037
 7972SOL    HW135378   0.086   2.280   6.337 -0.9246  1.3007 -1.0148
 7972SOL    HW235379   0.224   2.295   6.400  0.1604 -0.3832 -1.9533
 7973SOL     OW35380   1.651   3.740   6.868 -0.4979 -0.2699  0.1841
 7973SOL    HW135381   1.734   3.754   6.823  1.1288 -1.1773  2.8654
 7973SOL    HW235382   1.627   3.651   6.843  1.9625 -0.7645 -0.3677
 7974SOL     OW35383   3.881   0.015   1.053 -1.1405  0.2580  0.8298
 7974SOL    HW135384   3.822   4.676   1.094  0.7988 -0.9901  1.6485
 7974SOL    HW235385   3.967   4.723   1.091 -0.3569  0.6457 -0.7702
 7975SOL     OW35386   2.467   4.323  14.886  0.2462  0.1565  0.6412
 7975SOL    HW135387   2.483   4.414  14.862  1.4318  0.4721  2.6219
 7975SOL    HW235388   2.555   4.289  14.868  0.2998  0.9193 -0.5414
 7976SOL     OW35389   0.299   2.430  15.106  0.6896  0.0597 -0.3039
 7976SOL    HW135390   0.381   2.403  15.063 -0.4373  0.7567 -2.9056
 7976SOL    HW235391   0.311   2.507  15.160  2.9883 -0.8019  0.4198
 7977SOL     OW35392   4.035   4.445   3.158  0.4926  0.3702  0.1616
 7977SOL    HW135393   3.940   4.457   3.155  0.6000  0.7417 -2.0463
 7977SOL    HW235394   4.031   4.361   3.112 -0.6555  0.7117 -0.3546
 7978SOL     OW35395   2.928   1.908  14.438  0.2893  0.0355  0.3289
 7978SOL    HW135396   2.966   1.844  14.378 -0.0528 -0.5197  0.7057
 7978SOL    HW235397   2.843   1.916  14.395  0.5648  2.4819  0.2774
 7979SOL     OW35398   1.995   1.156   6.294 -0.2680  0.9311  0.4269
 7979SOL    HW135399   1.910   1.157   6.338  0.0278 -2.1350  1.0317
 7979SOL    HW235400   1.985   1.081   6.235  1.3422 -1.1355  2.7691
 7980SOL     OW35401   0.733   1.407   8.162 -0.0616 -0.1582  0.0355
 7980SOL    HW135402   0.688   1.425   8.080 -1.8146  0.2168  1.0909
 7980SOL    HW235403   0.727   1.491   8.206  0.6957 -1.3148  2.3241
 7981SOL     OW35404   2.304   1.734   8.315  0.6782  0.0001  0.1398
 7981SOL    HW135405   2.247   1.659   8.297  1.5555 -0.5073 -0.5005
 7981SOL    HW235406   2.247   1.807   8.293  0.8441  0.1046  0.0554
 7982SOL     OW35407   3.862   0.208   3.294 -0.0517 -0.3186 -0.1337
 7982SOL    HW135408   3.922   0.197   3.220 -0.1666 -0.9785 -0.1283
 7982SOL    HW235409   3.895   0.146   3.359  1.5918 -1.4271 -2.0026
 7983SOL     OW35410   2.612   2.778  16.782  0.6015 -0.5689 -0.4243
 7983SOL    HW135411   2.527   2.822  16.780  0.7894 -0.2153 -0.9548
 7983SOL    HW235412   2.592   2.704  16.838  0.4608  0.9672  1.5720
 7984SOL     OW35413   4.278   1.484   2.715  0.4557  0.6422 -0.6590
 7984SOL    HW135414   4.220   1.533   2.656  0.6412  1.5008 -0.1254
 7984SOL    HW235415   4.211   1.494   2.783  1.0252  1.9625 -0.2823
 7985SOL     OW35416   1.741   1.574  10.427  0.2417 -0.1638  0.0006
 7985SOL    HW135417   1.783   1.594  10.510 -0.7970 -0.3733  0.5679
 7985SOL    HW235418   1.752   1.479  10.424 -1.1970 -0.3214 -0.0576
 7986SOL     OW35419   0.376   4.570   8.133  0.4319  0.7606  0.2121
 7986SOL    HW135420   0.406   4.642   8.078  0.0906  1.4738  0.9616
 7986SOL    HW235421   0.456   4.561   8.183  0.6656  0.6831 -0.1755
 7987SOL     OW35422   4.359   0.370  13.606 -0.2571 -1.1163  0.0555
 7987SOL    HW135423   4.324   0.282  13.592  0.9152 -1.2599 -1.9418
 7987SOL    HW235424   4.339   0.381  13.699 -2.2119  0.1189 -0.5225
 7988SOL     OW35425   0.955   1.012   6.711  0.1551  0.0404 -0.0633
 7988SOL    HW135426   1.013   0.941   6.739 -0.2199  0.6120  2.1743
 7988SOL    HW235427   0.873   0.978   6.747  0.5125 -0.5711  0.1692
 7989SOL     OW35428   1.273   2.544   2.715 -0.3958 -0.4600  0.3423
 7989SOL    HW135429   1.368   2.534   2.706 -0.0166  2.8944  0.3844
 7989SOL    HW235430   1.272   2.640   2.705  0.7766 -0.7694 -2.7963
 7990SOL     OW35431   1.855   4.667   7.989  0.3461 -0.0692 -0.3205
 7990SOL    HW135432   1.834   4.705   7.904  0.1122  0.1195 -0.1775
 7990SOL    HW235433   1.801   4.712   8.054 -0.7272  0.3556 -1.5186
 7991SOL     OW35434   4.221   0.337   7.730  0.1066  0.5014 -0.0589
 7991SOL    HW135435   4.241   0.244   7.723 -0.7839  0.4830 -2.3870
 7991SOL    HW235436   4.214   0.355   7.636 -1.7961  0.1664  0.0243
 7992SOL     OW35437   0.445   3.100   8.181 -0.0272 -0.2812 -0.4545
 7992SOL    HW135438   0.438   3.061   8.268 -0.7469  2.1169  0.5910
 7992SOL    HW235439   0.537   3.089   8.160  0.3611  1.7299  0.1218
 7993SOL     OW35440   0.605   1.854   3.759 -0.2050  0.6454 -0.2232
 7993SOL    HW135441   0.694   1.879   3.783 -0.1325 -1.0318  1.2129
 7993SOL    HW235442   0.566   1.875   3.844  0.7453 -0.0683  0.3901
 7994SOL     OW35443   4.467   2.164  16.876  0.0681 -0.2371  0.3741
 7994SOL    HW135444   4.454   2.069  16.885 -2.0127  0.1993  1.9639
 7994SOL    HW235445   4.377   2.186  16.851  0.4388  1.6714  0.7268
 7995SOL     OW35446   1.925   0.823   1.076 -0.0028  0.7119  0.4609
 7995SOL    HW135447   1.853   0.774   1.036  2.3963 -1.4185 -1.2182
 7995SOL    HW235448   1.996   0.759   1.072  1.2105  2.0662  0.5010
 7996SOL     OW35449   1.735   1.992   4.589 -0.5075  0.4354  0.3227
 7996SOL    HW135450   1.814   1.946   4.563 -0.9933 -0.8869  1.1800
 7996SOL    HW235451   1.713   1.950   4.672  1.6283 -0.9482  0.1882
 7997SOL     OW35452   2.706   2.601  11.212  0.0987 -0.5259  0.2496
 7997SOL    HW135453   2.713   2.677  11.269 -1.5962  0.2047 -0.5193
 7997SOL    HW235454   2.765   2.638  11.147 -0.5901  0.9707  0.4899
 7998SOL     OW35455   2.925   4.615   3.704  0.1180  0.6407  0.3571
 7998SOL    HW135456   2.990   4.647   3.642  0.2631 -1.0232 -0.3428
 7998SOL    HW235457   2.897   4.699   3.739 -0.2791  0.6255  0.0738
 7999SOL     OW35458   1.868   3.290  17.045 -0.5008  0.4195 -0.0868
 7999SOL    HW135459   1.865   3.250  16.958  0.4543 -1.3518  0.6841
 7999SOL    HW235460   1.923   3.365  17.022  0.9990 -0.6312  0.0644
 8000SOL     OW35461   0.059   0.359   6.426 -0.2162  0.0944  0.0110
 8000SOL    HW135462   0.052   0.450   6.396  0.0917  0.1296  0.0483
 8000SOL    HW235463   0.059   0.307   6.346 -1.3751  2.9901 -1.8946
 8001SOL     OW35464   4.171   4.035   8.824 -0.5696  0.3572  0.0157
 8001SOL    HW135465   4.131   3.948   8.814  1.3588 -0.4999 -0.3716
 8001SOL    HW235466   4.219   4.026   8.906 -0.1037  1.9514 -0.0947
 8002SOL     OW35467   2.151   2.785   0.583 -0.4278 -0.7342  0.2661
 8002SOL    HW135468   2.179   2.706   0.537 -0.7287 -1.8435  1.9752
 8002SOL    HW235469   2.211   2.847   0.543 -1.6009 -0.7214 -1.4810
 8003SOL     OW35470   0.176   1.378   7.002  0.7221  0.4081 -0.1810
 8003SOL    HW135471   0.160   1.319   6.928 -2.1405 -0.9044  1.4700
 8003SOL    HW235472   0.256   1.343   7.042 -0.1087 -0.4876  0.7043
 8004SOL     OW35473   0.807   2.510  13.617  0.5789  0.2427 -0.1196
 8004SOL    HW135474   0.791   2.463  13.698  3.1613  0.2215  0.3735
 8004SOL    HW235475   0.718   2.535  13.592  0.5391  1.2122  1.0174
 8005SOL     OW35476   0.844   0.404   0.951  0.0096  0.2630  0.0761
 8005SOL    HW135477   0.777   0.336   0.951  0.1462  0.1182  3.2256
 8005SOL    HW235478   0.925   0.354   0.962  0.6332  1.1085 -0.6594
 8006SOL     OW35479   4.126   3.665   6.223 -0.3381  0.1027 -0.2671
 8006SOL    HW135480   4.210   3.634   6.190 -0.5961 -3.3531  2.3378
 8006SOL    HW235481   4.168   3.711   6.296 -2.7460  0.3624  0.9358
 8007SOL     OW35482   0.169   2.853   5.602 -0.5867 -1.0698  0.4815
 8007SOL    HW135483   0.199   2.805   5.525  1.6908  0.8760  0.1429
 8007SOL    HW235484   0.229   2.840   5.676 -0.8072  2.0350  1.2092
 8008SOL     OW35485   2.626   0.992   4.412  0.3601  0.7069  0.5608
 8008SOL    HW135486   2.626   0.930   4.339 -0.3408  0.8256  0.4623
 8008SOL    HW235487   2.715   1.026   4.419  0.1146  1.2488  0.9574
 8009SOL     OW35488   2.109   3.593   2.959  0.1225 -0.2135  0.6731
 8009SOL    HW135489   2.151   3.510   2.936  2.0757  1.1139 -0.5626
 8009SOL    HW235490   2.144   3.645   2.886  1.8580  0.4531  1.9912
 8010SOL     OW35491   2.608   0.366  15.287 -0.0102 -0.3247 -0.0204
 8010SOL    HW135492   2.534   0.409  15.330  1.0520  2.2987 -0.8107
 8010SOL    HW235493   2.680   0.403  15.338  1.6716 -1.3447 -1.6358
 8011SOL     OW35494   1.031   3.353  15.260 -0.1927 -0.0507  0.5105
 8011SOL    HW135495   1.024   3.267  15.301 -3.9756 -0.2579 -0.5409
 8011SOL    HW235496   1.020   3.329  15.168 -2.5957 -0.0678  0.8170
 8012SOL     OW35497   0.681   2.929   2.665  0.1588 -0.4165  0.1091
 8012SOL    HW135498   0.657   3.009   2.617  2.8617  1.0352  1.1699
 8012SOL    HW235499   0.603   2.895   2.710  1.1884 -3.4132 -0.3776
 8013SOL     OW35500   1.514   0.931   3.553 -0.0511 -0.1937  0.2285
 8013SOL    HW135501   1.455   0.877   3.501 -1.9449  3.3096 -1.2708
 8013SOL    HW235502   1.454   0.970   3.617 -0.0193 -1.0350  0.7618
 8014SOL     OW35503   1.577   3.060  11.246  0.4914  0.1469 -0.5515
 8014SOL    HW135504   1.559   2.966  11.251  1.2395 -0.0865 -2.2374
 8014SOL    HW235505   1.548   3.081  11.158 -2.5408 -1.6825 -0.0094
 8015SOL     OW35506   3.158   3.567  11.672  0.3124 -0.0590 -0.0562
 8015SOL    HW135507   3.199   3.651  11.691  0.3657  0.0478 -0.6599
 8015SOL    HW235508   3.083   3.562  11.732 -0.7198  3.1323 -1.1031
 8016SOL     OW35509   3.522   3.355   3.082 -0.4698 -0.4400  0.3984
 8016SOL    HW135510   3.595   3.299   3.056  1.9978  3.3021 -0.9095
 8016SOL    HW235511   3.457   3.285   3.087 -1.0491  0.0407 -0.3194
 8017SOL     OW35512   3.879   2.286   0.486 -0.1479 -0.6551 -0.8133
 8017SOL    HW135513   3.931   2.209   0.461 -0.4203 -1.5399  1.2966
 8017SOL    HW235514   3.831   2.258   0.564  2.0181  1.6329  1.3437
 8018SOL     OW35515   4.690   0.104   4.120 -0.0868 -0.3262  0.5275
 8018SOL    HW135516   0.046   0.108   4.069 -0.8726 -1.8586 -0.8316
 8018SOL    HW235517   4.628   0.111   4.048  1.7466 -0.6891 -1.0650
 8019SOL     OW35518   1.094   2.429   8.256 -1.0384 -0.7301 -0.8074
 8019SOL    HW135519   1.162   2.409   8.321 -2.6706  1.8673  1.6820
 8019SOL    HW235520   1.136   2.376   8.189  2.9313 -1.1967  2.0100
 8020SOL     OW35521   3.039   1.871   4.425  0.3005 -0.3014  0.0573
 8020SOL    HW135522   3.064   1.950   4.377 -2.3417  0.6812  0.2976
 8020SOL    HW235523   3.107   1.875   4.493 -1.4624  1.7603  1.6875
 8021SOL     OW35524   0.189   1.672   3.974 -0.5117  0.2744 -0.2853
 8021SOL    HW135525   0.279   1.648   3.996 -0.6000  0.1577 -0.0444
 8021SOL    HW235526   0.208   1.729   3.900 -1.2838 -1.3688 -1.7417
 8022SOL     OW35527   4.066   0.004  13.900 -0.0839 -0.0503  0.6684
 8022SOL    HW135528   4.157   0.022  13.922  0.1105  0.6490 -0.7219
 8022SOL    HW235529   4.034   0.094  13.904 -2.1034 -0.7464 -0.1590
 8023SOL     OW35530   1.917   3.904   3.752  0.2971  0.0545 -0.5187
 8023SOL    HW135531   1.992   3.960   3.732  1.3179 -1.0750  0.2021
 8023SOL    HW235532   1.944   3.828   3.701  2.3826  1.2586 -1.2150
 8024SOL     OW35533   3.708   0.447   8.352  0.4977 -0.3507 -0.0737
 8024SOL    HW135534   3.680   0.358   8.329  0.1918  0.0024 -1.0486
 8024SOL    HW235535   3.707   0.431   8.447 -0.4777  0.4012  0.0409
 8025SOL     OW35536   0.142   2.213   1.887 -0.5001 -0.0049  0.0922
 8025SOL    HW135537   0.152   2.210   1.791 -0.5240  0.3287  0.0806
 8025SOL    HW235538   0.052   2.182   1.889 -0.5822  0.1720 -0.7907
 8026SOL     OW35539   2.526   4.118  10.776 -0.0883 -0.3040  0.0387
 8026SOL    HW135540   2.448   4.107  10.831  1.6871  0.8472  2.8190
 8026SOL    HW235541   2.492   4.071  10.700  1.0842  1.0627 -1.3249
 8027SOL     OW35542   0.863   4.046   1.407 -0.9187 -0.0433 -0.0370
 8027SOL    HW135543   0.911   4.046   1.489  1.2215 -1.0359 -1.2826
 8027SOL    HW235544   0.780   4.080   1.440 -1.8780 -1.3109 -1.1051
 8028SOL     OW35545   2.699   4.258   1.950  0.5849 -0.0834  0.4368
 8028SOL    HW135546   2.657   4.208   1.880 -0.5924 -0.4324  1.3896
 8028SOL    HW235547   2.769   4.293   1.894  2.2059 -1.8227  1.3811
 8029SOL     OW35548   0.497   2.972   7.488  0.0556 -0.1627 -0.3375
 8029SOL    HW135549   0.530   2.972   7.398  1.4383 -1.0947  0.1759
 8029SOL    HW235550   0.487   2.878   7.499 -2.3857 -0.0362 -1.5361
 8030SOL     OW35551   1.791   3.465   9.607 -0.7841  0.1396 -0.5047
 8030SOL    HW135552   1.729   3.507   9.547  0.8945  1.0393 -1.6121
 8030SOL    HW235553   1.782   3.513   9.689 -0.9257  0.5955 -0.7885
 8031SOL     OW35554   2.592   1.801   3.923 -0.2092 -0.4889 -0.3376
 8031SOL    HW135555   2.589   1.713   3.887 -1.3510 -1.2893  1.6734
 8031SOL    HW235556   2.673   1.806   3.974  0.3002 -2.2485 -1.0077
 8032SOL     OW35557   0.447   3.095  10.431 -0.0911  0.0668  0.4673
 8032SOL    HW135558   0.375   3.156  10.446  0.0157  0.5273 -0.9354
 8032SOL    HW235559   0.485   3.128  10.349  1.1838  0.1034  1.0676
 8033SOL     OW35560   4.493   4.041   8.672 -0.1589  0.1273 -0.1371
 8033SOL    HW135561   4.434   3.998   8.734  0.2911  1.0791  0.9325
 8033SOL    HW235562   4.483   3.980   8.599  0.0874 -0.4747  0.3321
 8034SOL     OW35563   3.169   4.630   8.235  0.2389  0.2152  0.7847
 8034SOL    HW135564   3.134   4.582   8.310  0.2689  1.0455  1.3341
 8034SOL    HW235565   3.262   4.612   8.245 -0.0413 -1.7429 -0.2443
 8035SOL     OW35566   0.692   0.985   1.251 -0.1896 -0.1753  0.5265
 8035SOL    HW135567   0.752   1.023   1.315  0.7874  1.2784 -1.2758
 8035SOL    HW235568   0.691   1.050   1.181 -2.4172 -2.6383 -1.7668
 8036SOL     OW35569   4.478   2.367  16.188  0.3389  0.5019  0.4552
 8036SOL    HW135570   4.570   2.393  16.193  0.1173  1.0537  1.5497
 8036SOL    HW235571   4.475   2.281  16.231  0.1901  1.8063  3.0384
 8037SOL     OW35572   2.934   0.133   4.096  0.4778  0.5200  0.2464
 8037SOL    HW135573   2.859   0.171   4.140 -0.9311 -0.9059 -0.9050
 8037SOL    HW235574   2.940   0.040   4.118  2.4069  0.2238 -1.4535
 8038SOL     OW35575   0.774   3.952  16.044 -0.1938  0.0826  0.5276
 8038SOL    HW135576   0.791   3.971  15.951 -0.6613 -2.0878 -0.0052
 8038SOL    HW235577   0.784   4.037  16.088 -0.9973 -0.2912  1.4299
 8039SOL     OW35578   2.123   0.634   5.661 -0.1380 -0.0255  0.4749
 8039SOL    HW135579   2.068   0.564   5.696 -0.1909  0.4214  1.2781
 8039SOL    HW235580   2.189   0.574   5.624  0.7072  1.0055  0.3235
 8040SOL     OW35581   0.992   4.544   1.197  0.4431  0.7212 -0.0810
 8040SOL    HW135582   0.948   4.462   1.174 -0.8575  1.9082 -1.8410
 8040SOL    HW235583   1.057   4.517   1.261  0.7600 -2.4082 -1.7312
 8041SOL     OW35584   1.759   0.557  10.256  0.3803 -0.4496 -0.6026
 8041SOL    HW135585   1.710   0.485  10.296 -0.7361  1.4312  1.4379
 8041SOL    HW235586   1.844   0.550  10.300  1.1669  0.0253 -2.0637
 8042SOL     OW35587   2.439   1.400   5.222  0.2272  0.2561 -0.1369
 8042SOL    HW135588   2.471   1.333   5.162  1.9699  0.4113  0.6142
 8042SOL    HW235589   2.387   1.351   5.285 -0.0794  0.0976 -0.5151
 8043SOL     OW35590   0.807   3.379  12.732 -0.1425 -0.1221 -0.5706
 8043SOL    HW135591   0.749   3.389  12.656 -0.7360 -4.2598 -0.6479
 8043SOL    HW235592   0.775   3.300  12.775  1.0804 -0.8759 -1.0587
 8044SOL     OW35593   2.910   2.535   4.307 -0.1746  0.2457  0.5778
 8044SOL    HW135594   2.822   2.569   4.292 -0.0471  1.6438  3.1229
 8044SOL    HW235595   2.908   2.469   4.238  0.7981 -1.5152  2.2531
 8045SOL     OW35596   0.921   0.221   1.268  0.0999  0.2297  0.1132
 8045SOL    HW135597   0.962   0.238   1.353 -0.3904 -2.0977  0.8082
 8045SOL    HW235598   0.855   0.289   1.259  0.4100  0.4473 -0.5309
 8046SOL     OW35599   3.517   0.865  13.729  0.3969 -0.5832  0.4751
 8046SOL    HW135600   3.442   0.857  13.669  0.3899 -0.6390  0.4920
 8046SOL    HW235601   3.588   0.824  13.679 -1.9041 -1.6432 -1.9739
 8047SOL     OW35602   2.614   4.421   8.397 -0.2987  0.2760  0.1505
 8047SOL    HW135603   2.565   4.420   8.479  0.3936  0.3121  0.5714
 8047SOL    HW235604   2.672   4.490   8.429 -0.5243  0.1603  0.8178
 8048SOL     OW35605   1.891   2.875   4.681  0.2194  0.2006  0.3135
 8048SOL    HW135606   1.808   2.918   4.702  0.2167  0.1160  0.4752
 8048SOL    HW235607   1.864   2.790   4.645 -1.9008  1.3310 -0.7494
 8049SOL     OW35608   1.344   4.482   6.254 -0.3087  0.3077  0.3901
 8049SOL    HW135609   1.309   4.562   6.217  0.2613  0.1356 -0.5251
 8049SOL    HW235610   1.325   4.417   6.186  2.5217  0.3246 -0.4224
 8050SOL     OW35611   1.291   4.571   2.569  0.6145 -0.1754 -0.0990
 8050SOL    HW135612   1.380   4.538   2.577 -0.8187 -4.5839 -2.3801
 8050SOL    HW235613   1.283   4.555   2.475 -0.1024  1.2217 -0.2701
 8051SOL     OW35614   1.659   1.571   7.893  0.5426 -0.2685 -0.1446
 8051SOL    HW135615   1.706   1.496   7.857 -0.9475 -1.2407 -0.0431
 8051SOL    HW235616   1.595   1.585   7.823  0.4769  2.0838  0.3719
 8052SOL     OW35617   1.071   1.466   4.876  0.2234  0.1323  0.0864
 8052SOL    HW135618   1.062   1.530   4.947  0.6448  1.1972 -0.8248
 8052SOL    HW235619   0.989   1.417   4.870  0.7718 -0.5982 -1.3447
 8053SOL     OW35620   1.325   2.374   1.667  0.4501 -0.1661  0.2717
 8053SOL    HW135621   1.364   2.437   1.607  0.5587  0.7209  1.2784
 8053SOL    HW235622   1.365   2.385   1.753 -0.8476 -1.4040  1.0524
 8054SOL     OW35623   0.666   0.191   1.008 -0.0378 -0.0016  0.2173
 8054SOL    HW135624   0.681   0.097   0.995  1.1719  0.5122 -2.1259
 8054SOL    HW235625   0.617   0.186   1.090  1.6677 -1.6130  1.1584
 8055SOL     OW35626   2.306   1.515   2.338 -0.2809 -0.1807 -0.0959
 8055SOL    HW135627   2.368   1.455   2.296 -0.5742 -0.8737  0.4579
 8055SOL    HW235628   2.366   1.586   2.359  0.3444 -0.6503 -0.2961
 8056SOL     OW35629   1.452   2.029   4.735  0.0523 -0.5342  0.2553
 8056SOL    HW135630   1.458   2.122   4.714  0.2051 -0.5988  0.0064
 8056SOL    HW235631   1.419   1.986   4.655 -1.3835  0.3690  0.3584
 8057SOL     OW35632   4.200   0.999   5.581  0.0045  0.2667  0.0104
 8057SOL    HW135633   4.249   1.070   5.538 -0.0729 -0.9033 -2.0069
 8057SOL    HW235634   4.220   1.017   5.673 -0.9636 -0.2894  0.3337
 8058SOL     OW35635   2.141   2.674   7.116 -0.3553 -0.3208 -0.1856
 8058SOL    HW135636   2.163   2.639   7.030 -2.1421 -0.0359 -0.7633
 8058SOL    HW235637   2.187   2.758   7.117  1.1518 -1.1578 -0.1373
 8059SOL     OW35638   2.255   4.487  15.394  0.4908  0.2415  0.2456
 8059SOL    HW135639   2.253   4.572  15.350  1.0872  0.1719  0.0877
 8059SOL    HW235640   2.339   4.451  15.365  0.1995  0.9406 -1.4591
 8060SOL     OW35641   2.072   2.643   9.055  0.4267  0.0556  0.5132
 8060SOL    HW135642   2.097   2.691   8.976 -0.2796  1.2977  1.0492
 8060SOL    HW235643   2.105   2.704   9.121  0.6819 -0.9310  1.3038
 8061SOL     OW35644   1.839   4.001   8.934 -0.3622 -0.0920 -0.3251
 8061SOL    HW135645   1.782   3.968   9.003  2.1600 -2.0274  0.8535
 8061SOL    HW235646   1.773   4.004   8.865  0.2400 -0.0447 -0.8979
 8062SOL     OW35647   4.262   1.844   2.697  0.1338  0.7545  0.9448
 8062SOL    HW135648   4.320   1.919   2.708 -1.3511  1.9397  0.7257
 8062SOL    HW235649   4.211   1.848   2.778 -2.4551 -0.2307 -0.6456
 8063SOL     OW35650   0.537   1.654   3.320  0.2098 -0.2423  0.3139
 8063SOL    HW135651   0.567   1.625   3.406 -0.9322  2.1497  1.5135
 8063SOL    HW235652   0.591   1.605   3.258  0.0337  0.2961 -0.2635
 8064SOL     OW35653   1.450   2.981  11.692 -0.3465 -0.1612 -0.0884
 8064SOL    HW135654   1.449   2.886  11.675  1.3064  0.1279 -1.8712
 8064SOL    HW235655   1.379   2.977  11.755 -0.6677 -2.7264 -0.5876
 8065SOL     OW35656   0.097   0.323  15.156 -0.2068  0.0596  0.4026
 8065SOL    HW135657   0.153   0.286  15.087 -0.1278  0.0859  0.4530
 8065SOL    HW235658   0.149   0.399  15.179  1.0227 -0.2086 -1.4451
 8066SOL     OW35659   2.218   1.583   8.782 -0.2966  0.1758 -0.0625
 8066SOL    HW135660   2.195   1.545   8.866  0.2816  0.5566  0.2632
 8066SOL    HW235661   2.297   1.634   8.800 -0.0276  0.1752 -1.1983
 8067SOL     OW35662   3.673   4.356   7.489 -0.0117  0.4323 -0.0202
 8067SOL    HW135663   3.750   4.311   7.453 -0.1768  1.0667 -1.1530
 8067SOL    HW235664   3.610   4.350   7.418  1.8503 -0.8200 -1.5653
 8068SOL     OW35665   0.950   3.566  12.840 -0.0123  0.3910 -0.5289
 8068SOL    HW135666   0.889   3.640  12.832  0.1656  0.8656  2.6345
 8068SOL    HW235667   0.909   3.501  12.783  2.3421 -1.1846 -0.4039
 8069SOL     OW35668   3.556   1.387   8.416 -0.4142 -0.6550  0.1592
 8069SOL    HW135669   3.644   1.389   8.378  0.0876 -0.2273  1.3434
 8069SOL    HW235670   3.545   1.292   8.423 -1.7466 -0.3911  1.4294
 8070SOL     OW35671   0.427   4.112   6.699  0.1122  0.2031  0.6107
 8070SOL    HW135672   0.400   4.204   6.706 -1.8628 -0.3695  0.3519
 8070SOL    HW235673   0.497   4.116   6.634  0.3954 -0.5063  0.8826
 8071SOL     OW35674   3.498   0.407   6.334 -0.2871 -0.2328  0.5732
 8071SOL    HW135675   3.408   0.402   6.300  0.3083  0.9426 -1.1445
 8071SOL    HW235676   3.545   0.443   6.259 -0.6204 -2.5659 -0.7454
 8072SOL     OW35677   3.691   2.887   6.426  0.0482 -0.7198 -0.1865
 8072SOL    HW135678   3.676   2.969   6.379  3.6795 -0.0278 -0.1393
 8072SOL    HW235679   3.764   2.917   6.480  0.3484  0.5289 -1.2950
 8073SOL     OW35680   3.717   1.674   1.778  0.4319 -0.2803 -0.1589
 8073SOL    HW135681   3.735   1.723   1.698 -1.6534  1.1419  0.2330
 8073SOL    HW235682   3.624   1.690   1.795  0.0954 -3.6650  1.1133
 8074SOL     OW35683   3.964   0.420   0.941 -0.4012 -0.4092  0.0995
 8074SOL    HW135684   3.910   0.388   1.013 -2.1272  1.5241 -0.3351
 8074SOL    HW235685   4.022   0.481   0.987 -1.8414  1.3242 -0.3916
 8075SOL     OW35686   0.494   0.336   8.021  0.0002  0.1473 -0.2551
 8075SOL    HW135687   0.520   0.266   7.961  0.3086 -0.0000  0.0475
 8075SOL    HW235688   0.557   0.327   8.092 -0.2698  0.1561 -0.0131
 8076SOL     OW35689   1.495   3.819   5.980  0.0085  0.5935  0.2009
 8076SOL    HW135690   1.507   3.874   5.903 -2.3416  1.7794  0.6923
 8076SOL    HW235691   1.542   3.868   6.047  0.1458 -0.7587  1.1013
 8077SOL     OW35692   3.731   1.134   3.652  0.5573  0.0898  0.1776
 8077SOL    HW135693   3.662   1.071   3.633 -0.5927  1.7240 -1.0828
 8077SOL    HW235694   3.688   1.212   3.617 -0.7591 -0.1653  1.2471
 8078SOL     OW35695   0.226   0.311   4.746  0.2319 -0.0415 -0.0013
 8078SOL    HW135696   0.210   0.232   4.799 -0.8880 -0.2998 -0.7303
 8078SOL    HW235697   0.251   0.375   4.813  0.1966 -1.1870  1.1256
 8079SOL     OW35698   1.489   0.664  13.497 -0.2913  0.7784 -0.0067
 8079SOL    HW135699   1.507   0.698  13.585  0.8268  3.0748 -1.1398
 8079SOL    HW235700   1.578   0.655  13.464 -0.8949  0.0783 -1.4222
 8080SOL     OW35701   3.660   4.640  17.676  0.1475  0.1314  1.0800
 8080SOL    HW135702   3.604   4.641   0.052  1.9813  1.7177  2.3723
 8080SOL    HW235703   3.752   4.637  17.702 -0.1404  1.2414  2.2314
 8081SOL     OW35704   2.371   1.137   6.193  0.2978  0.7378  0.1855
 8081SOL    HW135705   2.371   1.226   6.230  0.4192  0.4147  0.9717
 8081SOL    HW235706   2.390   1.080   6.268 -0.5767  0.5137  0.2353
 8082SOL     OW35707   1.779   3.324   6.504 -0.1341  0.2718 -0.0870
 8082SOL    HW135708   1.722   3.400   6.492 -1.3115 -0.7453 -0.9568
 8082SOL    HW235709   1.849   3.346   6.442  1.0485 -0.1202  1.1202
 8083SOL     OW35710   1.321   2.800   2.866 -0.2785 -0.2370  0.0193
 8083SOL    HW135711   1.274   2.761   2.940  0.1025  2.2148  1.5548
 8083SOL    HW235712   1.406   2.818   2.906 -0.4361  0.5841 -0.0166
 8084SOL     OW35713   2.861   2.145  12.807 -0.3800  0.0489 -0.0895
 8084SOL    HW135714   2.877   2.174  12.717 -1.3702  0.5765 -0.0929
 8084SOL    HW235715   2.768   2.122  12.805 -0.6024  0.6948  3.1725
 8085SOL     OW35716   1.183   1.081   2.791 -0.1722  0.1264 -0.3675
 8085SOL    HW135717   1.196   1.086   2.696 -0.7404 -0.0018 -0.4529
 8085SOL    HW235718   1.088   1.090   2.782 -0.3102 -1.5552 -0.6166
 8086SOL     OW35719   4.688   3.002  13.515  0.2228 -0.4104 -0.0659
 8086SOL    HW135720   4.707   3.087  13.476  1.3804 -1.3413 -1.4860
 8086SOL    HW235721   4.669   2.957  13.433 -1.7073  1.1252 -0.4739
 8087SOL     OW35722   2.969   0.348   7.897 -0.2508  1.2127  0.9474
 8087SOL    HW135723   3.006   0.280   7.842 -0.5833  0.2155  1.9609
 8087SOL    HW235724   3.002   0.323   7.983 -0.0314 -0.0952  0.4778
 8088SOL     OW35725   1.030   2.903  12.083 -0.0180  0.4686  0.1940
 8088SOL    HW135726   1.099   2.946  12.134 -1.2411 -0.0424  2.3097
 8088SOL    HW235727   0.989   2.985  12.055  1.2827  0.1870 -2.4681
 8089SOL     OW35728   3.972   3.147   6.419 -0.2280 -0.1298 -0.2533
 8089SOL    HW135729   3.936   3.084   6.481  1.1434 -1.4957 -0.8359
 8089SOL    HW235730   3.963   3.225   6.472  0.4721  0.5651 -1.1543
 8090SOL     OW35731   2.148   0.858   6.334  0.5987  0.3965  0.2761
 8090SOL    HW135732   2.079   0.878   6.271  0.8653 -1.4359 -0.5852
 8090SOL    HW235733   2.111   0.795   6.396 -0.8982  1.2430  0.2531
 8091SOL     OW35734   1.861   3.675   2.354 -0.1003 -0.4838 -0.4765
 8091SOL    HW135735   1.853   3.664   2.259  1.2490 -1.1297 -0.5131
 8091SOL    HW235736   1.908   3.595   2.379 -2.6789 -1.2696  1.9153
 8092SOL     OW35737   1.222   4.043   5.879 -0.1617 -0.0210 -0.4194
 8092SOL    HW135738   1.163   3.968   5.889 -1.2671  0.7405 -1.1105
 8092SOL    HW235739   1.236   4.027   5.785  2.9108 -0.8567  0.1808
 8093SOL     OW35740   0.872   0.671   5.086  0.2316  0.3679 -0.0750
 8093SOL    HW135741   0.809   0.743   5.087 -1.3393 -1.0224  1.9324
 8093SOL    HW235742   0.851   0.626   5.168 -1.0448  0.1354 -0.5273
 8094SOL     OW35743   1.220   1.095   7.546  0.5376  0.9853 -0.0373
 8094SOL    HW135744   1.179   1.162   7.601  0.2461 -0.8578  1.9979
 8094SOL    HW235745   1.311   1.124   7.555  0.1029  2.8909 -1.6183
 8095SOL     OW35746   0.255   1.342   9.876 -0.8173 -0.6098  0.3334
 8095SOL    HW135747   0.311   1.306   9.945 -0.0497 -0.6376 -0.3057
 8095SOL    HW235748   0.311   1.416   9.849  1.4357 -2.4105  0.0398
 8096SOL     OW35749   3.332   4.070   0.164  0.3211  0.1645  0.4075
 8096SOL    HW135750   3.260   4.040   0.109 -1.3028  0.6170  2.2819
 8096SOL    HW235751   3.387   3.995   0.142  2.5064  1.7154  0.5425
 8097SOL     OW35752   0.441   0.499  14.783 -0.5095  0.6035 -0.1907
 8097SOL    HW135753   0.446   0.500  14.879  1.7444 -1.7278 -0.2804
 8097SOL    HW235754   0.443   0.406  14.763  0.2736  0.7055 -0.5830
 8098SOL     OW35755   2.877   1.395   6.411 -0.6343 -0.6468  0.5093
 8098SOL    HW135756   2.821   1.320   6.431 -0.8482 -0.9309 -1.1174
 8098SOL    HW235757   2.845   1.418   6.324 -0.7846  2.9792  1.5178
 8099SOL     OW35758   3.465   2.092  14.396 -0.3333 -0.1108 -0.2917
 8099SOL    HW135759   3.524   2.019  14.378  0.8320  0.3698  1.5275
 8099SOL    HW235760   3.524   2.167  14.394  2.1824 -2.0685  1.1135
 8100SOL     OW35761   3.844   3.303   6.028 -0.4315  0.3883 -0.1183
 8100SOL    HW135762   3.892   3.351   6.096  0.3275 -0.8893  0.2581
 8100SOL    HW235763   3.922   3.263   5.990  1.5351  1.8091  2.4063
 8101SOL     OW35764   1.097   3.252   5.625  0.5232  0.8057  0.0104
 8101SOL    HW135765   1.168   3.221   5.682  1.9258  2.0216 -1.0717
 8101SOL    HW235766   1.068   3.180   5.570  0.6457  0.7331  0.0425
 8102SOL     OW35767   0.160   3.309   9.605 -0.1701 -0.7344  0.3011
 8102SOL    HW135768   0.226   3.284   9.669 -1.1283  0.0091  1.5871
 8102SOL    HW235769   0.087   3.254   9.634 -0.2344 -0.8094  0.0022
 8103SOL     OW35770   3.774   4.370   4.236 -0.1520 -0.0212  0.5007
 8103SOL    HW135771   3.733   4.438   4.289  1.1943  0.1662  1.2919
 8103SOL    HW235772   3.794   4.302   4.300 -0.4224 -0.1293  0.4743
 8104SOL     OW35773   1.540   1.490  17.372  0.4144  0.3986 -0.3427
 8104SOL    HW135774   1.505   1.569  17.414  1.6638 -0.0788  1.5968
 8104SOL    HW235775   1.634   1.510  17.368  0.6635 -0.8069 -0.5995
 8105SOL     OW35776   3.597   1.788   3.488  0.9432 -0.1737  0.7641
 8105SOL    HW135777   3.689   1.798   3.462  0.2999  0.6641 -1.1808
 8105SOL    HW235778   3.607   1.827   3.574 -0.0852 -2.1727  1.7825
 8106SOL     OW35779   1.139   1.979   6.128  0.5648 -0.0497 -0.2579
 8106SOL    HW135780   1.133   1.895   6.083  0.9280 -0.0739 -0.2672
 8106SOL    HW235781   1.088   2.041   6.076  0.5436  0.3389  0.2237
 8107SOL     OW35782   0.697   0.703   9.735 -0.0631  0.0141  0.1919
 8107SOL    HW135783   0.767   0.638   9.734 -0.7218 -0.7205  2.1168
 8107SOL    HW235784   0.640   0.667   9.667  0.0758  2.2065 -1.0517
 8108SOL     OW35785   0.527   2.968   9.612  0.2758  0.6178 -0.1565
 8108SOL    HW135786   0.453   2.956   9.671 -1.1679  1.2221 -1.8552
 8108SOL    HW235787   0.589   2.903   9.644 -1.7915 -1.4675 -0.4113
 8109SOL     OW35788   1.504   0.399   9.620  0.0588  0.6898  0.0141
 8109SOL    HW135789   1.481   0.430   9.707 -0.5775  0.8122 -0.2013
 8109SOL    HW235790   1.564   0.471   9.601  1.4515 -0.7342 -1.0249
 8110SOL     OW35791   4.439   4.153   6.066  0.4489 -0.2815  0.2632
 8110SOL    HW135792   4.425   4.208   6.143 -0.0087  3.0255 -2.1248
 8110SOL    HW235793   4.347   4.155   6.041  1.3669  0.5076 -3.1012
 8111SOL     OW35794   3.087   3.449   9.418  0.5108 -0.0223  0.2348
 8111SOL    HW135795   3.103   3.501   9.339 -0.1300  0.6893  0.5629
 8111SOL    HW235796   3.127   3.368   9.389  1.4305  0.4669  0.1433
 8112SOL     OW35797   4.039   2.291   6.040  0.1505 -0.1564 -0.9379
 8112SOL    HW135798   3.967   2.299   6.103 -0.4309  1.3515 -1.7972
 8112SOL    HW235799   4.082   2.214   6.078  0.5853  0.8217  0.5557
 8113SOL     OW35800   0.943   1.989   3.105 -0.0252  0.4062 -0.0004
 8113SOL    HW135801   0.997   2.039   3.044  0.9871 -0.6152  0.0666
 8113SOL    HW235802   0.859   2.030   3.083  0.6456  0.8009 -1.7817
 8114SOL     OW35803   3.877   2.836  17.014 -0.6655  0.2345 -0.4161
 8114SOL    HW135804   3.936   2.762  17.029 -1.3374 -0.0027  1.0235
 8114SOL    HW235805   3.939   2.909  17.014  0.1478 -0.4480  0.5353
 8115SOL     OW35806   0.455   4.638   3.028 -0.2802 -0.4911 -0.0088
 8115SOL    HW135807   0.538   4.652   2.982  0.3429  2.6701  2.0876
 8115SOL    HW235808   0.444   4.543   3.036  1.5573 -0.6527  0.6109
 8116SOL     OW35809   1.393   2.275  17.356  0.0302 -0.0630 -0.2790
 8116SOL    HW135810   1.401   2.185  17.324 -0.3741 -0.0186 -0.4974
 8116SOL    HW235811   1.359   2.312  17.275  1.0580 -1.0857 -1.1709
 8117SOL     OW35812   3.569   0.189   6.515  0.0687  0.0157  0.4509
 8117SOL    HW135813   3.513   0.175   6.591  0.0183  0.9667  0.5887
 8117SOL    HW235814   3.515   0.254   6.470  0.2516  0.6776  1.2008
 8118SOL     OW35815   3.459   3.700   5.125  0.1647  0.0725  0.1548
 8118SOL    HW135816   3.538   3.743   5.156 -0.1841  0.2528  0.8050
 8118SOL    HW235817   3.493   3.626   5.075  2.5799  1.0041  0.4250
 8119SOL     OW35818   1.417   4.476  10.831  0.3629 -0.1370 -0.2557
 8119SOL    HW135819   1.337   4.521  10.859  1.0067  0.5810  0.4115
 8119SOL    HW235820   1.487   4.540  10.840 -0.6393  0.7261  1.3476
 8120SOL     OW35821   3.641   0.345   9.315  0.4553 -0.1217  0.0803
 8120SOL    HW135822   3.650   0.421   9.373 -0.6416  0.5760 -0.6802
 8120SOL    HW235823   3.551   0.355   9.285 -0.2068 -3.1987  1.0187
 8121SOL     OW35824   4.020   3.340   7.183 -0.0870  0.1004  0.3735
 8121SOL    HW135825   4.095   3.282   7.166 -0.8565 -0.6558 -0.4014
 8121SOL    HW235826   4.057   3.390   7.256 -2.5862  1.3419  0.7942
 8122SOL     OW35827   0.424   0.644  14.238 -0.0561 -0.2352  0.5951
 8122SOL    HW135828   0.469   0.691  14.168 -2.2518  1.2405  0.1740
 8122SOL    HW235829   0.391   0.708  14.300  0.1345  0.1249  0.3236
 8123SOL     OW35830   0.031   1.602  15.094  0.2201  0.0281 -0.1130
 8123SOL    HW135831   0.028   1.554  15.177  0.5040 -2.7806 -1.7714
 8123SOL    HW235832   0.069   1.536  15.037  0.2665  1.3980 -1.6716
 8124SOL     OW35833   2.060   3.886  14.510  0.1616 -0.3482 -0.5561
 8124SOL    HW135834   2.057   3.959  14.447  0.3144 -0.2322 -0.4272
 8124SOL    HW235835   2.024   3.931  14.586 -1.0018  1.1973 -2.0058
 8125SOL     OW35836   1.961   3.147  17.578 -0.2071 -0.3545 -0.5491
 8125SOL    HW135837   1.965   3.052  17.588  0.4669 -0.3430 -0.7215
 8125SOL    HW235838   1.973   3.160  17.484 -2.1271 -4.1511 -1.2979
 8126SOL     OW35839   1.680   1.598   8.390  0.0052 -0.3200  0.4227
 8126SOL    HW135840   1.665   1.563   8.302 -0.3932 -1.6308  1.0205
 8126SOL    HW235841   1.591   1.629   8.407 -0.4004 -1.6308  0.6401
 8127SOL     OW35842   0.483   2.232   2.973  0.2913  0.1680 -0.4405
 8127SOL    HW135843   0.443   2.193   3.051  0.3044  2.5279  0.7366
 8127SOL    HW235844   0.504   2.319   3.006  0.6341  0.5213 -1.6146
 8128SOL     OW35845   2.951   4.277   7.033 -0.4735  0.0117  0.1358
 8128SOL    HW135846   2.921   4.197   6.989 -0.9251  0.3857 -0.2368
 8128SOL    HW235847   2.877   4.333   7.009  1.4279  1.8837 -1.3556
 8129SOL     OW35848   1.819   4.318  16.867 -0.0665 -0.3527 -0.2971
 8129SOL    HW135849   1.890   4.256  16.853  1.3240  1.2365 -0.2953
 8129SOL    HW235850   1.832   4.387  16.801  0.1579 -0.4839 -0.3866
 8130SOL     OW35851   2.748   3.551  16.006 -0.0803 -0.0117  0.0533
 8130SOL    HW135852   2.774   3.613  16.075  1.3617  0.9324 -1.3354
 8130SOL    HW235853   2.721   3.611  15.937  2.0750 -0.8283 -1.5247
 8131SOL     OW35854   4.703   2.770  10.869 -0.2667  0.6706  0.2550
 8131SOL    HW135855   4.618   2.789  10.909  0.1706  0.0097  1.4892
 8131SOL    HW235856   4.697   2.679  10.841 -1.7779  1.1960 -1.1654
 8132SOL     OW35857   1.929   1.100   4.067  0.1614  0.0085  0.1152
 8132SOL    HW135858   1.881   1.038   4.122  0.0014 -1.1916 -1.3629
 8132SOL    HW235859   1.890   1.185   4.087  1.6438  0.9192 -0.8865
 8133SOL     OW35860   1.336   0.532   6.221  0.4796  0.3444 -0.6745
 8133SOL    HW135861   1.418   0.485   6.235  0.3090  0.1203 -0.4078
 8133SOL    HW235862   1.345   0.594   6.294 -0.3194  1.0706 -1.1934
 8134SOL     OW35863   4.718   3.812   3.556 -0.1584 -1.0217 -0.4747
 8134SOL    HW135864   4.722   3.872   3.482 -0.3708  0.0123  0.3478
 8134SOL    HW235865   0.061   3.848   3.613 -1.0409  0.5472 -0.4051
 8135SOL     OW35866   1.751   4.232   4.362  0.2061 -0.0862  0.8567
 8135SOL    HW135867   1.712   4.165   4.306 -0.9903 -0.9750  2.7447
 8135SOL    HW235868   1.777   4.299   4.299 -1.5808  2.0031  2.3493
 8136SOL     OW35869   3.044   2.959   3.717  0.1431 -0.0958  0.3016
 8136SOL    HW135870   2.958   2.985   3.684  0.5310  1.6472  0.6371
 8136SOL    HW235871   3.108   3.005   3.662 -0.8582 -1.5457 -2.1009
 8137SOL     OW35872   2.815   1.133   3.395 -0.0653 -0.3134  0.0550
 8137SOL    HW135873   2.851   1.082   3.322  0.3059  0.3346 -0.2118
 8137SOL    HW235874   2.774   1.066   3.450  0.2029  0.4808  1.2021
 8138SOL     OW35875   3.305   2.011   8.613 -0.1262  0.3778  0.0848
 8138SOL    HW135876   3.372   1.962   8.565 -1.5071 -0.7693 -0.6766
 8138SOL    HW235877   3.349   2.009   8.699  0.0160  2.0768  0.0517
 8139SOL     OW35878   2.771   0.674   4.741  0.2290  0.2132  0.4599
 8139SOL    HW135879   2.807   0.603   4.794 -0.1065  0.1297  0.5817
 8139SOL    HW235880   2.847   0.706   4.692  0.9246  2.6783  3.1316
 8140SOL     OW35881   4.400   4.418   3.079 -0.1785  0.1181  0.2531
 8140SOL    HW135882   4.359   4.352   3.023  2.5904 -0.1731 -1.4386
 8140SOL    HW235883   4.493   4.397   3.070  0.1610  0.5330  2.7652
 8141SOL     OW35884   3.204   2.125  13.221  0.9500 -0.5119  0.0254
 8141SOL    HW135885   3.125   2.174  13.196  0.6967 -0.3281  1.1885
 8141SOL    HW235886   3.191   2.102  13.313  0.1442  1.9517  0.5242
 8142SOL     OW35887   1.354   0.470   4.935  0.4281  0.3988  0.5185
 8142SOL    HW135888   1.336   0.404   5.002 -0.1604 -0.6347 -0.6670
 8142SOL    HW235889   1.288   0.535   4.959  0.1644  0.1926  0.3498
 8143SOL     OW35890   0.497   3.451   9.519  0.2609  0.0015  0.1643
 8143SOL    HW135891   0.403   3.470   9.520  0.3477  0.4834 -0.7635
 8143SOL    HW235892   0.500   3.363   9.482  2.1714  0.0553  0.1706
 8144SOL     OW35893   3.153   3.756   8.038 -0.4778 -0.2814 -0.0731
 8144SOL    HW135894   3.110   3.715   8.113  3.0961 -2.3785  0.8175
 8144SOL    HW235895   3.111   3.722   7.960  0.0906  0.5906 -0.7682
 8145SOL     OW35896   1.353   1.397   1.412  0.0518 -0.3804  0.5255
 8145SOL    HW135897   1.273   1.346   1.402  0.9120 -1.4602 -0.8516
 8145SOL    HW235898   1.363   1.426   1.322 -1.7229  0.4744  0.6034
 8146SOL     OW35899   1.457   0.424   3.995  0.2583 -0.3746  0.5196
 8146SOL    HW135900   1.423   0.514   3.995 -0.0448 -0.4911 -0.3488
 8146SOL    HW235901   1.453   0.401   4.088 -0.6262 -1.0260  0.3224
 8147SOL     OW35902   4.063   4.033   2.557  0.1450 -0.3653 -0.5657
 8147SOL    HW135903   4.042   4.126   2.551 -0.3101 -0.4864 -0.8534
 8147SOL    HW235904   4.138   4.041   2.615  0.4347  0.9858 -1.1268
 8148SOL     OW35905   1.926   3.543   2.640 -0.6282  0.7733  0.0325
 8148SOL    HW135906   1.963   3.472   2.586  0.2844  1.0807  0.2517
 8148SOL    HW235907   2.001   3.583   2.684 -0.0207 -1.3404  0.9250
 8149SOL     OW35908   0.633   1.661   3.558 -0.2974  0.0556 -0.7012
 8149SOL    HW135909   0.728   1.658   3.555 -0.3218  1.1584 -2.6657
 8149SOL    HW235910   0.626   1.725   3.629 -0.8816 -0.1606 -0.5618
 8150SOL     OW35911   0.620   1.408   7.919 -0.3683  0.1664  0.3455
 8150SOL    HW135912   0.604   1.365   7.835  0.5665 -0.2189  0.3641
 8150SOL    HW235913   0.548   1.472   7.917 -1.4133 -1.0731 -2.5016
 8151SOL     OW35914   0.639   4.298   9.797 -0.4470  0.0235 -0.0945
 8151SOL    HW135915   0.617   4.303   9.704  0.6561  0.6719 -0.3193
 8151SOL    HW235916   0.633   4.392   9.812 -1.1430  0.1846 -1.3497
 8152SOL     OW35917   0.767   0.293   5.684 -0.1320  0.2657 -0.2863
 8152SOL    HW135918   0.767   0.379   5.642 -0.7731  0.8855  1.0000
 8152SOL    HW235919   0.860   0.302   5.706  0.2447 -2.3737 -0.7156
 8153SOL     OW35920   3.123   0.112   4.795  0.3509  0.3020 -0.1559
 8153SOL    HW135921   3.113   0.043   4.861 -0.8974  0.1140 -0.5435
 8153SOL    HW235922   3.195   0.170   4.818  1.2392 -1.2895  1.1420
 8154SOL     OW35923   3.399   2.491  14.223 -0.0532  0.2373  0.2705
 8154SOL    HW135924   3.448   2.554  14.170  1.7421  0.6913  2.4428
 8154SOL    HW235925   3.311   2.523  14.206 -0.4873 -0.0591  1.9513
 8155SOL     OW35926   3.651   0.966   4.782  0.4912  0.2275  0.0656
 8155SOL    HW135927   3.573   1.017   4.762  3.1036  4.2632  0.1032
 8155SOL    HW235928   3.715   1.037   4.791  1.5304 -0.7254  0.2137
 8156SOL     OW35929   3.558   3.954  11.701  0.8943 -0.1467  0.2500
 8156SOL    HW135930   3.650   3.935  11.690  0.1010 -3.4673 -0.5110
 8156SOL    HW235931   3.544   3.893  11.773 -2.0297 -0.3885 -0.4936
 8157SOL     OW35932   4.056   2.212   5.781  0.2299  0.3831  0.1932
 8157SOL    HW135933   4.149   2.194   5.795  0.1696 -1.4383 -1.6886
 8157SOL    HW235934   4.034   2.252   5.865 -1.6140  0.3601 -0.2656
 8158SOL     OW35935   4.249   1.334   7.110  0.0673 -0.4060 -0.0158
 8158SOL    HW135936   4.160   1.355   7.084  0.5449  0.8413 -0.6530
 8158SOL    HW235937   4.250   1.239   7.103 -2.6833 -0.4175 -0.1792
 8159SOL     OW35938   2.025   1.156   8.519 -0.3138 -0.1303  0.1310
 8159SOL    HW135939   2.046   1.248   8.538 -1.3188  0.1077  0.1291
 8159SOL    HW235940   1.979   1.169   8.436  2.0063  0.5296 -1.0505
 8160SOL     OW35941   2.963   0.436   4.381 -0.4627 -0.1603  0.2516
 8160SOL    HW135942   2.945   0.433   4.475  2.5574  0.7255  0.8441
 8160SOL    HW235943   3.049   0.394   4.372 -1.4692 -2.3957  1.1137
 8161SOL     OW35944   4.144   3.566   0.882  0.2740  0.6962 -0.1918
 8161SOL    HW135945   4.057   3.606   0.880  0.2611  0.7507  1.2560
 8161SOL    HW235946   4.120   3.475   0.898  0.6879  0.7108  0.5214
 8162SOL     OW35947   3.274   0.949  13.058 -0.7207  0.5318  0.0372
 8162SOL    HW135948   3.207   0.896  13.100 -1.6867 -0.0743 -2.2819
 8162SOL    HW235949   3.238   0.987  12.978 -2.1844  1.2897  1.0440
 8163SOL     OW35950   2.020   1.145   5.821  0.2748 -0.3656 -0.2388
 8163SOL    HW135951   2.047   1.200   5.895 -0.0238 -1.1012  0.4246
 8163SOL    HW235952   1.951   1.100   5.870 -0.5427 -2.8382 -3.6547
 8164SOL     OW35953   1.288   0.664   3.957 -0.0130 -0.1042 -0.2313
 8164SOL    HW135954   1.246   0.677   4.042 -1.4272  2.9660 -1.4008
 8164SOL    HW235955   1.230   0.718   3.903 -0.1732  1.2116  1.2491
 8165SOL     OW35956   4.258   4.012   6.582  0.2596  0.2835 -0.2280
 8165SOL    HW135957   4.186   4.029   6.521  0.9862  1.8848 -0.6363
 8165SOL    HW235958   4.337   4.031   6.531  0.0834 -0.9996 -0.9806
 8166SOL     OW35959   4.043   2.852   7.649 -0.3541 -0.3276  0.5020
 8166SOL    HW135960   4.037   2.947   7.638 -0.0200 -0.2396  1.0487
 8166SOL    HW235961   4.128   2.840   7.692  0.1692  1.2302 -0.1016
 8167SOL     OW35962   1.723   3.906   7.956  0.1341  0.3272 -0.3244
 8167SOL    HW135963   1.671   3.862   7.889 -0.8818  1.4782 -0.2948
 8167SOL    HW235964   1.651   3.948   8.004  0.8688  1.3816 -0.1487
 8168SOL     OW35965   0.105   3.707   4.688  0.3722  0.0527 -0.4643
 8168SOL    HW135966   0.068   3.687   4.774 -0.9054 -2.1250 -1.5073
 8168SOL    HW235967   0.117   3.622   4.645 -0.5734  0.8486 -2.2691
 8169SOL     OW35968   2.121   1.612   2.502  0.0872 -0.3903  0.1656
 8169SOL    HW135969   2.182   1.571   2.441 -1.5085 -2.6899  0.1385
 8169SOL    HW235970   2.169   1.611   2.585 -0.4957  1.6217  0.5170
 8170SOL     OW35971   3.379   0.305  11.666  0.1545 -0.5170  0.4310
 8170SOL    HW135972   3.461   0.353  11.656 -0.5685  0.2383 -1.6539
 8170SOL    HW235973   3.321   0.379  11.683  1.7528  1.1080 -1.2589
 8171SOL     OW35974   3.111   0.297   1.147  0.0766  0.0150 -0.0054
 8171SOL    HW135975   3.166   0.293   1.068 -0.2430 -0.5557 -0.2027
 8171SOL    HW235976   3.154   0.244   1.214  1.5295 -0.2144 -1.1231
 8172SOL     OW35977   0.809   2.210   2.444  0.3298 -0.0245  0.2973
 8172SOL    HW135978   0.759   2.261   2.380  1.4432 -0.4232 -0.8861
 8172SOL    HW235979   0.762   2.127   2.447  0.0601  0.0889 -0.8004
 8173SOL     OW35980   0.763   3.769  10.537  0.0538  0.6029 -0.9268
 8173SOL    HW135981   0.832   3.836  10.534  1.4266 -0.7332  0.7762
 8173SOL    HW235982   0.744   3.774  10.631  0.9895 -1.4346 -0.6301
 8174SOL     OW35983   0.033   3.544   4.916 -0.4180 -0.5425 -0.3361
 8174SOL    HW135984   4.677   3.535   4.965 -0.7632 -1.0246 -0.9913
 8174SOL    HW235985   0.069   3.624   4.953 -1.3245  0.4464 -1.6136
 8175SOL     OW35986   1.457   2.052   7.174  0.5362  0.8121 -0.1939
 8175SOL    HW135987   1.469   2.145   7.153  0.3727  0.4919 -1.7044
 8175SOL    HW235988   1.541   2.027   7.213 -0.2731  0.6848  1.4718
 8176SOL     OW35989   3.076   0.623   8.061  0.5907  0.1418  0.4144
 8176SOL    HW135990   3.125   0.570   7.998  0.5836 -0.6160  1.0587
 8176SOL    HW235991   3.151   0.652   8.113 -0.1412 -0.6675  1.9330
 8177SOL     OW35992   3.070   3.196  12.080  0.2818  0.0757  0.1100
 8177SOL    HW135993   3.161   3.202  12.051  0.6862 -1.4996  1.0351
 8177SOL    HW235994   3.074   3.277  12.131  0.2593  0.3508 -0.3212
 8178SOL     OW35995   4.322   2.718   6.011 -0.4792 -0.5511 -0.1223
 8178SOL    HW135996   4.402   2.769   6.022 -0.2568 -1.1652  1.1359
 8178SOL    HW235997   4.347   2.633   5.977 -2.2159 -1.3218  0.4921
 8179SOL     OW35998   3.909   2.793   4.858  0.1037  0.5315 -0.2242
 8179SOL    HW135999   3.884   2.884   4.844 -2.2379 -0.2315 -1.0667
 8179SOL    HW236000   3.991   2.805   4.904 -0.2158  1.3432  0.1413
 8180SOL     OW36001   1.246   0.025   7.545  0.6012 -0.3140  0.1086
 8180SOL    HW136002   1.323   0.037   7.489  0.2099 -1.3694 -0.6580
 8180SOL    HW236003   1.227   0.116   7.567  0.5453 -0.3178  0.0763
 8181SOL     OW36004   3.947   0.318   5.962 -0.2967 -0.1840 -0.4598
 8181SOL    HW136005   3.901   0.385   5.912 -0.8618  0.9657  1.6066
 8181SOL    HW236006   3.921   0.335   6.053  0.6570  1.5940 -0.5175
 8182SOL     OW36007   1.238   1.888   2.968  0.3951  0.0048  0.5066
 8182SOL    HW136008   1.165   1.927   2.919  0.6536  0.0598  0.1613
 8182SOL    HW236009   1.300   1.883   2.895 -1.3200 -0.1278 -0.9362
 8183SOL     OW36010   0.806   0.591   4.498 -0.3227  0.3630  0.2260
 8183SOL    HW136011   0.778   0.508   4.459  1.3981  0.8059 -1.9521
 8183SOL    HW236012   0.722   0.628   4.525 -1.4023 -3.2974  1.8621
 8184SOL     OW36013   1.576   0.083   0.754 -0.4409  1.0965 -0.4307
 8184SOL    HW136014   1.487   0.113   0.773 -0.7300  0.6383 -1.0269
 8184SOL    HW236015   1.589   0.006   0.809  0.4220 -0.5000 -2.8582
 8185SOL     OW36016   0.299   2.376   3.499 -0.5600  0.2746  0.1933
 8185SOL    HW136017   0.228   2.440   3.508  0.1941  0.7473  2.8908
 8185SOL    HW236018   0.379   2.420   3.527 -0.4202  1.9220 -2.8165
 8186SOL     OW36019   3.440   3.043   4.899  1.1241  0.3188  0.3573
 8186SOL    HW136020   3.382   3.114   4.926  2.3376  0.4306  2.6585
 8186SOL    HW236021   3.469   3.064   4.811  0.6763 -0.0732  0.1106
 8187SOL     OW36022   4.396   1.909  16.844  0.6708  0.7758  0.5577
 8187SOL    HW136023   4.342   1.876  16.772 -0.5612  1.2986  1.2317
 8187SOL    HW236024   4.346   1.876  16.919 -0.4977 -2.1289 -1.4965
 8188SOL     OW36025   2.211   2.200  11.908 -0.0955  0.1118 -0.5728
 8188SOL    HW136026   2.263   2.147  11.968 -1.4465 -0.8805 -0.2946
 8188SOL    HW236027   2.146   2.134  11.885 -0.3619 -0.0255  0.5755
 8189SOL     OW36028   0.591   0.470  13.204  0.4005 -0.0536  0.5322
 8189SOL    HW136029   0.518   0.527  13.227 -0.1545 -0.3327 -0.5113
 8189SOL    HW236030   0.656   0.499  13.268  2.0492  0.9213 -1.5777
 8190SOL     OW36031   2.055   0.163   2.189  0.2543 -0.3997  0.0842
 8190SOL    HW136032   1.963   0.139   2.180  0.0966  0.3215 -0.1973
 8190SOL    HW236033   2.058   0.238   2.130 -0.1564  0.7146  1.4996
 8191SOL     OW36034   1.070   2.404   6.028  0.5082 -0.4445  0.2471
 8191SOL    HW136035   1.135   2.423   5.960 -1.0836 -1.0625 -1.4404
 8191SOL    HW236036   1.030   2.324   5.993 -2.1211  1.4109 -1.0153
 8192SOL     OW36037   0.727   1.063  17.483  0.1267 -0.2983  0.0586
 8192SOL    HW136038   0.669   1.024  17.548  1.3214 -3.3556 -0.6985
 8192SOL    HW236039   0.776   1.126  17.536 -0.5303  0.8647 -0.7348
 8193SOL     OW36040   2.886   0.124   4.964 -0.2582 -0.0810 -0.1380
 8193SOL    HW136041   2.898   0.076   4.883 -0.1650 -1.5457  0.7327
 8193SOL    HW236042   2.792   0.114   4.982  0.0595 -2.4571  0.2242
 8194SOL     OW36043   0.995   1.679   5.682 -0.1483 -0.1449 -0.0533
 8194SOL    HW136044   1.016   1.752   5.625  1.8994 -1.0126 -0.4122
 8194SOL    HW236045   1.068   1.618   5.669  0.5013  0.9610 -1.5666
 8195SOL     OW36046   4.617   1.713  16.111  0.1785  0.4785  0.6548
 8195SOL    HW136047   4.550   1.770  16.074 -0.2686 -1.5023 -1.5712
 8195SOL    HW236048   4.633   1.760  16.193  0.2984  1.0794  0.2878
 8196SOL     OW36049   3.810   4.344   8.799  0.0461 -0.3146 -0.0739
 8196SOL    HW136050   3.818   4.335   8.893 -0.2858  1.1351  0.0948
 8196SOL    HW236051   3.718   4.331   8.775 -0.2085  1.4741 -0.0778
 8197SOL     OW36052   3.310   0.541   5.589  0.0309 -0.0350  0.7869
 8197SOL    HW136053   3.228   0.567   5.632 -1.0161 -1.4274 -0.3519
 8197SOL    HW236054   3.314   0.448   5.612  0.1887 -0.4157 -0.7958
 8198SOL     OW36055   1.086   2.263   2.568  0.0140  0.0730 -0.6319
 8198SOL    HW136056   1.059   2.335   2.626 -0.9700 -0.2788 -0.6419
 8198SOL    HW236057   1.109   2.323   2.497 -0.2559  0.8635 -0.0479
 8199SOL     OW36058   2.187   1.787   6.551  0.6234  0.1590  0.1186
 8199SOL    HW136059   2.108   1.841   6.544 -0.1404 -0.6821  2.1114
 8199SOL    HW236060   2.170   1.738   6.632  0.9281  0.9949  0.6868
 8200SOL     OW36061   1.283   4.631   1.721  0.0330  0.2476 -0.2015
 8200SOL    HW136062   1.240   4.651   1.804 -0.7987  0.1963 -0.6263
 8200SOL    HW236063   1.208   4.599   1.671 -1.0281 -0.4496  1.8554
 8201SOL     OW36064   4.030   2.367   6.583 -0.6588 -0.5266  0.4990
 8201SOL    HW136065   3.967   2.305   6.547 -1.4950  0.4741  0.2489
 8201SOL    HW236066   3.976   2.418   6.644  0.3462 -0.3204  1.2120
 8202SOL     OW36067   3.469   3.764   2.866 -0.0415 -0.4372  0.0334
 8202SOL    HW136068   3.424   3.790   2.785  0.8875  0.8336 -0.0878
 8202SOL    HW236069   3.549   3.816   2.867 -0.4052  0.1405 -0.6822
 8203SOL     OW36070   2.058   0.521   4.557  0.1987 -0.4359  0.3529
 8203SOL    HW136071   2.077   0.445   4.501  0.2574  0.4892 -0.8708
 8203SOL    HW236072   2.067   0.592   4.494 -0.8009 -1.5944 -1.1148
 8204SOL     OW36073   0.911   0.531   9.706  0.6006  0.3559  0.1942
 8204SOL    HW136074   0.992   0.518   9.657  0.6679 -3.3910  1.3131
 8204SOL    HW236075   0.870   0.445   9.698  1.5303 -0.0137 -0.6761
 8205SOL     OW36076   0.639   3.222   2.251 -0.2903  0.6801  0.0905
 8205SOL    HW136077   0.672   3.133   2.241 -0.7151  0.5712 -0.3692
 8205SOL    HW236078   0.547   3.221   2.278  0.1535 -0.1688  1.5822
 8206SOL     OW36079   2.567   0.156   5.394  0.2919  0.5128  0.1895
 8206SOL    HW136080   2.588   0.062   5.395  0.8280  0.6253 -0.3766
 8206SOL    HW236081   2.652   0.192   5.422 -0.1283  1.0996  0.6991
 8207SOL     OW36082   2.949   1.837   5.700 -0.3209  0.2104 -0.2738
 8207SOL    HW136083   2.898   1.756   5.696 -2.6644  1.7372 -1.0852
 8207SOL    HW236084   2.996   1.838   5.783  0.4611  1.4861 -0.7366
 8208SOL     OW36085   3.437   3.661  17.625 -0.5600  0.4090 -0.0444
 8208SOL    HW136086   3.490   3.582  17.614 -1.3814 -0.1992  0.3269
 8208SOL    HW236087   3.486   3.720  17.681 -0.0106  0.3906 -0.5108
 8209SOL     OW36088   4.019   3.561   6.795 -0.5314 -0.3993 -0.1798
 8209SOL    HW136089   3.929   3.571   6.825  0.0980 -1.2619  1.9951
 8209SOL    HW236090   4.056   3.629   6.851 -0.2531 -1.3056  0.7215
 8210SOL     OW36091   3.140   2.263   4.049 -0.3520 -0.2994 -0.2758
 8210SOL    HW136092   3.164   2.198   3.983  2.4408  0.1873  0.2653
 8210SOL    HW236093   3.167   2.338   3.996 -0.6965  2.1479  2.9417
 8211SOL     OW36094   2.282   2.795  14.044  0.5364  0.3093  0.0316
 8211SOL    HW136095   2.368   2.753  14.039  0.4707 -0.0837  2.0464
 8211SOL    HW236096   2.312   2.871  14.095 -1.4558 -0.7081  2.7199
 8212SOL     OW36097   1.989   3.900   2.767 -0.4386 -0.4890  0.0144
 8212SOL    HW136098   2.065   3.845   2.750  0.3478  0.1722  1.3896
 8212SOL    HW236099   1.933   3.837   2.813  0.6424 -1.1923  0.3844
 8213SOL     OW36100   4.179   1.064  14.251 -0.3929  0.2511 -0.5528
 8213SOL    HW136101   4.129   0.983  14.240 -1.5499  0.6862  1.4049
 8213SOL    HW236102   4.235   1.058  14.174 -1.8838 -1.0361 -1.5415
 8214SOL     OW36103   2.020   1.642   7.192  0.2824 -0.4772  0.2276
 8214SOL    HW136104   2.003   1.728   7.153 -0.3435 -0.4150  0.6396
 8214SOL    HW236105   1.945   1.633   7.251  1.2742 -2.0837  1.2406
 8215SOL     OW36106   1.785   1.547   4.613  0.1858 -0.0712 -0.3249
 8215SOL    HW136107   1.739   1.487   4.671  2.1969  0.1199  1.4494
 8215SOL    HW236108   1.735   1.545   4.531  0.3680  2.4144 -0.5185
 8216SOL     OW36109   2.732   0.126   0.795  0.3909 -0.6723  0.2907
 8216SOL    HW136110   2.792   0.195   0.826  0.8516 -0.5037 -0.9809
 8216SOL    HW236111   2.794   0.061   0.762 -0.4903 -2.1635  1.5631
 8217SOL     OW36112   4.467   4.432   6.645 -0.1719  0.0978  0.2932
 8217SOL    HW136113   4.414   4.373   6.698 -0.1717  1.1329  1.4327
 8217SOL    HW236114   4.423   4.515   6.663 -0.0527  0.5276 -1.4117
 8218SOL     OW36115   3.330   3.226   0.118  0.2870  0.4088  0.2403
 8218SOL    HW136116   3.238   3.200   0.112  0.3439  0.4623 -1.0644
 8218SOL    HW236117   3.335   3.291   0.188  1.7413 -0.5607  1.0194
 8219SOL     OW36118   1.169   4.688   4.440 -0.1034  0.2044 -0.0243
 8219SOL    HW136119   1.095   4.638   4.405 -1.5728  1.4471  1.3101
 8219SOL    HW236120   1.236   4.676   4.373  0.5799 -2.1668  1.0654
 8220SOL     OW36121   4.698   0.255  10.721  0.1367  0.3896  0.4717
 8220SOL    HW136122   0.017   0.173  10.742  0.7064  0.7711  0.7857
 8220SOL    HW236123   4.681   0.276  10.812 -3.9470 -0.1445 -0.2005
 8221SOL     OW36124   4.378   0.190  11.648 -0.0453  0.2213  0.0041
 8221SOL    HW136125   4.460   0.148  11.622  1.0418  2.4140 -0.0784
 8221SOL    HW236126   4.403   0.232  11.730 -1.5315  0.1089  0.5195
 8222SOL     OW36127   1.188   0.012   8.808  0.0594 -0.3582 -0.1254
 8222SOL    HW136128   1.271   0.039   8.848 -1.1162  1.3522  1.1461
 8222SOL    HW236129   1.131   0.086   8.828  1.4057  0.0886  2.1072
 8223SOL     OW36130   1.510   0.407  13.803  0.0769  0.1474 -0.4027
 8223SOL    HW136131   1.478   0.385  13.891 -0.8457  0.8825 -0.5591
 8223SOL    HW236132   1.601   0.380  13.805  0.2201  0.6830  0.2892
 8224SOL     OW36133   3.218   1.997   5.743 -0.0720  0.0997 -0.0978
 8224SOL    HW136134   3.209   1.942   5.665  0.4581  0.3875 -0.3633
 8224SOL    HW236135   3.180   2.082   5.724  0.7928  0.5354  0.1181
 8225SOL     OW36136   1.858   1.761   7.860  0.2775  0.1128  0.0710
 8225SOL    HW136137   1.884   1.735   7.949  1.9766 -0.4888 -0.6084
 8225SOL    HW236138   1.764   1.742   7.860  0.2626  0.1869 -0.2066
 8226SOL     OW36139   1.965   3.427  11.360 -0.2358 -0.3290 -0.6400
 8226SOL    HW136140   1.960   3.352  11.300 -0.1474  0.2085 -1.3287
 8226SOL    HW236141   1.957   3.497  11.295 -1.3347  0.1203 -0.0224
 8227SOL     OW36142   1.874   1.935   8.513 -0.4525 -0.5336 -0.1399
 8227SOL    HW136143   1.780   1.923   8.526 -0.7207  1.5870 -0.1444
 8227SOL    HW236144   1.887   1.895   8.427  0.8642  1.1151 -0.7038
 8228SOL     OW36145   3.485   0.737   7.455  0.1675 -0.0001 -0.4039
 8228SOL    HW136146   3.397   0.699   7.459 -0.4219  1.3367 -0.8962
 8228SOL    HW236147   3.503   0.730   7.549  1.7899 -2.7692 -0.9189
 8229SOL     OW36148   0.233   3.590   1.758 -0.0709 -0.3221 -0.6774
 8229SOL    HW136149   0.150   3.637   1.761  1.0579  1.6360 -0.3685
 8229SOL    HW236150   0.194   3.505   1.778 -0.2868 -0.0624  0.0113
 8230SOL     OW36151   4.715   4.451   3.586  0.2923 -0.3811 -0.3486
 8230SOL    HW136152   0.025   4.520   3.643 -0.8563 -1.1020  1.2206
 8230SOL    HW236153   0.048   4.379   3.612 -1.1209 -1.2823  0.3307
 8231SOL     OW36154   1.642   2.617   4.334  0.3624 -0.3250  0.1943
 8231SOL    HW136155   1.615   2.609   4.426  0.4202  0.4812  0.2773
 8231SOL    HW236156   1.594   2.543   4.296 -1.5675  0.2970  1.4627
 8232SOL     OW36157   2.283   1.737  12.124  0.2486 -0.0029 -0.0623
 8232SOL    HW136158   2.348   1.801  12.094  0.9547 -1.1103 -0.9058
 8232SOL    HW236159   2.220   1.796  12.165 -1.1739 -1.3878 -0.2760
 8233SOL     OW36160   1.865   0.849   8.141  1.1402  0.3183 -0.1974
 8233SOL    HW136161   1.870   0.914   8.211 -0.5993 -0.4408  0.6589
 8233SOL    HW236162   1.909   0.901   8.075  0.7866 -1.7195 -2.0310
 8234SOL     OW36163   2.180   1.691  10.544  0.9175 -0.3686  0.3527
 8234SOL    HW136164   2.136   1.646  10.472 -1.4245 -0.2129  1.6844
 8234SOL    HW236165   2.115   1.761  10.553  0.6658 -0.3572 -1.6639
 8235SOL     OW36166   2.163   3.076   1.761  0.0927 -0.2137  0.9475
 8235SOL    HW136167   2.258   3.094   1.760  0.1029 -0.2741  0.7731
 8235SOL    HW236168   2.142   3.074   1.854 -0.7515  0.5620  0.7755
 8236SOL     OW36169   3.355   3.435   3.974  0.2222  0.3183  0.0645
 8236SOL    HW136170   3.292   3.365   3.992  0.6284  0.4965  2.1969
 8236SOL    HW236171   3.344   3.442   3.879 -1.1070 -3.0417 -0.0558
 8237SOL     OW36172   4.459   1.304   1.325  0.2093 -0.2803  0.2388
 8237SOL    HW136173   4.555   1.303   1.325  0.2023 -2.1555  0.5176
 8237SOL    HW236174   4.440   1.331   1.235 -2.2398  1.6684  1.3349
 8238SOL     OW36175   2.388   0.042   7.285 -0.3494  0.6256  0.8680
 8238SOL    HW136176   2.414   0.057   7.194 -5.0003 -0.8280 -0.7103
 8238SOL    HW236177   2.328   0.115   7.300 -1.7816  0.1436 -2.2690
 8239SOL     OW36178   0.867   0.535   2.963  0.5860 -0.3956  0.5823
 8239SOL    HW136179   0.868   0.487   3.045  2.3268 -0.8530  0.2928
 8239SOL    HW236180   0.891   0.467   2.900  2.5314 -0.0806  0.9828
 8240SOL     OW36181   2.737   0.804   1.553  0.4597  0.2964 -0.1137
 8240SOL    HW136182   2.748   0.750   1.631  1.7240 -0.4010 -0.7640
 8240SOL    HW236183   2.747   0.742   1.481  1.3749 -0.2510  0.4769
 8241SOL     OW36184   4.444   4.561   7.006  0.1731  0.7354 -0.5847
 8241SOL    HW136185   4.404   4.475   7.012  0.9202  0.5180  1.3117
 8241SOL    HW236186   4.528   4.548   7.050  0.3266 -2.6737 -1.9135
 8242SOL     OW36187   3.096   4.565   3.920 -0.1511 -0.2552 -0.4404
 8242SOL    HW136188   3.056   4.575   4.006  0.2770 -0.1323 -0.2581
 8242SOL    HW236189   3.025   4.590   3.861  0.7973  0.8580 -1.1096
 8243SOL     OW36190   3.300   0.469   4.380  0.2799 -0.6110  0.1609
 8243SOL    HW136191   3.315   0.477   4.474  0.3619 -0.2252  0.1161
 8243SOL    HW236192   3.288   0.374   4.380  1.0635 -0.7077 -0.3842
 8244SOL     OW36193   4.719   0.856  17.686  0.0546  0.4121  0.1053
 8244SOL    HW136194   4.644   0.911   0.008 -1.6857 -1.6475 -0.5736
 8244SOL    HW236195   4.673   0.797  17.626  1.2927 -1.0075  0.5539
 8245SOL     OW36196   2.470   3.087   6.922 -0.0546  0.2723 -0.8187
 8245SOL    HW136197   2.533   3.075   6.850  0.5749  0.8209 -0.3550
 8245SOL    HW236198   2.519   3.060   6.999  0.7599 -0.4225 -1.5729
 8246SOL     OW36199   3.834   4.149   1.444 -0.6909  0.3820  0.9102
 8246SOL    HW136200   3.910   4.100   1.475  0.9752  1.4181 -1.4904
 8246SOL    HW236201   3.815   4.224   1.502 -1.4679 -0.5828  1.8983
 8247SOL     OW36202   2.123   0.718   4.363 -0.0500 -0.2536  0.4448
 8247SOL    HW136203   2.121   0.691   4.271  2.0092 -0.9581  0.6093
 8247SOL    HW236204   2.219   0.713   4.370  0.0135 -3.3607 -2.5338
 8248SOL     OW36205   0.175   3.804   5.884  0.0015 -0.0055  0.6555
 8248SOL    HW136206   0.117   3.863   5.836  2.3436  1.2976 -0.5696
 8248SOL    HW236207   0.233   3.767   5.817 -3.2606 -1.5346 -1.2868
 8249SOL     OW36208   0.021   3.827   8.429  0.8090 -0.1108  0.0532
 8249SOL    HW136209   0.063   3.749   8.394 -0.0083  0.2022 -1.6135
 8249SOL    HW236210   0.082   3.844   8.501  2.3305  1.0683 -1.4824
 8250SOL     OW36211   3.489   2.271   6.132 -0.3078 -0.1892 -0.5203
 8250SOL    HW136212   3.412   2.301   6.083  0.9680 -0.2080 -2.5476
 8250SOL    HW236213   3.447   2.220   6.201  1.4567 -0.1048  0.5964
 8251SOL     OW36214   0.458   3.047   3.768 -0.5200  0.6934 -0.2051
 8251SOL    HW136215   0.514   3.008   3.701 -0.4651 -1.1672  0.9231
 8251SOL    HW236216   0.525   3.092   3.820 -0.5895  0.5136  0.0428
 8252SOL     OW36217   2.795   1.019   3.855  0.1516  0.4334 -0.3125
 8252SOL    HW136218   2.880   1.018   3.898  0.1675  0.6766 -0.3357
 8252SOL    HW236219   2.787   1.114   3.839  1.4779  0.7019  0.7012
 8253SOL     OW36220   4.180   1.006   0.849  0.5924 -0.4370 -0.0649
 8253SOL    HW136221   4.093   1.031   0.880  1.0197  1.0400 -0.0517
 8253SOL    HW236222   4.188   0.922   0.895 -1.0397  0.1677  1.2936
 8254SOL     OW36223   2.890   3.711  13.738  0.0758 -0.1967 -0.3392
 8254SOL    HW136224   2.976   3.675  13.759  0.2883  1.2417  1.1845
 8254SOL    HW236225   2.856   3.634  13.693 -1.9026  1.3382 -1.4635
 8255SOL     OW36226   3.701   2.110   5.614  0.6917  0.4331  0.4722
 8255SOL    HW136227   3.683   2.187   5.668  0.8864 -1.8357  3.7813
 8255SOL    HW236228   3.614   2.100   5.577  0.9552  0.2337 -0.0907
 8256SOL     OW36229   0.780   3.565   3.773 -0.2854  0.1041  0.8402
 8256SOL    HW136230   0.865   3.593   3.739 -1.2802 -0.0230 -1.7394
 8256SOL    HW236231   0.756   3.509   3.699  1.4306  0.0795  0.2888
 8257SOL     OW36232   2.192   4.193  14.816 -0.2260 -0.1982 -0.7126
 8257SOL    HW136233   2.277   4.219  14.851  0.1504  0.6447 -2.2920
 8257SOL    HW236234   2.201   4.201  14.721  2.0557 -0.3726 -0.5076
 8258SOL     OW36235   0.191   1.430   3.754  0.1216  0.2195  0.2260
 8258SOL    HW136236   0.241   1.494   3.804  1.0980  0.2373 -0.7606
 8258SOL    HW236237   0.251   1.394   3.688 -0.9296 -1.1340  0.0008
 8259SOL     OW36238   0.965   2.639   2.611 -0.0349 -0.0887  0.3826
 8259SOL    HW136239   0.905   2.615   2.682  0.5775 -0.5112  0.7601
 8259SOL    HW236240   1.038   2.675   2.662  0.5955  0.2175 -0.7332
 8260SOL     OW36241   2.452   3.862   6.223 -0.3575 -0.2112 -0.3001
 8260SOL    HW136242   2.405   3.946   6.230 -0.1298 -0.1485  0.5263
 8260SOL    HW236243   2.491   3.884   6.139 -0.9804  2.5414  0.1311
 8261SOL     OW36244   3.648   2.356   7.199  0.1793  0.5385 -0.6057
 8261SOL    HW136245   3.663   2.262   7.197  4.1839  1.1743  0.8233
 8261SOL    HW236246   3.738   2.386   7.195  0.3574 -0.2030 -2.2226
 8262SOL     OW36247   3.675   3.710  14.541  0.5204 -0.1629  0.3756
 8262SOL    HW136248   3.600   3.741  14.490 -0.9401 -0.9694  2.0458
 8262SOL    HW236249   3.653   3.619  14.557  1.6452 -0.4832  0.0694
 8263SOL     OW36250   0.362   4.715  10.275 -0.6973 -0.4410  0.0105
 8263SOL    HW136251   0.420   4.690  10.202 -0.6463  1.4673 -0.5943
 8263SOL    HW236252   0.400   4.657  10.341  0.5561 -2.2834 -2.3246
 8264SOL     OW36253   2.207   2.306   7.587  0.0801  0.1576  0.0574
 8264SOL    HW136254   2.139   2.313   7.521 -0.4477 -0.1695  0.5663
 8264SOL    HW236255   2.224   2.396   7.615 -0.1247 -0.1064  1.0240
 8265SOL     OW36256   1.983   4.199   9.035  0.3865  0.3744  0.3404
 8265SOL    HW136257   1.948   4.119   8.996 -0.5070  1.2341 -0.5924
 8265SOL    HW236258   2.004   4.164   9.122 -0.1508 -1.2232 -0.1777
 8266SOL     OW36259   0.482   2.651  12.794 -0.1966  0.3762  0.3389
 8266SOL    HW136260   0.407   2.640  12.736  1.1409 -1.2298 -1.0764
 8266SOL    HW236261   0.444   2.601  12.867 -0.0114 -0.9324 -0.4541
 8267SOL     OW36262   1.070   2.447  16.882 -0.2637  0.0385  0.4577
 8267SOL    HW136263   0.991   2.496  16.861 -0.1757  0.5240  1.2651
 8267SOL    HW236264   1.021   2.367  16.902 -1.9832  0.5774 -1.6660
 8268SOL     OW36265   3.174   2.889   1.285 -0.0952 -0.1094 -0.9450
 8268SOL    HW136266   3.267   2.877   1.267  0.3782  2.9847 -0.5047
 8268SOL    HW236267   3.134   2.866   1.202 -3.4733  1.1564  0.3401
 8269SOL     OW36268   3.897   0.834   3.677  0.1709  0.4492 -0.0149
 8269SOL    HW136269   3.915   0.829   3.584  0.8978 -1.0993  0.2110
 8269SOL    HW236270   3.873   0.926   3.690  0.2149  0.3796  0.5695
 8270SOL     OW36271   3.522   0.540  17.225  0.0014 -0.5433 -0.3546
 8270SOL    HW136272   3.492   0.450  17.211  0.5922 -0.8319  0.2682
 8270SOL    HW236273   3.598   0.529  17.282  0.4535  1.3118 -0.6047
 8271SOL     OW36274   2.339   3.892   9.663  0.5536 -0.2606  0.8372
 8271SOL    HW136275   2.273   3.958   9.681 -0.3012 -0.8342 -0.2177
 8271SOL    HW236276   2.347   3.847   9.747  1.5968 -0.1678  0.7918
 8272SOL     OW36277   2.538   0.416   3.258 -0.3529  0.4519 -0.0012
 8272SOL    HW136278   2.490   0.495   3.285 -1.3825 -0.9282  2.1856
 8272SOL    HW236279   2.470   0.390   3.197  1.0829 -0.5107 -1.1858
 8273SOL     OW36280   2.903   2.895   5.577 -0.4395  0.1996 -0.1771
 8273SOL    HW136281   2.909   2.827   5.643 -0.9948  0.8881  0.5748
 8273SOL    HW236282   2.947   2.968   5.621 -0.6143  0.0548  0.2345
 8274SOL     OW36283   0.279   1.167   5.921  0.5270  0.1933  0.5995
 8274SOL    HW136284   0.281   1.072   5.911 -0.0090  0.2770 -0.2703
 8274SOL    HW236285   0.340   1.180   5.993  1.0650 -1.6812  0.4759
 8275SOL     OW36286   4.213   4.284   2.845  0.0347 -0.1134 -0.3292
 8275SOL    HW136287   4.122   4.312   2.850 -0.2076 -0.9486  0.0911
 8275SOL    HW236288   4.251   4.356   2.796  0.8323 -0.9262 -0.8980
 8276SOL     OW36289   0.607   3.675   9.362 -0.1474  0.1001 -0.0002
 8276SOL    HW136290   0.546   3.616   9.406 -1.5799  1.9740  0.5557
 8276SOL    HW236291   0.604   3.657   9.268  0.7493  0.5037 -0.1057
 8277SOL     OW36292   4.137   2.620  11.843  0.5343  0.1541 -0.5771
 8277SOL    HW136293   4.069   2.555  11.859 -1.0310  2.2194  1.0754
 8277SOL    HW236294   4.192   2.564  11.788 -1.2070 -1.6750 -0.4592
 8278SOL     OW36295   0.101   1.272   5.610 -0.5966  0.4610  0.2630
 8278SOL    HW136296   0.148   1.224   5.542 -0.2429 -0.4124  1.1261
 8278SOL    HW236297   0.032   1.314   5.559 -1.4116  0.6767  1.5420
 8279SOL     OW36298   3.850   0.387   6.219  0.5365 -0.0083  0.1728
 8279SOL    HW136299   3.883   0.464   6.265 -0.9177  0.5293  0.3204
 8279SOL    HW236300   3.761   0.411   6.193  0.2694 -0.9533  0.2116
 8280SOL     OW36301   2.196   1.465  17.436  0.3458  0.7424 -0.1557
 8280SOL    HW136302   2.179   1.559  17.441 -2.5485  0.1473  0.8672
 8280SOL    HW236303   2.108   1.434  17.419  0.0629  0.9025  1.0157
 8281SOL     OW36304   2.226   1.282   0.821  0.2575 -0.3079  0.0606
 8281SOL    HW136305   2.209   1.374   0.798  0.3004 -0.4927 -0.6924
 8281SOL    HW236306   2.175   1.239   0.752 -3.1395 -0.3483  2.6076
 8282SOL     OW36307   2.908   4.422  14.355  0.0896 -0.5335  0.1122
 8282SOL    HW136308   2.830   4.420  14.300  0.2208  0.1895 -0.1012
 8282SOL    HW236309   2.979   4.434  14.292  1.2356 -0.9176  1.3359
 8283SOL     OW36310   2.842   1.315   6.860 -0.6894 -0.1225  0.5564
 8283SOL    HW136311   2.836   1.240   6.919 -1.3179 -2.4499 -2.4597
 8283SOL    HW236312   2.923   1.297   6.811 -0.7800  1.0617 -0.0328
 8284SOL     OW36313   4.349   3.663   4.371 -0.2287  1.4238  0.1994
 8284SOL    HW136314   4.407   3.606   4.320 -1.8694  0.4811 -0.5926
 8284SOL    HW236315   4.281   3.685   4.308 -1.2541  0.4253  0.9606
 8285SOL     OW36316   1.616   1.017   7.411 -0.3869  0.2021  0.4133
 8285SOL    HW136317   1.649   1.107   7.410 -1.2690  0.5241  0.5696
 8285SOL    HW236318   1.659   0.986   7.331 -0.4004  2.2842 -0.3870
 8286SOL     OW36319   0.584   1.621   7.136  0.1213 -0.1684  0.3220
 8286SOL    HW136320   0.659   1.679   7.153  1.4742 -2.7307  2.9945
 8286SOL    HW236321   0.513   1.679   7.108  0.7684 -0.2089 -1.4007
 8287SOL     OW36322   2.916   1.415   6.098  0.8863  0.6643 -0.3532
 8287SOL    HW136323   3.007   1.445   6.094  1.0046  0.2731 -0.6081
 8287SOL    HW236324   2.869   1.498   6.097  0.4536  0.4304  0.3267
 8288SOL     OW36325   2.509   1.939   3.707 -0.0692  0.0199 -0.2481
 8288SOL    HW136326   2.604   1.929   3.696  0.1276  0.7944  0.7985
 8288SOL    HW236327   2.495   1.892   3.789 -1.0005  3.2217  1.4128
 8289SOL     OW36328   2.394   4.355   7.164 -0.5406 -0.4274 -0.9146
 8289SOL    HW136329   2.471   4.312   7.200  0.5581  1.1697 -1.3494
 8289SOL    HW236330   2.326   4.349   7.231 -0.5631  2.4382 -0.6763
 8290SOL     OW36331   0.100   0.367  16.425  0.0394  0.1684 -0.4494
 8290SOL    HW136332   0.178   0.419  16.444 -0.9303  1.5323 -0.2405
 8290SOL    HW236333   0.042   0.430  16.382  0.1944  1.3671  1.0972
 8291SOL     OW36334   1.819   1.009   4.586 -0.7363  0.1499  0.5394
 8291SOL    HW136335   1.809   1.018   4.681  0.2459 -0.2686  0.6820
 8291SOL    HW236336   1.794   0.917   4.577 -0.7176  0.3670 -1.9206
 8292SOL     OW36337   3.716   4.133  16.219  0.3280 -0.5623 -0.2556
 8292SOL    HW136338   3.728   4.223  16.189  3.7157 -1.3284 -1.2774
 8292SOL    HW236339   3.751   4.120  16.308  1.1781  1.2984 -0.3106
 8293SOL     OW36340   3.869   2.277   3.271 -0.0683  0.4004 -0.3481
 8293SOL    HW136341   3.929   2.208   3.244 -1.3234 -0.1673 -1.7325
 8293SOL    HW236342   3.786   2.231   3.257 -0.4572  0.6688  1.1222
 8294SOL     OW36343   4.215   0.132  13.614  0.1798 -0.1662  0.0058
 8294SOL    HW136344   4.167   0.070  13.560 -1.4033  1.7783 -0.7834
 8294SOL    HW236345   4.283   0.076  13.652 -0.5476 -0.6934  0.5337
 8295SOL     OW36346   1.720   3.445   5.106 -0.5108  0.6042 -0.2476
 8295SOL    HW136347   1.636   3.490   5.095 -0.0709  2.1414  3.0859
 8295SOL    HW236348   1.789   3.510   5.100  0.2388 -0.2236 -0.7296
 8296SOL     OW36349   4.477   3.387   2.409 -0.1411 -0.3330  0.0648
 8296SOL    HW136350   4.511   3.345   2.330  0.6043 -0.7826  0.6241
 8296SOL    HW236351   4.474   3.477   2.379  2.4102 -0.4070 -0.4244
 8297SOL     OW36352   4.671   4.664   7.271 -0.0076  0.4213 -0.7121
 8297SOL    HW136353   4.718   4.637   7.350 -0.0779  1.6705 -0.2496
 8297SOL    HW236354   4.674   4.580   7.225  0.0243 -0.8654  1.6147
 8298SOL     OW36355   3.116   1.817   2.583  0.5604 -0.3837  0.0721
 8298SOL    HW136356   3.026   1.786   2.571  0.5850 -0.0444 -0.9747
 8298SOL    HW236357   3.171   1.774   2.517 -1.2634  0.5730 -2.0838
 8299SOL     OW36358   0.995   1.875   0.132 -0.2655  0.0980 -0.1143
 8299SOL    HW136359   1.020   1.895   0.042 -0.1472 -0.7786 -0.2753
 8299SOL    HW236360   1.045   1.944   0.175  1.3096 -1.0454 -0.1045
 8300SOL     OW36361   2.300   1.404  11.965 -0.5816  0.6090 -0.3275
 8300SOL    HW136362   2.266   1.461  11.896  1.0667  0.1832 -1.5117
 8300SOL    HW236363   2.227   1.343  11.974  1.0728 -1.3389 -0.1694
 8301SOL     OW36364   0.436   2.810   5.678  0.1465  0.0938 -0.2798
 8301SOL    HW136365   0.452   2.901   5.654 -0.7779  0.4240  0.3481
 8301SOL    HW236366   0.430   2.783   5.587  0.9243 -0.5726 -0.1326
 8302SOL     OW36367   3.131   1.053  13.813  1.0718  0.1669  0.4000
 8302SOL    HW136368   3.126   1.054  13.908 -1.3396  0.0894  0.2649
 8302SOL    HW236369   3.096   0.966  13.797  1.1341  0.1236  0.5010
 8303SOL     OW36370   3.511   2.681   3.155  0.2219 -0.2764 -0.0567
 8303SOL    HW136371   3.481   2.739   3.085  0.3896  1.2761  1.1598
 8303SOL    HW236372   3.457   2.603   3.144  0.5876 -0.7052  1.2061
 8304SOL     OW36373   2.838   1.044  11.784  0.5239 -0.2959 -0.2246
 8304SOL    HW136374   2.788   0.963  11.791  2.6913 -1.6100  0.1765
 8304SOL    HW236375   2.801   1.080  11.704  1.0081  0.4411 -0.1143
 8305SOL     OW36376   2.706   2.483   6.561 -0.2189 -0.2252  0.4314
 8305SOL    HW136377   2.774   2.520   6.617  0.0562 -0.7401  0.4351
 8305SOL    HW236378   2.744   2.501   6.476 -0.0030 -0.1583  0.5429
 8306SOL     OW36379   0.081   2.570   9.912  0.0704 -0.0152 -0.2185
 8306SOL    HW136380   0.111   2.654   9.878 -0.5611  0.3124  0.0515
 8306SOL    HW236381   0.155   2.512   9.893 -0.1701 -0.1918 -0.6307
 8307SOL     OW36382   0.853   1.264   3.495 -0.2424 -0.1011 -0.0753
 8307SOL    HW136383   0.933   1.215   3.477 -2.0197 -2.7550 -0.8370
 8307SOL    HW236384   0.877   1.351   3.463  0.8818 -0.4435 -0.1695
 8308SOL     OW36385   4.328   3.471   9.601  0.1103 -0.8459  0.2227
 8308SOL    HW136386   4.288   3.404   9.545 -0.2609 -1.8214  1.6506
 8308SOL    HW236387   4.360   3.417   9.674  0.5603  2.3798  2.3956
 8309SOL     OW36388   3.378   4.063   8.784  0.2338 -0.2919 -0.5419
 8309SOL    HW136389   3.425   3.990   8.744  0.4109 -1.3411  1.5754
 8309SOL    HW236390   3.311   4.072   8.717  0.5210  0.3221 -0.7472
 8310SOL     OW36391   4.487   1.290   3.809  0.1078  0.5950 -0.0174
 8310SOL    HW136392   4.544   1.346   3.757 -1.6321  0.9394 -1.5321
 8310SOL    HW236393   4.437   1.249   3.739  2.2623  0.7219 -1.6214
 8311SOL     OW36394   2.686   3.110   4.768  0.2318 -0.7302  0.1760
 8311SOL    HW136395   2.689   3.095   4.863  1.9392  0.7753  0.3588
 8311SOL    HW236396   2.660   3.022   4.741  0.9028 -1.3899  1.6950
 8312SOL     OW36397   0.389   3.487   5.493  0.0262 -0.2726  0.2843
 8312SOL    HW136398   0.339   3.565   5.515  1.1262  0.4267  0.2615
 8312SOL    HW236399   0.350   3.416   5.544 -2.5288  1.7888  1.1957
 8313SOL     OW36400   0.127   1.568   6.266 -0.4642  0.2353 -0.0454
 8313SOL    HW136401   0.037   1.592   6.242 -0.1371  1.1805 -0.3278
 8313SOL    HW236402   0.177   1.649   6.267 -0.2400  0.0850  0.8058
 8314SOL     OW36403   2.232   0.951   5.962  0.5056  0.2567  0.4712
 8314SOL    HW136404   2.289   1.028   5.959  1.1017 -0.2929 -2.1784
 8314SOL    HW236405   2.266   0.902   5.887 -0.4783  2.2706 -1.2988
 8315SOL     OW36406   0.113   1.670  12.411  0.1591  0.2776  0.0090
 8315SOL    HW136407   0.122   1.595  12.471  0.2738  0.4297  0.1797
 8315SOL    HW236408   0.179   1.730  12.445 -0.9053  1.6993 -0.4142
 8316SOL     OW36409   1.400   2.978  16.626 -0.0801 -0.0418  0.5596
 8316SOL    HW136410   1.401   3.046  16.559  2.3419 -0.9221 -0.3374
 8316SOL    HW236411   1.367   3.023  16.703  2.1157 -2.4962  2.9241
 8317SOL     OW36412   3.737   0.140   0.169 -0.4585 -0.1284 -0.0061
 8317SOL    HW136413   3.663   0.082   0.147 -1.4933  1.2945 -0.2882
 8317SOL    HW236414   3.742   0.144   0.264  0.3960 -3.8888  0.1246
 8318SOL     OW36415   2.451   2.400   3.895 -0.0862  0.5717  0.3105
 8318SOL    HW136416   2.436   2.315   3.855  0.0143  0.9032 -0.4380
 8318SOL    HW236417   2.490   2.370   3.977 -0.0742  2.5144  1.0124
 8319SOL     OW36418   4.549   0.756   7.692  0.3046 -0.0105 -0.5395
 8319SOL    HW136419   4.619   0.691   7.694  0.3860  0.1066  0.5637
 8319SOL    HW236420   4.577   0.831   7.745  0.1544 -1.8567  2.1677
 8320SOL     OW36421   2.172   0.573   3.656  0.3843 -0.0023  0.2875
 8320SOL    HW136422   2.100   0.535   3.606 -1.0393  3.1675 -0.0451
 8320SOL    HW236423   2.158   0.664   3.632 -4.8355 -0.8731  0.0106
 8321SOL     OW36424   4.352   3.166  13.632 -0.2470  0.1176  0.4950
 8321SOL    HW136425   4.353   3.239  13.695  0.2887  0.5465 -0.0135
 8321SOL    HW236426   4.327   3.203  13.547 -1.3788  1.4156  1.3818
 8322SOL     OW36427   2.668   3.572   7.523 -0.5163 -0.3468  0.5638
 8322SOL    HW136428   2.662   3.640   7.589 -0.2880  0.6319 -0.4273
 8322SOL    HW236429   2.670   3.623   7.442  0.6264 -1.5771 -0.1862
 8323SOL     OW36430   0.624   2.608   4.268  0.5840  0.1598  0.1993
 8323SOL    HW136431   0.569   2.595   4.346 -0.0033 -0.6526 -0.3505
 8323SOL    HW236432   0.709   2.611   4.312  0.7291  0.8353 -0.1286
 8324SOL     OW36433   1.135   0.370  10.028  0.1921 -0.1468 -0.9230
 8324SOL    HW136434   1.164   0.393  10.117  0.0315 -0.3594 -0.8151
 8324SOL    HW236435   1.101   0.450   9.989 -0.3277 -0.9355 -2.0986
 8325SOL     OW36436   3.014   1.375   7.763  0.3014 -0.5387  0.5144
 8325SOL    HW136437   2.925   1.364   7.732  0.6520 -2.3598  0.1681
 8325SOL    HW236438   3.021   1.327   7.846 -1.3861  0.0195  0.9799
 8326SOL     OW36439   0.454   0.501   4.207  0.5013  0.0455 -0.3031
 8326SOL    HW136440   0.371   0.548   4.210 -0.5258 -1.7971 -0.2820
 8326SOL    HW236441   0.475   0.508   4.300 -0.1004 -1.6471 -0.0391
 8327SOL     OW36442   4.176   4.556   4.909 -0.2720  0.2707  0.3685
 8327SOL    HW136443   4.156   4.477   4.959  3.6274 -1.0014 -0.0551
 8327SOL    HW236444   4.128   4.622   4.958 -0.6619  0.8454 -0.7868
 8328SOL     OW36445   2.598   2.698   9.093 -0.3197  0.2701  0.7069
 8328SOL    HW136446   2.656   2.696   9.169  0.4169  1.0902  0.1663
 8328SOL    HW236447   2.531   2.637   9.122  0.5661 -0.5984  0.9288
 8329SOL     OW36448   2.960   1.810   8.317  0.3014 -0.1978  0.0483
 8329SOL    HW136449   2.986   1.893   8.356  0.5979 -0.5667  0.6340
 8329SOL    HW236450   2.895   1.842   8.254  0.4590  1.4090  0.6904
 8330SOL     OW36451   3.207   4.107   9.376  0.1008  0.1606  0.0406
 8330SOL    HW136452   3.189   4.025   9.423  1.9114  1.1503  2.4663
 8330SOL    HW236453   3.256   4.148   9.447  2.1282 -0.7119 -0.8504
 8331SOL     OW36454   0.364   3.446   1.337 -0.5209 -0.1096 -0.6430
 8331SOL    HW136455   0.289   3.500   1.313  1.2449  2.7577  0.2900
 8331SOL    HW236456   0.339   3.414   1.424  1.3402  1.8899  0.6370
 8332SOL     OW36457   3.064   1.221   0.580  0.2612  0.2050  0.1447
 8332SOL    HW136458   3.017   1.150   0.624  0.8336 -1.7953 -2.4260
 8332SOL    HW236459   2.990   1.278   0.558  1.6414  1.6093 -0.8054
 8333SOL     OW36460   0.858   4.291   8.415  0.1981 -0.3150  0.2704
 8333SOL    HW136461   0.887   4.348   8.486 -0.2423 -0.9474  0.9676
 8333SOL    HW236462   0.763   4.294   8.429  0.3226  2.3703  0.3829
 8334SOL     OW36463   0.328   2.782   1.629 -0.5849 -0.0286 -0.1930
 8334SOL    HW136464   0.284   2.702   1.598 -0.6590  0.6973 -1.9562
 8334SOL    HW236465   0.306   2.838   1.555 -1.3394  0.3004  0.2795
 8335SOL     OW36466   3.154   3.491   2.645 -0.2781 -0.7993 -0.1209
 8335SOL    HW136467   3.086   3.500   2.579 -0.7022 -0.0702  0.4034
 8335SOL    HW236468   3.157   3.581   2.678 -1.7454 -0.7454 -0.1428
 8336SOL     OW36469   4.325   0.113   7.075  0.1266 -0.1303 -0.7906
 8336SOL    HW136470   4.351   0.027   7.041 -1.7511 -1.7776  2.0048
 8336SOL    HW236471   4.277   0.134   6.995  0.1827 -0.7012 -0.9747
 8337SOL     OW36472   0.362   4.119   5.412 -0.2340 -0.1729 -0.2899
 8337SOL    HW136473   0.277   4.135   5.369 -0.6565 -3.1335 -0.5399
 8337SOL    HW236474   0.420   4.192   5.389 -0.0386 -0.0124  0.7163
 8338SOL     OW36475   0.159   4.029  13.898  0.1370  0.2480  0.5747
 8338SOL    HW136476   0.207   3.983  13.966  0.3744 -2.2672 -1.2936
 8338SOL    HW236477   0.109   3.957  13.861  0.4115 -0.4353  1.5433
 8339SOL     OW36478   1.206   4.273   1.739  0.1090 -0.3538 -0.5877
 8339SOL    HW136479   1.257   4.266   1.659 -0.7930 -0.8834 -1.1229
 8339SOL    HW236480   1.173   4.184   1.751  1.3023 -0.6391  0.4917
 8340SOL     OW36481   3.879   1.965   8.173  1.2592 -0.7759  0.2335
 8340SOL    HW136482   3.813   1.914   8.126  0.7760 -0.0145  0.0818
 8340SOL    HW236483   3.919   2.016   8.102  1.3245  0.6748  1.3283
 8341SOL     OW36484   2.628   1.592  17.313  0.0492  0.2951  0.0046
 8341SOL    HW136485   2.590   1.621  17.396  1.1289  1.0538  0.2220
 8341SOL    HW236486   2.608   1.498  17.318 -0.0458  0.4091  1.7268
 8342SOL     OW36487   4.433   1.405   4.328  0.7650 -0.0324  0.2646
 8342SOL    HW136488   4.525   1.411   4.351  0.4427  2.6759  0.8069
 8342SOL    HW236489   4.427   1.388   4.234 -0.1816 -0.4600  0.3969
 8343SOL     OW36490   4.247   0.976  14.798  0.8841  0.2013  0.1057
 8343SOL    HW136491   4.208   0.893  14.824  0.7685  0.5125  0.8977
 8343SOL    HW236492   4.194   1.036  14.849  1.0540  0.6268 -0.2101
 8344SOL     OW36493   0.010   0.564   7.784 -0.0813  0.4157  0.1570
 8344SOL    HW136494   0.080   0.630   7.783 -0.8882  1.2588 -0.3088
 8344SOL    HW236495   0.036   0.501   7.717 -1.7806  1.6968 -1.7056
 8345SOL     OW36496   2.127   2.178   5.201  0.1040  0.4601 -0.3480
 8345SOL    HW136497   2.068   2.127   5.257  0.3671  0.2561 -0.2613
 8345SOL    HW236498   2.069   2.249   5.171  1.3774  0.3706 -3.0331
 8346SOL     OW36499   3.940   3.376   2.892  0.2377  0.6174  0.0699
 8346SOL    HW136500   4.024   3.331   2.901  1.0089  2.2803  1.0082
 8346SOL    HW236501   3.954   3.446   2.828 -0.0721  1.7730  1.2716
 8347SOL     OW36502   1.325   2.844  13.453 -0.4579  0.3713  0.7950
 8347SOL    HW136503   1.373   2.776  13.500 -1.7898  0.1148  1.7687
 8347SOL    HW236504   1.284   2.800  13.379 -0.3395  1.8862 -0.1775
 8348SOL     OW36505   1.416   2.853   5.642  0.2189 -0.2401  0.2155
 8348SOL    HW136506   1.507   2.831   5.663  0.0244  0.1909  1.4959
 8348SOL    HW236507   1.424   2.853   5.546  0.5067 -0.7846  0.2402
 8349SOL     OW36508   1.062   0.619  14.402  0.0406 -0.0680  0.8114
 8349SOL    HW136509   1.110   0.617  14.485 -1.1919  2.0512  1.5759
 8349SOL    HW236510   0.977   0.580  14.421 -0.4518  1.0895  0.9587
 8350SOL     OW36511   0.050   0.184   6.166  0.5402 -0.2240  0.7491
 8350SOL    HW136512   0.114   0.113   6.167 -0.8158 -1.4989 -2.4523
 8350SOL    HW236513   0.094   0.234   6.097  1.4473 -0.2581  1.3018
 8351SOL     OW36514   3.841   2.443   5.499 -0.6174  0.7860 -0.0889
 8351SOL    HW136515   3.819   2.392   5.578  0.3178 -0.5735 -0.7138
 8351SOL    HW236516   3.761   2.446   5.446 -1.2807  1.0406  0.9111
 8352SOL     OW36517   1.946   1.010   2.557  0.3111  0.0376  0.6061
 8352SOL    HW136518   2.038   1.034   2.568 -0.1744  1.2358  2.0209
 8352SOL    HW236519   1.955   0.928   2.605 -0.3562 -1.9170 -2.6223
 8353SOL     OW36520   0.463   3.032   2.325  0.0738  0.0471  0.4540
 8353SOL    HW136521   0.514   2.954   2.347 -0.5026 -0.0562  1.3799
 8353SOL    HW236522   0.385   3.013   2.376 -1.5139  2.2646 -1.1154
 8354SOL     OW36523   2.515   1.304   3.918 -0.1956  0.1208 -0.5344
 8354SOL    HW136524   2.548   1.293   3.829  2.1840  2.2780  0.0988
 8354SOL    HW236525   2.597   1.297   3.967 -0.1338 -0.5424 -0.7288
 8355SOL     OW36526   4.350   1.512   0.611  0.2001 -0.5635  0.7529
 8355SOL    HW136527   4.290   1.491   0.539 -0.1293  1.6412  0.3966
 8355SOL    HW236528   4.359   1.606   0.598 -1.2986 -0.6034 -0.6908
 8356SOL     OW36529   1.915   3.538   5.430  0.4665 -0.2107 -0.0972
 8356SOL    HW136530   1.838   3.498   5.470 -0.4668 -0.0858 -1.7846
 8356SOL    HW236531   1.980   3.488   5.479 -0.9950  1.6075  3.6966
 8357SOL     OW36532   4.031   2.488   7.473  0.0356 -0.2003  0.5445
 8357SOL    HW136533   3.961   2.552   7.480 -0.6876 -1.0355  0.9419
 8357SOL    HW236534   4.103   2.549   7.455  1.5330 -2.1028  0.1034
 8358SOL     OW36535   0.761   3.093  14.568 -0.4099 -0.2019  0.5673
 8358SOL    HW136536   0.673   3.072  14.600 -0.4520 -0.7255  0.1129
 8358SOL    HW236537   0.777   3.022  14.507 -3.2138  0.6261 -1.1605
 8359SOL     OW36538   2.370   4.004   6.738  0.3998  0.9274 -0.7110
 8359SOL    HW136539   2.379   4.031   6.830 -1.8926 -2.3245  0.4884
 8359SOL    HW236540   2.277   3.993   6.716  1.1802 -1.5991 -2.7183
 8360SOL     OW36541   3.052   4.124   3.356  0.3002  0.0761  0.5345
 8360SOL    HW136542   3.024   4.146   3.267  2.6945 -1.4984 -0.5992
 8360SOL    HW236543   2.989   4.167   3.413  2.4213  1.5450  1.7574
 8361SOL     OW36544   0.194   0.393   9.182 -0.4181 -0.2260  0.5450
 8361SOL    HW136545   0.209   0.340   9.261  0.5051 -1.6680 -0.5916
 8361SOL    HW236546   0.246   0.472   9.197  1.0790 -0.7442 -1.9011
 8362SOL     OW36547   4.441   3.267   7.668  0.1508  0.3091  0.2497
 8362SOL    HW136548   4.404   3.324   7.736 -0.6690 -0.8941  0.7920
 8362SOL    HW236549   4.509   3.221   7.718 -1.1669 -2.6239 -0.7125
 8363SOL     OW36550   0.119   3.916   0.531  0.3936 -0.0901 -0.3064
 8363SOL    HW136551   0.191   3.940   0.590 -0.3973  2.1532 -0.2238
 8363SOL    HW236552   0.098   3.829   0.565  0.1649 -0.6062 -1.8042
 8364SOL     OW36553   0.859   2.168   6.545  0.3818 -0.1862 -0.1130
 8364SOL    HW136554   0.895   2.105   6.483 -0.4315 -0.5167 -0.2344
 8364SOL    HW236555   0.918   2.153   6.619 -0.5897 -3.6172 -0.0381
 8365SOL     OW36556   3.411   2.758  13.309  0.3199 -0.3080 -0.0375
 8365SOL    HW136557   3.438   2.703  13.236  1.9884 -0.5468  0.7724
 8365SOL    HW236558   3.316   2.761  13.296  0.5070 -1.5196 -1.5603
 8366SOL     OW36559   0.278   4.387  14.821  0.4638 -0.0068  0.1459
 8366SOL    HW136560   0.282   4.414  14.913  0.9904  2.5728 -0.6400
 8366SOL    HW236561   0.195   4.426  14.792  0.2633 -0.1065  0.5850
 8367SOL     OW36562   1.366   1.079   7.068  0.1143 -0.2603  0.3974
 8367SOL    HW136563   1.295   1.137   7.096 -0.3131  0.7602 -2.9222
 8367SOL    HW236564   1.439   1.141   7.070  0.6996 -0.8831 -3.2562
 8368SOL     OW36565   2.711   0.660   3.633 -0.1996 -0.2746 -0.1115
 8368SOL    HW136566   2.725   0.595   3.702  1.5210  0.5110  0.3026
 8368SOL    HW236567   2.628   0.696   3.663  0.6934  0.7942  1.0987
 8369SOL     OW36568   4.002   3.236  12.874 -0.0280 -0.2719  0.8386
 8369SOL    HW136569   3.971   3.182  12.947 -1.6990  0.8958  0.9937
 8369SOL    HW236570   4.076   3.183  12.846 -1.0162 -1.8065  1.1069
 8370SOL     OW36571   4.449   0.537   8.209 -0.0524 -0.5060 -0.9929
 8370SOL    HW136572   4.513   0.582   8.153  0.5824 -2.0426 -1.4929
 8370SOL    HW236573   4.433   0.452   8.167  0.8722 -1.5536  0.8163
 8371SOL     OW36574   2.588   0.479   2.367 -0.6969 -0.1774 -0.1115
 8371SOL    HW136575   2.574   0.525   2.450 -1.2524 -0.3573 -0.1041
 8371SOL    HW236576   2.673   0.443   2.391  1.2506  3.9574 -0.9131
 8372SOL     OW36577   2.423   2.590  13.244  0.0168 -0.2841  0.2669
 8372SOL    HW136578   2.330   2.601  13.222 -0.5626 -2.1948  1.8054
 8372SOL    HW236579   2.432   2.526  13.314 -1.9737  0.1668  0.9481
 8373SOL     OW36580   4.061   3.379   2.400 -0.0989  0.3188  0.4436
 8373SOL    HW136581   4.081   3.457   2.452  0.0146 -0.1301  1.0637
 8373SOL    HW236582   4.036   3.320   2.470 -2.2886  0.1848 -0.4706
 8374SOL     OW36583   2.848   1.311   8.144 -0.1133  0.0658 -0.2641
 8374SOL    HW136584   2.900   1.238   8.178 -3.2173 -1.5977  0.8505
 8374SOL    HW236585   2.882   1.388   8.189 -0.1007  0.5100 -1.0307
 8375SOL     OW36586   2.148   0.656   3.343  0.6298  0.5792 -0.3207
 8375SOL    HW136587   2.116   0.588   3.283 -1.6277  0.8513  0.5926
 8375SOL    HW236588   2.077   0.657   3.407  0.7961  1.0914 -0.1479
 8376SOL     OW36589   0.362   4.008   7.314 -0.4144 -0.0426  0.8518
 8376SOL    HW136590   0.387   3.956   7.391  1.3884 -3.0128 -1.7431
 8376SOL    HW236591   0.441   3.992   7.262 -1.2338  0.4906 -0.5646
 8377SOL     OW36592   1.899   0.277   3.762  0.4589 -0.2013  0.7250
 8377SOL    HW136593   1.813   0.300   3.798  0.3243  1.7037 -0.7763
 8377SOL    HW236594   1.951   0.334   3.819  0.1765 -0.0279  0.8094
 8378SOL     OW36595   4.576   2.690   2.541 -0.0071 -0.3887 -0.3040
 8378SOL    HW136596   4.649   2.700   2.601 -0.3793 -1.0539  0.2456
 8378SOL    HW236597   4.571   2.595   2.534 -0.7276 -0.4005  0.4667
 8379SOL     OW36598   1.556   1.043  16.920 -0.4866 -1.0548 -0.1910
 8379SOL    HW136599   1.579   1.004  16.835  0.7409 -1.1290  0.1752
 8379SOL    HW236600   1.497   1.114  16.894  1.5173  0.7681  0.3188
 8380SOL     OW36601   1.439   2.468   5.604  0.4221 -0.6706  0.0566
 8380SOL    HW136602   1.399   2.525   5.539  0.4762  0.6681  1.1867
 8380SOL    HW236603   1.478   2.406   5.542 -0.2281 -1.3078  0.2920
 8381SOL     OW36604   0.017   0.554   4.583 -0.0796 -0.1753  0.1856
 8381SOL    HW136605   0.003   0.537   4.490  0.0341  1.4703 -0.1284
 8381SOL    HW236606   0.071   0.479   4.609 -1.2554 -0.4798  1.7444
 8382SOL     OW36607   4.469   2.517   6.437 -0.0472 -0.1755  0.4815
 8382SOL    HW136608   4.377   2.521   6.410 -0.5354 -2.2203  1.8699
 8382SOL    HW236609   4.504   2.468   6.362  0.3126  1.7885 -0.6243
 8383SOL     OW36610   2.577   0.389   7.134 -0.1280  0.2178 -0.0518
 8383SOL    HW136611   2.540   0.470   7.100 -3.1225 -0.2712  2.1087
 8383SOL    HW236612   2.633   0.415   7.207 -0.2340  1.8324 -0.5493
 8384SOL     OW36613   1.049   1.999  17.582  0.4227  0.2420  0.3197
 8384SOL    HW136614   1.049   2.058  17.507 -0.7633  1.3494  1.1906
 8384SOL    HW236615   0.965   1.957  17.566  0.6680 -0.4440  0.8250
 8385SOL     OW36616   4.723   0.994  13.138 -0.5242  0.2048 -0.3609
 8385SOL    HW136617   0.073   1.053  13.147 -0.6698  0.6438 -2.0546
 8385SOL    HW236618   4.660   1.060  13.108  1.0654  1.3940 -1.0933
 8386SOL     OW36619   4.303   0.190   5.400  0.3138  0.0624  0.1984
 8386SOL    HW136620   4.318   0.105   5.358  2.3507  0.1994  0.6322
 8386SOL    HW236621   4.376   0.240   5.364 -0.4814  0.5127 -0.7566
 8387SOL     OW36622   3.923   1.730  13.176  0.2773 -0.1235  0.4335
 8387SOL    HW136623   3.918   1.807  13.234  0.3912  0.4206 -0.2811
 8387SOL    HW236624   4.018   1.729  13.161  0.3051  0.0900  0.5955
 8388SOL     OW36625   3.893   1.816   3.451  1.2142  0.6020 -0.4262
 8388SOL    HW136626   3.904   1.881   3.381  0.2934  1.1090 -0.1082
 8388SOL    HW236627   3.944   1.852   3.524 -0.2539  1.2788  0.2610
 8389SOL     OW36628   2.801   3.630   8.879 -0.2634  0.1565  0.1288
 8389SOL    HW136629   2.856   3.683   8.937 -2.1052  1.5311  0.6075
 8389SOL    HW236630   2.747   3.700   8.842 -0.7559  0.4132  1.3538
 8390SOL     OW36631   0.050   2.747   6.808  0.5765  0.2617 -0.6540
 8390SOL    HW136632   4.705   2.687   6.785  1.2415 -1.1962  1.0919
 8390SOL    HW236633   0.000   2.825   6.833 -0.7728  0.2616 -3.4035
 8391SOL     OW36634   2.245   4.587  14.799  0.1185  0.1344  0.8808
 8391SOL    HW136635   2.333   4.617  14.779 -0.4580  0.3728 -1.2458
 8391SOL    HW236636   2.207   4.541  14.724  0.3722 -1.0254  1.4719
 8392SOL     OW36637   1.474   4.179   5.549 -0.7181  0.0936 -0.0207
 8392SOL    HW136638   1.472   4.245   5.618  0.3000  1.7879 -1.6295
 8392SOL    HW236639   1.540   4.218   5.492  0.0037  0.2570  0.9220
 8393SOL     OW36640   2.593   0.264   3.965 -0.1895 -0.4320  0.2300
 8393SOL    HW136641   2.527   0.296   4.027 -0.9867 -1.6652  0.0113
 8393SOL    HW236642   2.610   0.176   3.998 -1.1686 -0.5278  0.4840
 8394SOL     OW36643   3.601   3.866   7.280 -0.3657  1.0127 -0.5591
 8394SOL    HW136644   3.585   3.922   7.356  3.4643  0.0728  0.9219
 8394SOL    HW236645   3.509   3.848   7.261  0.4305 -2.5715 -0.8841
 8395SOL     OW36646   4.069   4.657   3.716  0.0774 -0.2367  0.3551
 8395SOL    HW136647   4.134   4.602   3.673 -1.2647 -2.1698  0.7942
 8395SOL    HW236648   4.007   4.589   3.740  0.0780 -0.7459 -1.1017
 8396SOL     OW36649   4.309   4.153   4.303  0.5694 -0.5606  0.1794
 8396SOL    HW136650   4.278   4.178   4.390 -2.2155 -3.1174 -0.0665
 8396SOL    HW236651   4.348   4.233   4.269  0.3509  0.6517  2.7463
 8397SOL     OW36652   0.053   1.516  15.491  0.0328  0.3173 -0.1176
 8397SOL    HW136653   0.063   1.523  15.586 -1.9006 -0.7866  0.1827
 8397SOL    HW236654   4.723   1.591  15.467  0.7008  0.0293 -2.4671
 8398SOL     OW36655   3.185   1.117   5.521 -0.5466 -0.1331  0.6724
 8398SOL    HW136656   3.136   1.041   5.490 -2.0863 -0.2220  3.2309
 8398SOL    HW236657   3.127   1.193   5.530 -2.9821 -1.9979  0.6859
 8399SOL     OW36658   0.091   0.005  10.754 -0.1683  0.1409 -0.1565
 8399SOL    HW136659   0.032   4.676  10.700  0.1365  0.3180 -0.6687
 8399SOL    HW236660   0.169   4.720  10.700 -0.3671 -0.0219 -0.4163
 8400SOL     OW36661   1.100   4.107   0.963 -0.0913  0.2543  0.4715
 8400SOL    HW136662   1.055   4.155   0.894  0.0751  0.4163  0.4740
 8400SOL    HW236663   1.192   4.131   0.952 -0.4305  1.4530  0.2603
 8401SOL     OW36664   3.676   1.819   2.496  0.4788 -0.8534 -0.0340
 8401SOL    HW136665   3.716   1.771   2.424  4.8811  1.6888  0.6752
 8401SOL    HW236666   3.726   1.901   2.499  0.2179 -0.6723 -0.7096
 8402SOL     OW36667   0.997   1.452  15.194  0.3858 -0.3330  0.5641
 8402SOL    HW136668   0.982   1.371  15.144 -2.1477  0.5890 -0.1755
 8402SOL    HW236669   1.032   1.415  15.275  0.5261 -2.4169 -0.4437
 8403SOL     OW36670   4.490   2.824   6.295 -0.1599  0.7522 -0.4730
 8403SOL    HW136671   4.531   2.815   6.381  0.7196  1.5511 -0.8117
 8403SOL    HW236672   4.481   2.737   6.259  3.5574 -0.2732  1.0710
 8404SOL     OW36673   0.448   0.268  12.246  0.2280  0.2484 -0.4301
 8404SOL    HW136674   0.533   0.271  12.290 -0.7699 -0.3879  1.5576
 8404SOL    HW236675   0.474   0.221  12.167  0.7597  0.9766 -0.6793
 8405SOL     OW36676   2.743   0.988   2.385 -0.1618  0.0307  0.1685
 8405SOL    HW136677   2.648   0.980   2.373 -0.3376  1.8124  0.3175
 8405SOL    HW236678   2.748   0.959   2.476  0.2727  0.7218  0.3585
 8406SOL     OW36679   1.321   1.077   6.444 -0.2213 -0.2684  0.4822
 8406SOL    HW136680   1.374   1.000   6.464 -0.6535 -0.6426  0.1673
 8406SOL    HW236681   1.300   1.115   6.529  0.4204  1.2627 -0.0365
 8407SOL     OW36682   4.502   2.932   1.967 -0.0895 -0.5109  0.3828
 8407SOL    HW136683   4.552   3.002   1.924  0.2536 -0.1618  1.3542
 8407SOL    HW236684   4.565   2.879   2.016  0.3402  2.3876  2.9741
 8408SOL     OW36685   1.286   0.567   2.910  0.4369  0.3528  0.1370
 8408SOL    HW136686   1.274   0.508   2.835 -1.8439 -0.3986  1.0961
 8408SOL    HW236687   1.366   0.612   2.883  1.4000 -1.4438 -0.0359
 8409SOL     OW36688   3.162   1.511   6.120  0.0609  0.0675  0.1277
 8409SOL    HW136689   3.210   1.553   6.192  0.2473 -0.0099  0.0480
 8409SOL    HW236690   3.223   1.493   6.049  1.5982  0.5486  1.3163
 8410SOL     OW36691   1.033   1.905   5.565  0.2302 -0.4330 -0.2323
 8410SOL    HW136692   0.970   1.977   5.571 -2.2078 -2.7347  1.7087
 8410SOL    HW236693   1.106   1.936   5.618 -1.6726 -0.0493  2.1236
 8411SOL     OW36694   1.370   3.470   3.865  0.3106 -0.6221  0.0917
 8411SOL    HW136695   1.421   3.430   3.936  1.3903 -1.1238 -0.9778
 8411SOL    HW236696   1.286   3.445   3.905 -0.7591  0.3400 -1.5501
 8412SOL     OW36697   0.914   3.674  10.160  0.0046  0.1178 -0.0214
 8412SOL    HW136698   0.955   3.754  10.194 -3.2112  0.8635  2.0445
 8412SOL    HW236699   0.975   3.612  10.201  0.5928 -0.7475 -2.1937
 8413SOL     OW36700   2.243   1.631   5.196  0.6911  0.1053 -0.3359
 8413SOL    HW136701   2.298   1.554   5.185 -1.4133 -1.8538  2.5601
 8413SOL    HW236702   2.201   1.636   5.110  0.3846  0.4902 -0.1650
 8414SOL     OW36703   1.307   2.366  16.793  0.5838  0.5517 -0.7321
 8414SOL    HW136704   1.274   2.307  16.726  0.0662  0.0432 -0.0244
 8414SOL    HW236705   1.227   2.412  16.818  0.0267 -0.8229  0.0084
 8415SOL     OW36706   4.287   0.846   8.260 -0.2328  0.6414  0.1509
 8415SOL    HW136707   4.378   0.826   8.284  0.2308  0.8439 -1.4851
 8415SOL    HW236708   4.298   0.941   8.259 -1.2368  0.7339 -1.3405
 8416SOL     OW36709   3.923   1.217   6.531 -0.0156 -0.4855  0.0419
 8416SOL    HW136710   3.919   1.272   6.610  0.2988  0.9102 -0.9197
 8416SOL    HW236711   3.927   1.130   6.571 -0.3415  0.7601  2.7673
 8417SOL     OW36712   0.286   0.974   2.783 -0.1382 -0.1057  0.1500
 8417SOL    HW136713   0.272   1.055   2.734 -0.4136  0.0305  0.4514
 8417SOL    HW236714   0.381   0.967   2.774  0.0748  2.1764  0.6582
 8418SOL     OW36715   4.300   4.668  13.186 -0.0887 -0.2264  0.1061
 8418SOL    HW136716   4.363   0.003  13.146 -1.4775 -0.3222 -2.2547
 8418SOL    HW236717   4.323   4.576  13.176  0.1417 -0.1271 -0.2808
 8419SOL     OW36718   4.475   2.652   8.101  0.1091 -0.0788 -0.8405
 8419SOL    HW136719   4.381   2.634   8.111 -0.0816  1.7813  0.5458
 8419SOL    HW236720   4.469   2.737   8.143 -1.2674 -0.2560 -0.6779
 8420SOL     OW36721   2.055   2.669   6.310 -0.6160 -0.5834 -0.4784
 8420SOL    HW136722   1.995   2.643   6.380  3.8652 -0.8756  3.3330
 8420SOL    HW236723   2.122   2.602   6.322 -1.3509 -0.6607  3.4492
 8421SOL     OW36724   1.605   4.257   3.811 -0.1915  0.1026 -0.6478
 8421SOL    HW136725   1.537   4.260   3.878  1.0139 -0.0945  0.5793
 8421SOL    HW236726   1.654   4.336   3.832  1.0127 -0.7514 -0.2414
 8422SOL     OW36727   4.455   0.896   7.438  0.6249  0.2778  0.2678
 8422SOL    HW136728   4.459   0.831   7.368 -2.8004 -1.2809  1.4923
 8422SOL    HW236729   4.490   0.848   7.513  1.5541 -1.2966 -1.1841
 8423SOL     OW36730   2.258   0.402   5.582 -1.1499 -0.2993  0.4395
 8423SOL    HW136731   2.351   0.408   5.561 -1.5688  0.3432 -1.1667
 8423SOL    HW236732   2.229   0.345   5.511 -2.0308  1.3850 -0.5604
 8424SOL     OW36733   0.818   4.563  15.572 -0.5621 -0.4474  0.1155
 8424SOL    HW136734   0.885   4.495  15.562 -0.9962 -0.7000 -1.0680
 8424SOL    HW236735   0.841   4.613  15.651  1.0923 -0.9199 -0.0580
 8425SOL     OW36736   3.505   2.550  13.769  0.3357  0.4487 -0.0973
 8425SOL    HW136737   3.435   2.486  13.774  0.1945  0.6314  0.2773
 8425SOL    HW236738   3.486   2.606  13.693 -1.1281  2.8813  2.0809
 8426SOL     OW36739   4.275   3.654   5.082  0.0451 -0.7278 -0.1006
 8426SOL    HW136740   4.296   3.603   5.004 -0.7333 -0.9310 -0.1737
 8426SOL    HW236741   4.226   3.594   5.137  0.8187 -1.7697 -0.5525
 8427SOL     OW36742   3.561   4.141   0.305  0.3447  0.2916  0.5985
 8427SOL    HW136743   3.595   4.052   0.305 -0.0276  0.1547  2.4355
 8427SOL    HW236744   3.484   4.141   0.247  0.4685  1.4377  0.4272
 8428SOL     OW36745   2.707   2.101   5.969 -0.1461 -0.1201 -0.4158
 8428SOL    HW136746   2.719   2.045   6.046  0.1436 -2.1200 -1.8872
 8428SOL    HW236747   2.640   2.056   5.917 -1.4598  1.5562 -0.1307
 8429SOL     OW36748   2.453   0.623   7.035 -0.2684 -0.5927 -0.3651
 8429SOL    HW136749   2.393   0.674   7.089 -1.2633 -1.6463 -0.4654
 8429SOL    HW236750   2.514   0.688   7.001  0.9798 -0.5592  1.9215
 8430SOL     OW36751   4.462   1.156  10.933  0.2682 -0.1401 -0.1260
 8430SOL    HW136752   4.527   1.147  10.863  0.5982  1.3041 -0.0058
 8430SOL    HW236753   4.514   1.170  11.012 -0.6630 -1.0436  0.6503
 8431SOL     OW36754   1.563   4.704  10.960  0.0329 -0.2208 -1.0082
 8431SOL    HW136755   1.624   0.049  10.938 -2.1251  1.5699 -1.3000
 8431SOL    HW236756   1.603   4.695  11.047 -0.8048 -0.1809 -0.6129
 8432SOL     OW36757   1.685   1.432   6.114  0.1717 -0.0625  0.1204
 8432SOL    HW136758   1.695   1.412   6.021  1.1470  2.6337 -0.3249
 8432SOL    HW236759   1.594   1.409   6.135  0.1329  1.7686  1.9181
 8433SOL     OW36760   2.233   1.527  10.748  0.3597 -0.3395  0.1025
 8433SOL    HW136761   2.194   1.580  10.679  0.3533 -0.4946 -0.0134
 8433SOL    HW236762   2.324   1.514  10.718  0.2102 -1.5529  0.1778
 8434SOL     OW36763   4.341   0.906  15.581 -0.0304 -0.2588  0.8563
 8434SOL    HW136764   4.266   0.883  15.527  3.9185 -0.4678 -4.4831
 8434SOL    HW236765   4.349   0.999  15.559 -3.6761 -0.3325 -0.7379
 8435SOL     OW36766   2.792   2.016   4.296  0.2793  0.1201  0.6142
 8435SOL    HW136767   2.778   2.058   4.381 -1.2619  1.5958 -0.3855
 8435SOL    HW236768   2.882   2.038   4.271  0.4787 -0.1081  1.1116
 8436SOL     OW36769   0.225   2.345   5.704  0.3922  0.1841 -0.0977
 8436SOL    HW136770   0.137   2.377   5.684 -0.8228 -1.9666  1.6830
 8436SOL    HW236771   0.239   2.278   5.637  0.0381  0.5386 -0.5159
 8437SOL     OW36772   0.239   4.474   9.867  0.6858 -0.2561 -0.3294
 8437SOL    HW136773   0.245   4.399   9.809 -0.1457 -0.7104  0.1753
 8437SOL    HW236774   0.151   4.456   9.902  0.1569  0.0792 -1.4839
 8438SOL     OW36775   1.397   3.516   3.056 -0.5325 -0.1426 -0.3889
 8438SOL    HW136776   1.312   3.528   3.098 -0.0384  1.1431  0.2326
 8438SOL    HW236777   1.448   3.477   3.127 -0.4042  0.5275 -0.1086
 8439SOL     OW36778   3.180   0.145  12.940  0.7416  0.4561  0.2065
 8439SOL    HW136779   3.172   0.221  12.997 -3.9433  0.8511 -0.9319
 8439SOL    HW236780   3.270   0.156  12.909 -0.3091  0.6882 -2.8069
 8440SOL     OW36781   1.884   2.740   6.720 -0.1012  0.1080  0.4701
 8440SOL    HW136782   1.937   2.810   6.683 -2.9838  2.0866  0.1581
 8440SOL    HW236783   1.798   2.775   6.744 -0.3363 -0.5830  0.6449
 8441SOL     OW36784   1.769   1.482   0.822  0.0695 -0.5122  0.2543
 8441SOL    HW136785   1.846   1.530   0.851  1.7610 -0.8774 -3.6009
 8441SOL    HW236786   1.715   1.552   0.785  1.7484 -0.0857 -1.4048
 8442SOL     OW36787   1.503   0.918  10.725 -0.1237 -0.3196 -0.3787
 8442SOL    HW136788   1.594   0.888  10.725  0.4720  1.4856  1.8827
 8442SOL    HW236789   1.512   1.013  10.716  0.0968 -0.3601 -0.5790
 8443SOL     OW36790   1.520   2.146   3.968  0.3835  0.1053 -0.4205
 8443SOL    HW136791   1.551   2.063   4.005 -1.3465  1.2025  3.5103
 8443SOL    HW236792   1.599   2.201   3.973  1.9476 -2.4473  3.4462
 8444SOL     OW36793   4.070   2.082  10.139 -0.1847  0.3098  0.4649
 8444SOL    HW136794   4.154   2.083  10.093  0.5996 -1.8693  1.7897
 8444SOL    HW236795   4.043   1.990  10.138  2.1335 -0.3332 -1.2918
 8445SOL     OW36796   1.430   2.554   7.277 -0.4309 -0.0850 -0.0162
 8445SOL    HW136797   1.488   2.599   7.216  0.7228 -0.3300  0.8956
 8445SOL    HW236798   1.457   2.600   7.357  0.6648  0.5548 -0.7612
 8446SOL     OW36799   3.043   3.488  11.432  0.3266 -0.0688  0.8094
 8446SOL    HW136800   3.086   3.492  11.517  0.6168  2.0451  0.5592
 8446SOL    HW236801   2.967   3.434  11.454 -0.0715  0.3372  0.4288
 8447SOL     OW36802   1.142   3.283   8.737 -0.1555 -0.0594 -0.7411
 8447SOL    HW136803   1.156   3.375   8.760 -0.0593 -0.2697  0.0622
 8447SOL    HW236804   1.224   3.236   8.748  1.3800  2.9325  0.7719
 8448SOL     OW36805   0.465   2.888   1.230  0.3258 -0.6061 -0.2441
 8448SOL    HW136806   0.466   2.832   1.152  0.7432 -0.3965 -0.3898
 8448SOL    HW236807   0.380   2.868   1.269  1.3762 -2.0062  1.3537
 8449SOL     OW36808   0.452   0.907   6.096 -0.2236 -0.1397  0.0037
 8449SOL    HW136809   0.462   1.001   6.082 -1.2632  0.0587  0.5992
 8449SOL    HW236810   0.542   0.889   6.070  1.1362  1.8062  3.4826
 8450SOL     OW36811   1.972   2.842   2.697 -0.0558 -0.1076  0.0481
 8450SOL    HW136812   1.884   2.814   2.721  0.9119 -1.6241  1.8391
 8450SOL    HW236813   1.956   2.873   2.608 -2.8195 -0.4218  0.4504
 8451SOL     OW36814   1.215   1.661   0.279 -0.5530  0.0683  0.5802
 8451SOL    HW136815   1.240   1.616   0.360 -0.6291 -0.2751  0.4107
 8451SOL    HW236816   1.278   1.733   0.276 -1.5793  0.9773  0.4790
 8452SOL     OW36817   3.644   4.252   6.370  0.3416 -0.0230  0.1457
 8452SOL    HW136818   3.597   4.232   6.289 -0.6733  0.5544  0.5831
 8452SOL    HW236819   3.690   4.331   6.342 -3.8685  2.7360  0.9495
 8453SOL     OW36820   1.912   4.649   5.996 -0.1907  0.0976  0.0215
 8453SOL    HW136821   1.953   4.723   6.040  1.1420  0.3453 -1.6422
 8453SOL    HW236822   1.962   4.580   6.040  0.8490  1.0876  0.4179
 8454SOL     OW36823   2.212   0.981   6.779  0.2486  0.2597 -0.3190
 8454SOL    HW136824   2.307   0.972   6.785 -0.0303 -1.2938  1.7237
 8454SOL    HW236825   2.197   1.040   6.705  1.4326 -0.1775 -0.9009
 8455SOL     OW36826   3.999   1.715   8.747  0.3478 -0.1820 -0.7116
 8455SOL    HW136827   4.013   1.806   8.721 -1.0300  0.7403  1.7915
 8455SOL    HW236828   3.944   1.695   8.670 -1.0836  0.6562  0.0920
 8456SOL     OW36829   4.427   2.474   7.213  0.2469 -0.3090 -0.1950
 8456SOL    HW136830   4.495   2.408   7.209  0.3548 -0.3181  1.6172
 8456SOL    HW236831   4.479   2.548   7.184 -1.0439 -0.8630 -3.9716
 8457SOL     OW36832   1.206   0.233   0.279 -0.1188 -0.2837 -0.4368
 8457SOL    HW136833   1.226   0.255   0.370  3.4390  0.8273 -1.4847
 8457SOL    HW236834   1.139   0.167   0.296  1.4282 -1.2079  2.2553
 8458SOL     OW36835   2.149   0.936  16.318  0.2427 -0.3181  0.3293
 8458SOL    HW136836   2.184   0.901  16.400  0.0440 -1.3103 -0.0212
 8458SOL    HW236837   2.058   0.960  16.337 -0.0371 -2.5701  1.7341
 8459SOL     OW36838   3.095   1.142   1.519 -0.3722  0.2173  0.5942
 8459SOL    HW136839   3.183   1.157   1.484  0.5908 -1.7992  2.1133
 8459SOL    HW236840   3.059   1.088   1.448  3.5063 -1.6994  0.0709
 8460SOL     OW36841   3.837   1.184   4.408 -0.1085  0.2089  0.1453
 8460SOL    HW136842   3.762   1.214   4.356  0.1616  1.8178  0.6936
 8460SOL    HW236843   3.903   1.251   4.390 -0.9027  0.4548 -1.8999
 8461SOL     OW36844   0.367   0.839   9.617 -0.1497 -0.1200 -0.0558
 8461SOL    HW136845   0.305   0.896   9.572  2.2253  0.5169 -2.5233
 8461SOL    HW236846   0.330   0.757   9.585  1.1181 -0.9891  0.7027
 8462SOL     OW36847   2.017   0.215   3.014  0.1248 -0.3060  0.0225
 8462SOL    HW136848   2.053   0.242   2.930  2.8675  0.9779  1.6075
 8462SOL    HW236849   1.937   0.268   3.015  0.0932 -0.3610  0.7380
 8463SOL     OW36850   4.469   3.994   4.173 -0.3589  0.1332 -0.1144
 8463SOL    HW136851   4.399   4.042   4.218  0.7022  0.3780  1.2667
 8463SOL    HW236852   4.542   4.039   4.216  0.4631 -0.8746 -0.4666
 8464SOL     OW36853   3.914   0.268   7.133 -0.2531  0.0887  0.3641
 8464SOL    HW136854   3.900   0.256   7.039  1.6042 -0.7193  0.2012
 8464SOL    HW236855   3.828   0.305   7.153  0.8708  1.9403  1.7023
 8465SOL     OW36856   2.712   4.476  13.523 -0.4223 -0.6869  0.2713
 8465SOL    HW136857   2.712   4.381  13.516 -0.2489 -0.7307  0.8573
 8465SOL    HW236858   2.658   4.493  13.446  1.3778  0.4555 -0.7188
 8466SOL     OW36859   4.526   0.373   5.340 -0.1850  0.2112  0.4297
 8466SOL    HW136860   4.614   0.369   5.302 -0.3059  1.0989  0.0622
 8466SOL    HW236861   4.481   0.423   5.272 -1.2792 -1.4432 -0.0730
 8467SOL     OW36862   1.034   3.650   4.271 -0.1865  0.6707  0.5128
 8467SOL    HW136863   1.123   3.618   4.285  0.4744  1.3186 -2.1788
 8467SOL    HW236864   0.988   3.588   4.327  1.4753 -2.5058 -1.6582
 8468SOL     OW36865   0.055   2.286  14.497 -0.2866 -0.2239 -0.0968
 8468SOL    HW136866   0.067   2.267  14.590  4.1027  1.7647 -0.2515
 8468SOL    HW236867   0.022   2.206  14.457 -1.0061 -0.7091  1.5045
 8469SOL     OW36868   3.285   0.681   6.525  0.1442  0.3918 -0.0860
 8469SOL    HW136869   3.262   0.765   6.565  0.1693 -0.1747  1.1288
 8469SOL    HW236870   3.311   0.721   6.442  1.6889  0.8733  0.6366
 8470SOL     OW36871   1.953   1.496  15.933  0.3828 -0.0614  0.1873
 8470SOL    HW136872   1.879   1.474  15.989 -1.1832  1.4633 -1.3075
 8470SOL    HW236873   2.001   1.561  15.983 -0.7359  1.1129 -0.2605
 8471SOL     OW36874   2.570   3.179   2.447 -0.4315  0.2082 -0.0826
 8471SOL    HW136875   2.516   3.105   2.419  0.9936 -0.3945 -1.2199
 8471SOL    HW236876   2.632   3.193   2.376 -0.4585 -0.5240 -0.2469
 8472SOL     OW36877   4.525   0.399   8.882 -0.9528 -0.3696 -0.1300
 8472SOL    HW136878   4.590   0.366   8.821 -1.4492 -0.0390 -0.8335
 8472SOL    HW236879   4.498   0.317   8.923 -2.4886 -0.2858 -0.9635
 8473SOL     OW36880   0.764   1.908   2.462  0.2773  0.0352 -0.4740
 8473SOL    HW136881   0.754   1.855   2.383 -1.5198 -0.2978 -0.0181
 8473SOL    HW236882   0.674   1.903   2.495  0.3669  2.1124  0.1103
 8474SOL     OW36883   1.286   1.584   0.548 -0.6107  0.5114 -1.0481
 8474SOL    HW136884   1.381   1.574   0.542 -0.6351 -0.8481  0.7572
 8474SOL    HW236885   1.273   1.646   0.620  1.0479 -0.6858  0.2708
 8475SOL     OW36886   0.038   2.158   4.731 -0.7604 -0.4076  0.5057
 8475SOL    HW136887   0.006   2.202   4.809 -0.2965  2.5133 -0.9190
 8475SOL    HW236888   4.706   2.192   4.662  0.8673  0.2321 -0.5474
 8476SOL     OW36889   4.301   1.111  17.537  0.0486  0.1358  0.6268
 8476SOL    HW136890   4.222   1.090  17.488 -0.5849  2.2333  0.7423
 8476SOL    HW236891   4.333   1.189  17.493 -0.9217  0.5843  0.7246
 8477SOL     OW36892   1.369   4.162   0.845  0.2205 -0.1264  0.7551
 8477SOL    HW136893   1.449   4.192   0.803  0.5447 -1.1223  0.6638
 8477SOL    HW236894   1.363   4.072   0.813  1.2774 -0.6460  1.9928
 8478SOL     OW36895   0.663   1.929   8.005 -0.1052 -0.3205 -0.2476
 8478SOL    HW136896   0.655   1.982   8.084 -2.0891  0.0623 -0.7173
 8478SOL    HW236897   0.584   1.949   7.957  1.2189 -1.3126 -2.8257
 8479SOL     OW36898   2.072   2.120   7.746 -0.5634 -0.0335  0.1811
 8479SOL    HW136899   2.028   2.204   7.762  1.0733  1.3350 -2.4365
 8479SOL    HW236900   2.143   2.145   7.687  1.5247  0.2552  2.8286
 8480SOL     OW36901   1.174   1.362   2.216  0.3883 -0.2196 -0.1057
 8480SOL    HW136902   1.087   1.380   2.252 -0.0219 -1.5787 -0.4235
 8480SOL    HW236903   1.214   1.447   2.237 -0.8902  0.1532  0.7770
 8481SOL     OW36904   0.152   0.671  11.944 -0.1627  0.0075 -0.8463
 8481SOL    HW136905   0.084   0.633  11.889  1.3118 -1.9227 -1.3361
 8481SOL    HW236906   0.133   0.764  11.930 -0.3073  0.0202 -0.5568
 8482SOL     OW36907   2.859   0.949   1.752  0.1369  0.3373 -0.9085
 8482SOL    HW136908   2.872   0.869   1.804  1.0295  1.2808  0.3014
 8482SOL    HW236909   2.815   0.921   1.672  1.3914 -0.6743 -1.2236
 8483SOL     OW36910   0.256   3.526   2.126  0.4058  0.1227  0.3530
 8483SOL    HW136911   0.259   3.610   2.080  2.9292 -0.6087 -0.7732
 8483SOL    HW236912   0.343   3.492   2.106  0.2021  1.7370 -3.2624
 8484SOL     OW36913   2.500   2.975  14.020  0.4363 -0.8789  0.2439
 8484SOL    HW136914   2.518   3.052  14.074  0.7900 -1.3897  0.8566
 8484SOL    HW236915   2.566   2.910  14.045  0.4777 -1.8378 -2.3378
 8485SOL     OW36916   4.129   1.058   7.496  0.7398 -0.4078  0.0865
 8485SOL    HW136917   4.174   0.973   7.494  1.2488 -0.1341 -0.1207
 8485SOL    HW236918   4.111   1.072   7.403  1.5083 -2.2642 -0.3336
 8486SOL     OW36919   0.940   1.768   9.214  0.7550  0.5455  0.3619
 8486SOL    HW136920   0.894   1.748   9.295 -0.2496 -1.9072 -0.8240
 8486SOL    HW236921   1.001   1.693   9.215 -0.1717 -0.1785  2.2300
 8487SOL     OW36922   1.538   2.061   5.471 -0.3616 -0.4073 -0.0882
 8487SOL    HW136923   1.582   2.142   5.446  1.1408 -0.1665  3.3740
 8487SOL    HW236924   1.612   2.006   5.497  1.8878  2.8618  0.4376
 8488SOL     OW36925   1.793   0.541   6.915  0.5175  0.0544 -0.6116
 8488SOL    HW136926   1.807   0.447   6.908  0.1516 -0.1331  1.1149
 8488SOL    HW236927   1.869   0.574   6.964 -0.1141 -0.3554  0.6305
 8489SOL     OW36928   2.302   3.445   4.119 -0.4899 -0.3569  0.2072
 8489SOL    HW136929   2.217   3.470   4.083 -0.6875  2.1792  2.4016
 8489SOL    HW236930   2.357   3.508   4.072  0.5919 -1.0667  0.5055
 8490SOL     OW36931   2.392   0.109  15.359 -0.3550  0.0621 -0.4042
 8490SOL    HW136932   2.339   0.080  15.285 -0.5526  0.1328 -0.2913
 8490SOL    HW236933   2.421   0.197  15.334  0.5517  0.0489  0.5846
 8491SOL     OW36934   0.217   1.304  13.141 -0.1782 -0.6629  0.9722
 8491SOL    HW136935   0.186   1.264  13.222  1.0187 -1.8391  0.8559
 8491SOL    HW236936   0.157   1.378  13.131  0.5695 -0.2752 -0.7388
 8492SOL     OW36937   3.001   2.061   7.277  0.0195  0.6451  0.6300
 8492SOL    HW136938   2.993   2.031   7.186 -2.1015  0.9328  0.7351
 8492SOL    HW236939   2.913   2.082   7.306 -0.2367  0.7037 -0.1865
 8493SOL     OW36940   2.923   4.009  16.793 -0.7086 -0.2023 -0.4222
 8493SOL    HW136941   2.941   4.029  16.701  1.2171 -0.9685 -0.1975
 8493SOL    HW236942   2.925   3.913  16.794 -2.6056 -0.2425 -0.9124
 8494SOL     OW36943   0.921   0.327   2.180  0.3403  0.1818  0.4732
 8494SOL    HW136944   0.909   0.336   2.275  2.2766 -0.0837  0.7429
 8494SOL    HW236945   0.842   0.276   2.163  1.3918 -1.1740 -0.3512
 8495SOL     OW36946   2.482   1.556   8.584  0.3473  0.7915 -0.0664
 8495SOL    HW136947   2.425   1.633   8.581 -0.3850  0.3345  1.7582
 8495SOL    HW236948   2.568   1.598   8.587  2.3459 -3.3911  1.0967
 8496SOL     OW36949   2.582   4.294   5.165  0.1071 -0.1766 -0.0411
 8496SOL    HW136950   2.584   4.388   5.149 -0.4132  0.1088  1.5229
 8496SOL    HW236951   2.523   4.262   5.097 -0.3451  0.9586 -0.1834
 8497SOL     OW36952   2.204   3.494   1.291  0.6464  0.4466  0.3468
 8497SOL    HW136953   2.296   3.467   1.289 -0.1386 -2.3635  1.9943
 8497SOL    HW236954   2.173   3.433   1.358  1.8703  0.8987  1.3291
 8498SOL     OW36955   0.653   3.757  16.178 -0.3627  0.3390  0.1563
 8498SOL    HW136956   0.730   3.703  16.194 -0.9924 -0.6451 -0.1468
 8498SOL    HW236957   0.707   3.822  16.134 -0.3404  1.5273  1.9176
 8499SOL     OW36958   2.162   2.352   5.958 -0.4013 -1.0977 -0.1176
 8499SOL    HW136959   2.126   2.301   5.885  0.1455 -2.2790  0.4333
 8499SOL    HW236960   2.134   2.301   6.034 -1.8497 -0.5736 -0.2901
 8500SOL     OW36961   3.299   1.701   2.923  0.1786 -0.1248  0.8721
 8500SOL    HW136962   3.234   1.667   2.860  2.1064  0.8362 -1.5980
 8500SOL    HW236963   3.347   1.757   2.863  0.1176 -2.7484 -1.6125
 8501SOL     OW36964   4.510   0.877  15.970  0.2769 -0.4449  0.0160
 8501SOL    HW136965   4.451   0.850  16.040  0.7413 -2.2612 -0.2992
 8501SOL    HW236966   4.448   0.921  15.911 -1.0631  1.0327  2.5134
 8502SOL     OW36967   0.814   3.483  16.916 -0.1590  0.2105  0.3377
 8502SOL    HW136968   0.906   3.461  16.904 -0.4358 -1.3839  1.2162
 8502SOL    HW236969   0.778   3.405  16.958 -0.2032 -0.6488 -1.2645
 8503SOL     OW36970   1.544   3.194  13.586  0.3886  0.6586  0.1286
 8503SOL    HW136971   1.478   3.244  13.635  2.3842  2.4559  0.9562
 8503SOL    HW236972   1.499   3.203  13.501  0.7552  1.5916  0.0308
 8504SOL     OW36973   1.186   1.648   5.281 -0.2523  0.0511 -0.3818
 8504SOL    HW136974   1.266   1.699   5.294 -1.5076  1.2337  2.7938
 8504SOL    HW236975   1.231   1.564   5.286 -2.7415 -1.2191  0.5158
 8505SOL     OW36976   3.656   3.503   2.870  0.3154 -0.4838  0.0412
 8505SOL    HW136977   3.720   3.574   2.861  0.2130 -0.4503 -0.4255
 8505SOL    HW236978   3.719   3.434   2.892  0.1776 -1.2647 -2.0110
 8506SOL     OW36979   2.754   0.568  16.738  0.0872 -0.1648  0.4006
 8506SOL    HW136980   2.707   0.642  16.700  0.4535 -1.5974 -2.7660
 8506SOL    HW236981   2.845   0.596  16.746 -0.5646  0.8650  4.1884
 8507SOL     OW36982   2.850   0.426   4.883 -0.3746 -0.1768  0.3709
 8507SOL    HW136983   2.835   0.467   4.968  0.7033 -0.4466  0.7015
 8507SOL    HW236984   2.872   0.335   4.902  0.5673  0.7809  3.9732
 8508SOL     OW36985   0.843   3.816   7.348  0.5853  0.2410  0.1353
 8508SOL    HW136986   0.919   3.861   7.312  0.5503 -0.5884 -0.9926
 8508SOL    HW236987   0.880   3.768   7.423  3.1676 -0.3079 -1.4761
 8509SOL     OW36988   0.799   3.255   6.976  0.1852  0.0389  0.5226
 8509SOL    HW136989   0.857   3.186   7.008  1.3993  0.7480 -0.1509
 8509SOL    HW236990   0.847   3.337   6.976 -2.6229  1.6923 -2.1223
 8510SOL     OW36991   4.071   4.418  13.247  0.0042  0.1199 -0.6857
 8510SOL    HW136992   4.162   4.421  13.218  0.9648 -1.5854  2.0632
 8510SOL    HW236993   4.059   4.498  13.299 -0.1891 -0.1421 -0.3306
 8511SOL     OW36994   4.219   2.426   5.266 -0.7817 -0.4482 -0.4004
 8511SOL    HW136995   4.183   2.382   5.343  0.7551  1.3426  1.3500
 8511SOL    HW236996   4.139   2.474   5.244 -0.5442  0.0578 -0.1605
 8512SOL     OW36997   0.028   4.113   5.267  0.2951  0.3788  0.0609
 8512SOL    HW136998   4.717   4.075   5.347 -1.3970 -2.0940 -1.9092
 8512SOL    HW236999   4.695   4.079   5.200  0.8424 -0.6633  0.1140
 8513SOL     OW37000   0.528   0.114  14.855 -0.2453 -1.2454  0.3630
 8513SOL    HW137001   0.615   0.154  14.853 -0.5746 -0.5984 -0.8383
 8513SOL    HW237002   0.494   0.163  14.780  2.5762  1.6588  1.0245
 8514SOL     OW37003   0.008   4.690   6.470  0.3793 -0.5229  0.0573
 8514SOL    HW137004   0.082   0.025   6.463 -1.3456  1.8202  2.1581
 8514SOL    HW237005   4.685   0.012   6.538 -2.2412 -0.9410 -1.5047
 8515SOL     OW37006   2.382   0.830   7.608  0.1828  0.4497 -0.1791
 8515SOL    HW137007   2.303   0.776   7.617 -0.7637  1.8871  0.0505
 8515SOL    HW237008   2.440   0.809   7.682 -0.1880  0.0503 -0.0013
 8516SOL     OW37009   3.717   0.682   3.170  0.5582  0.1352 -0.0864
 8516SOL    HW137010   3.739   0.603   3.219 -0.3101  0.1864  0.4008
 8516SOL    HW237011   3.645   0.671   3.108  0.6228  0.5852 -0.2375
 8517SOL     OW37012   3.776   0.475   9.550  0.2692 -0.2266  0.7363
 8517SOL    HW137013   3.795   0.554   9.500 -2.7016  1.7330  2.7165
 8517SOL    HW237014   3.744   0.516   9.630 -2.0888 -0.1686 -0.2376
 8518SOL     OW37015   3.532   0.732  16.745  0.0621  0.2265  0.0266
 8518SOL    HW137016   3.456   0.783  16.770  1.1644  1.6409  0.4767
 8518SOL    HW237017   3.565   0.705  16.830 -1.7841  2.1355  1.3182
 8519SOL     OW37018   1.544   1.477   1.912 -0.0046 -0.2358 -0.1327
 8519SOL    HW137019   1.489   1.510   1.842 -0.9361 -1.0362  0.2189
 8519SOL    HW237020   1.617   1.461   1.852  0.3818 -0.8393  0.4984
 8520SOL     OW37021   0.604   1.889   6.374 -0.0193 -0.7793  0.3583
 8520SOL    HW137022   0.534   1.840   6.333 -1.4826  1.6191 -0.0106
 8520SOL    HW237023   0.679   1.832   6.357  0.4929 -0.5238  1.6774
 8521SOL     OW37024   2.769   0.930   7.243  0.1405 -0.3379 -0.1857
 8521SOL    HW137025   2.837   0.945   7.308 -0.0299  0.9995 -0.3326
 8521SOL    HW237026   2.687   0.929   7.291 -0.3473 -1.1531 -1.0312
 8522SOL     OW37027   0.755   2.119  11.196  0.4762  0.0127 -0.3092
 8522SOL    HW137028   0.664   2.093  11.205 -0.3687  2.2500 -2.3828
 8522SOL    HW237029   0.798   2.040  11.163  1.6909 -0.1496  1.6532
 8523SOL     OW37030   1.572   4.316   1.266 -0.7515 -0.1451 -0.4592
 8523SOL    HW137031   1.514   4.341   1.194  1.2843  2.0245 -1.3587
 8523SOL    HW237032   1.605   4.235   1.229  0.9078  0.4044 -0.1659
 8524SOL     OW37033   2.952   1.110   9.081  0.4097 -0.0380 -0.1405
 8524SOL    HW137034   2.967   1.097   8.987  0.0145 -0.2559 -0.1743
 8524SOL    HW237035   3.000   1.190   9.101  0.6496  0.1273 -1.3694
 8525SOL     OW37036   2.808   1.751   1.682 -0.0204 -0.2766  0.5268
 8525SOL    HW137037   2.723   1.797   1.682 -0.3420 -0.8706  0.5080
 8525SOL    HW237038   2.784   1.662   1.656  1.5168 -0.3759 -0.5025
 8526SOL     OW37039   2.586   4.419   0.776  0.0925 -0.6000  0.5119
 8526SOL    HW137040   2.509   4.363   0.788 -0.6402  0.4717  0.7680
 8526SOL    HW237041   2.550   4.503   0.749 -0.4407 -0.8824  0.3416
 8527SOL     OW37042   2.510   4.091  17.676  0.1185  0.3850 -0.1397
 8527SOL    HW137043   2.566   4.156  17.633  1.7053 -1.1238 -0.3505
 8527SOL    HW237044   2.495   4.021  17.612  0.9259 -0.3734  0.4953
 8528SOL     OW37045   2.043   1.696  12.864 -0.6120 -0.0565  0.3492
 8528SOL    HW137046   2.094   1.639  12.920  0.9752  1.8961  0.8632
 8528SOL    HW237047   2.108   1.756  12.828  0.4282  0.9287  3.8978
 8529SOL     OW37048   0.880   1.978  12.578  0.5296 -0.0321 -0.0695
 8529SOL    HW137049   0.937   1.994  12.503 -0.0390 -0.6018 -0.6177
 8529SOL    HW237050   0.944   2.004  12.644 -0.8464  1.8846  0.5276
 8530SOL     OW37051   3.656   1.920   1.032  0.2382 -0.0115 -0.2099
 8530SOL    HW137052   3.652   2.014   1.017  2.8834  0.2708  0.6860
 8530SOL    HW237053   3.570   1.899   0.996  0.0242  0.1424  0.2136
 8531SOL     OW37054   4.297   4.242   6.747  0.3250  0.7495 -0.7832
 8531SOL    HW137055   4.226   4.303   6.763  0.3208  0.7927 -0.9684
 8531SOL    HW237056   4.256   4.179   6.687  0.3054 -1.4769  1.5869
 8532SOL     OW37057   1.285   2.243   2.813  0.0974  0.4116 -0.0840
 8532SOL    HW137058   1.325   2.236   2.726  0.4108  2.9279 -0.1589
 8532SOL    HW237059   1.255   2.334   2.812  1.1780  0.7533 -2.3558
 8533SOL     OW37060   1.046   0.851  10.591 -0.5456  0.4111  0.1874
 8533SOL    HW137061   1.043   0.766  10.636 -0.2363  0.3859  0.1601
 8533SOL    HW237062   1.116   0.838  10.527  0.5493  2.4073  0.9738
 8534SOL     OW37063   0.154   2.307   6.715  0.3696  0.5059  0.2064
 8534SOL    HW137064   0.198   2.248   6.653 -2.4394  0.7048 -1.9755
 8534SOL    HW237065   0.226   2.349   6.761  0.9088 -0.3075  0.1148
 8535SOL     OW37066   0.821   1.342   8.964 -0.3643 -0.8073  0.3721
 8535SOL    HW137067   0.834   1.279   9.035  3.3331  2.7868  2.8250
 8535SOL    HW237068   0.736   1.318   8.927  0.5124 -0.7125 -1.6887
 8536SOL     OW37069   0.032   1.096   7.138  0.0761 -0.1608 -0.4561
 8536SOL    HW137070   0.046   1.072   7.229  1.7134  0.0967 -0.6362
 8536SOL    HW237071   4.706   1.177   7.141  2.1592  1.1299  0.2008
 8537SOL     OW37072   2.682   1.107  17.167 -0.0824 -0.1474  0.5579
 8537SOL    HW137073   2.758   1.070  17.212  0.8236  0.8128 -0.1877
 8537SOL    HW237074   2.615   1.054  17.211  0.7706 -0.7694  1.1135
 8538SOL     OW37075   1.492   3.084  14.746  0.0140  0.3780 -0.1981
 8538SOL    HW137076   1.440   3.104  14.669 -1.1411 -0.0927  0.4537
 8538SOL    HW237077   1.457   2.999  14.772  1.7834 -0.0052  0.9322
 8539SOL     OW37078   1.485   1.522   1.619 -0.5457 -0.0849  0.6825
 8539SOL    HW137079   1.444   1.607   1.602  0.1016  0.3547  1.3623
 8539SOL    HW237080   1.435   1.480   1.549 -2.1737  1.5593  0.8481
 8540SOL     OW37081   0.859   0.783   1.024 -0.1028 -0.0160  0.4085
 8540SOL    HW137082   0.933   0.728   1.000 -1.2121  0.2890 -3.5799
 8540SOL    HW237083   0.805   0.764   0.947  0.3162 -1.3337  0.4470
 8541SOL     OW37084   3.230   0.105   3.832 -0.3089  0.0028 -0.0776
 8541SOL    HW137085   3.299   0.076   3.774  0.6449 -0.0688  1.0990
 8541SOL    HW237086   3.183   0.024   3.850 -2.3261  1.2997  0.5822
 8542SOL     OW37087   0.159   3.351   3.498 -0.3153  0.5409 -0.0075
 8542SOL    HW137088   0.157   3.406   3.419  1.6266  2.5617  1.3829
 8542SOL    HW237089   0.155   3.410   3.573 -0.0734 -1.4328  1.5425
 8543SOL     OW37090   4.260   0.183   3.476 -0.3895 -0.1448 -0.0199
 8543SOL    HW137091   4.244   0.224   3.561  1.3329  0.3041  0.0870
 8543SOL    HW237092   4.320   0.114   3.506 -1.0404  0.0570  1.7497
 8544SOL     OW37093   1.880   1.648   2.012 -0.3915  0.4594 -0.3943
 8544SOL    HW137094   1.956   1.638   2.069 -0.4066  1.2558 -0.2380
 8544SOL    HW237095   1.919   1.652   1.925  0.0600 -1.2328 -0.2693
 8545SOL     OW37096   2.577   3.927   0.170 -0.1200  0.3812 -0.0743
 8545SOL    HW137097   2.567   3.948   0.077  2.2556  1.0637 -0.1952
 8545SOL    HW237098   2.501   3.981   0.190  1.4242  2.6696 -0.3480
 8546SOL     OW37099   2.886   3.466   6.339  0.1153 -0.1732 -0.1275
 8546SOL    HW137100   2.884   3.559   6.316  0.8802 -0.2237 -0.3959
 8546SOL    HW237101   2.862   3.427   6.255  1.4578 -1.5023  0.1142
 8547SOL     OW37102   0.103   1.854  14.769 -0.2464  0.3112 -0.0036
 8547SOL    HW137103   0.184   1.841  14.818 -0.0369  0.6841 -0.2503
 8547SOL    HW237104   0.115   1.789  14.699 -0.1374  1.5606 -1.1539
 8548SOL     OW37105   1.122   1.247   8.211 -0.2872  0.2652  0.0396
 8548SOL    HW137106   1.061   1.262   8.284  1.1331  4.4734  0.3679
 8548SOL    HW237107   1.075   1.288   8.138  0.9995 -0.1527 -1.0294
 8549SOL     OW37108   0.272   2.178   8.390  0.1669 -0.0102  0.1182
 8549SOL    HW137109   0.345   2.237   8.403  0.2280  0.2084 -1.1493
 8549SOL    HW237110   0.325   2.099   8.379 -1.2583 -0.8544 -0.6985
 8550SOL     OW37111   3.959   3.745   6.513 -0.2666 -0.0103 -0.1693
 8550SOL    HW137112   3.933   3.748   6.605  0.8779  2.8552  0.0389
 8550SOL    HW237113   4.054   3.735   6.520 -0.6660 -3.8677 -0.2280
 8551SOL     OW37114   2.126   1.419   1.602  0.4452 -0.0104  0.4597
 8551SOL    HW137115   2.082   1.369   1.671  0.2691  0.7443  0.8881
 8551SOL    HW237116   2.112   1.361   1.526 -2.5612 -0.3193  1.2172
 8552SOL     OW37117   4.686   1.649   5.429  0.3356 -0.1966 -0.5303
 8552SOL    HW137118   4.627   1.685   5.363 -1.2948 -0.7944  0.5686
 8552SOL    HW237119   0.036   1.679   5.379  0.3963  0.8805  0.1988
 8553SOL     OW37120   1.160   4.382   0.288  0.1255 -0.0777  0.2749
 8553SOL    HW137121   1.163   4.390   0.193 -0.8539 -0.0526  0.2464
 8553SOL    HW237122   1.248   4.401   0.320  1.4730 -1.1215 -2.8210
 8554SOL     OW37123   0.902   1.694   3.644 -0.4041 -0.8994  0.6370
 8554SOL    HW137124   0.895   1.779   3.688  0.1794  0.9565 -2.8647
 8554SOL    HW237125   0.914   1.729   3.555 -0.6265 -1.7058  0.2893
 8555SOL     OW37126   1.442   2.674  11.778  0.2081 -0.1619  0.2600
 8555SOL    HW137127   1.347   2.672  11.774  0.1731  0.6113  0.7089
 8555SOL    HW237128   1.467   2.628  11.698 -0.5346  0.2890 -0.2274
 8556SOL     OW37129   3.536   3.316   7.862  0.2599  0.4936 -0.3952
 8556SOL    HW137130   3.531   3.408   7.887 -1.4199  0.3860 -0.3475
 8556SOL    HW237131   3.580   3.281   7.939 -3.9255 -1.6682  1.0333
 8557SOL     OW37132   0.146   2.295   5.242  0.0249 -0.5882  0.0017
 8557SOL    HW137133   0.216   2.354   5.214 -1.5963  1.5343  0.3170
 8557SOL    HW237134   0.136   2.326   5.333  0.4700 -0.1228 -0.1052
 8558SOL     OW37135   1.108   0.441   7.308 -0.1969 -0.3169  0.0644
 8558SOL    HW137136   1.082   0.429   7.216 -0.5029  3.5909 -0.3743
 8558SOL    HW237137   1.176   0.502   7.278 -0.9093  0.7390  0.6072
 8559SOL     OW37138   3.607   4.600  14.736 -0.0944 -0.4339 -0.2667
 8559SOL    HW137139   3.611   4.525  14.677 -0.1855 -2.0971  1.8366
 8559SOL    HW237140   3.513   4.601  14.750 -0.1239 -0.3428 -0.4810
 8560SOL     OW37141   0.105   4.295  11.305  0.5745 -0.1375 -0.0584
 8560SOL    HW137142   0.170   4.353  11.264  0.3034  1.0401  1.1666
 8560SOL    HW237143   0.094   4.336  11.391  1.8128 -0.1925  0.1253
 8561SOL     OW37144   2.819   1.293  11.929 -0.1096  1.0952 -0.7306
 8561SOL    HW137145   2.897   1.346  11.913  0.2136  1.3107  1.4344
 8561SOL    HW237146   2.844   1.212  11.884  3.9095  2.3761 -0.7839
 8562SOL     OW37147   4.100   2.094   9.276 -0.3422  0.0569 -0.0539
 8562SOL    HW137148   4.068   2.116   9.364  3.1327 -0.2845  1.3403
 8562SOL    HW237149   4.098   1.998   9.276  0.4035  0.0486 -1.0926
 8563SOL     OW37150   0.306   3.087   5.396 -0.1788  0.1894 -0.6563
 8563SOL    HW137151   0.241   3.154   5.371  0.6761  2.0739  2.1934
 8563SOL    HW237152   0.339   3.114   5.481  1.2728 -0.8929 -0.8948
 8564SOL     OW37153   4.206   2.518   6.382 -0.0437  0.1980 -0.3041
 8564SOL    HW137154   4.166   2.585   6.327 -3.3873 -0.2342  1.5605
 8564SOL    HW237155   4.132   2.484   6.433 -0.0397 -1.0359 -1.1417
 8565SOL     OW37156   1.212   3.100   3.074 -0.7185 -0.6490 -0.2192
 8565SOL    HW137157   1.235   3.152   2.997  0.8381 -1.9322 -0.6378
 8565SOL    HW237158   1.295   3.086   3.120  0.0466  3.9389 -0.1736
 8566SOL     OW37159   0.005   2.179  11.656 -0.5373  0.3972 -0.4595
 8566SOL    HW137160   0.034   2.097  11.696  1.5924  1.6445  0.5130
 8566SOL    HW237161   4.638   2.153  11.650 -0.5730  0.7224 -1.2400
 8567SOL     OW37162   1.185   1.760  12.528 -0.0370 -0.0350 -0.5514
 8567SOL    HW137163   1.229   1.841  12.501  0.3636 -0.5821 -1.5571
 8567SOL    HW237164   1.268   1.722  12.558 -0.1864  0.7459  0.8553
 8568SOL     OW37165   0.527   2.532   2.939 -0.5789 -0.1270 -0.0096
 8568SOL    HW137166   0.578   2.524   2.858  0.9843 -0.3541  1.0080
 8568SOL    HW237167   0.566   2.601   2.991 -1.1950  0.8713 -0.8761
 8569SOL     OW37168   0.241   2.098   2.823 -0.1269  0.0508 -0.7163
 8569SOL    HW137169   0.299   2.162   2.864  0.5992 -1.1976  0.2052
 8569SOL    HW237170   0.232   2.127   2.732 -1.3860  1.1138 -0.2563
 8570SOL     OW37171   0.098   2.940   8.862 -0.2122 -0.0745  0.4699
 8570SOL    HW137172   0.115   2.974   8.950 -0.7227 -0.7108  0.8132
 8570SOL    HW237173   0.029   2.875   8.879  0.5828 -0.9305  0.3897
 8571SOL     OW37174   3.020   0.554   5.447  0.0615  0.0726  0.3139
 8571SOL    HW137175   3.048   0.623   5.508 -0.8716  0.4224  0.3542
 8571SOL    HW237176   3.087   0.489   5.465  0.3536 -0.3580 -2.3612
 8572SOL     OW37177   1.585   1.819   4.329  0.3011  0.2651 -0.5016
 8572SOL    HW137178   1.618   1.889   4.386 -0.5709  1.4957 -1.5196
 8572SOL    HW237179   1.546   1.754   4.387 -1.8593  1.2990 -0.8029
 8573SOL     OW37180   2.749   0.793   7.656 -0.2103  0.6241 -0.0924
 8573SOL    HW137181   2.692   0.758   7.588  0.7680  0.7341 -0.9710
 8573SOL    HW237182   2.697   0.782   7.736 -2.7563  1.6380 -1.6353
 8574SOL     OW37183   1.296   3.209   2.780  0.0623 -0.4341 -0.0411
 8574SOL    HW137184   1.326   3.300   2.770  0.0520 -0.4067  0.1903
 8574SOL    HW237185   1.370   3.149   2.774  0.7542  0.1130  3.1944
 8575SOL     OW37186   1.333   4.272  10.475 -0.0867  0.0896  0.5285
 8575SOL    HW137187   1.398   4.342  10.483  1.2228 -0.9456 -1.0246
 8575SOL    HW237188   1.378   4.197  10.435 -3.0545 -2.0398  1.2041
 8576SOL     OW37189   1.876   1.470   5.630 -0.2455 -0.1863  0.0275
 8576SOL    HW137190   1.891   1.474   5.536 -0.8393  0.3152 -0.0406
 8576SOL    HW237191   1.817   1.395   5.618 -1.2648  0.4697  0.9311
 8577SOL     OW37192   3.996   0.657   3.311 -0.5952  0.2927 -0.2926
 8577SOL    HW137193   3.917   0.604   3.314 -1.0918  1.1172  0.9093
 8577SOL    HW237194   3.956   0.743   3.298  1.4976  0.7227 -4.0098
 8578SOL     OW37195   0.248   2.857   9.484  0.4538 -0.4281 -0.0872
 8578SOL    HW137196   0.331   2.838   9.441  0.8482 -0.4564  0.6840
 8578SOL    HW237197   0.278   2.874   9.573  2.2276 -0.1518 -0.7510
 8579SOL     OW37198   3.071   1.313   5.772  0.1619  0.7234  0.1489
 8579SOL    HW137199   3.138   1.378   5.791  1.4111 -0.3495 -0.5450
 8579SOL    HW237200   3.064   1.309   5.676 -1.6281  0.4658  0.2917
 8580SOL     OW37201   4.436   2.238   5.066 -0.2888 -0.1755 -0.1444
 8580SOL    HW137202   4.469   2.320   5.104 -0.9879  0.4845 -0.9732
 8580SOL    HW237203   4.401   2.272   4.984  1.8102 -0.8704 -1.3493
 8581SOL     OW37204   3.045   3.865  12.852 -0.0008 -0.0384  0.0908
 8581SOL    HW137205   3.113   3.931  12.835 -0.2503  0.2934  0.3688
 8581SOL    HW237206   3.008   3.849  12.766 -0.8418  1.0386  0.2459
 8582SOL     OW37207   2.314   1.796   4.816  0.7762  0.4889 -0.7090
 8582SOL    HW137208   2.288   1.851   4.741 -0.0164 -0.1113 -0.8706
 8582SOL    HW237209   2.281   1.843   4.893  1.2480 -0.8263  0.2890
 8583SOL     OW37210   0.721   0.551  13.979 -0.3645 -0.2699 -0.1130
 8583SOL    HW137211   0.690   0.474  14.027 -2.6836  0.2984 -0.6696
 8583SOL    HW237212   0.646   0.568  13.922 -0.2818 -2.1916 -0.8039
 8584SOL     OW37213   1.453   2.727   7.790 -0.2529 -0.2067  0.4941
 8584SOL    HW137214   1.443   2.642   7.749  1.4165 -0.2811  0.2255
 8584SOL    HW237215   1.365   2.740   7.827 -0.2302  1.0322  0.1134
 8585SOL     OW37216   2.368   2.610  14.252 -0.0742  0.2256 -0.1070
 8585SOL    HW137217   2.425   2.624  14.176 -0.5439 -0.9102 -0.6714
 8585SOL    HW237218   2.298   2.561  14.210  1.2221 -2.0209  0.3522
 8586SOL     OW37219   0.217   0.722   7.886 -0.5163 -0.7805  0.3649
 8586SOL    HW137220   0.227   0.805   7.840 -1.5042 -1.4131 -1.0025
 8586SOL    HW237221   0.299   0.683   7.915  2.1903  1.5327 -4.1112
 8587SOL     OW37222   4.256   1.709   3.735  0.0628  1.1923 -0.3506
 8587SOL    HW137223   4.202   1.644   3.781  0.7161  2.0668  1.6415
 8587SOL    HW237224   4.301   1.652   3.673 -0.4385  0.2507  0.1410
 8588SOL     OW37225   3.617   0.201   8.920 -0.3564  0.2366  0.3224
 8588SOL    HW137226   3.663   0.212   9.003  0.0637  0.1428  0.1022
 8588SOL    HW237227   3.588   0.292   8.912 -1.0833  0.0533  0.8796
 8589SOL     OW37228   0.895   4.666   8.597  0.1660 -0.0534  0.2779
 8589SOL    HW137229   0.960   4.680   8.528 -1.7064  0.8579 -1.3061
 8589SOL    HW237230   0.862   0.029   8.611  1.7147  0.6154 -0.3159
 8590SOL     OW37231   4.001   3.038   5.106  0.4424 -0.2829  0.1485
 8590SOL    HW137232   4.069   2.984   5.064 -1.6819 -2.0803 -1.0169
 8590SOL    HW237233   4.038   3.061   5.191 -0.2519 -0.3132  0.4523
 8591SOL     OW37234   4.263   0.263   5.670  0.4660 -0.2851  0.1453
 8591SOL    HW137235   4.242   0.270   5.578  0.1601 -1.0279  0.1627
 8591SOL    HW237236   4.345   0.311   5.663 -0.3272  0.8768 -0.8996
 8592SOL     OW37237   4.201   1.904  15.103  0.0439 -0.7378 -0.3125
 8592SOL    HW137238   4.270   1.837  15.110 -0.8112 -1.7122 -1.1887
 8592SOL    HW237239   4.126   1.864  15.145 -0.2539  0.2601  0.0975
 8593SOL     OW37240   2.985   3.550   5.083  0.1236  0.8724  0.2879
 8593SOL    HW137241   2.896   3.571   5.053  1.0788  2.2264 -1.5689
 8593SOL    HW237242   2.979   3.461   5.120 -0.4867  2.3498  3.6960
 8594SOL     OW37243   3.487   2.566   3.906  0.1641 -0.4206  0.1492
 8594SOL    HW137244   3.497   2.640   3.847  0.1992  0.3821  1.1502
 8594SOL    HW237245   3.524   2.608   3.984 -1.5836  0.5619  0.4603
 8595SOL     OW37246   1.637   3.907   4.431  0.1179 -0.5470  0.2391
 8595SOL    HW137247   1.551   3.874   4.404  0.1118 -0.3752  0.0451
 8595SOL    HW237248   1.653   3.963   4.355 -1.2288 -0.4657  0.0076
 8596SOL     OW37249   2.291   1.688   8.012 -0.1060 -0.6051 -0.1663
 8596SOL    HW137250   2.230   1.734   8.069  0.6705 -0.7649  0.7884
 8596SOL    HW237251   2.328   1.763   7.964 -0.9951  1.9321  3.1353
 8597SOL     OW37252   4.701   2.853   1.011 -0.0851 -0.6924 -0.4376
 8597SOL    HW137253   0.005   2.922   0.952 -0.2098 -1.7073 -1.6770
 8597SOL    HW237254   4.714   2.775   0.957  2.3446  0.4744 -1.5531
 8598SOL     OW37255   2.350   4.116   9.285  0.3142 -0.6063 -0.4944
 8598SOL    HW137256   2.350   4.092   9.192  2.4936 -0.8616 -0.4116
 8598SOL    HW237257   2.256   4.102   9.297  0.4217 -1.8839 -1.1218
 8599SOL     OW37258   3.529   1.558  14.506  0.2591  0.6914 -0.1718
 8599SOL    HW137259   3.590   1.525  14.571  1.2774  2.0427 -0.4553
 8599SOL    HW237260   3.447   1.534  14.550  0.7400 -0.2713  0.1993
 8600SOL     OW37261   2.944   1.027   0.767 -0.2627 -0.0236 -0.5977
 8600SOL    HW137262   2.870   0.994   0.817 -0.7927  0.8228 -0.8149
 8600SOL    HW237263   3.010   0.971   0.807  0.7459 -0.0465 -2.2954
 8601SOL     OW37264   3.811   4.190  11.350 -0.8585  0.6892  0.5750
 8601SOL    HW137265   3.884   4.222  11.298 -2.0848  0.5885 -1.2398
 8601SOL    HW237266   3.801   4.100  11.317 -3.1696  0.6046  1.5407
 8602SOL     OW37267   1.175   1.607   3.045 -0.2215 -0.6149  0.0752
 8602SOL    HW137268   1.180   1.703   3.045  2.5393 -0.7456 -0.1717
 8602SOL    HW237269   1.092   1.590   3.001 -0.2049  0.8298 -0.5313
 8603SOL     OW37270   1.048   2.088   2.856  0.6043  0.2643 -0.2235
 8603SOL    HW137271   0.982   2.150   2.825  1.4428 -0.1495 -2.7975
 8603SOL    HW237272   1.129   2.136   2.837 -0.4030  1.2268 -2.0397
 8604SOL     OW37273   0.751   2.522   2.469 -0.3086 -0.2254  0.2835
 8604SOL    HW137274   0.837   2.555   2.443 -1.6629 -0.0883 -3.9495
 8604SOL    HW237275   0.731   2.468   2.393 -1.8119 -0.1878  0.6562
 8605SOL     OW37276   2.596   0.812  16.706 -0.1861  0.4241  0.4818
 8605SOL    HW137277   2.603   0.892  16.655  2.5245 -0.7044 -0.8979
 8605SOL    HW237278   2.514   0.826  16.753 -1.3134 -0.0163 -1.3636
 8606SOL     OW37279   3.664   3.991   7.058  0.0364  0.8034  0.3572
 8606SOL    HW137280   3.647   3.966   7.149  0.8765 -1.8147 -0.2303
 8606SOL    HW237281   3.755   3.966   7.041 -0.6135 -1.2669 -0.0564
 8607SOL     OW37282   1.759   0.848  14.340  0.2076  0.6437 -0.3177
 8607SOL    HW137283   1.703   0.770  14.343 -0.5210  1.1386 -1.1835
 8607SOL    HW237284   1.845   0.809  14.324  0.5528  1.1110  0.4026
 8608SOL     OW37285   3.314   1.485   7.147 -0.7871 -1.0962  0.4041
 8608SOL    HW137286   3.271   1.402   7.132 -0.3327 -0.6730 -3.2854
 8608SOL    HW237287   3.317   1.515   7.056 -1.0066 -0.6007  0.5598
 8609SOL     OW37288   2.304   3.134  13.875  0.2335  0.3599  0.6254
 8609SOL    HW137289   2.347   3.068  13.929  1.1767  0.4774  0.0117
 8609SOL    HW237290   2.211   3.120  13.892  0.3140  3.2284  3.5022
 8610SOL     OW37291   2.217   3.487   6.649  0.2652  0.0397 -0.3195
 8610SOL    HW137292   2.263   3.430   6.711 -0.3952  0.7303  0.8093
 8610SOL    HW237293   2.176   3.552   6.707 -1.6117 -0.6031 -0.9203
 8611SOL     OW37294   3.113   0.680   9.065  0.7798 -0.1380 -0.3671
 8611SOL    HW137295   3.093   0.747   9.130  1.0391  0.4556 -0.9094
 8611SOL    HW237296   3.072   0.606   9.110 -0.3787  1.2945  0.9207
 8612SOL     OW37297   2.084   0.075  14.624 -0.0119  0.7078  0.4690
 8612SOL    HW137298   2.006   0.121  14.594  0.7997  1.9977  0.3206
 8612SOL    HW237299   2.039   4.718  14.643 -0.8729  1.4765  1.7627
 8613SOL     OW37300   2.648   3.445   4.054  0.4566  0.1368  0.1990
 8613SOL    HW137301   2.563   3.479   4.024  0.0790 -1.4879 -0.5988
 8613SOL    HW237302   2.612   3.373   4.108  0.7215 -1.0343 -1.1895
 8614SOL     OW37303   3.400   3.669   8.157 -0.0402  0.1027 -0.3302
 8614SOL    HW137304   3.378   3.662   8.250  1.2520  1.2926  0.0531
 8614SOL    HW237305   3.326   3.718   8.121  0.0317  0.0518 -0.5519
 8615SOL     OW37306   2.814   1.601   5.662  0.1777 -0.7129  0.1368
 8615SOL    HW137307   2.779   1.534   5.721 -0.7408 -0.4350 -0.0880
 8615SOL    HW237308   2.732   1.615   5.614  0.1547 -2.0738 -0.2134
 8616SOL     OW37309   0.976   0.113   6.319 -0.5013 -0.2166 -0.0479
 8616SOL    HW137310   0.918   0.151   6.253 -0.4241 -0.2361 -0.1268
 8616SOL    HW237311   0.913   0.067   6.375 -1.1116 -0.3404 -0.8441
 8617SOL     OW37312   3.823   2.806   4.458  0.0165  0.0786 -0.1005
 8617SOL    HW137313   3.882   2.845   4.522  0.3297 -0.3886 -0.0989
 8617SOL    HW237314   3.852   2.714   4.461 -1.8678 -0.6068 -2.9510
 8618SOL     OW37315   1.281   0.577   6.883 -0.1421 -0.2869 -0.6682
 8618SOL    HW137316   1.239   0.624   6.811 -1.8356  0.8151  1.0358
 8618SOL    HW237317   1.210   0.562   6.946 -1.1401  2.5944 -1.1043
 8619SOL     OW37318   1.369   1.886  13.690 -0.4955 -0.5961 -0.4157
 8619SOL    HW137319   1.420   1.806  13.680  0.3340 -0.2057  0.7200
 8619SOL    HW237320   1.396   1.919  13.775 -0.5030  0.8296 -0.9555
 8620SOL     OW37321   2.687   2.864  15.528 -0.2298 -0.2989  0.2463
 8620SOL    HW137322   2.670   2.958  15.530 -2.0142 -0.5754 -2.7743
 8620SOL    HW237323   2.633   2.843  15.605  0.1710  0.2661  0.6837
 8621SOL     OW37324   0.801   0.204   3.614 -0.5152 -0.2748 -0.5576
 8621SOL    HW137325   0.849   0.222   3.695  1.9246  1.7120 -2.4305
 8621SOL    HW237326   0.760   0.290   3.605 -1.5567 -0.5383  1.5883
 8622SOL     OW37327   1.108   1.769   2.435 -0.3051  0.7319 -0.0705
 8622SOL    HW137328   1.194   1.806   2.418 -0.6316  0.5316 -2.1510
 8622SOL    HW237329   1.068   1.848   2.471 -1.2823 -0.2272  0.9637
 8623SOL     OW37330   0.854   2.233  17.556  0.1355 -0.5832 -0.4473
 8623SOL    HW137331   0.861   2.242  17.461  0.4596 -2.1397 -0.5677
 8623SOL    HW237332   0.805   2.152  17.571 -0.2119 -0.1693  0.6512
 8624SOL     OW37333   1.634   2.642  17.237  0.3091  0.8950 -0.1973
 8624SOL    HW137334   1.718   2.621  17.196  0.4882 -1.5384  1.3848
 8624SOL    HW237335   1.579   2.661  17.162 -0.4412 -0.3129  0.0411
 8625SOL     OW37336   1.885   0.768   1.417 -0.4706  0.0325 -0.2158
 8625SOL    HW137337   1.832   0.705   1.467 -1.8098  0.9134 -0.5112
 8625SOL    HW237338   1.964   0.772   1.470 -1.2351 -1.1327  1.0042
 8626SOL     OW37339   0.248   0.404  10.110  0.3324  0.1711 -0.1914
 8626SOL    HW137340   0.204   0.467  10.167  1.1300 -1.1537  1.8876
 8626SOL    HW237341   0.316   0.370  10.169 -1.1045 -0.4172  1.1290
 8627SOL     OW37342   3.863   4.242   6.759 -0.5311 -0.0889  0.0330
 8627SOL    HW137343   3.933   4.299   6.789 -0.3417 -1.0141  1.3110
 8627SOL    HW237344   3.909   4.158   6.758 -0.6328 -0.1454 -0.4472
 8628SOL     OW37345   4.596   1.518   2.490  0.3595 -0.0919 -0.6458
 8628SOL    HW137346   4.590   1.598   2.543 -0.2467 -1.2572  1.0620
 8628SOL    HW237347   4.503   1.503   2.472  1.3394 -4.6848 -1.7601
 8629SOL     OW37348   1.347   3.343  15.365  0.3657  0.5427  0.9259
 8629SOL    HW137349   1.265   3.385  15.392  1.6912  2.8018  1.4040
 8629SOL    HW237350   1.328   3.252  15.386  3.2896  0.0547  1.3820
 8630SOL     OW37351   3.217   0.848   6.021 -0.3505 -0.3787 -0.3312
 8630SOL    HW137352   3.191   0.888   6.104 -0.3240 -0.7413 -0.1480
 8630SOL    HW237353   3.178   0.895   5.947  2.3094 -2.3195 -3.0027
 8631SOL     OW37354   0.201   0.344   4.481  0.0993 -0.3758  0.1276
 8631SOL    HW137355   0.172   0.300   4.561 -2.0946  1.0784  0.1330
 8631SOL    HW237356   0.133   0.320   4.417  1.3604 -0.4539 -1.1867
 8632SOL     OW37357   1.062   4.482   0.827 -0.4889  0.4638 -0.2007
 8632SOL    HW137358   1.060   4.388   0.809  0.0081  0.2400  0.9369
 8632SOL    HW237359   1.157   4.496   0.821 -0.9667  4.5970  2.0006
 8633SOL     OW37360   4.410   4.340   0.042  0.1232 -0.1206  0.1478
 8633SOL    HW137361   4.380   4.250   0.025 -0.9661  0.1730  0.5540
 8633SOL    HW237362   4.491   4.347  17.694  0.7356 -0.3680  1.1124
 8634SOL     OW37363   4.139   0.159   3.234  0.0385 -0.1162  0.2555
 8634SOL    HW137364   4.174   0.077   3.199 -0.5040 -0.7285  1.1362
 8634SOL    HW237365   4.156   0.138   3.326 -0.5279 -1.5258  0.0410
 8635SOL     OW37366   4.311   4.209  10.507  0.0503 -0.3315 -0.0593
 8635SOL    HW137367   4.291   4.148  10.579  3.6296  0.5871  1.7207
 8635SOL    HW237368   4.290   4.163  10.426 -3.0829  0.2254  0.4497
 8636SOL     OW37369   0.813   2.728   6.840 -0.8994  0.0482 -0.1837
 8636SOL    HW137370   0.879   2.792   6.867 -0.2716 -0.0870 -1.3588
 8636SOL    HW237371   0.754   2.727   6.915 -1.0274  1.9662 -0.2718
 8637SOL     OW37372   3.822   4.548   1.437 -0.2906  0.2185  0.2265
 8637SOL    HW137373   3.881   4.603   1.489 -1.3122  3.1353 -1.6900
 8637SOL    HW237374   3.799   4.474   1.493 -1.4355  0.5399  0.2009
 8638SOL     OW37375   1.757   0.310  13.746 -0.1412  0.4853 -0.5048
 8638SOL    HW137376   1.799   0.239  13.794  2.3245  1.5912 -0.9758
 8638SOL    HW237377   1.787   0.305  13.655  2.3494 -1.5873  0.4251
 8639SOL     OW37378   0.567   1.256   0.172 -0.0811  0.0853 -0.4996
 8639SOL    HW137379   0.486   1.303   0.151  0.2493  1.0669  0.3782
 8639SOL    HW237380   0.523   1.183   0.215 -3.3048  1.5101 -1.3109
 8640SOL     OW37381   2.917   4.081   2.816 -0.2171 -0.6268  0.0598
 8640SOL    HW137382   2.954   4.041   2.737 -0.0285 -0.2604 -0.0336
 8640SOL    HW237383   2.911   4.175   2.800 -0.4162 -1.1551 -2.9558
 8641SOL     OW37384   2.719   2.495  17.438  0.2009 -0.3596  0.4100
 8641SOL    HW137385   2.716   2.422  17.500  0.3256 -0.7798 -0.0784
 8641SOL    HW237386   2.795   2.552  17.454  1.6420 -2.1656 -0.0270
 8642SOL     OW37387   4.196   3.898   5.838 -0.8456  0.1322  0.2110
 8642SOL    HW137388   4.285   3.928   5.852 -0.7586 -0.5857  1.2187
 8642SOL    HW237389   4.158   3.928   5.921 -1.2630 -0.2975  0.1785
 8643SOL     OW37390   4.076   0.524   0.245 -0.2761 -0.2626 -0.2683
 8643SOL    HW137391   4.121   0.440   0.257 -1.1625 -0.6354  0.3955
 8643SOL    HW237392   4.025   0.514   0.165 -0.6250 -0.8167  0.0279
 8644SOL     OW37393   4.512   3.068  11.218  0.2725 -0.3563 -0.0077
 8644SOL    HW137394   4.567   2.989  11.213  0.4575 -0.2352  0.1533
 8644SOL    HW237395   4.429   3.023  11.233 -0.9363  2.2427  1.0767
 8645SOL     OW37396   3.048   3.147   4.520  0.0436  0.1151  0.0748
 8645SOL    HW137397   2.957   3.177   4.509 -0.0039 -0.5088 -1.1278
 8645SOL    HW237398   3.090   3.155   4.435  2.5045  0.4921  1.3100
 8646SOL     OW37399   0.133   1.460   9.191  0.9062 -0.4812 -0.4404
 8646SOL    HW137400   0.184   1.391   9.233  0.5217 -0.6318 -0.2225
 8646SOL    HW237401   0.060   1.483   9.249 -0.2950 -0.6757 -1.9000
 8647SOL     OW37402   2.454   4.076   8.037 -0.0102 -0.3379 -0.1010
 8647SOL    HW137403   2.477   4.127   8.115  3.9293 -2.5343  0.1487
 8647SOL    HW237404   2.400   4.009   8.080 -2.2069  2.0506  0.9046
 8648SOL     OW37405   0.904   0.051   3.164 -0.5065  0.0163 -0.0426
 8648SOL    HW137406   0.999   0.061   3.156 -0.6042  0.3612 -0.7547
 8648SOL    HW237407   0.885   0.086   3.251 -0.6180  2.7468 -1.1463
 8649SOL     OW37408   0.673   1.593   0.376 -0.1832  0.2257  0.0312
 8649SOL    HW137409   0.706   1.677   0.345 -0.0116 -0.5085 -1.7783
 8649SOL    HW237410   0.582   1.621   0.372  0.4550  2.5835  1.7786
 8650SOL     OW37411   2.044   3.464  10.124  0.2778  0.2546  0.4711
 8650SOL    HW137412   2.135   3.484  10.145  0.1929  1.7951 -0.6685
 8650SOL    HW237413   2.005   3.478  10.211  0.4145  1.5296  0.3136
 8651SOL     OW37414   3.093   0.471   2.577 -0.0500 -0.8263 -0.4153
 8651SOL    HW137415   3.187   0.489   2.571 -0.0661 -0.6926 -0.2791
 8651SOL    HW237416   3.067   0.483   2.669 -0.6588 -0.1534 -0.6726
 8652SOL     OW37417   0.569   3.792   0.238  0.2109  0.6598  0.3923
 8652SOL    HW137418   0.612   3.874   0.214 -0.6743  0.9665 -0.1509
 8652SOL    HW237419   0.475   3.812   0.245 -0.6544 -3.4485  0.6664
 8653SOL     OW37420   2.181   2.155   3.658 -0.0855 -0.4401  0.4959
 8653SOL    HW137421   2.100   2.204   3.669  0.4607  0.6289 -0.2521
 8653SOL    HW237422   2.158   2.063   3.672  0.2143 -0.6460 -0.3637
 8654SOL     OW37423   0.968   0.824   7.048  0.2813  0.0691  0.4668
 8654SOL    HW137424   0.892   0.881   7.034  1.1999  0.2908 -3.6583
 8654SOL    HW237425   1.014   0.873   7.116 -0.0198  0.1038  0.6480
 8655SOL     OW37426   0.196   2.523   1.027  0.2259  0.0643 -0.1278
 8655SOL    HW137427   0.261   2.468   0.983  2.6357  1.4999  1.5775
 8655SOL    HW237428   0.127   2.524   0.962  0.3756 -3.3265 -0.3660
 8656SOL     OW37429   2.286   3.803   1.907  0.6086  0.4408  0.0317
 8656SOL    HW137430   2.195   3.793   1.878  0.3441  1.5422  0.4892
 8656SOL    HW237431   2.283   3.820   2.001  1.6510  0.1712  0.1134
 8657SOL     OW37432   0.587   1.728  11.469 -0.1993  0.6633  0.3939
 8657SOL    HW137433   0.493   1.712  11.455 -0.3074  1.4171  0.2651
 8657SOL    HW237434   0.603   1.706  11.560  0.7757 -0.9223 -0.1611
 8658SOL     OW37435   2.708   0.402  15.986  0.1552 -0.1001 -0.1498
 8658SOL    HW137436   2.626   0.355  16.001 -0.5711  1.2095 -0.0362
 8658SOL    HW237437   2.681   0.475  15.930  1.9528  0.5625 -0.1406
 8659SOL     OW37438   0.326   0.916   0.778  0.0125  0.0350  0.3294
 8659SOL    HW137439   0.402   0.920   0.836 -0.2049 -1.2261  0.6937
 8659SOL    HW237440   0.266   0.979   0.817 -0.0060  0.3233 -0.1600
 8660SOL     OW37441   1.913   1.663  13.991  0.1663  0.1953  0.9856
 8660SOL    HW137442   1.917   1.686  13.898  2.3673 -0.5502  0.8786
 8660SOL    HW237443   1.900   1.569  13.982  3.1469 -0.0756 -0.5597
 8661SOL     OW37444   0.159   1.961   6.570  0.5384  0.0792  0.3405
 8661SOL    HW137445   0.127   1.919   6.650  1.8099  2.8662  2.3322
 8661SOL    HW237446   0.078   2.005   6.542 -0.0906 -0.9609  0.5385
 8662SOL     OW37447   3.919   1.331   6.781  0.1089  0.1676  0.3312
 8662SOL    HW137448   3.975   1.277   6.837 -0.7622 -0.9178  0.1525
 8662SOL    HW237449   3.878   1.383   6.851  1.1027 -0.4393  1.3703
 8663SOL     OW37450   2.501   3.694   0.269 -0.3810 -0.1326 -0.3500
 8663SOL    HW137451   2.534   3.781   0.246 -2.0151  0.1398 -1.6359
 8663SOL    HW237452   2.585   3.654   0.293 -0.0578  1.0999  0.6003
 8664SOL     OW37453   4.592   4.184   5.869  0.1779  0.2233 -0.6060
 8664SOL    HW137454   4.623   4.272   5.890 -2.0137  0.4205  1.9069
 8664SOL    HW237455   4.536   4.163   5.944 -0.4626  1.4275 -0.7511
 8665SOL     OW37456   0.268   2.759  11.083 -0.3342  0.3912 -0.4700
 8665SOL    HW137457   0.266   2.664  11.099 -1.1628  0.5820  0.5895
 8665SOL    HW237458   0.265   2.785  11.175 -0.9567 -0.6472 -0.1980
 8666SOL     OW37459   2.564   3.991  15.080 -0.2739 -0.1654 -0.2778
 8666SOL    HW137460   2.601   3.975  14.994 -0.0194 -0.9172 -0.0240
 8666SOL    HW237461   2.581   3.918  15.139  0.5657 -0.4892 -0.9332
 8667SOL     OW37462   1.390   0.469   6.529  0.5134  0.1478 -0.5022
 8667SOL    HW137463   1.340   0.391   6.505  1.3632 -0.8132  0.8584
 8667SOL    HW237464   1.327   0.518   6.581 -1.4051 -2.6608 -0.1564
 8668SOL     OW37465   0.084   1.537   5.130  0.3399 -0.4452  0.0265
 8668SOL    HW137466   0.041   1.614   5.094  1.8896  0.2872 -0.2215
 8668SOL    HW237467   0.115   1.497   5.050  2.4781 -1.0294  1.1492
 8669SOL     OW37468   4.431   3.479  10.772  0.3650 -0.1649 -0.2351
 8669SOL    HW137469   4.423   3.552  10.711  2.3985 -0.5958 -1.0334
 8669SOL    HW237470   4.522   3.454  10.755  0.6477 -1.7137  3.5165
 8670SOL     OW37471   0.003   3.775   2.039 -0.5742 -0.0874  0.4940
 8670SOL    HW137472   0.014   3.759   1.945 -0.5405  0.8081  0.3382
 8670SOL    HW237473   0.063   3.849   2.040 -2.0529  1.1453 -0.7454
 8671SOL     OW37474   3.438   3.371   8.192  0.0237  0.3371 -0.1535
 8671SOL    HW137475   3.522   3.357   8.149 -0.1322 -3.0432  0.6342
 8671SOL    HW237476   3.430   3.465   8.180  1.1095  0.1454 -2.3027
 8672SOL     OW37477   1.598   1.402   8.706 -0.3149 -0.0723 -0.0316
 8672SOL    HW137478   1.509   1.437   8.714 -0.3475  0.0560 -0.9355
 8672SOL    HW237479   1.581   1.328   8.648 -2.6965  0.8120 -0.4784
 8673SOL     OW37480   3.774   3.361   7.059 -0.1520 -0.2285  0.7927
 8673SOL    HW137481   3.866   3.340   7.072 -0.3186 -1.3521  0.1663
 8673SOL    HW237482   3.747   3.373   7.151  2.2116  0.9165  1.3502
 8674SOL     OW37483   3.185   1.387   2.777  0.0958 -0.7270  0.1328
 8674SOL    HW137484   3.182   1.349   2.689 -1.1306  0.9767 -0.5728
 8674SOL    HW237485   3.140   1.471   2.777 -0.3456 -0.9583  1.7492
 8675SOL     OW37486   4.059   3.979  12.919 -0.3998 -0.0751  0.0064
 8675SOL    HW137487   4.065   4.050  12.984  1.2865 -0.4148  0.2193
 8675SOL    HW237488   4.038   3.899  12.967 -1.1592 -0.0192 -0.2346
 8676SOL     OW37489   4.602   3.976   4.852 -0.6583  0.1836  0.2253
 8676SOL    HW137490   4.676   4.007   4.800  0.5497 -0.0593  1.7877
 8676SOL    HW237491   4.535   3.979   4.784 -1.4415 -1.3357  0.9299
 8677SOL     OW37492   0.124   1.179   3.782 -0.2009 -0.3375 -0.5234
 8677SOL    HW137493   0.133   1.275   3.777 -1.8284 -0.0705  1.5081
 8677SOL    HW237494   0.209   1.159   3.821 -0.0467  0.7573 -0.2859
 8678SOL     OW37495   0.786   4.343  15.801 -0.4482 -0.0069  0.3498
 8678SOL    HW137496   0.802   4.253  15.830 -0.1304  0.2607  1.0009
 8678SOL    HW237497   0.704   4.326  15.754 -0.6149  1.1723  0.2177
 8679SOL     OW37498   1.374   0.323   6.820 -0.3135  0.2786  0.1452
 8679SOL    HW137499   1.447   0.301   6.879 -2.0390 -1.3269  1.7028
 8679SOL    HW237500   1.364   0.416   6.840  0.9639  0.2178  1.1375
 8680SOL     OW37501   4.589   3.322  11.311  0.2083 -0.2028 -0.2255
 8680SOL    HW137502   4.516   3.363  11.265  0.1910 -0.1009 -0.1094
 8680SOL    HW237503   4.573   3.233  11.279 -2.9877  0.5320 -0.7227
 8681SOL     OW37504   2.036   4.725   2.520 -0.7066 -0.3074 -0.0789
 8681SOL    HW137505   2.006   4.636   2.537 -3.6303  0.3993 -1.5409
 8681SOL    HW237506   2.033   0.031   2.610 -1.7345 -0.6101 -0.0121
 8682SOL     OW37507   0.773   0.442  11.448 -0.2233 -0.0395  0.0449
 8682SOL    HW137508   0.766   0.530  11.486  1.6270 -1.1646  2.9191
 8682SOL    HW237509   0.842   0.403  11.501  0.2954  0.5058 -0.2232
 8683SOL     OW37510   1.079   0.567  14.146 -0.3612 -0.0474  0.1992
 8683SOL    HW137511   1.080   0.571  14.242  2.1725 -0.9978  0.1982
 8683SOL    HW237512   0.989   0.599  14.136 -1.1788 -1.7495  2.0451
 8684SOL     OW37513   2.889   0.159   3.799  0.1899 -0.2392  0.8112
 8684SOL    HW137514   2.902   0.182   3.891 -2.7736  1.6582  0.7561
 8684SOL    HW237515   2.801   0.190   3.777  0.9548  1.4933  0.1524
 8685SOL     OW37516   0.153   3.870   8.642  0.2156 -0.1888  0.6064
 8685SOL    HW137517   0.134   3.803   8.707  0.0601 -1.2216 -0.4915
 8685SOL    HW237518   0.167   3.949   8.693 -0.9653  1.4974 -1.6734
 8686SOL     OW37519   3.135   1.608  12.315 -0.2928  0.1416  0.0615
 8686SOL    HW137520   3.094   1.602  12.229  1.1108 -2.1546 -0.4280
 8686SOL    HW237521   3.118   1.520  12.349  1.6171 -0.8155 -1.4783
 8687SOL     OW37522   1.033   1.951   6.488  0.0947 -0.8913  0.0700
 8687SOL    HW137523   1.015   1.864   6.453  0.1664 -1.4290  1.3673
 8687SOL    HW237524   1.126   1.957   6.468  0.0822 -2.6390 -0.4886
 8688SOL     OW37525   4.638   2.440   4.296  0.5200 -0.2656 -0.0807
 8688SOL    HW137526   4.674   2.393   4.221 -0.0251 -1.7164  0.5735
 8688SOL    HW237527   4.555   2.457   4.251 -0.6825 -0.8021  1.9294
 8689SOL     OW37528   3.372   1.051   8.870 -0.4342 -0.0323  0.5154
 8689SOL    HW137529   3.329   0.972   8.837 -0.7041  0.2923  0.0836
 8689SOL    HW237530   3.465   1.029   8.869 -0.8716 -1.7939 -2.0105
 8690SOL     OW37531   3.766   3.300  16.077  0.3104 -0.2543 -0.0655
 8690SOL    HW137532   3.830   3.357  16.120 -0.5202  0.5765  0.0787
 8690SOL    HW237533   3.800   3.214  16.102 -0.2105 -0.2165  0.7800
 8691SOL     OW37534   3.385   4.416   9.615 -0.2698 -0.5107  0.3066
 8691SOL    HW137535   3.394   4.351   9.545 -0.4743 -1.7919  1.4805
 8691SOL    HW237536   3.333   4.487   9.578 -0.4281  0.1881  1.8858
 8692SOL     OW37537   3.562   3.853   7.765  0.4341  0.4093 -0.1862
 8692SOL    HW137538   3.621   3.926   7.780  0.0890  0.6421  0.0322
 8692SOL    HW237539   3.489   3.893   7.811 -1.2976 -1.9030 -0.8805
 8693SOL     OW37540   3.924   0.145   6.327 -0.2711 -0.3603  0.0217
 8693SOL    HW137541   3.897   0.234   6.304  1.6278  0.4842  1.0243
 8693SOL    HW237542   3.922   0.146   6.422 -2.4280  0.7204 -0.0335
 8694SOL     OW37543   3.271   4.377   3.346  0.2020 -0.3972 -0.0685
 8694SOL    HW137544   3.260   4.302   3.403  0.7896  0.0119  0.5871
 8694SOL    HW237545   3.327   4.439   3.393 -1.1296  1.7897 -1.3454
 8695SOL     OW37546   1.322   2.315  12.579  0.0362 -0.0924  0.9215
 8695SOL    HW137547   1.257   2.378  12.548  0.3314  0.1934  0.8849
 8695SOL    HW237548   1.391   2.374  12.609  0.1495  1.0491 -1.5739
 8696SOL     OW37549   1.413   2.071   2.152 -0.3238 -0.0059  0.3568
 8696SOL    HW137550   1.375   2.157   2.169  1.3871  0.5260  1.5156
 8696SOL    HW237551   1.508   2.085   2.155 -0.8094  3.4938 -0.4507
 8697SOL     OW37552   4.584   3.417   7.451  0.0222 -0.0729 -0.1442
 8697SOL    HW137553   4.523   3.363   7.502 -2.8169  1.7295 -1.6224
 8697SOL    HW237554   4.525   3.449   7.383 -0.5612 -0.3440  0.2326
 8698SOL     OW37555   0.528   0.135   7.597  0.2587 -0.4472  0.1601
 8698SOL    HW137556   0.481   0.082   7.662  0.1140  0.2016  0.5761
 8698SOL    HW237557   0.480   0.111   7.518 -0.9810  1.9127  0.2160
 8699SOL     OW37558   3.790   0.955   0.429 -0.4209 -0.6419  0.3576
 8699SOL    HW137559   3.879   0.948   0.463 -0.3202 -1.1632 -0.0116
 8699SOL    HW237560   3.772   0.862   0.413  0.4687 -0.2025 -3.2919
 8700SOL     OW37561   4.148   0.323   4.918 -0.1275 -0.4309  0.2835
 8700SOL    HW137562   4.205   0.259   4.876  1.8609  1.8286 -0.4344
 8700SOL    HW237563   4.129   0.283   5.003  1.9670 -0.1622  0.8651
 8701SOL     OW37564   3.568   3.257   5.791 -0.6580 -0.4315 -0.1872
 8701SOL    HW137565   3.639   3.204   5.756 -0.8655 -1.0068  0.2623
 8701SOL    HW237566   3.514   3.285   5.717 -0.1931 -3.0385 -1.5173
 8702SOL     OW37567   2.342   4.544   6.954 -0.2680  0.2922  0.0180
 8702SOL    HW137568   2.365   4.483   7.025  0.1066  0.3716 -0.0326
 8702SOL    HW237569   2.350   4.488   6.876  0.9372 -0.1291  0.4401
 8703SOL     OW37570   0.485   1.489   6.400  0.0948 -0.1861 -0.6006
 8703SOL    HW137571   0.554   1.463   6.339  1.7652  1.7363  0.4467
 8703SOL    HW237572   0.535   1.543   6.461 -3.3788  1.4087  0.8452
 8704SOL     OW37573   3.379   2.845   4.322 -0.1097 -0.0648  0.4499
 8704SOL    HW137574   3.397   2.935   4.293 -1.4406  0.2738  0.7100
 8704SOL    HW237575   3.427   2.834   4.404 -1.4027  2.5572  1.5534
 8705SOL     OW37576   1.678   1.990   4.983 -0.9354 -0.3134 -0.5354
 8705SOL    HW137577   1.588   1.994   5.015 -0.8681  2.2459 -0.6853
 8705SOL    HW237578   1.658   1.936   4.905  0.2651  0.4596 -1.3671
 8706SOL     OW37579   1.584   2.197  15.559 -0.1851 -0.2191 -0.0567
 8706SOL    HW137580   1.613   2.123  15.507 -0.1386 -0.0576 -0.2588
 8706SOL    HW237581   1.580   2.158  15.647  0.0135 -1.4069 -0.5812
 8707SOL     OW37582   3.709   1.565   2.938 -0.5457  0.0728  0.0923
 8707SOL    HW137583   3.736   1.477   2.963 -2.9280  0.0274  2.4857
 8707SOL    HW237584   3.615   1.566   2.957 -0.9889  2.3963 -2.1501
 8708SOL     OW37585   3.710   2.153   3.653  0.1552 -0.1543 -0.4566
 8708SOL    HW137586   3.804   2.166   3.667  0.2576  0.3520 -1.5701
 8708SOL    HW237587   3.672   2.195   3.730 -2.6545  1.3031 -2.6560
 8709SOL     OW37588   2.339   2.274   3.064 -0.2240 -0.0981 -0.0514
 8709SOL    HW137589   2.284   2.349   3.038  1.1699  0.8757 -0.2177
 8709SOL    HW237590   2.385   2.312   3.139  0.6517 -0.4112 -0.4307
 8710SOL     OW37591   0.605   3.214   3.988  0.1766 -0.4884 -0.4415
 8710SOL    HW137592   0.587   3.157   4.063  2.3059  0.6226  0.9152
 8710SOL    HW237593   0.537   3.279   3.998  0.6632  0.1172 -1.0918
 8711SOL     OW37594   3.524   0.760   5.217  0.2071  0.0744  0.1830
 8711SOL    HW137595   3.605   0.740   5.168 -0.1256 -1.1209  0.1322
 8711SOL    HW237596   3.519   0.853   5.196  1.8318  0.3438  1.0241
 8712SOL     OW37597   0.929   0.371  13.622 -0.0153  0.4967  0.6910
 8712SOL    HW137598   0.852   0.335  13.665  1.0051 -1.1297  1.1466
 8712SOL    HW237599   0.890   0.403  13.540 -0.2470  0.2182  0.6935
 8713SOL     OW37600   1.534   0.451  12.259 -0.1652  0.1345 -0.6385
 8713SOL    HW137601   1.612   0.483  12.214  0.5647 -0.4928  0.1871
 8713SOL    HW237602   1.467   0.510  12.224  0.0956 -0.1119 -1.5331
 8714SOL     OW37603   4.322   2.562   8.946 -0.0495 -0.1081  0.3236
 8714SOL    HW137604   4.401   2.530   8.902  1.9540  0.9758  3.1111
 8714SOL    HW237605   4.259   2.505   8.903 -0.3702  0.9712 -0.6469
 8715SOL     OW37606   1.541   2.263   8.673  0.0013 -0.5132  0.3208
 8715SOL    HW137607   1.616   2.314   8.706  0.3268  0.4532 -1.8712
 8715SOL    HW237608   1.492   2.248   8.754 -1.2481  0.4942 -0.2478
 8716SOL     OW37609   1.781   0.074   4.771  0.1755  0.7793  0.0990
 8716SOL    HW137610   1.744   0.091   4.857  0.1742 -1.4907  0.5415
 8716SOL    HW237611   1.769   4.704   4.766 -0.5710  0.8732  0.1889
 8717SOL     OW37612   3.576   1.690  15.547  0.4350 -0.7098 -0.2149
 8717SOL    HW137613   3.585   1.631  15.472 -0.3178  0.6677 -1.3806
 8717SOL    HW237614   3.547   1.771  15.505  0.1240 -0.4072  0.5788
 8718SOL     OW37615   2.413   0.657   3.355 -0.6901 -0.0527 -0.0574
 8718SOL    HW137616   2.318   0.651   3.339 -0.5652 -0.5915 -0.6323
 8718SOL    HW237617   2.418   0.684   3.446  1.3763  0.5283 -0.3552
 8719SOL     OW37618   2.175   0.612  14.870  0.0497  0.2135 -0.5688
 8719SOL    HW137619   2.233   0.539  14.848  2.6516  2.0499  0.3419
 8719SOL    HW237620   2.210   0.688  14.824 -1.6327  1.2662 -0.0995
 8720SOL     OW37621   3.062   3.400   2.964  0.0602  0.4902  0.0749
 8720SOL    HW137622   3.074   3.321   2.912 -0.3611  0.2817  0.2920
 8720SOL    HW237623   3.132   3.453   2.925  1.1699  0.1042  1.5446
 8721SOL     OW37624   1.165   0.297  13.903 -0.1262  0.4948  0.3103
 8721SOL    HW137625   1.226   0.234  13.864  1.2425  1.6953  0.5460
 8721SOL    HW237626   1.085   0.252  13.933 -0.4223 -0.4556 -1.9179
 8722SOL     OW37627   2.247   0.021  12.878 -0.5952 -0.1387 -0.1155
 8722SOL    HW137628   2.320   4.683  12.881 -0.2477  0.1996 -1.9137
 8722SOL    HW237629   2.192   4.693  12.821  1.3765 -2.2669 -0.0518
 8723SOL     OW37630   4.114   3.463  15.307  0.1758 -0.0752 -0.3564
 8723SOL    HW137631   4.078   3.384  15.265  2.4922 -0.3693 -1.8150
 8723SOL    HW237632   4.203   3.431  15.321 -1.4174 -3.9225  1.2120
 8724SOL     OW37633   4.701   1.050   4.869  0.2731  0.6901 -0.5927
 8724SOL    HW137634   4.607   1.068   4.857  0.7189  2.0473 -2.0130
 8724SOL    HW237635   4.716   1.054   4.964  0.3383 -0.9805 -0.5306
 8725SOL     OW37636   1.582   2.675   8.886  0.0725  0.1927 -0.9651
 8725SOL    HW137637   1.589   2.745   8.951 -1.9302 -0.7080  0.1810
 8725SOL    HW237638   1.574   2.604   8.949  1.0944  2.3581  1.6265
 8726SOL     OW37639   3.984   1.368   7.347 -0.0595  0.7755  0.0468
 8726SOL    HW137640   4.036   1.357   7.427  0.7363  0.4888 -0.5134
 8726SOL    HW237641   3.896   1.386   7.379  0.0069  0.1209  0.6048
 8727SOL     OW37642   2.631   2.477  15.446 -0.4541 -0.2214 -0.6704
 8727SOL    HW137643   2.675   2.525  15.516  0.3957  0.4410 -1.6650
 8727SOL    HW237644   2.569   2.540  15.411  1.0623  2.7379  2.0053
 8728SOL     OW37645   4.435   2.674   1.151  0.7471 -0.2596 -0.4279
 8728SOL    HW137646   4.477   2.603   1.200 -0.9440 -1.6136 -0.9677
 8728SOL    HW237647   4.372   2.706   1.216  0.8563 -0.9749  0.0367
 8729SOL     OW37648   4.636   2.564   3.859  0.4621  0.5218  0.6206
 8729SOL    HW137649   4.556   2.599   3.817  0.7355 -0.6304 -0.8781
 8729SOL    HW237650   4.684   2.647   3.868  2.3438 -0.6410  1.2083
 8730SOL     OW37651   4.398   3.836   8.223  0.2156  0.2311 -0.3510
 8730SOL    HW137652   4.445   3.763   8.184  0.1070  0.0166 -0.0860
 8730SOL    HW237653   4.306   3.813   8.207  0.0737  0.4311  0.1533
 8731SOL     OW37654   0.036   2.504  12.496  0.5353 -0.1534  0.0023
 8731SOL    HW137655   0.081   2.463  12.422  0.3936 -0.5383  0.1320
 8731SOL    HW237656   4.680   2.529  12.452  0.2317 -1.8679 -0.4126
 8732SOL     OW37657   4.311   2.122   2.314 -0.0286  0.5031 -0.6640
 8732SOL    HW137658   4.249   2.109   2.242 -0.1764  1.6328 -0.7415
 8732SOL    HW237659   4.395   2.104   2.273 -0.4361  2.6837 -2.4786
 8733SOL     OW37660   4.368   3.919   6.803 -0.0317  0.2201  0.3833
 8733SOL    HW137661   4.321   3.928   6.720 -0.9487 -2.5598  0.5810
 8733SOL    HW237662   4.424   3.996   6.810  0.8612 -0.2436 -1.7750
 8734SOL     OW37663   0.145   3.296   5.289  0.0775 -0.3815 -0.1390
 8734SOL    HW137664   0.072   3.274   5.231  0.2531 -1.5394  0.0718
 8734SOL    HW237665   0.111   3.381   5.316  0.1114 -0.4453  0.1035
 8735SOL     OW37666   4.241   0.143   6.158  0.0998  0.2126  0.0380
 8735SOL    HW137667   4.171   0.088   6.122 -2.4363  1.3605  3.2554
 8735SOL    HW237668   4.309   0.166   6.094  1.6444 -0.8441  1.2967
 8736SOL     OW37669   0.602   1.342   2.629 -0.2261  0.3255 -0.5493
 8736SOL    HW137670   0.598   1.247   2.618  2.3715 -0.0720  1.7428
 8736SOL    HW237671   0.671   1.348   2.696 -1.0294  1.4076  0.1829
 8737SOL     OW37672   1.539   3.502   7.141 -0.5365 -0.6799  0.1705
 8737SOL    HW137673   1.508   3.502   7.050  3.3800 -1.3070 -1.1785
 8737SOL    HW237674   1.468   3.454   7.184  0.1529 -0.2953  1.7543
 8738SOL     OW37675   3.938   0.118   4.198  0.0488  0.0347 -0.1340
 8738SOL    HW137676   4.021   0.137   4.241 -0.0778 -0.0361  0.1383
 8738SOL    HW237677   3.907   0.206   4.173 -1.1510 -0.4798 -0.4557
 8739SOL     OW37678   1.979   2.375   7.834  0.3827 -0.2797 -0.1970
 8739SOL    HW137679   1.919   2.437   7.794  0.0417  0.5313  1.5473
 8739SOL    HW237680   2.043   2.427   7.882 -0.7137  2.6271 -1.9325
 8740SOL     OW37681   0.084   0.513   1.417  0.0180 -0.0975 -0.2038
 8740SOL    HW137682   0.064   0.441   1.357  1.2987 -0.7079  0.1108
 8740SOL    HW237683   0.012   0.505   1.479 -1.6230 -0.2577 -2.1456
 8741SOL     OW37684   4.193   1.228   1.281 -0.8583 -0.0194 -0.3260
 8741SOL    HW137685   4.173   1.157   1.342  0.5545  1.3878  1.7851
 8741SOL    HW237686   4.281   1.251   1.313 -1.1347  0.2258  0.2464
 8742SOL     OW37687   4.272   3.906  17.047 -0.5632 -0.5891  0.2286
 8742SOL    HW137688   4.293   3.964  16.973  1.5620  0.7782  1.9169
 8742SOL    HW237689   4.257   3.967  17.119 -1.4145 -1.4880  0.8104
 8743SOL     OW37690   0.119   2.713   4.792  0.4809 -0.1106 -0.1965
 8743SOL    HW137691   0.138   2.636   4.738  1.2025  0.8974 -1.3594
 8743SOL    HW237692   0.163   2.684   4.872  1.0065  1.1925 -0.0075
 8744SOL     OW37693   4.711   3.767  14.064 -0.7928 -0.2380  0.0280
 8744SOL    HW137694   4.631   3.785  14.112 -1.1723 -0.3065 -0.5914
 8744SOL    HW237695   4.684   3.687  14.020  1.1933 -1.4834  1.0432
 8745SOL     OW37696   1.251   3.477  15.890  0.2248 -0.3485 -0.3643
 8745SOL    HW137697   1.346   3.489  15.884  0.1184 -0.1269 -1.5319
 8745SOL    HW237698   1.220   3.533  15.820  2.4475 -1.3993 -2.1660
 8746SOL     OW37699   0.617   3.012   5.248  0.4173 -0.3276 -0.1633
 8746SOL    HW137700   0.696   3.034   5.199  2.0386 -1.7127  1.8332
 8746SOL    HW237701   0.566   3.093   5.253 -0.6979 -1.1068  1.2615
 8747SOL     OW37702   1.934   4.607  15.099  0.2036 -0.4478 -0.0813
 8747SOL    HW137703   1.996   4.676  15.075  0.3652  0.0262  1.6701
 8747SOL    HW237704   1.993   4.531  15.105 -0.9692 -1.3948 -0.4677
 8748SOL     OW37705   0.362   1.818  11.971  0.1175 -0.5551 -0.3789
 8748SOL    HW137706   0.310   1.883  12.020  0.1285 -1.3069  0.6159
 8748SOL    HW237707   0.335   1.735  12.010  0.7636 -1.2717 -1.4656
 8749SOL     OW37708   0.861   0.401   3.205  0.1930 -0.3118 -0.1959
 8749SOL    HW137709   0.953   0.413   3.226  0.4162 -0.3469 -1.1759
 8749SOL    HW237710   0.843   0.327   3.263  4.0389 -0.3919  0.8922
 8750SOL     OW37711   4.616   1.038  13.784  0.3418  0.6365 -0.4190
 8750SOL    HW137712   4.591   0.956  13.740  1.0370  0.7989 -1.1028
 8750SOL    HW237713   4.529   1.060  13.817 -0.5834 -2.6512 -0.6532
 8751SOL     OW37714   1.320   1.986   6.441  0.0625  0.1562  0.2119
 8751SOL    HW137715   1.390   1.921   6.451  0.2924 -0.0497 -2.8935
 8751SOL    HW237716   1.312   2.011   6.533 -0.3504 -0.4478  0.3384
 8752SOL     OW37717   3.663   1.471  12.531 -0.1984 -0.6289 -0.0882
 8752SOL    HW137718   3.589   1.515  12.573 -0.8794 -2.6395  0.8533
 8752SOL    HW237719   3.628   1.415  12.462 -0.7416 -1.1866  0.6367
 8753SOL     OW37720   1.668   4.467   0.273  0.0985  0.1194 -0.6155
 8753SOL    HW137721   1.745   4.428   0.314 -0.9511 -2.0953 -0.7160
 8753SOL    HW237722   1.705   4.555   0.269 -0.7399  0.5866  2.1900
 8754SOL     OW37723   3.480   2.663   6.075 -1.1263  0.8529 -0.3088
 8754SOL    HW137724   3.545   2.696   6.137 -1.0153 -0.2331  0.1550
 8754SOL    HW237725   3.530   2.649   5.995 -1.0750 -1.6795  0.1717
 8755SOL     OW37726   0.062   2.326   5.940  0.4515 -0.3699 -0.2718
 8755SOL    HW137727   0.095   2.238   5.961 -2.0002 -1.5068 -1.0979
 8755SOL    HW237728   0.136   2.351   5.886  1.7537  0.8883  2.1120
 8756SOL     OW37729   2.075   3.291   3.161 -0.2147 -0.0627  0.1613
 8756SOL    HW137730   2.102   3.331   3.244  0.6105  2.3334 -1.2461
 8756SOL    HW237731   2.047   3.369   3.112  0.7854  0.1570 -0.0561
 8757SOL     OW37732   3.812   0.357   4.163 -0.2503 -0.5234 -0.2900
 8757SOL    HW137733   3.724   0.366   4.126 -0.9688 -1.5093  1.2021
 8757SOL    HW237734   3.803   0.407   4.244 -1.8637  0.8536 -1.3324
 8758SOL     OW37735   3.098   2.835   2.566 -0.0993  0.2518  0.0128
 8758SOL    HW137736   3.179   2.873   2.532  0.0763  0.4217  0.6169
 8758SOL    HW237737   3.059   2.801   2.486  2.0254 -1.7672 -0.1879
 8759SOL     OW37738   1.386   4.310  11.972 -0.2814  0.2410  0.3999
 8759SOL    HW137739   1.427   4.227  11.948  1.9389  0.5531  3.1510
 8759SOL    HW237740   1.301   4.275  12.000  0.0995  0.3336  1.6961
 8760SOL     OW37741   3.498   3.356   3.351 -0.5281  0.0486  0.0861
 8760SOL    HW137742   3.574   3.393   3.396  0.6502 -1.5658 -0.6041
 8760SOL    HW237743   3.503   3.380   3.258 -0.3381 -0.8883 -0.1370
 8761SOL     OW37744   2.777   1.283   4.101  0.7160 -0.5449 -0.7591
 8761SOL    HW137745   2.847   1.220   4.090  1.2231 -0.1937  0.4474
 8761SOL    HW237746   2.718   1.234   4.158  1.2330  1.0490  1.1478
 8762SOL     OW37747   3.896   3.857   7.040  0.8287  0.4000 -0.4264
 8762SOL    HW137748   3.840   3.781   7.053  1.2574  0.3997  1.4381
 8762SOL    HW237749   3.975   3.823   7.081  0.1688  0.6213  1.0496
 8763SOL     OW37750   3.714   4.543   1.175 -0.3030  1.0161  0.6053
 8763SOL    HW137751   3.739   4.540   1.267  3.6257 -1.4896 -0.5757
 8763SOL    HW237752   3.666   4.461   1.172 -0.6597  1.3788 -3.6085
 8764SOL     OW37753   1.015   4.496  15.292  0.0178  0.0669  0.0378
 8764SOL    HW137754   1.019   4.478  15.386  0.1973  0.0152  0.0200
 8764SOL    HW237755   1.032   4.410  15.254  1.7265  0.1014  0.7355
 8765SOL     OW37756   3.037   4.699   2.333 -0.2159  0.4171 -0.0791
 8765SOL    HW137757   3.044   4.654   2.249 -0.3851  0.3784 -0.0734
 8765SOL    HW237758   3.042   4.629   2.399 -0.6181  1.9160  1.5414
 8766SOL     OW37759   1.348   2.143   4.314  0.7405 -0.7443  0.1206
 8766SOL    HW137760   1.318   2.138   4.223  1.0026  0.9326 -0.0599
 8766SOL    HW237761   1.431   2.191   4.307 -0.4775  1.3621  0.3284
 8767SOL     OW37762   4.558   1.945   6.060  0.4150 -0.3564 -0.3455
 8767SOL    HW137763   4.488   1.996   6.018 -2.1824 -0.8790  3.3102
 8767SOL    HW237764   4.636   1.998   6.074 -1.1208  1.4489  1.5180
 8768SOL     OW37765   0.341   0.978   3.567 -0.4003 -0.0777  0.4800
 8768SOL    HW137766   0.341   0.935   3.482 -0.1438  0.6336  0.1185
 8768SOL    HW237767   0.261   0.942   3.605  0.8537 -1.3081  1.9568
 8769SOL     OW37768   0.105   3.078  11.018 -0.4343  0.5874  0.4951
 8769SOL    HW137769   0.144   3.008  10.966 -1.7044 -0.1343  0.5255
 8769SOL    HW237770   0.011   3.081  11.000 -0.3105  1.1648 -0.0690
 8770SOL     OW37771   4.052   1.864   3.656 -0.0756 -0.4926 -0.0658
 8770SOL    HW137772   3.988   1.835   3.721 -0.2439 -0.3194 -0.1564
 8770SOL    HW237773   4.123   1.811   3.692  1.0300  0.1766 -1.2663
 8771SOL     OW37774   3.559   3.528   8.560 -0.3454  0.0104 -0.3107
 8771SOL    HW137775   3.503   3.572   8.496  1.5759 -0.6040 -2.3942
 8771SOL    HW237776   3.490   3.517   8.625 -0.2017 -1.1921 -0.3703
 8772SOL     OW37777   1.510   0.221   7.650  0.3113  0.5304  0.6410
 8772SOL    HW137778   1.551   0.251   7.730  0.4599  0.9187  0.4178
 8772SOL    HW237779   1.420   0.204   7.680 -0.6479  1.2803 -1.7743
 8773SOL     OW37780   2.122   0.345   2.441  0.8563 -0.0237  0.4779
 8773SOL    HW137781   2.173   0.402   2.382  0.5251  0.0441  0.2542
 8773SOL    HW237782   2.102   0.282   2.371  0.3526 -0.3717  0.9384
 8774SOL     OW37783   4.048   3.056   8.527  0.0844 -0.2488  0.4205
 8774SOL    HW137784   4.023   3.132   8.578 -0.4842  0.7618 -1.3841
 8774SOL    HW237785   4.118   3.021   8.583 -0.4211  1.3014  2.0155
 8775SOL     OW37786   3.986   2.065   4.558  0.2693  0.0898  0.2108
 8775SOL    HW137787   4.060   2.005   4.557 -0.2375 -0.5312  0.2340
 8775SOL    HW237788   3.950   2.060   4.470  2.7993  0.0733 -0.8207
 8776SOL     OW37789   3.308   3.278   2.508 -0.2335  0.3664 -1.1184
 8776SOL    HW137790   3.262   3.354   2.544 -0.3723 -0.9499  1.4548
 8776SOL    HW237791   3.365   3.320   2.443 -0.3833  1.8296 -0.3082
 8777SOL     OW37792   2.396   2.379  11.923  0.0358  0.1661 -0.0311
 8777SOL    HW137793   2.330   2.313  11.903 -1.3687  1.2846  0.8712
 8777SOL    HW237794   2.444   2.327  11.988  0.1063 -2.5787 -2.2871
 8778SOL     OW37795   2.548   3.634   8.259  0.1605  0.3706  0.2807
 8778SOL    HW137796   2.611   3.593   8.318 -1.8474 -1.1518  1.3600
 8778SOL    HW237797   2.475   3.662   8.314 -0.1930  0.9194 -0.4745
 8779SOL     OW37798   3.320   0.764   3.684  0.2726 -0.0520  0.4177
 8779SOL    HW137799   3.279   0.750   3.769  2.3162 -0.7356  1.3110
 8779SOL    HW237800   3.323   0.673   3.653  0.0378 -0.6841  2.2763
 8780SOL     OW37801   3.371   3.703   0.687 -0.0621 -0.0230 -0.2380
 8780SOL    HW137802   3.392   3.667   0.601 -0.8821 -0.0007 -0.4488
 8780SOL    HW237803   3.404   3.631   0.740 -0.8154 -0.0699  0.1648
 8781SOL     OW37804   3.903   3.315   2.172 -0.0776 -0.1806  0.2208
 8781SOL    HW137805   3.836   3.376   2.204 -0.0923  0.2348 -0.5940
 8781SOL    HW237806   3.967   3.328   2.241 -0.0821  0.5815  0.0867
 8782SOL     OW37807   2.924   3.494  11.796  0.1077  0.0302  0.2747
 8782SOL    HW137808   2.939   3.408  11.756  0.3722 -0.3742  1.2335
 8782SOL    HW237809   2.903   3.465  11.885 -1.6016  2.0057  0.5108
 8783SOL     OW37810   2.631   0.249   8.642 -0.1826  0.4857  0.7613
 8783SOL    HW137811   2.703   0.247   8.578 -0.9526 -2.4775 -0.0079
 8783SOL    HW237812   2.587   0.165   8.629  2.3986 -0.4284 -2.2716
 8784SOL     OW37813   3.913   2.980   2.305 -0.1262 -0.4110 -0.4694
 8784SOL    HW137814   3.964   3.030   2.241  0.1130 -0.3775 -0.2490
 8784SOL    HW237815   3.835   2.948   2.259 -0.4151  0.2941 -0.4639
 8785SOL     OW37816   3.353   4.573   1.268  0.2482 -0.6190  0.5306
 8785SOL    HW137817   3.418   4.540   1.206 -0.1117  2.2699 -1.3987
 8785SOL    HW237818   3.275   4.522   1.247 -0.8413  1.5082 -0.6564
 8786SOL     OW37819   0.058   0.222  12.644 -0.3390  0.1875 -0.1499
 8786SOL    HW137820   0.004   0.282  12.593 -2.5993 -2.1711 -0.5176
 8786SOL    HW237821   0.024   0.227  12.733 -0.3849  1.5154 -0.2405
 8787SOL     OW37822   0.238   0.678   7.571  0.0537 -0.2163 -0.5488
 8787SOL    HW137823   0.287   0.747   7.616 -0.5577  0.2635 -0.6155
 8787SOL    HW237824   0.304   0.609   7.578  2.5283  2.2088  0.2404
 8788SOL     OW37825   3.602   0.957   1.256 -0.0537  0.2998 -0.1077
 8788SOL    HW137826   3.695   0.951   1.234  0.1244 -2.0109  1.3440
 8788SOL    HW237827   3.592   1.042   1.213  1.6435  1.0537  1.0072
 8789SOL     OW37828   3.272   1.053   5.267 -0.1483 -0.1951  0.7854
 8789SOL    HW137829   3.257   1.084   5.357 -0.3383  0.2487  0.5997
 8789SOL    HW237830   3.257   1.140   5.230  0.8135 -0.5299 -0.3942
 8790SOL     OW37831   1.050   2.513   4.691 -0.0767  0.6081  0.4510
 8790SOL    HW137832   1.066   2.422   4.663 -0.3274  0.9295 -0.7504
 8790SOL    HW237833   1.088   2.566   4.620 -0.7899 -0.8122 -1.0080
 8791SOL     OW37834   1.274   4.583   3.971  0.2255 -0.0795  0.4634
 8791SOL    HW137835   1.247   4.491   3.975 -0.5035  0.1718  1.1923
 8791SOL    HW237836   1.186   4.616   3.954  0.8405  2.1306  1.6247
 8792SOL     OW37837   2.269   3.534  10.322 -0.0322  0.0614  0.4320
 8792SOL    HW137838   2.222   3.617  10.333 -1.5369 -0.3193 -3.1890
 8792SOL    HW237839   2.283   3.511  10.414 -1.4166 -0.6578  0.4709
 8793SOL     OW37840   2.957   3.524   5.468 -0.0508  0.2648  0.2255
 8793SOL    HW137841   2.907   3.599   5.499 -3.0900 -0.2822 -3.3696
 8793SOL    HW237842   2.891   3.500   5.403 -0.3440  3.7118 -0.7470
 8794SOL     OW37843   2.390   1.409   1.515  0.1075  1.1834 -0.4519
 8794SOL    HW137844   2.360   1.500   1.505  1.9934  1.8631  0.0636
 8794SOL    HW237845   2.317   1.368   1.560  1.8473 -1.0695  0.2757
 8795SOL     OW37846   0.405   0.262   3.283  0.4607 -0.2377 -0.0266
 8795SOL    HW137847   0.361   0.226   3.206  1.2886  0.7376 -0.9429
 8795SOL    HW237848   0.497   0.237   3.274 -0.0791 -1.6680 -1.6652
 8796SOL     OW37849   2.637   0.426   6.169 -0.1067  0.1668 -0.3348
 8796SOL    HW137850   2.664   0.393   6.083 -0.6077  1.7006 -1.0738
 8796SOL    HW237851   2.616   0.517   6.150  1.1312 -0.0015 -2.5862
 8797SOL     OW37852   4.065   0.055   7.878 -0.1230  0.1032  0.3026
 8797SOL    HW137853   4.063   4.699   7.828 -1.6076  0.1383  0.2938
 8797SOL    HW237854   4.029   0.118   7.815 -0.0595  1.5525  1.7330
 8798SOL     OW37855   2.120   4.493   8.733  0.3965  0.0950 -0.1401
 8798SOL    HW137856   2.026   4.490   8.717  0.7654 -0.0919 -2.2010
 8798SOL    HW237857   2.158   4.489   8.646 -1.2959 -1.4596 -0.8173
 8799SOL     OW37858   0.183   4.209   7.352  0.0874  0.0705  0.3525
 8799SOL    HW137859   0.253   4.148   7.328  0.5549 -0.7537  3.7914
 8799SOL    HW237860   0.212   4.299   7.344 -3.9759  1.2701 -0.9823
 8800SOL     OW37861   2.916   4.080   9.002  0.1224 -0.5183 -0.2879
 8800SOL    HW137862   2.992   4.068   8.945  0.0589 -0.0448 -0.4707
 8800SOL    HW237863   2.915   4.002   9.057 -0.9227 -1.8451 -2.1758
 8801SOL     OW37864   3.576   4.581   4.079  0.0435  0.5962  0.0352
 8801SOL    HW137865   3.653   4.526   4.065 -0.2920  0.0033  0.5431
 8801SOL    HW237866   3.607   4.665   4.045  1.5818  0.4784  1.1737
 8802SOL     OW37867   0.897   0.095   4.305 -0.0990 -0.4165 -0.4492
 8802SOL    HW137868   0.943   0.011   4.313 -1.8515 -1.3454 -0.1561
 8802SOL    HW237869   0.863   0.109   4.393  1.1916  0.7776 -0.1337
 8803SOL     OW37870   0.899   0.789   1.297 -0.2486 -0.2862  0.2531
 8803SOL    HW137871   0.862   0.873   1.324  2.1477  0.0127  2.5549
 8803SOL    HW237872   0.861   0.782   1.209  2.4631 -4.1508 -0.6339
 8804SOL     OW37873   4.411   1.031   1.143  0.2957 -0.6002 -0.3809
 8804SOL    HW137874   4.446   1.096   1.082  0.1323 -0.4689 -0.3355
 8804SOL    HW237875   4.349   1.078   1.198  1.6092  1.4336 -0.6573
 8805SOL     OW37876   3.364   1.809   8.221 -0.0541 -0.1281 -0.4004
 8805SOL    HW137877   3.404   1.726   8.195  1.4723  0.7228 -0.7634
 8805SOL    HW237878   3.419   1.843   8.292  0.0491  1.8134 -1.4115
 8806SOL     OW37879   0.143   3.730   5.437  0.3480  0.0502 -0.3052
 8806SOL    HW137880   0.067   3.785   5.459  0.1096 -0.7149  0.7633
 8806SOL    HW237881   0.098   3.648   5.417 -1.3365  0.9730 -0.2964
 8807SOL     OW37882   0.714   0.992   6.471  0.0620  0.4924  0.5070
 8807SOL    HW137883   0.785   1.048   6.439 -1.0931  0.7198 -1.6141
 8807SOL    HW237884   0.639   1.038   6.434  0.9664 -0.1249 -2.0450
 8808SOL     OW37885   3.537   0.810   5.562 -0.2243  0.3169 -0.5336
 8808SOL    HW137886   3.493   0.804   5.477  0.6247 -3.9457 -0.6482
 8808SOL    HW237887   3.590   0.889   5.559  0.7208 -0.2862  0.4835
 8809SOL     OW37888   0.232   2.129   3.430 -0.0048 -0.4947  0.0938
 8809SOL    HW137889   0.240   2.217   3.465  0.7563 -1.1432  1.5401
 8809SOL    HW237890   0.300   2.079   3.474  1.1666  2.1952  1.2984
 8810SOL     OW37891   2.540   4.064  13.389 -0.0753  0.4354 -0.1348
 8810SOL    HW137892   2.498   3.991  13.434  2.1734 -0.2024  0.9359
 8810SOL    HW237893   2.594   4.008  13.333 -2.5632 -1.8537 -0.2664
 8811SOL     OW37894   2.060   2.471   0.724 -0.4942  0.7007  0.2168
 8811SOL    HW137895   1.976   2.424   0.730 -0.5109  0.2809 -3.2621
 8811SOL    HW237896   2.052   2.551   0.776  1.4277  1.0069  0.0336
 8812SOL     OW37897   4.284   1.928   4.060  0.1588  0.0608  0.1008
 8812SOL    HW137898   4.295   1.970   3.975  0.0303  0.1126  0.1105
 8812SOL    HW237899   4.281   2.010   4.109 -1.3572 -0.3166  0.6215
 8813SOL     OW37900   4.258   1.481   0.956  0.3715  0.3653 -0.7108
 8813SOL    HW137901   4.278   1.575   0.951  2.8148 -0.0765  0.6295
 8813SOL    HW237902   4.336   1.457   1.005  0.7021  1.0913 -0.8742
 8814SOL     OW37903   0.154   2.437   3.813  0.1566 -0.0783  0.5188
 8814SOL    HW137904   0.079   2.473   3.861 -1.3408 -0.7893 -1.2758
 8814SOL    HW237905   0.143   2.475   3.725 -1.6583 -0.8028  0.4374
 8815SOL     OW37906   4.176   0.472  16.221  0.2732 -0.0817 -0.0062
 8815SOL    HW137907   4.088   0.492  16.252  0.0136 -0.8093 -0.2638
 8815SOL    HW237908   4.168   0.379  16.200  0.5643  0.6090 -3.1564
 8816SOL     OW37909   3.992   2.584   1.952 -0.5461 -0.4435 -0.0091
 8816SOL    HW137910   3.978   2.677   1.933 -1.1082 -0.2899  1.1137
 8816SOL    HW237911   4.059   2.585   2.020  0.4024 -1.1324 -0.9521
 8817SOL     OW37912   1.995   2.728  12.195 -0.1309  0.3573  0.0539
 8817SOL    HW137913   2.068   2.775  12.156 -1.1700  1.5739 -0.3970
 8817SOL    HW237914   1.956   2.683  12.120  1.5239  0.2835 -0.7659
 8818SOL     OW37915   3.043   0.695   4.662 -0.0970  0.1744  0.4780
 8818SOL    HW137916   3.081   0.716   4.748  0.9437  0.4699 -0.0489
 8818SOL    HW237917   3.120   0.665   4.614 -1.8956  0.4386 -2.5483
 8819SOL     OW37918   0.510   2.722   8.980 -0.5834  0.3098  0.1686
 8819SOL    HW137919   0.434   2.688   9.027  0.5596 -0.7450  1.2464
 8819SOL    HW237920   0.473   2.802   8.941 -0.1841  0.3855 -0.0530
 8820SOL     OW37921   0.393   4.544   9.363 -0.3616  0.2328  0.2733
 8820SOL    HW137922   0.369   4.602   9.290 -0.0908 -2.8496 -2.2497
 8820SOL    HW237923   0.319   4.557   9.423 -0.7039 -1.0656  0.1233
 8821SOL     OW37924   2.654   0.205   4.781  0.2715  0.6051 -0.3181
 8821SOL    HW137925   2.625   0.167   4.698  1.8980 -0.0309 -0.6040
 8821SOL    HW237926   2.659   0.123   4.830 -0.8770 -0.4876 -2.0411
 8822SOL     OW37927   2.518   1.277  12.873 -0.0111 -0.0437 -0.0284
 8822SOL    HW137928   2.476   1.239  12.950  1.0623  0.1319  0.6523
 8822SOL    HW237929   2.526   1.204  12.812 -2.0923 -0.5749  0.3434
 8823SOL     OW37930   0.882   0.893  13.297  0.0906 -0.4078 -0.2784
 8823SOL    HW137931   0.825   0.953  13.249  0.9693  0.7631  0.1468
 8823SOL    HW237932   0.866   0.925  13.386 -1.8710  0.3797 -0.9177
 8824SOL     OW37933   2.229   2.464   5.162  0.0795  0.3482 -0.0206
 8824SOL    HW137934   2.138   2.437   5.169  0.2302  0.3233  1.7111
 8824SOL    HW237935   2.258   2.462   5.253  0.0256  0.4562 -0.0007
 8825SOL     OW37936   0.041   1.215  11.476 -0.1994 -0.8269 -0.8094
 8825SOL    HW137937   0.066   1.241  11.387 -0.1492  1.5579 -0.0789
 8825SOL    HW237938   0.127   1.232  11.512 -0.6140 -1.4890  0.4870
 8826SOL     OW37939   3.909   0.700  13.242 -0.0128  0.3718 -0.0021
 8826SOL    HW137940   3.884   0.784  13.202 -0.9506 -0.3934 -1.0298
 8826SOL    HW237941   3.825   0.654  13.235 -0.2602  0.9658 -0.9837
 8827SOL     OW37942   1.066   2.010   9.247 -0.4345  0.2973  0.9206
 8827SOL    HW137943   1.009   1.934   9.243 -0.4113  0.4844 -2.3936
 8827SOL    HW237944   1.094   2.013   9.156  0.2608  4.5059  1.2385
 8828SOL     OW37945   3.871   0.088  12.557 -0.1722 -0.5797 -0.6812
 8828SOL    HW137946   3.840   0.044  12.478  1.4007  0.3113 -1.7986
 8828SOL    HW237947   3.965   0.072  12.549  0.2353  2.1303 -1.1010
 8829SOL     OW37948   2.490   1.363   2.236 -0.6950 -0.0217 -0.4298
 8829SOL    HW137949   2.544   1.351   2.314 -0.8566  0.0198 -0.3091
 8829SOL    HW237950   2.555   1.355   2.167 -1.4351  1.7307 -1.3241
 8830SOL     OW37951   3.979   3.694   1.967 -0.7809 -0.5170  0.0611
 8830SOL    HW137952   3.994   3.601   1.951  0.3612 -0.6887  2.1313
 8830SOL    HW237953   3.986   3.737   1.882  1.2484 -1.9856 -0.4911
 8831SOL     OW37954   0.131   1.155   6.344  0.2687  0.0275 -0.1441
 8831SOL    HW137955   0.085   1.211   6.281 -1.1662 -2.5129 -1.3673
 8831SOL    HW237956   0.121   1.207   6.423  2.3152 -1.3099  0.9834
 8832SOL     OW37957   1.325   1.920   3.568  0.3511 -0.2473 -0.2119
 8832SOL    HW137958   1.261   1.925   3.497 -2.4686  1.9770  2.4474
 8832SOL    HW237959   1.366   1.834   3.567  0.4292 -0.2345  0.9849
 8833SOL     OW37960   1.582   3.564   1.969 -0.5092  0.2928  0.4661
 8833SOL    HW137961   1.540   3.565   1.883 -0.6882 -1.0453  0.5439
 8833SOL    HW237962   1.636   3.486   1.969 -1.2813 -0.2427  1.0361
 8834SOL     OW37963   0.485   1.845   2.490 -0.3708  0.3036  0.5867
 8834SOL    HW137964   0.513   1.788   2.419  0.4711 -0.1349  1.2719
 8834SOL    HW237965   0.464   1.918   2.431 -0.9905 -0.1571  0.2375
 8835SOL     OW37966   2.516   2.791  11.575 -0.3321 -0.1523  0.2468
 8835SOL    HW137967   2.519   2.703  11.614 -2.1620  0.0390  0.8087
 8835SOL    HW237968   2.428   2.812  11.606  0.2749  3.4749 -0.5356
 8836SOL     OW37969   4.423   0.019   0.117  0.8160  0.1483 -0.3087
 8836SOL    HW137970   4.475   0.050   0.043  0.4146  0.2770 -0.5373
 8836SOL    HW237971   4.492   0.036   0.182 -1.1757  2.9793  1.0808
 8837SOL     OW37972   3.033   4.706   6.976 -0.4266 -0.1720  0.3287
 8837SOL    HW137973   2.942   4.679   6.985 -1.0260  1.0536 -2.3141
 8837SOL    HW237974   3.010   0.073   6.967  1.3231  0.1255 -0.9328
 8838SOL     OW37975   0.701   1.963   9.383  0.5213  0.2514  0.4318
 8838SOL    HW137976   0.652   1.882   9.396  0.1198  0.5973  1.0426
 8838SOL    HW237977   0.782   1.950   9.432 -0.3612 -0.9689  1.5820
 8839SOL     OW37978   0.016   0.884   8.937  0.2791  0.6807 -0.2890
 8839SOL    HW137979   4.704   0.972   8.935  0.6844  0.8651  0.7013
 8839SOL    HW237980   4.687   0.827   8.882  1.0298 -1.1838  0.8926
 8840SOL     OW37981   1.323   2.839   4.542  0.2224 -0.2876  0.3998
 8840SOL    HW137982   1.383   2.913   4.547  0.6228 -0.4637 -1.5188
 8840SOL    HW237983   1.276   2.849   4.458 -0.3075  0.6501  0.8158
 8841SOL     OW37984   3.577   4.670   0.958 -0.0189  0.1901 -0.0252
 8841SOL    HW137985   3.651   0.004   0.946 -0.2149  0.3724 -0.3443
 8841SOL    HW237986   3.607   4.627   1.038 -0.8484 -0.7027 -0.1950
 8842SOL     OW37987   3.432   4.485   1.900  0.0033  0.0496 -0.2149
 8842SOL    HW137988   3.499   4.438   1.849  0.4313 -0.2481  0.6299
 8842SOL    HW237989   3.449   4.450   1.987  0.4445 -0.6041 -0.5613
 8843SOL     OW37990   2.261   1.714   2.711  0.2112  0.1359 -0.7509
 8843SOL    HW137991   2.232   1.709   2.802  0.6498  0.6445 -0.5776
 8843SOL    HW237992   2.340   1.767   2.727 -0.3867  1.1089 -1.0314
 8844SOL     OW37993   3.472   4.229   4.010 -0.3277  0.3301 -0.4486
 8844SOL    HW137994   3.503   4.220   4.100 -1.4393 -0.8654 -0.1809
 8844SOL    HW237995   3.477   4.323   3.993  0.3003  0.3537 -0.1304
 8845SOL     OW37996   1.150   3.432   6.686 -0.1642 -0.4335 -0.0270
 8845SOL    HW137997   1.223   3.493   6.690  1.3076 -2.1337 -0.8430
 8845SOL    HW237998   1.168   3.402   6.597 -1.7788 -1.4905 -0.0062
 8846SOL     OW37999   0.991   1.586   5.106  0.2944  0.1980  0.7538
 8846SOL    HW138000   0.973   1.674   5.072 -1.5102 -1.2026 -1.9085
 8846SOL    HW238001   1.061   1.612   5.166 -0.4691  0.4761  1.5212
 8847SOL     OW38002   0.164   3.405  13.710 -0.1870 -0.2565 -0.0260
 8847SOL    HW138003   0.210   3.436  13.789 -0.0998 -0.6855  0.0952
 8847SOL    HW238004   0.192   3.466  13.642 -1.3554 -1.6678 -1.7728
 8848SOL     OW38005   1.856   4.587   6.616  0.2443 -0.0465 -0.0766
 8848SOL    HW138006   1.813   4.659   6.663 -0.7126 -0.4333 -0.3624
 8848SOL    HW238007   1.791   4.538   6.566  0.1373  0.1736 -0.1567
 8849SOL     OW38008   2.129   1.354   5.944 -0.1451  0.1130 -0.3234
 8849SOL    HW138009   2.116   1.445   5.918  2.1256  1.0619  1.8829
 8849SOL    HW238010   2.152   1.361   6.037 -0.0943  3.5188 -0.5900
 8850SOL     OW38011   1.191   0.415   3.696  0.2792 -0.3093  0.1894
 8850SOL    HW138012   1.267   0.457   3.734  0.0418  0.7345 -0.4987
 8850SOL    HW238013   1.225   0.370   3.618  2.6991 -1.5107  1.9634
 8851SOL     OW38014   0.494   3.746   8.246 -0.0651 -0.5332  0.3208
 8851SOL    HW138015   0.538   3.663   8.265  3.5565  0.8822 -1.8418
 8851SOL    HW238016   0.547   3.813   8.292 -3.5558  2.2432  0.2819
 8852SOL     OW38017   0.939   2.746   8.923 -0.0393 -0.0078  0.5844
 8852SOL    HW138018   0.963   2.761   8.832  3.2485 -0.3304  1.4050
 8852SOL    HW238019   1.028   2.753   8.956 -0.1586 -1.8682  1.3517
 8853SOL     OW38020   0.146   3.529  12.692 -0.2528 -0.2141 -0.0986
 8853SOL    HW138021   0.192   3.609  12.666 -2.0375  0.8733  0.0672
 8853SOL    HW238022   0.089   3.564  12.760 -1.0766 -0.4961 -0.6524
 8854SOL     OW38023   2.195   0.531   2.725  0.0176  0.3163 -0.1562
 8854SOL    HW138024   2.256   0.559   2.656 -0.6658 -1.0733 -1.3313
 8854SOL    HW238025   2.244   0.551   2.805  0.8603  1.6757 -0.9949
 8855SOL     OW38026   2.695   4.339   2.228  0.0189 -0.0151 -0.3889
 8855SOL    HW138027   2.688   4.425   2.187 -0.8346 -0.1429 -0.5168
 8855SOL    HW238028   2.690   4.290   2.145 -1.4564 -1.6695  0.6813
 8856SOL     OW38029   3.256   4.104   8.550  0.4104 -0.5252 -0.3057
 8856SOL    HW138030   3.172   4.067   8.524  0.0820 -0.8679  1.2494
 8856SOL    HW238031   3.302   4.062   8.477  1.0104  1.1894 -0.9035
 8857SOL     OW38032   3.585   1.847   3.063 -0.1131 -0.4165 -0.2890
 8857SOL    HW138033   3.563   1.757   3.085  0.5500 -0.0211  2.0118
 8857SOL    HW238034   3.589   1.840   2.967 -1.1352  1.2539 -0.4570
 8858SOL     OW38035   3.666   0.653   6.954  0.0674 -0.7236  0.5092
 8858SOL    HW138036   3.602   0.670   7.023 -1.4542 -2.9348 -0.3238
 8858SOL    HW238037   3.717   0.733   6.962 -3.8459  1.7311  0.7325
 8859SOL     OW38038   3.896   4.342   8.336 -0.4005  0.4232  0.3265
 8859SOL    HW138039   3.879   4.433   8.309 -0.6856 -0.0251 -1.0094
 8859SOL    HW238040   3.960   4.353   8.406 -0.0422  0.0928  0.0526
 8860SOL     OW38041   1.748   0.095   3.648  0.2957  0.5826  0.0625
 8860SOL    HW138042   1.656   0.110   3.669 -0.1738 -4.1401  1.2631
 8860SOL    HW238043   1.792   0.175   3.679 -1.7262  1.0535  1.7038
 8861SOL     OW38044   2.347   0.649   8.206  0.2005 -0.3876  0.9841
 8861SOL    HW138045   2.429   0.625   8.250 -0.6902 -1.2448  2.1907
 8861SOL    HW238046   2.352   0.739   8.175 -1.5936 -1.3914 -2.2329
 8862SOL     OW38047   0.789   1.392   4.011 -0.2486  0.2419  0.4133
 8862SOL    HW138048   0.695   1.399   3.995 -0.0925 -1.5544 -1.2430
 8862SOL    HW238049   0.813   1.351   3.928 -1.8487  0.6207 -0.2199
 8863SOL     OW38050   1.362   1.553   6.934  0.0099 -0.2262 -0.2532
 8863SOL    HW138051   1.301   1.482   6.913 -1.8348  1.6838 -1.3455
 8863SOL    HW238052   1.329   1.601   7.010  0.9392 -0.9292  0.5920
 8864SOL     OW38053   1.658   0.081   2.229  0.4737 -0.1701 -0.2082
 8864SOL    HW138054   1.661   0.165   2.275 -0.0560 -1.3512  1.9799
 8864SOL    HW238055   1.568   0.055   2.249  0.6660 -0.2442  0.5626
 8865SOL     OW38056   1.845   2.953  11.160 -0.1958 -0.7065 -0.0201
 8865SOL    HW138057   1.831   2.929  11.069  0.6736  0.1191 -0.3855
 8865SOL    HW238058   1.759   2.954  11.200 -0.2406  0.2714 -0.1252
 8866SOL     OW38059   3.879   2.091   9.784 -0.2089  0.4275  0.4817
 8866SOL    HW138060   3.898   2.019   9.845  0.8450 -1.9231 -2.6365
 8866SOL    HW238061   3.791   2.066   9.754 -0.0761 -0.4454  0.8334
 8867SOL     OW38062   3.901   4.276   7.372 -0.0422  0.1470 -0.0354
 8867SOL    HW138063   3.959   4.250   7.444 -0.3234  1.1467  0.5506
 8867SOL    HW238064   3.931   4.219   7.301  2.1124  1.6055 -0.2979
 8868SOL     OW38065   0.595   0.843  16.786 -0.1582 -0.6443  0.0451
 8868SOL    HW138066   0.623   0.760  16.824  1.7103  0.1960  0.5369
 8868SOL    HW238067   0.576   0.889  16.867 -0.5104 -1.9641  0.7099
 8869SOL     OW38068   0.832   0.935   2.759 -0.1603 -0.0680  0.2666
 8869SOL    HW138069   0.904   0.897   2.709  0.4322  1.0904  0.2342
 8869SOL    HW238070   0.823   0.886   2.841  1.5154 -0.3989  0.2450
 8870SOL     OW38071   1.668   4.050   6.398  0.1236  0.5505 -0.1975
 8870SOL    HW138072   1.600   4.069   6.463  1.9019  0.4811  1.6952
 8870SOL    HW238073   1.727   4.120   6.426  0.4143 -0.6811  2.2671
 8871SOL     OW38074   2.653   2.256   4.062  0.3234 -0.4784  0.2387
 8871SOL    HW138075   2.624   2.198   4.133 -1.6046 -0.5170 -0.5713
 8871SOL    HW238076   2.729   2.296   4.103 -1.0118  0.5389  1.7478
 8872SOL     OW38077   0.742   4.708   6.345  0.1711  0.2373  0.0852
 8872SOL    HW138078   0.685   4.639   6.313 -1.8261  1.3665  1.2524
 8872SOL    HW238079   0.684   0.059   6.345  0.2781  0.3197 -0.0285
 8873SOL     OW38080   0.544   3.000   0.492 -0.2468 -0.0588 -0.1645
 8873SOL    HW138081   0.544   3.094   0.509 -1.2606 -0.1465  0.3215
 8873SOL    HW238082   0.509   3.000   0.403  0.8309  1.1121 -0.5899
 8874SOL     OW38083   4.408   0.621   6.258 -0.2476  0.2357  0.6390
 8874SOL    HW138084   4.444   0.602   6.172 -1.4093  1.3184 -0.0920
 8874SOL    HW238085   4.381   0.535   6.291  2.0404 -1.1307 -1.0455
 8875SOL     OW38086   0.826   0.297  15.384 -0.2205  0.0759  0.0518
 8875SOL    HW138087   0.895   0.254  15.434  1.6537  1.0336 -1.7020
 8875SOL    HW238088   0.872   0.318  15.302 -0.8207  1.3868  0.0494
 8876SOL     OW38089   3.662   1.608  13.835 -0.3740  0.3978 -0.5891
 8876SOL    HW138090   3.617   1.668  13.776 -1.2910 -0.4674 -0.7655
 8876SOL    HW238091   3.730   1.667  13.868 -2.3386  0.3720  3.5258
 8877SOL     OW38092   2.844   1.210   0.974  0.4161  1.1296 -0.1232
 8877SOL    HW138093   2.782   1.180   0.908  0.2885 -0.8124  0.8758
 8877SOL    HW238094   2.807   1.288   1.015 -0.2636  0.3311  0.7690
 8878SOL     OW38095   4.005   4.375   1.643  0.1476 -0.2653  0.1460
 8878SOL    HW138096   4.013   4.291   1.686 -1.0348 -0.2452  0.4073
 8878SOL    HW238097   3.914   4.369   1.612  0.1610  1.1061 -0.2010
 8879SOL     OW38098   4.548   2.667   4.728  0.1796  0.5845 -0.0792
 8879SOL    HW138099   4.643   2.673   4.738  0.0866  0.9053  0.6202
 8879SOL    HW238100   4.531   2.662   4.634 -0.0172 -0.1935 -0.0045
 8880SOL     OW38101   1.613   2.008   8.616 -0.4543 -0.0968  0.0647
 8880SOL    HW138102   1.599   1.985   8.708 -0.3504  3.2743  0.9106
 8880SOL    HW238103   1.566   2.090   8.605  0.3482  0.5048  1.0404
 8881SOL     OW38104   3.098   0.897  16.599  0.3378 -0.4975  0.0129
 8881SOL    HW138105   3.083   0.984  16.562 -0.1843 -0.0204  1.3607
 8881SOL    HW238106   3.129   0.852  16.520 -0.2171  0.6545 -0.8580
 8882SOL     OW38107   3.034   4.507   3.310 -0.0520 -0.7452 -0.5032
 8882SOL    HW138108   3.081   4.579   3.268 -0.3774 -0.8458 -1.0464
 8882SOL    HW238109   3.106   4.447   3.329  1.2961  1.8660  2.5138
 8883SOL     OW38110   0.561   1.161  16.140 -0.2912  0.1216  0.1706
 8883SOL    HW138111   0.600   1.249  16.144 -0.6542  0.2784  0.2171
 8883SOL    HW238112   0.494   1.156  16.207  0.4173 -0.5722  0.8292
 8884SOL     OW38113   2.245   2.651   3.499 -0.2093  0.2117  0.3047
 8884SOL    HW138114   2.239   2.612   3.412 -1.6919 -2.2220  1.4971
 8884SOL    HW238115   2.305   2.724   3.485  0.5942 -0.6075 -0.5187
 8885SOL     OW38116   1.492   0.298   6.241  0.1320  0.2308 -0.5317
 8885SOL    HW138117   1.550   0.326   6.312  0.9294  1.5805 -1.7033
 8885SOL    HW238118   1.413   0.302   6.294  0.8598  0.5522  0.5129
 8886SOL     OW38119   0.064   4.059  11.614 -0.0173  0.0638 -0.1800
 8886SOL    HW138120   4.721   4.120  11.588  0.6816  0.2915 -1.4962
 8886SOL    HW238121   0.006   3.996  11.655 -0.8681  2.3252  2.0915
 8887SOL     OW38122   1.340   4.413   4.428  0.2535 -0.3422 -0.1715
 8887SOL    HW138123   1.319   4.325   4.396  3.1587 -0.6960 -1.0623
 8887SOL    HW238124   1.308   4.469   4.357  1.0145 -0.7543 -0.8368
 8888SOL     OW38125   2.740   3.907  13.647  0.0574 -0.0178  0.1666
 8888SOL    HW138126   2.776   3.828  13.687  1.3619  0.4192 -0.1573
 8888SOL    HW238127   2.661   3.874  13.604  0.7212 -2.0534  0.4748
 8889SOL     OW38128   1.509   3.165   9.311 -0.6618 -0.3146  0.6812
 8889SOL    HW138129   1.551   3.187   9.228  0.7850  0.0184  1.4987
 8889SOL    HW238130   1.584   3.134   9.361  0.1698  0.2407 -0.2090
 8890SOL     OW38131   2.564   4.309  10.948  0.3483  0.3498 -0.2687
 8890SOL    HW138132   2.583   4.227  10.902 -1.0614  1.5452 -2.9988
 8890SOL    HW238133   2.617   4.367  10.893  1.4389  1.0576  1.5324
 8891SOL     OW38134   0.823   1.884  15.071  0.2266 -0.3510 -0.7169
 8891SOL    HW138135   0.863   1.860  14.987  2.0935  0.7654 -0.1492
 8891SOL    HW238136   0.889   1.939  15.114 -0.3540 -1.5589  1.7230
 8892SOL     OW38137   0.118   0.748   2.209  0.8520  0.7429  0.2705
 8892SOL    HW138138   0.207   0.756   2.173  0.9938 -1.3510  0.2069
 8892SOL    HW238139   0.086   0.660   2.193  3.1505  0.4823 -2.9669
 8893SOL     OW38140   3.071   4.457   2.607 -0.2251  0.1914 -0.4893
 8893SOL    HW138141   3.009   4.405   2.658  0.2909 -0.9702 -1.0430
 8893SOL    HW238142   3.040   4.433   2.519 -4.2861  2.1386  0.4213
 8894SOL     OW38143   4.053   4.426  16.658 -0.4865  0.1785  0.2175
 8894SOL    HW138144   3.987   4.402  16.593 -1.0884  0.9840  0.5350
 8894SOL    HW238145   4.129   4.431  16.601 -1.3574  0.3779 -0.9112
 8895SOL     OW38146   4.412   1.639   2.188  0.0310 -0.2893 -0.0028
 8895SOL    HW138147   4.378   1.551   2.174  0.1938 -0.1803 -1.1099
 8895SOL    HW238148   4.403   1.669   2.279 -1.0390 -1.1353  0.1639
 8896SOL     OW38149   2.945   2.880   2.793  0.2265 -0.1924  0.5485
 8896SOL    HW138150   2.874   2.909   2.735  0.2525 -0.3930  0.4171
 8896SOL    HW238151   3.001   2.840   2.726  1.1318 -0.5089  1.4939
 8897SOL     OW38152   1.560   4.488   2.544  0.1142 -0.0689  0.3922
 8897SOL    HW138153   1.620   4.550   2.584  2.3351 -0.1251 -2.8189
 8897SOL    HW238154   1.623   4.461   2.477 -0.2855 -1.6758  0.6524
 8898SOL     OW38155   3.271   2.590   3.315 -0.2569  0.6844 -0.6800
 8898SOL    HW138156   3.235   2.615   3.400 -2.6588 -2.1242 -0.8638
 8898SOL    HW238157   3.331   2.660   3.288 -1.6509  2.4941  0.9208
 8899SOL     OW38158   4.051   2.815   3.819 -0.4117 -0.4233 -0.1211
 8899SOL    HW138159   4.095   2.851   3.742  0.0911  1.8323  1.2228
 8899SOL    HW238160   4.027   2.734   3.775  0.2287 -0.9098  0.4266
 8900SOL     OW38161   0.524   3.173   2.648 -0.2624 -0.3367  0.3172
 8900SOL    HW138162   0.479   3.245   2.605 -0.1319 -2.5245 -3.5014
 8900SOL    HW238163   0.467   3.147   2.721 -1.0305  0.6257  0.0475
 8901SOL     OW38164   1.540   2.859   8.416 -0.2802  0.1256  0.0569
 8901SOL    HW138165   1.590   2.932   8.454 -1.1223  0.0664  1.3013
 8901SOL    HW238166   1.519   2.808   8.494 -2.7842  0.5871 -0.2953
 8902SOL     OW38167   0.211   1.052   8.990 -0.6905  0.4051 -0.3607
 8902SOL    HW138168   0.216   1.062   8.895 -0.5722  2.1867 -0.1632
 8902SOL    HW238169   0.152   0.979   9.009  0.5495 -0.8747 -1.5041
 8903SOL     OW38170   0.388   1.608  12.869 -0.4151 -0.7958 -1.2173
 8903SOL    HW138171   0.442   1.649  12.802 -1.8725  2.5609 -0.3600
 8903SOL    HW238172   0.418   1.518  12.878 -2.2924 -1.2327  0.7333
 8904SOL     OW38173   0.016   4.433   1.789 -0.3816  0.3263  0.3381
 8904SOL    HW138174   0.061   4.483   1.857 -0.3607  0.2908  0.3508
 8904SOL    HW238175   4.660   4.482   1.783 -1.6313 -1.7927 -0.1879
 8905SOL     OW38176   1.459   3.737   3.876 -0.9608 -0.6287 -0.4453
 8905SOL    HW138177   1.440   3.646   3.897 -5.0103  0.5414  0.9759
 8905SOL    HW238178   1.524   3.724   3.807 -1.2289  0.9692 -1.0092
 8906SOL     OW38179   3.284   1.834  15.633  0.3206 -0.6721 -0.0049
 8906SOL    HW138180   3.288   1.929  15.621  1.5352 -0.5911  1.0153
 8906SOL    HW238181   3.219   1.812  15.566  1.3040  3.7850 -2.4015
 8907SOL     OW38182   2.708   2.464   5.118  0.3349  0.2053 -0.3949
 8907SOL    HW138183   2.784   2.406   5.127  1.0755  1.4434  1.2752
 8907SOL    HW238184   2.740   2.537   5.171 -0.5682 -1.1827  2.0978
 8908SOL     OW38185   4.208   4.492   1.495 -0.3232  0.2422  0.7789
 8908SOL    HW138186   4.202   4.425   1.427  1.6086 -0.2065  1.0502
 8908SOL    HW238187   4.134   4.465   1.550 -2.8311  2.4510 -1.5058
 8909SOL     OW38188   0.285   0.200   9.349 -0.2647 -0.0226  0.3711
 8909SOL    HW138189   0.370   0.159   9.331 -0.3103  0.5177 -1.0621
 8909SOL    HW238190   0.242   0.136   9.292 -4.4764  2.6663  0.5455
 8910SOL     OW38191   4.490   3.204  10.060  0.7256 -0.0248 -0.3871
 8910SOL    HW138192   4.578   3.168  10.055 -0.5402 -3.5333  2.2601
 8910SOL    HW238193   4.512   3.272  10.124  2.3014 -0.8618 -0.0538
 8911SOL     OW38194   2.281   0.124   9.318  0.1396 -0.0642 -0.0913
 8911SOL    HW138195   2.270   0.039   9.275 -0.4058 -0.7773  1.4754
 8911SOL    HW238196   2.320   0.183   9.254  0.4919  0.8537  0.9626
 8912SOL     OW38197   3.334   3.942   7.906 -0.5919 -0.4543  0.8091
 8912SOL    HW138198   3.264   3.884   7.878 -2.3200  1.9553  0.1916
 8912SOL    HW238199   3.319   3.944   8.000 -0.2106  1.8746  0.8302
 8913SOL     OW38200   2.653   2.295  16.768 -0.1018  0.2652  0.0226
 8913SOL    HW138201   2.652   2.318  16.676  0.9725  1.5386  0.3349
 8913SOL    HW238202   2.561   2.298  16.795 -0.4600 -3.0550 -0.7727
 8914SOL     OW38203   2.657   2.992   6.352 -0.4124 -0.7510  0.0550
 8914SOL    HW138204   2.565   3.004   6.377 -0.4390  0.6147 -0.6658
 8914SOL    HW238205   2.699   3.070   6.389 -2.1959  1.3104 -2.3080
 8915SOL     OW38206   4.689   2.041   8.296  0.2777 -0.1920  0.2264
 8915SOL    HW138207   0.036   2.097   8.265 -0.3711 -0.3332 -1.5860
 8915SOL    HW238208   4.704   1.954   8.259  1.0576  0.1057 -0.1711
 8916SOL     OW38209   4.443   1.262   5.998  0.1619 -0.4086 -0.2596
 8916SOL    HW138210   4.490   1.181   5.975 -1.0857 -1.5453  1.2091
 8916SOL    HW238211   4.439   1.307   5.913 -0.2229  0.0491 -0.0007
 8917SOL     OW38212   0.975   2.241  10.139  0.7724 -0.1434  0.2791
 8917SOL    HW138213   0.915   2.194  10.082  0.5936 -0.2590  0.5636
 8917SOL    HW238214   1.054   2.187  10.135  1.4693  0.8518  0.3336
 8918SOL     OW38215   2.694   2.072  14.276  0.4873  0.4624  0.1788
 8918SOL    HW138216   2.664   2.159  14.302 -1.1180 -0.5321  1.5841
 8918SOL    HW238217   2.668   2.013  14.346  0.2563  2.5968  1.8750
 8919SOL     OW38218   2.261   2.761   5.131 -0.2055  0.1590 -0.3756
 8919SOL    HW138219   2.216   2.678   5.109 -2.3387  1.2571 -0.1924
 8919SOL    HW238220   2.336   2.764   5.072  0.5362 -0.4444  0.5429
 8920SOL     OW38221   1.138   2.953  16.400  0.5245  0.6345 -0.1072
 8920SOL    HW138222   1.115   2.964  16.492 -1.0262  0.9546 -0.5354
 8920SOL    HW238223   1.234   2.958  16.400  0.4968  1.2585 -1.5348
 8921SOL     OW38224   0.423   3.996  10.984  0.7382  0.0276  0.1085
 8921SOL    HW138225   0.471   4.015  11.064 -0.4573  2.0120  0.3555
 8921SOL    HW238226   0.368   4.074  10.983  0.7670  0.0482  0.1752
 8922SOL     OW38227   1.698   4.042   3.670  0.3432  0.0221  0.0071
 8922SOL    HW138228   1.779   4.005   3.704  0.1570 -1.0561 -0.6970
 8922SOL    HW238229   1.685   4.128   3.709 -0.2328 -0.1048  0.0984
 8923SOL     OW38230   1.425   3.901   1.180  0.5499  0.3538 -0.3928
 8923SOL    HW138231   1.332   3.892   1.202  0.9704 -0.3748  1.0581
 8923SOL    HW238232   1.458   3.855   1.257 -0.7954  2.0843  1.2158
 8924SOL     OW38233   2.261   0.209   1.358  0.5118 -0.2092  0.5934
 8924SOL    HW138234   2.301   0.125   1.383 -1.4991 -1.3781 -0.1425
 8924SOL    HW238235   2.189   0.219   1.419  1.0273  1.3978  0.9226
 8925SOL     OW38236   3.781   0.401   7.625 -0.3401  0.4938 -0.0561
 8925SOL    HW138237   3.863   0.406   7.575 -0.0518  1.1579  0.4803
 8925SOL    HW238238   3.725   0.359   7.560 -0.7088  0.7425  0.1041
 8926SOL     OW38239   1.175   2.792   9.380  0.2467  0.1319  0.3070
 8926SOL    HW138240   1.245   2.749   9.330  1.6659  1.4461  1.1614
 8926SOL    HW238241   1.165   2.882   9.347  0.9821 -0.1823 -0.7871
 8927SOL     OW38242   1.382   3.126   8.747  0.2660 -0.3267 -0.0775
 8927SOL    HW138243   1.444   3.152   8.814 -0.9139  1.0019  0.4978
 8927SOL    HW238244   1.366   3.036   8.773 -0.4656 -0.8435 -2.2994
 8928SOL     OW38245   4.432   3.446   3.084 -0.0940  0.2067 -0.0418
 8928SOL    HW138246   4.435   3.385   3.010 -0.6123  0.9310 -0.6675
 8928SOL    HW238247   4.424   3.528   3.036 -0.0692  0.6673  0.7402
 8929SOL     OW38248   4.263   0.450   9.125  0.1408 -0.2882  0.2814
 8929SOL    HW138249   4.207   0.373   9.112 -0.1500 -0.2825  1.4561
 8929SOL    HW238250   4.196   0.518   9.138 -2.0506 -2.4657  0.3578
 8930SOL     OW38251   4.304   2.974  10.074 -0.2954 -0.8348  0.4823
 8930SOL    HW138252   4.277   3.050  10.125  0.9525 -0.8509  1.1651
 8930SOL    HW238253   4.398   2.963  10.087 -0.2173 -2.1030 -1.1030
 8931SOL     OW38254   1.186   0.763  12.768  0.1214  0.7160 -0.5111
 8931SOL    HW138255   1.157   0.851  12.790 -0.3848  0.1767  0.9704
 8931SOL    HW238256   1.122   0.721  12.826  0.4231  0.5327 -0.3111
 8932SOL     OW38257   1.651   0.138   7.047  0.4876  0.1396  0.0631
 8932SOL    HW138258   1.627   0.212   7.103 -0.9098  0.9213 -1.5654
 8932SOL    HW238259   1.745   0.152   7.047  0.6544 -0.9181 -1.3437
 8933SOL     OW38260   2.690   3.490   0.883  0.0955  0.4158  0.2180
 8933SOL    HW138261   2.715   3.556   0.948 -0.0074  1.6566 -1.0192
 8933SOL    HW238262   2.608   3.530   0.854 -0.4429 -1.3873 -0.7115
 8934SOL     OW38263   2.600   1.927   5.377  0.8073 -0.3976  0.2860
 8934SOL    HW138264   2.602   1.872   5.298  0.5006 -0.9329  0.6476
 8934SOL    HW238265   2.635   1.861   5.437 -0.9121 -1.2059  0.4080
 8935SOL     OW38266   0.001   3.528   6.832  0.0004 -0.1428 -0.1145
 8935SOL    HW138267   0.091   3.537   6.801  1.2097 -1.6698  2.9965
 8935SOL    HW238268   4.692   3.616   6.817  0.2228 -0.3340 -1.6974
 8936SOL     OW38269   3.748   1.253   3.215 -0.4425 -0.0787  0.2783
 8936SOL    HW138270   3.685   1.313   3.174 -0.6929  0.9162  2.1109
 8936SOL    HW238271   3.696   1.176   3.236 -0.1815 -0.2490  0.2939
 8937SOL     OW38272   2.641   1.349   7.944 -0.3039  0.2580 -0.1976
 8937SOL    HW138273   2.709   1.349   8.011 -2.1255 -0.1395  1.6290
 8937SOL    HW238274   2.688   1.357   7.861  1.1263 -1.5498  0.4393
 8938SOL     OW38275   4.067   3.322  13.266  0.1551 -0.5566 -0.3555
 8938SOL    HW138276   3.972   3.329  13.254  0.2039 -0.5927 -0.7694
 8938SOL    HW238277   4.094   3.253  13.205  0.0436 -0.5003 -0.4698
 8939SOL     OW38278   3.437   2.944   7.983 -0.0318  0.2065 -0.8408
 8939SOL    HW138279   3.349   2.944   8.021 -0.3374 -0.6103 -1.5529
 8939SOL    HW238280   3.419   2.873   7.922  0.7795  0.6325 -1.5708
 8940SOL     OW38281   4.497   1.331   3.038  0.1484 -0.0987  0.2227
 8940SOL    HW138282   4.531   1.413   3.076  0.8706  0.1197 -0.9048
 8940SOL    HW238283   4.531   1.338   2.949  0.4584 -1.1906  0.2606
 8941SOL     OW38284   1.782   2.836   7.074  0.5161  0.6938 -0.2076
 8941SOL    HW138285   1.740   2.922   7.071 -1.0962 -0.0725  0.7458
 8941SOL    HW238286   1.871   2.870   7.062  0.7731  0.0800  0.0076
 8942SOL     OW38287   3.817   3.090   2.745  0.1863  0.2961 -0.2450
 8942SOL    HW138288   3.877   3.029   2.702  1.3294 -0.1986  2.0204
 8942SOL    HW238289   3.822   3.172   2.696 -2.3818  1.3561  1.3054
 8943SOL     OW38290   4.621   3.745   9.980 -0.0638  0.0020  0.3736
 8943SOL    HW138291   4.679   3.802  10.030 -0.6579  1.4632 -0.6227
 8943SOL    HW238292   4.691   3.699   9.933  0.9090  0.6618  1.1968
 8944SOL     OW38293   0.198   0.073   7.508  1.1181  0.1881  0.1527
 8944SOL    HW138294   0.121   0.021   7.528  0.9039  0.3667 -0.2155
 8944SOL    HW238295   0.200   0.063   7.413  0.1443 -0.2481  0.1846
 8945SOL     OW38296   0.682   3.098   7.995 -0.4173  0.8598  0.0991
 8945SOL    HW138297   0.742   3.130   7.927 -0.6427  0.9604 -0.0505
 8945SOL    HW238298   0.624   3.040   7.945  0.8721 -0.1101 -0.2765
 8946SOL     OW38299   2.421   4.021   4.050 -0.0198  0.4754 -0.8579
 8946SOL    HW138300   2.483   3.989   4.115 -1.4006 -1.4786 -0.4865
 8946SOL    HW238301   2.369   3.941   4.040  1.2597 -0.1373 -2.3980
 8947SOL     OW38302   3.810   4.664  15.211  0.5877 -0.3055  0.3390
 8947SOL    HW138303   3.746   4.626  15.151  1.1826  2.2682 -1.9028
 8947SOL    HW238304   3.764   4.646  15.293  3.6472  0.2735  2.1898
 8948SOL     OW38305   3.993   3.876  16.466  0.7204 -0.5685  0.2583
 8948SOL    HW138306   4.024   3.814  16.532  0.8444 -2.2328 -1.3420
 8948SOL    HW238307   4.028   3.959  16.499  2.6409 -1.4865  0.5351
 8949SOL     OW38308   1.284   0.301   8.074  0.2727  0.0492  0.2312
 8949SOL    HW138309   1.340   0.378   8.062  2.1612 -1.1699  1.1667
 8949SOL    HW238310   1.245   0.330   8.156  3.7875  0.1779  1.8417
 8950SOL     OW38311   4.348   1.974   3.749  0.5993  0.4741  0.3709
 8950SOL    HW138312   4.425   1.980   3.692  1.5504  2.4982  1.8732
 8950SOL    HW238313   4.323   1.884   3.732 -1.4944  1.2780 -0.8343
 8951SOL     OW38314   4.054   3.858   3.358  0.5235  0.4438  0.1854
 8951SOL    HW138315   4.127   3.915   3.337  0.8892 -0.2737 -0.5168
 8951SOL    HW238316   4.066   3.814   3.442  2.4041  0.4144 -0.1109
 8952SOL     OW38317   0.505   2.191   4.417 -0.3286 -0.1914 -0.2115
 8952SOL    HW138318   0.534   2.204   4.326 -0.5962 -0.6717 -0.3588
 8952SOL    HW238319   0.543   2.105   4.434  1.6783  0.7332  0.0162
 8953SOL     OW38320   3.514   1.031  15.262  0.1886  0.5056  0.0734
 8953SOL    HW138321   3.445   0.975  15.298 -1.7871  2.8998 -0.0153
 8953SOL    HW238322   3.550   0.963  15.205  1.0209  0.7363  0.3291
 8954SOL     OW38323   1.762   3.293   2.602  0.0835 -0.5843  0.1176
 8954SOL    HW138324   1.801   3.379   2.614  0.6536 -0.8674  0.3082
 8954SOL    HW238325   1.709   3.305   2.523 -0.8753  0.1206  0.8642
 8955SOL     OW38326   2.631   3.085  17.642  0.1976 -0.0007 -0.3973
 8955SOL    HW138327   2.672   3.088   0.026 -0.3271  1.7190 -0.2065
 8955SOL    HW238328   2.703   3.053  17.588  0.7105 -0.2169  0.4149
 8956SOL     OW38329   0.340   3.950  17.130  0.0177 -0.1356  0.6173
 8956SOL    HW138330   0.301   4.013  17.190 -1.4579 -0.4206 -0.0382
 8956SOL    HW238331   0.409   4.001  17.088  0.7128 -1.8855 -0.3787
 8957SOL     OW38332   0.022   2.325   4.964  0.2670  0.1172  0.1898
 8957SOL    HW138333   0.103   2.351   5.009  0.7778  3.1809 -2.4491
 8957SOL    HW238334   4.691   2.401   4.979  1.2563  0.5789  1.5867
 8958SOL     OW38335   0.679   4.581   9.519 -0.3530  0.0255  0.1645
 8958SOL    HW138336   0.640   4.556   9.603 -1.8184  3.1249  0.4108
 8958SOL    HW238337   0.604   4.546   9.470 -0.3879 -0.3534  0.4852
 8959SOL     OW38338   4.508   1.300   6.588  0.3726  0.2953 -0.1886
 8959SOL    HW138339   4.582   1.242   6.569  0.6087  1.3510 -2.5335
 8959SOL    HW238340   4.497   1.278   6.680  0.4462 -0.0749 -0.2685
 8960SOL     OW38341   1.125   2.433   1.117 -0.7747  0.0610 -0.1629
 8960SOL    HW138342   1.102   2.400   1.203  0.0382 -1.4788 -0.5387
 8960SOL    HW238343   1.055   2.496   1.097 -1.9495 -1.3608 -0.5294
 8961SOL     OW38344   3.283   3.455  15.334  0.1236 -0.0269  0.0159
 8961SOL    HW138345   3.363   3.407  15.353  1.5320  1.6312 -1.8173
 8961SOL    HW238346   3.277   3.428  15.243  0.3840  1.1593 -0.3521
 8962SOL     OW38347   4.685   3.062   6.044 -0.0982 -0.1960 -0.6276
 8962SOL    HW138348   4.716   3.040   6.131  0.6160  1.9093 -0.3504
 8962SOL    HW238349   4.628   2.988   6.025 -0.6589  0.0292  0.2129
 8963SOL     OW38350   4.702   2.800   1.291  0.5946 -0.3321  0.4783
 8963SOL    HW138351   4.622   2.783   1.340  0.9119 -0.4787  0.9510
 8963SOL    HW238352   4.672   2.795   1.201  0.8490 -0.1260  0.3805
 8964SOL     OW38353   4.352   2.722   5.145 -0.1157 -0.2483  0.0420
 8964SOL    HW138354   4.326   2.743   5.234 -0.7104  1.3192 -0.5084
 8964SOL    HW238355   4.427   2.780   5.132 -1.4741  1.3554 -0.6930
 8965SOL     OW38356   2.565   0.170   7.898 -0.7368  0.1068 -0.3743
 8965SOL    HW138357   2.569   0.089   7.848  0.1433  0.3775 -0.7385
 8965SOL    HW238358   2.551   0.138   7.987 -0.3178 -0.2912 -0.4495
 8966SOL     OW38359   1.903   0.736   2.169  0.0594 -0.1641 -0.0316
 8966SOL    HW138360   1.990   0.756   2.134 -0.1340  2.3669  0.9200
 8966SOL    HW238361   1.856   0.817   2.152 -1.3816 -0.9599  0.1373
 8967SOL     OW38362   3.671   0.725   4.452  0.5364 -0.0292 -0.4175
 8967SOL    HW138363   3.723   0.654   4.415 -1.0015 -2.1742  1.5266
 8967SOL    HW238364   3.731   0.799   4.444  0.9231 -0.5225 -1.9842
 8968SOL     OW38365   3.131   4.027  11.017  0.9032  0.1246  0.4087
 8968SOL    HW138366   3.083   4.107  11.039 -1.4041 -0.7071 -1.5437
 8968SOL    HW238367   3.154   4.001  11.106 -1.8937  0.2678  1.1828
 8969SOL     OW38368   2.355   0.361   3.615  1.0463  0.1620 -0.5162
 8969SOL    HW138369   2.380   0.375   3.523 -1.0016 -0.6491 -1.1866
 8969SOL    HW238370   2.304   0.439   3.636 -0.0843 -0.3921 -1.1906
 8970SOL     OW38371   2.153   2.190   5.722  0.2385  0.3346  0.7347
 8970SOL    HW138372   2.247   2.193   5.704  0.7563 -1.2042  3.1527
 8970SOL    HW238373   2.152   2.120   5.787 -3.1308 -0.1188  0.1627
 8971SOL     OW38374   2.866   0.817   5.175 -0.2837 -0.0064 -0.1450
 8971SOL    HW138375   2.803   0.746   5.166  0.5276 -1.0005  2.1065
 8971SOL    HW238376   2.806   0.891   5.185  1.1361  1.5321 -2.7509
 8972SOL     OW38377   2.193   0.428  17.598  0.7198 -0.1358 -0.2451
 8972SOL    HW138378   2.282   0.429  17.564 -0.0086  0.6010 -2.1106
 8972SOL    HW238379   2.168   0.339  17.574 -0.8851  0.8967 -2.3537
 8973SOL     OW38380   4.282   0.841   6.647  0.2046 -0.5540 -0.3949
 8973SOL    HW138381   4.308   0.854   6.556  2.3883  3.2087  0.7598
 8973SOL    HW238382   4.246   0.753   6.661 -1.3011  0.2924  0.9845
 8974SOL     OW38383   0.511   2.234   5.855  0.2486 -0.0386 -0.0671
 8974SOL    HW138384   0.484   2.166   5.793 -1.4216  2.8882 -2.5592
 8974SOL    HW238385   0.569   2.197   5.922  0.6474  0.4097 -0.1663
 8975SOL     OW38386   4.563   0.127   8.469  0.2661 -0.0962  0.4354
 8975SOL    HW138387   4.476   0.124   8.428 -0.0675 -0.8814  1.2100
 8975SOL    HW238388   4.602   0.189   8.407  1.4734  0.0076  1.3077
 8976SOL     OW38389   4.668   1.128   2.241 -0.1743  0.0635 -0.0709
 8976SOL    HW138390   4.674   1.059   2.175  0.9381 -1.1500  1.2896
 8976SOL    HW238391   0.033   1.160   2.245 -0.2225  0.1966 -0.0532
 8977SOL     OW38392   1.926   0.449   2.193 -0.8298 -0.5755  0.3804
 8977SOL    HW138393   1.919   0.542   2.170  0.2128  0.0792  2.6528
 8977SOL    HW238394   1.951   0.409   2.109 -1.7603 -1.4338  0.5113
 8978SOL     OW38395   3.384   1.463   2.323  0.2777 -0.0005 -0.1367
 8978SOL    HW138396   3.365   1.404   2.251 -0.7669  1.4669 -1.0627
 8978SOL    HW238397   3.360   1.405   2.395  2.7634  2.0111  2.3103
 8979SOL     OW38398   1.692   0.633   0.132 -0.1278  0.2736  0.4552
 8979SOL    HW138399   1.777   0.654   0.093 -0.4691  0.3797 -0.2236
 8979SOL    HW238400   1.628   0.690   0.088 -2.4825 -2.1066  0.8130
 8980SOL     OW38401   0.194   3.651   7.459 -0.3749 -0.4087  0.2900
 8980SOL    HW138402   0.227   3.592   7.392 -1.1864 -1.1430  0.5458
 8980SOL    HW238403   0.273   3.659   7.514 -0.0631  0.6021 -0.3036
 8981SOL     OW38404   4.368   3.605  16.551 -0.7426  0.5523 -0.1029
 8981SOL    HW138405   4.395   3.676  16.493  0.6092 -0.3685 -0.5902
 8981SOL    HW238406   4.454   3.573  16.580 -1.2779  0.0321  0.9308
 8982SOL     OW38407   1.517   2.961  13.284  0.2001 -0.2830 -0.3158
 8982SOL    HW138408   1.484   3.050  13.275  1.7293  0.2923 -0.2316
 8982SOL    HW238409   1.471   2.927  13.361  0.3233  0.8402  0.2411
 8983SOL     OW38410   2.470   2.946   9.100  0.5243 -0.0036 -0.5063
 8983SOL    HW138411   2.487   2.989   9.184 -0.1580  3.0123 -1.8869
 8983SOL    HW238412   2.529   2.871   9.095  0.5692 -0.0254  0.2890
 8984SOL     OW38413   3.943   4.383   7.048  0.5382  0.3757  0.3751
 8984SOL    HW138414   3.932   4.401   7.142 -0.4872 -2.7090  0.8434
 8984SOL    HW238415   3.954   4.290   7.066 -0.3806 -0.4711 -3.5644
 8985SOL     OW38416   0.854   1.027  13.552  0.5086 -0.2373  0.1576
 8985SOL    HW138417   0.935   1.073  13.531  0.3413  0.9097  2.0708
 8985SOL    HW238418   0.794   1.099  13.572 -0.9538 -1.5139  0.3896
 8986SOL     OW38419   1.481   0.635   0.893 -0.0828 -0.6667  0.0085
 8986SOL    HW138420   1.418   0.588   0.948  1.3256 -0.3616  1.8760
 8986SOL    HW238421   1.507   0.567   0.831  0.6190  1.4638 -2.0499
 8987SOL     OW38422   3.992   1.112   5.997  0.5261  0.1302  0.3400
 8987SOL    HW138423   3.910   1.065   5.979 -0.0024  0.5793  1.5218
 8987SOL    HW238424   4.029   1.055   6.065 -1.6645 -0.5757  0.9502
 8988SOL     OW38425   3.304   0.901  16.799 -0.0038 -0.1919 -0.2343
 8988SOL    HW138426   3.341   0.974  16.749 -1.7664  0.3014 -0.8109
 8988SOL    HW238427   3.218   0.891  16.759 -0.1827  1.0016 -0.1474
 8989SOL     OW38428   0.234   1.646   5.889  0.4011  0.5808  0.3017
 8989SOL    HW138429   0.194   1.560   5.894  2.1019 -0.0958  2.2237
 8989SOL    HW238430   0.302   1.640   5.957  0.5239 -2.7965 -0.1483
 8990SOL     OW38431   0.170   3.813   6.149  0.0589 -0.1871  0.7244
 8990SOL    HW138432   0.188   3.816   6.055 -0.0461  1.4364  0.7442
 8990SOL    HW238433   0.252   3.780   6.186 -0.8408 -1.3571  1.6560
 8991SOL     OW38434   2.443   0.427   0.031  0.1906  0.4805  0.1652
 8991SOL    HW138435   2.508   0.494   0.009  0.4573  0.2943  0.3895
 8991SOL    HW238436   2.480   0.349  17.691 -1.4469 -0.1503 -0.1079
 8992SOL     OW38437   3.723   0.496   8.060 -0.2805 -0.0020 -0.5017
 8992SOL    HW138438   3.658   0.426   8.066 -1.9214  1.2941 -2.8391
 8992SOL    HW238439   3.739   0.506   8.154  1.5934  0.8385 -0.9070
 8993SOL     OW38440   3.992   1.967   3.219  0.3316  0.4562 -0.0090
 8993SOL    HW138441   3.924   1.929   3.162  0.2612  0.3345  0.1553
 8993SOL    HW238442   4.039   2.029   3.163  0.2596  0.4168 -0.1133
 8994SOL     OW38443   2.353   1.063   1.245  0.0205  0.4142 -0.6129
 8994SOL    HW138444   2.258   1.055   1.258 -0.0866  0.4636 -1.3446
 8994SOL    HW238445   2.384   1.051   1.335  1.9582  0.3275 -1.3131
 8995SOL     OW38446   2.153   4.461   8.245 -0.3647  0.4971 -0.2417
 8995SOL    HW138447   2.206   4.508   8.309 -1.1433  1.5611 -0.3697
 8995SOL    HW238448   2.069   4.500   8.268 -0.6405 -0.5644  0.5410
 8996SOL     OW38449   2.647   4.152   3.564 -0.0438  0.6107 -0.4796
 8996SOL    HW138450   2.739   4.167   3.585  0.2781 -1.4778 -0.3694
 8996SOL    HW238451   2.626   4.121   3.652 -0.1494  0.6267 -0.4989
 8997SOL     OW38452   4.577   2.813   9.834 -0.2249  0.2203  0.1791
 8997SOL    HW138453   4.553   2.813   9.927 -1.0012  1.4044 -0.0207
 8997SOL    HW238454   4.671   2.794   9.835 -0.7446 -2.2817  1.3699
 8998SOL     OW38455   0.994   4.093   6.229 -0.2628  0.7702  0.3291
 8998SOL    HW138456   1.072   4.037   6.224 -0.2976  0.9900 -2.8402
 8998SOL    HW238457   1.027   4.180   6.210 -0.8816  0.6728 -1.2131
 8999SOL     OW38458   0.524   3.443   2.074  0.3911 -0.2037 -0.3484
 8999SOL    HW138459   0.597   3.494   2.108 -1.3605  2.3290 -0.3525
 8999SOL    HW238460   0.566   3.361   2.099  1.5724  0.1600 -1.1159
 9000SOL     OW38461   1.535   1.753  10.428 -0.1975 -0.1671  0.6485
 9000SOL    HW138462   1.620   1.707  10.426  0.8460  1.8182 -0.8902
 9000SOL    HW238463   1.551   1.797  10.511 -2.4888  0.0976  0.9365
 9001SOL     OW38464   1.682   3.200  17.435  0.1463  0.2009 -0.4575
 9001SOL    HW138465   1.600   3.225  17.478  0.7449 -0.7507  1.1853
 9001SOL    HW238466   1.730   3.163  17.508  1.2187  0.8982 -0.8115
 9002SOL     OW38467   2.679   3.304   3.762  0.1894 -0.1104 -0.3636
 9002SOL    HW138468   2.636   3.313   3.847 -1.6144  0.7344 -1.3654
 9002SOL    HW238469   2.631   3.229   3.729 -1.5078  0.1209  1.5885
 9003SOL     OW38470   4.287   0.458   7.475 -0.0986  0.3771  0.3124
 9003SOL    HW138471   4.318   0.406   7.401  0.9790  1.2094  0.1765
 9003SOL    HW238472   4.288   0.548   7.440  1.7683  0.7214  1.2402
 9004SOL     OW38473   2.799   2.562   8.682  0.0883 -0.3748 -0.5335
 9004SOL    HW138474   2.820   2.591   8.593  1.0781 -2.3464 -0.9536
 9004SOL    HW238475   2.764   2.474   8.668 -1.3818  0.2091 -0.4781
 9005SOL     OW38476   1.549   1.340   6.419  0.1224 -0.1760 -0.5122
 9005SOL    HW138477   1.517   1.422   6.380 -0.9069 -0.5052 -0.3458
 9005SOL    HW238478   1.511   1.329   6.506 -1.0746 -0.5888 -1.0867
 9006SOL     OW38479   4.241   0.954   5.213  0.1333  0.5284 -0.2990
 9006SOL    HW138480   4.303   0.884   5.236  0.4728 -0.0455 -3.0258
 9006SOL    HW238481   4.164   0.906   5.244 -0.8388  1.5414 -1.1579
 9007SOL     OW38482   0.590   1.727   9.446 -0.5843  0.3183  0.1141
 9007SOL    HW138483   0.564   1.680   9.366 -0.5012  1.4397 -0.5670
 9007SOL    HW238484   0.515   1.699   9.498 -0.3503  0.3055  0.4477
 9008SOL     OW38485   4.284   3.347   7.055 -0.8346  0.3070  0.0690
 9008SOL    HW138486   4.343   3.286   7.099  1.1975  1.7862 -0.6579
 9008SOL    HW238487   4.347   3.393   7.000 -0.6084  0.5982  0.5719
 9009SOL     OW38488   0.763   3.712   6.065 -0.3090  0.3479 -0.2873
 9009SOL    HW138489   0.837   3.763   6.034  0.2685 -0.5303 -0.3636
 9009SOL    HW238490   0.782   3.630   6.019  1.7927 -0.0542  1.2661
 9010SOL     OW38491   3.120   4.037   8.126  0.5400 -0.3522  0.5849
 9010SOL    HW138492   3.095   3.992   8.045 -2.4061  0.5577  1.0047
 9010SOL    HW238493   3.137   3.965   8.186 -0.4058 -0.9488  0.1217
 9011SOL     OW38494   1.741   2.474   8.738 -0.1119  0.1036 -0.4786
 9011SOL    HW138495   1.814   2.483   8.799 -1.3429 -0.4011  1.0845
 9011SOL    HW238496   1.682   2.536   8.781 -0.5038 -0.2954 -0.4423
 9012SOL     OW38497   4.484   2.695  15.308  1.1316  0.3679 -0.3853
 9012SOL    HW138498   4.509   2.646  15.386 -0.0026  0.5378  0.0808
 9012SOL    HW238499   4.567   2.729  15.273  2.0073 -1.4503 -0.0467
 9013SOL     OW38500   4.526   0.715  17.537  0.2352 -0.0743 -0.1076
 9013SOL    HW138501   4.468   0.777  17.581  0.9200 -1.0869  2.2469
 9013SOL    HW238502   4.495   0.734  17.449 -1.2681  1.1196  0.6752
 9014SOL     OW38503   2.029   1.913  11.934  0.2244  0.1767 -0.3333
 9014SOL    HW138504   2.056   1.932  12.024 -0.8467  1.6648 -0.3254
 9014SOL    HW238505   1.941   1.878  11.943  0.0037  0.4932 -1.3265
 9015SOL     OW38506   1.009   0.754   5.913  0.9110  0.7139  0.3695
 9015SOL    HW138507   1.047   0.696   5.847  1.2040 -1.3226  2.3288
 9015SOL    HW238508   1.085   0.780   5.965 -0.4677  2.0325  1.7198
 9016SOL     OW38509   1.845   3.987   3.995 -0.4511  0.1221 -0.6169
 9016SOL    HW138510   1.937   4.008   4.013 -1.3864  3.8613 -0.1768
 9016SOL    HW238511   1.853   3.949   3.907 -1.5834 -2.3459  0.3367
 9017SOL     OW38512   2.975   1.078   8.234  0.3772 -0.2606 -0.2925
 9017SOL    HW138513   3.051   1.124   8.271  1.6897 -1.7336 -1.2078
 9017SOL    HW238514   2.960   1.011   8.300  0.6444  0.1298  0.1692
 9018SOL     OW38515   2.097   3.120   8.764 -0.0850 -0.2622  0.0843
 9018SOL    HW138516   2.139   3.075   8.838  1.0430  0.4231 -0.1423
 9018SOL    HW238517   2.148   3.200   8.760 -0.2281 -0.1645  0.2139
 9019SOL     OW38518   4.453   1.684  15.007  0.6563 -0.0621  0.0080
 9019SOL    HW138519   4.545   1.682  15.031  0.6924  1.2043 -0.0328
 9019SOL    HW238520   4.460   1.727  14.922 -0.8110 -0.8982 -0.5298
 9020SOL     OW38521   2.027   2.423   3.489  0.8446  0.1375 -0.0233
 9020SOL    HW138522   1.986   2.372   3.558  0.7120  0.4765  0.1454
 9020SOL    HW238523   1.988   2.373   3.417 -0.8686  0.3558  0.7717
 9021SOL     OW38524   1.763   0.974   1.830 -0.1809  0.1361 -0.6015
 9021SOL    HW138525   1.832   0.908   1.838  0.9539  1.1724 -1.7926
 9021SOL    HW238526   1.759   0.995   1.923 -2.0092  0.0216 -0.6652
 9022SOL     OW38527   2.312   2.462   6.647  0.3396  0.0940 -0.5302
 9022SOL    HW138528   2.273   2.391   6.594 -0.4122  2.7506 -3.5164
 9022SOL    HW238529   2.384   2.407   6.677 -0.4831  0.1815  1.6437
 9023SOL     OW38530   1.731   3.058   8.619  0.2694  0.1842 -0.0500
 9023SOL    HW138531   1.746   3.133   8.676 -2.7713  1.7317 -1.3029
 9023SOL    HW238532   1.645   3.083   8.584  1.4886  0.3307 -2.8921
 9024SOL     OW38533   0.077   1.134   7.928 -0.1311 -0.1946 -0.0423
 9024SOL    HW138534   0.158   1.094   7.895  0.0930  0.6858 -0.5413
 9024SOL    HW238535   0.111   1.185   8.002  0.8652 -0.8370 -0.0494
 9025SOL     OW38536   2.737   1.152   6.478  0.2859  0.6133  0.2739
 9025SOL    HW138537   2.740   1.080   6.415 -0.1981  0.9596 -0.1427
 9025SOL    HW238538   2.647   1.144   6.510 -0.0918  0.1972 -0.8978
 9026SOL     OW38539   3.882   2.147   4.002 -0.4346  0.5382  0.5967
 9026SOL    HW138540   3.969   2.170   4.033  0.0421 -3.4130  2.1339
 9026SOL    HW238541   3.890   2.168   3.909  0.9392 -1.5481  0.2563
 9027SOL     OW38542   0.551   3.993   8.798 -0.1847 -0.1995  0.9212
 9027SOL    HW138543   0.539   3.951   8.883  0.5767  0.6509  1.4420
 9027SOL    HW238544   0.487   4.064   8.799 -1.2008 -1.0601 -1.6374
 9028SOL     OW38545   3.474   2.419  15.844  0.1591 -0.8091  0.4374
 9028SOL    HW138546   3.482   2.355  15.915  0.2899 -0.4272  0.7671
 9028SOL    HW238547   3.513   2.488  15.897 -1.2174  0.2265  0.0935
 9029SOL     OW38548   4.436   1.485   8.939  0.8612 -0.2142  0.0976
 9029SOL    HW138549   4.506   1.551   8.942  0.9773 -0.3116 -0.4241
 9029SOL    HW238550   4.373   1.547   8.902  1.0537 -0.6902 -1.0334
 9030SOL     OW38551   2.502   2.352  15.162  0.2318  0.5713 -0.0071
 9030SOL    HW138552   2.556   2.420  15.121  0.1889 -0.8254 -2.4249
 9030SOL    HW238553   2.535   2.265  15.136  0.4097  0.3359  1.0257
 9031SOL     OW38554   0.277   1.139   4.603 -0.3407  0.0086  0.0282
 9031SOL    HW138555   0.215   1.172   4.538 -0.3237 -0.2156 -0.1025
 9031SOL    HW238556   0.345   1.124   4.537 -0.9784  0.7823 -0.8112
 9032SOL     OW38557   1.117   2.277   3.099 -0.4830  0.0233 -0.6952
 9032SOL    HW138558   1.124   2.201   3.156 -0.9141  1.8667  1.7885
 9032SOL    HW238559   1.191   2.330   3.129 -0.3839 -0.1170 -0.6944
 9033SOL     OW38560   4.213   3.267   1.778 -0.2597 -0.0248 -0.1977
 9033SOL    HW138561   4.222   3.181   1.819 -0.7995 -0.0967 -0.2307
 9033SOL    HW238562   4.124   3.263   1.743 -0.5728 -0.4409  0.6469
 9034SOL     OW38563   4.663   2.106   5.154  0.0774 -0.5873 -0.2397
 9034SOL    HW138564   0.001   2.177   5.164  0.0039 -0.3122 -1.6333
 9034SOL    HW238565   4.605   2.147   5.090 -0.4228 -1.4823 -0.3689
 9035SOL     OW38566   4.299   2.623   3.929  0.0609 -0.2479  0.1904
 9035SOL    HW138567   4.245   2.697   3.903 -1.5866 -1.1751  0.9892
 9035SOL    HW238568   4.335   2.587   3.848  3.2894  2.2628  0.5078
 9036SOL     OW38569   4.069   2.454   4.035  0.2276 -0.1324 -0.2925
 9036SOL    HW138570   4.143   2.483   3.982  1.0414  0.0410  0.9273
 9036SOL    HW238571   3.997   2.491   3.983 -0.2960  0.4731  0.8694
 9037SOL     OW38572   2.152   1.512   9.049  0.1044 -0.5632  0.0427
 9037SOL    HW138573   2.087   1.578   9.068  1.5351  0.3987  1.6345
 9037SOL    HW238574   2.203   1.533   9.127  1.2417 -1.2048 -0.5141
 9038SOL     OW38575   3.043   1.518   3.943 -0.0310 -0.2198 -0.3323
 9038SOL    HW138576   3.001   1.585   3.890  0.9804 -0.4555 -1.4324
 9038SOL    HW238577   3.036   1.444   3.882 -1.5316  0.8394 -1.4302
 9039SOL     OW38578   1.662   2.458  15.236 -0.5346  0.4994  0.0753
 9039SOL    HW138579   1.603   2.392  15.274 -0.8218 -0.2221 -1.6238
 9039SOL    HW238580   1.636   2.532  15.291  1.8780  0.2195  1.5936
 9040SOL     OW38581   2.224   2.032   8.696 -0.0586  0.3507 -0.7456
 9040SOL    HW138582   2.188   2.119   8.712 -0.8303  0.0037 -0.5843
 9040SOL    HW238583   2.184   1.983   8.767 -0.2787  0.8344 -0.5385
 9041SOL     OW38584   4.550   0.367   2.129 -0.2297 -0.1233  0.4035
 9041SOL    HW138585   4.550   0.330   2.041 -3.0407 -0.7417  0.6620
 9041SOL    HW238586   4.460   0.394   2.150  0.0293 -0.5019  2.0154
 9042SOL     OW38587   0.697   1.470   6.240 -0.5100 -0.1402 -0.2970
 9042SOL    HW138588   0.718   1.405   6.172  1.2881 -1.2538  1.3221
 9042SOL    HW238589   0.736   1.423   6.314 -1.7524 -1.3582 -0.4109
 9043SOL     OW38590   3.872   4.208   9.892  0.6420 -0.7576  0.5427
 9043SOL    HW138591   3.849   4.293   9.855  1.2395  0.8024  3.7504
 9043SOL    HW238592   3.792   4.184   9.940  0.9900 -0.5162  1.2438
 9044SOL     OW38593   2.745   0.078   5.900  0.2614  0.0111 -0.5533
 9044SOL    HW138594   2.754   0.033   5.816  1.4771 -1.1098  0.1820
 9044SOL    HW238595   2.741   0.011   5.968  1.8347  1.1887  0.6993
 9045SOL     OW38596   4.327   2.143   5.692  0.0605 -0.3627 -0.3273
 9045SOL    HW138597   4.328   2.105   5.780  0.7718  0.8993  0.2219
 9045SOL    HW238598   4.420   2.124   5.678 -0.0869 -0.6767 -0.8742
 9046SOL     OW38599   4.550   3.551   3.621 -0.3257  0.2165 -0.2012
 9046SOL    HW138600   4.501   3.513   3.549 -0.7531 -1.1518  0.8284
 9046SOL    HW238601   4.590   3.483   3.675  0.0163 -0.3690 -1.2048
 9047SOL     OW38602   0.506   0.847   9.304 -0.5892 -0.3683  0.1438
 9047SOL    HW138603   0.429   0.903   9.314  0.0593  0.2047  1.9888
 9047SOL    HW238604   0.556   0.897   9.239 -1.4113  0.0497 -0.1626
 9048SOL     OW38605   3.376   1.443   9.335 -0.5098 -0.1187 -0.4414
 9048SOL    HW138606   3.335   1.511   9.283 -0.9839 -0.4849 -0.5458
 9048SOL    HW238607   3.427   1.402   9.266 -0.8413  0.3061 -0.9329
 9049SOL     OW38608   0.447   0.597   7.925  0.1528 -0.2374 -0.6314
 9049SOL    HW138609   0.492   0.519   7.956  0.1370  0.0206  0.0367
 9049SOL    HW238610   0.438   0.569   7.834  0.6028  1.4423 -1.1906
 9050SOL     OW38611   3.767   4.140   8.466 -0.2336 -0.3750  0.2808
 9050SOL    HW138612   3.826   4.155   8.540  1.0865 -0.3619 -0.7659
 9050SOL    HW238613   3.797   4.213   8.412  1.2605 -1.5754 -0.5179
 9051SOL     OW38614   0.126   4.596   8.226 -0.0645 -0.1264  0.0654
 9051SOL    HW138615   0.136   4.680   8.270 -1.6725  0.5990 -0.9592
 9051SOL    HW238616   0.217   4.573   8.205  0.1737 -1.5586  2.6318
 9052SOL     OW38617   4.660   2.840  13.286  0.4286 -0.2447 -0.3220
 9052SOL    HW138618   4.721   2.779  13.245  1.9579  0.5719  0.7577
 9052SOL    HW238619   4.602   2.777  13.329  2.7249 -2.5740 -0.6852
 9053SOL     OW38620   0.206   1.897  12.222 -0.1860 -0.0468 -0.1032
 9053SOL    HW138621   0.266   1.872  12.293  0.2196  2.6169  0.4956
 9053SOL    HW238622   0.122   1.922  12.261 -0.1090  0.3487 -0.1864
 9054SOL     OW38623   1.022   1.485   7.546 -0.5345 -0.1662 -0.3849
 9054SOL    HW138624   1.065   1.440   7.618 -1.4107 -1.9620 -0.9984
 9054SOL    HW238625   1.093   1.475   7.482 -1.0192  1.2893 -1.1445
 9055SOL     OW38626   0.677   2.496  16.295  0.2205 -0.0610  0.5241
 9055SOL    HW138627   0.666   2.403  16.277 -0.7506  0.0886  0.3220
 9055SOL    HW238628   0.603   2.503  16.356  0.4444 -2.1731  1.0392
 9056SOL     OW38629   0.211   4.215   8.433 -0.0051  0.5955  0.2633
 9056SOL    HW138630   0.120   4.207   8.405  0.5422  1.5603 -1.7658
 9056SOL    HW238631   0.238   4.135   8.388 -0.3165  0.2022  0.7675
 9057SOL     OW38632   0.995   1.827   4.985  0.1043 -0.4229  0.0742
 9057SOL    HW138633   1.083   1.839   4.948 -0.5008  1.5794 -0.7206
 9057SOL    HW238634   0.975   1.914   5.020  1.6189 -0.8245  1.9465
 9058SOL     OW38635   1.037   0.356   2.793 -0.0253  0.6394  0.0244
 9058SOL    HW138636   1.117   0.395   2.757 -0.6138  2.7718  1.0035
 9058SOL    HW238637   1.078   0.286   2.845 -0.5772  0.2403 -0.0767
 9059SOL     OW38638   0.122   3.888   1.087 -0.0937 -0.5214 -1.1465
 9059SOL    HW138639   0.133   3.874   1.181 -0.2223  3.1605 -0.5695
 9059SOL    HW238640   0.039   3.936   1.079 -1.0195 -1.7774  1.0111
 9060SOL     OW38641   0.754   3.028   8.793 -0.2952  0.2176 -0.4474
 9060SOL    HW138642   0.775   3.061   8.881 -2.5796  0.5989 -0.0184
 9060SOL    HW238643   0.678   3.082   8.772 -1.3688 -0.6985  1.0126
 9061SOL     OW38644   3.583   3.870   5.852  0.0208 -0.5894 -0.2729
 9061SOL    HW138645   3.609   3.954   5.814 -0.2543  0.2563  1.4048
 9061SOL    HW238646   3.488   3.880   5.855 -0.1219 -2.0493  0.1782
 9062SOL     OW38647   1.515   0.153   5.439 -0.3861 -0.3144 -0.2048
 9062SOL    HW138648   1.539   0.161   5.531  0.4545  0.0649 -0.4668
 9062SOL    HW238649   1.424   0.123   5.435 -0.4104 -0.0579 -1.5992
 9063SOL     OW38650   2.739   2.776   2.979 -0.4780 -0.8386  0.0585
 9063SOL    HW138651   2.719   2.863   3.014  0.4254  0.2536 -2.1384
 9063SOL    HW238652   2.823   2.792   2.937 -0.5516 -1.7029 -0.4052
 9064SOL     OW38653   3.917   2.036  13.895  0.6749  0.5764  0.8607
 9064SOL    HW138654   3.936   2.056  13.987 -0.3276  0.0101  1.1912
 9064SOL    HW238655   3.991   2.071  13.846  1.3290 -1.8143  0.1659
 9065SOL     OW38656   2.864   3.540   9.225  0.3397 -0.3223 -0.7910
 9065SOL    HW138657   2.870   3.451   9.191  1.2234  0.5010 -2.7937
 9065SOL    HW238658   2.769   3.549   9.226  0.4591  0.7492  1.8582
 9066SOL     OW38659   3.095   2.714   3.821 -0.2044  0.1606 -0.6568
 9066SOL    HW138660   3.079   2.796   3.774 -0.8426  0.4737  0.1271
 9066SOL    HW238661   3.011   2.702   3.865  0.9371 -0.8603  1.2181
 9067SOL     OW38662   0.186   1.328  12.331 -0.5640 -0.2959 -0.4258
 9067SOL    HW138663   0.118   1.287  12.278  1.0170 -4.1926  0.5498
 9067SOL    HW238664   0.259   1.338  12.270 -1.9296 -0.4828 -2.0770
 9068SOL     OW38665   4.043   2.070   0.491 -0.1620  0.5571 -0.2459
 9068SOL    HW138666   4.112   2.010   0.522 -0.0623  1.3412  1.0424
 9068SOL    HW238667   3.979   2.023   0.545  2.5357 -0.9062  1.7193
 9069SOL     OW38668   2.050   2.469  12.262  0.6279  0.5200 -0.2378
 9069SOL    HW138669   2.125   2.512  12.221  0.1327  0.8016 -0.8398
 9069SOL    HW238670   1.982   2.536  12.266  0.4450  0.3080  0.2083
 9070SOL     OW38671   0.198   1.244   8.505 -0.2095  0.0880 -0.4426
 9070SOL    HW138672   0.212   1.239   8.411  1.9085  1.6003 -0.2169
 9070SOL    HW238673   0.109   1.214   8.519 -0.6466  1.0954 -1.0663
 9071SOL     OW38674   3.043   3.378   6.523 -0.1460 -0.2987  0.0151
 9071SOL    HW138675   2.994   3.419   6.451  1.0994  0.0532 -0.6320
 9071SOL    HW238676   3.127   3.357   6.481  0.3472  1.3114  0.1996
 9072SOL     OW38677   0.169   3.861   1.353 -0.0348  0.1949 -0.1779
 9072SOL    HW138678   0.257   3.894   1.334  0.0312  1.0172  1.5473
 9072SOL    HW238679   0.166   3.885   1.446  1.2750 -0.3297 -0.0040
 9073SOL     OW38680   0.126   0.366   5.481  0.2803 -0.7444  0.2000
 9073SOL    HW138681   0.091   0.355   5.393  1.4009  0.4039 -0.3820
 9073SOL    HW238682   0.220   0.362   5.464  0.7891  1.7290  2.4430
 9074SOL     OW38683   3.054   0.535  13.952 -0.7281  0.1575 -0.2219
 9074SOL    HW138684   3.123   0.482  13.992 -0.7031  0.1052 -0.3354
 9074SOL    HW238685   2.972   0.502  13.989 -1.8386 -0.1681 -2.9548
 9075SOL     OW38686   3.045   3.702   6.298  0.3019  0.1281 -0.4967
 9075SOL    HW138687   3.122   3.727   6.348  0.0395 -0.3719  0.1544
 9075SOL    HW238688   3.084   3.635   6.243  0.8725 -0.2997  0.4319
 9076SOL     OW38689   4.135   0.197  16.939  0.4499 -0.3443  0.0985
 9076SOL    HW138690   4.089   0.112  16.937  2.1670 -1.3026  1.5198
 9076SOL    HW238691   4.201   0.180  17.006  1.4162 -1.3210 -1.0825
 9077SOL     OW38692   2.829   1.784   5.242  0.1060  0.2752  0.5628
 9077SOL    HW138693   2.779   1.714   5.199  0.8760  0.4117 -0.5694
 9077SOL    HW238694   2.797   1.858   5.190  2.2649  0.9778  0.2306
 9078SOL     OW38695   0.756   4.290   5.842 -0.8887  0.1123 -0.3937
 9078SOL    HW138696   0.802   4.340   5.909 -0.1494 -1.6853  0.4663
 9078SOL    HW238697   0.749   4.208   5.892  1.4048  0.1135 -0.0677
 9079SOL     OW38698   3.908   2.719   6.995  0.1003  0.8987 -1.0972
 9079SOL    HW138699   3.983   2.778   6.985  2.5853 -1.6286  2.1086
 9079SOL    HW238700   3.862   2.768   7.063  0.2111  0.3710 -0.6336
 9080SOL     OW38701   1.101   4.195   2.529 -0.0763 -0.1549 -0.3334
 9080SOL    HW138702   1.057   4.280   2.528 -0.5811 -0.3975  1.6870
 9080SOL    HW238703   1.177   4.207   2.472  0.2495 -2.1788 -0.3415
 9081SOL     OW38704   1.539   1.798  15.255 -0.0451 -0.0989  0.1447
 9081SOL    HW138705   1.607   1.776  15.190  2.3627 -1.1267  3.0137
 9081SOL    HW238706   1.460   1.767  15.212  0.2120 -0.8688  0.2195
 9082SOL     OW38707   1.496   4.661   6.910  0.7019  0.5644  0.6172
 9082SOL    HW138708   1.557   4.722   6.951  1.2584  0.4240 -0.0085
 9082SOL    HW238709   1.540   4.578   6.927 -1.0370 -0.6601 -0.8607
 9083SOL     OW38710   3.857   3.851   5.553  0.2171  0.0418  0.1555
 9083SOL    HW138711   3.794   3.912   5.514  0.0739  0.5485  1.1944
 9083SOL    HW238712   3.936   3.902   5.567 -1.5176  3.0351 -0.9157
 9084SOL     OW38713   1.829   0.514  12.189  0.2373 -0.5212  0.6939
 9084SOL    HW138714   1.910   0.564  12.202 -0.7632  1.5646 -1.0855
 9084SOL    HW238715   1.805   0.536  12.099 -0.8268  0.9038  1.3168
 9085SOL     OW38716   3.440   1.462   4.472 -0.0666 -0.3650  0.1143
 9085SOL    HW138717   3.450   1.508   4.389  0.1838  0.4796  0.6145
 9085SOL    HW238718   3.352   1.497   4.480  0.0560  0.2381 -1.1855
 9086SOL     OW38719   2.615   3.885  13.184  0.3297 -0.2625  0.8353
 9086SOL    HW138720   2.621   3.789  13.184  2.4199 -0.1468 -0.9043
 9086SOL    HW238721   2.706   3.911  13.170  0.3231 -0.7674 -0.2027
 9087SOL     OW38722   4.361   4.510   6.107 -0.0271 -0.1679  0.4246
 9087SOL    HW138723   4.411   4.591   6.112 -3.4166  1.9144 -0.0365
 9087SOL    HW238724   4.302   4.515   6.182 -0.4883  1.3803 -0.0441
 9088SOL     OW38725   4.604   0.459   2.816 -0.2069 -0.4242 -0.5604
 9088SOL    HW138726   4.568   0.547   2.805  0.9976  0.2791  1.1545
 9088SOL    HW238727   4.569   0.430   2.900 -1.9598  0.6356 -0.9456
 9089SOL     OW38728   2.269   4.227   6.545 -0.3788 -0.5365 -0.1106
 9089SOL    HW138729   2.182   4.190   6.561 -0.9265 -0.1481 -2.1326
 9089SOL    HW238730   2.320   4.148   6.530 -1.2770 -1.1392 -0.0042
 9090SOL     OW38731   0.222   3.277   1.810  0.3180  0.1429  0.2100
 9090SOL    HW138732   0.259   3.232   1.734 -1.4325 -0.5115 -0.2460
 9090SOL    HW238733   0.301   3.283   1.864  0.2866 -0.2386  0.3023
 9091SOL     OW38734   3.543   2.754   3.709  0.2049 -0.3886 -0.1137
 9091SOL    HW138735   3.632   2.785   3.722  0.1976  0.8661 -3.2211
 9091SOL    HW238736   3.495   2.836   3.693 -1.6884 -1.5920 -0.6392
 9092SOL     OW38737   2.974   4.001   3.699  0.1015 -0.0899  0.2504
 9092SOL    HW138738   3.054   3.949   3.707 -1.1697 -1.5061  3.8948
 9092SOL    HW238739   2.947   3.993   3.791  2.2184 -1.7265  0.7273
 9093SOL     OW38740   3.944   0.376   2.857  0.0069 -0.1697 -0.2588
 9093SOL    HW138741   3.896   0.297   2.832 -1.8934  0.6155  0.9402
 9093SOL    HW238742   3.872   0.437   2.875  0.2333 -0.1723  0.6291
 9094SOL     OW38743   3.829   4.111   4.857 -0.5017 -0.2580 -0.1435
 9094SOL    HW138744   3.923   4.099   4.840 -0.4723 -0.8632  0.4684
 9094SOL    HW238745   3.800   4.028   4.819  0.8564 -0.1512 -1.4109
 9095SOL     OW38746   3.874   0.239  10.109 -0.4900 -0.1504 -0.0374
 9095SOL    HW138747   3.964   0.250  10.080  0.2534 -0.9662  1.9401
 9095SOL    HW238748   3.874   0.290  10.190  0.0389  0.1914 -0.2562
 9096SOL     OW38749   4.693   2.428   3.305  0.2172 -0.5761  0.1590
 9096SOL    HW138750   0.020   2.496   3.263  1.7018 -2.0222 -0.2993
 9096SOL    HW238751   0.005   2.357   3.253 -0.6081 -0.4793 -0.5711
 9097SOL     OW38752   4.354   2.303  13.640 -0.3792 -0.0590  0.2818
 9097SOL    HW138753   4.384   2.356  13.566  0.4958 -1.9305 -0.6956
 9097SOL    HW238754   4.408   2.339  13.710 -0.6340  1.2123 -0.1807
 9098SOL     OW38755   2.583   3.911   5.974  0.0303  0.8095 -0.1206
 9098SOL    HW138756   2.597   3.947   5.886 -0.5031  0.8723 -0.1821
 9098SOL    HW238757   2.600   3.820   5.946 -1.6058 -0.7080  3.9017
 9099SOL     OW38758   3.571   3.853  13.498  0.3271  0.2378 -0.0349
 9099SOL    HW138759   3.602   3.936  13.532 -1.1830  0.3456  1.0535
 9099SOL    HW238760   3.618   3.857  13.414 -0.2306 -1.2005 -0.4224
 9100SOL     OW38761   1.282   0.766   6.400 -0.4315  0.3838 -0.7305
 9100SOL    HW138762   1.234   0.733   6.476  0.1648  1.2766  0.0359
 9100SOL    HW238763   1.360   0.809   6.435 -0.2643  1.1113 -1.9863
 9101SOL     OW38764   1.423   2.771   9.239  0.3139  0.1580 -0.0483
 9101SOL    HW138765   1.479   2.812   9.173  1.2450 -0.3987  0.3907
 9101SOL    HW238766   1.488   2.749   9.306 -2.1185  0.7033  2.4553
 9102SOL     OW38767   2.322   0.639  16.328  0.2135 -0.0597 -0.5779
 9102SOL    HW138768   2.298   0.665  16.239 -0.5447  1.3432  0.0448
 9102SOL    HW238769   2.417   0.631  16.321  0.2972 -0.9287  1.5630
 9103SOL     OW38770   3.077   3.784   4.773 -0.3413  0.2592 -0.0616
 9103SOL    HW138771   3.139   3.804   4.703  1.0021  0.2204  1.1092
 9103SOL    HW238772   2.994   3.750   4.739  0.4149 -1.9678  0.2839
 9104SOL     OW38773   1.320   2.949  10.566  0.1134  0.1618  0.4899
 9104SOL    HW138774   1.357   2.903  10.641  1.9788  3.2313  1.4519
 9104SOL    HW238775   1.402   2.950  10.516  0.8110 -0.5041  1.6303
 9105SOL     OW38776   0.430   4.194   5.914  0.0612  0.1850 -0.1751
 9105SOL    HW138777   0.434   4.116   5.968 -0.3522  0.7110  0.6088
 9105SOL    HW238778   0.505   4.193   5.854 -0.3057 -1.0547 -0.6160
 9106SOL     OW38779   1.727   0.612  13.383  0.1999  0.4078 -0.6214
 9106SOL    HW138780   1.816   0.645  13.393  0.1684 -0.2695  1.9931
 9106SOL    HW238781   1.737   0.567  13.299  0.2167  1.9508 -1.4483
 9107SOL     OW38782   1.068   1.242  17.165 -0.1047  0.3611 -0.3985
 9107SOL    HW138783   0.996   1.300  17.138 -0.6875 -0.2071 -0.0451
 9107SOL    HW238784   1.130   1.300  17.209  0.7834 -0.8192 -0.1034
 9108SOL     OW38785   1.459   0.887   6.566  0.4085  0.1186 -0.3939
 9108SOL    HW138786   1.544   0.844   6.579  0.7179 -0.1409 -3.1639
 9108SOL    HW238787   1.467   0.944   6.642  1.1382  1.4576 -1.4732
 9109SOL     OW38788   2.836   0.702   2.467 -0.3478 -0.1801  0.2971
 9109SOL    HW138789   2.855   0.620   2.512 -1.3466 -0.6828 -0.2028
 9109SOL    HW238790   2.780   0.742   2.533 -0.1640  0.3467  0.1364
 9110SOL     OW38791   0.854   2.473  17.662 -0.2870  0.1455  0.3202
 9110SOL    HW138792   0.860   2.473   0.056 -0.1337 -2.0735  0.3031
 9110SOL    HW238793   0.847   2.380  17.642  2.4618  0.0564 -0.1755
 9111SOL     OW38794   0.951   2.509   2.117  0.5516  0.3862  0.4780
 9111SOL    HW138795   0.856   2.521   2.124  0.4855 -0.4574  1.0086
 9111SOL    HW238796   0.964   2.416   2.137  1.9265  0.5998  0.5868
 9112SOL     OW38797   2.528   1.642   6.933  0.1984 -0.1892 -0.7158
 9112SOL    HW138798   2.606   1.631   6.987  0.9150 -0.5985 -1.8317
 9112SOL    HW238799   2.573   1.625   6.850  2.3781 -0.6479  0.5630
 9113SOL     OW38800   4.633   4.295  16.747 -0.0436 -0.3389 -0.6673
 9113SOL    HW138801   4.568   4.252  16.691  0.2397  0.3237 -1.5079
 9113SOL    HW238802   4.666   4.224  16.802 -1.2544 -0.4994 -0.1420
 9114SOL     OW38803   0.424   3.158   6.233  0.1605 -0.1451 -0.3936
 9114SOL    HW138804   0.377   3.220   6.288  0.5320  0.8188 -1.1638
 9114SOL    HW238805   0.426   3.079   6.286  2.0240 -0.8459 -1.5053
 9115SOL     OW38806   3.791   3.369   3.708  0.3801 -0.2314  0.6507
 9115SOL    HW138807   3.809   3.442   3.648  2.6775 -0.1999  1.3734
 9115SOL    HW238808   3.696   3.373   3.715  0.6228  0.9939  3.2891
 9116SOL     OW38809   2.891   2.980  16.615  0.5230 -0.4019 -0.6757
 9116SOL    HW138810   2.903   2.967  16.521 -0.5117  0.0945 -0.8799
 9116SOL    HW238811   2.951   3.053  16.630 -0.2101  0.5714 -2.4294
 9117SOL     OW38812   4.069   4.042   6.104 -0.1117  0.3266 -0.4927
 9117SOL    HW138813   4.018   4.059   6.025  0.7467  1.1556 -0.8783
 9117SOL    HW238814   4.134   4.113   6.095 -0.5465  0.5479 -1.9355
 9118SOL     OW38815   1.072   2.078  12.424  0.4011  0.1170  0.0467
 9118SOL    HW138816   1.146   2.101  12.367  0.6664 -0.0212  0.3371
 9118SOL    HW238817   1.081   2.150  12.487 -3.2754  2.4960 -2.1332
 9119SOL     OW38818   4.561   3.630   5.124 -1.1185  0.4987  1.0449
 9119SOL    HW138819   4.500   3.628   5.050  0.2059  2.2778 -0.0872
 9119SOL    HW238820   4.546   3.717   5.161 -1.5507  1.9387 -2.4734
 9120SOL     OW38821   2.097   3.431  14.535  0.1910 -0.3388  0.3611
 9120SOL    HW138822   2.030   3.495  14.559  2.5166  3.2274 -2.5869
 9120SOL    HW238823   2.095   3.359  14.598 -1.3214 -1.3847 -0.9077
 9121SOL     OW38824   2.735   1.536  12.043 -0.2840  0.2145  0.0537
 9121SOL    HW138825   2.646   1.523  12.074  0.6017 -1.1002  1.9978
 9121SOL    HW238826   2.756   1.453  12.001  0.0537  0.4449 -0.2329
 9122SOL     OW38827   0.617   3.450   1.592  0.2570 -0.4863  0.4589
 9122SOL    HW138828   0.561   3.406   1.528  1.1628 -0.8848 -0.0452
 9122SOL    HW238829   0.567   3.469   1.672 -0.8107 -3.6880  0.5430
 9123SOL     OW38830   3.211   3.601   4.128  0.7443 -0.2247  0.4511
 9123SOL    HW138831   3.213   3.566   4.217 -0.3318 -1.2479  0.0643
 9123SOL    HW238832   3.262   3.531   4.088  2.1997  1.5147 -0.7445
 9124SOL     OW38833   2.897   0.367   4.619 -0.1904  0.3987 -0.4343
 9124SOL    HW138834   2.864   0.394   4.705 -0.1497  2.7482 -1.1635
 9124SOL    HW238835   2.825   0.306   4.603 -1.1814  2.0606 -2.3273
 9125SOL     OW38836   0.671   0.407   7.550 -0.8228  0.1697  0.2324
 9125SOL    HW138837   0.651   0.385   7.459  1.0308 -0.1890 -0.0793
 9125SOL    HW238838   0.745   0.468   7.549  0.7656 -1.7953 -1.2006
 9126SOL     OW38839   0.159   4.605   7.012 -0.0515 -0.8099 -0.3870
 9126SOL    HW138840   0.156   4.678   6.950 -0.4935 -1.5873 -1.2811
 9126SOL    HW238841   0.234   4.553   6.984  0.3224 -0.6062  0.2299
 9127SOL     OW38842   4.375   0.488   7.044 -0.6703  0.5438 -0.0315
 9127SOL    HW138843   4.299   0.497   6.986 -0.2085  0.1967 -0.6774
 9127SOL    HW238844   4.448   0.504   6.985  0.3939 -2.2036  0.5632
 9128SOL     OW38845   4.239   1.484   0.361  0.9540 -0.1973  0.1862
 9128SOL    HW138846   4.155   1.505   0.321  1.1058  0.8719  0.4243
 9128SOL    HW238847   4.297   1.502   0.287 -0.2971  0.5794 -0.5933
 9129SOL     OW38848   1.321   0.264  15.612 -0.1174  0.3417  0.0082
 9129SOL    HW138849   1.233   0.267  15.576 -0.8492  0.7411  1.8625
 9129SOL    HW238850   1.377   0.254  15.535  1.4444  1.3298  1.0136
 9130SOL     OW38851   2.293   2.597   0.457 -0.1344  0.1460  0.0602
 9130SOL    HW138852   2.338   2.522   0.417 -0.3592  0.3940 -0.6576
 9130SOL    HW238853   2.358   2.666   0.445 -0.1911  0.0854 -0.5888
 9131SOL     OW38854   0.601   0.792   3.627  0.2605  0.6881  0.7284
 9131SOL    HW138855   0.644   0.859   3.573  0.0131 -0.4098 -0.8327
 9131SOL    HW238856   0.540   0.843   3.680  1.5265  2.9927 -0.0124
 9132SOL     OW38857   0.047   1.439   3.358 -0.6693  0.1723 -0.2912
 9132SOL    HW138858   0.026   1.354   3.320  0.6855 -0.3325  0.0858
 9132SOL    HW238859   0.127   1.421   3.407 -1.2682 -2.5545 -0.2886
 9133SOL     OW38860   1.298   1.867   3.876  0.0701 -0.0665  0.1128
 9133SOL    HW138861   1.339   1.935   3.823 -0.7321  1.0461  0.9449
 9133SOL    HW238862   1.355   1.795   3.847  1.0268  1.2826 -1.3629
 9134SOL     OW38863   0.606   1.927  12.496 -0.5327 -0.5221 -0.4905
 9134SOL    HW138864   0.568   1.991  12.436  1.7394  0.1462 -1.2162
 9134SOL    HW238865   0.698   1.924  12.466 -0.4558 -1.3656 -0.1923
 9135SOL     OW38866   2.884   3.811   6.039  0.3967 -0.4678  0.3510
 9135SOL    HW138867   2.965   3.857   6.060 -0.2164 -0.0009  1.7005
 9135SOL    HW238868   2.841   3.826   6.124 -2.2043  1.6922 -1.3598
 9136SOL     OW38869   4.699   0.738   3.130  0.0909  0.5643 -0.4987
 9136SOL    HW138870   0.045   0.702   3.182 -0.1255  0.3070 -0.3864
 9136SOL    HW238871   4.645   0.779   3.197  0.5603  0.4137 -0.0337
 9137SOL     OW38872   2.593   0.553   2.640 -0.0539 -0.0796 -0.7832
 9137SOL    HW138873   2.645   0.523   2.715 -0.9534 -0.3863 -0.2861
 9137SOL    HW238874   2.501   0.538   2.659 -1.0418  2.6062 -3.3916
 9138SOL     OW38875   0.973   4.605  13.728  0.4160 -0.4749  0.3172
 9138SOL    HW138876   1.014   4.627  13.644 -0.3660 -1.1300 -0.2262
 9138SOL    HW238877   1.021   4.525  13.749  0.3001 -0.4908  0.5169
 9139SOL     OW38878   1.052   4.446   4.066 -0.1231  0.1912  0.0240
 9139SOL    HW138879   1.017   4.367   4.108 -1.5594 -1.2126 -3.8633
 9139SOL    HW238880   0.984   4.471   4.004  0.2460 -0.1960 -0.5291
 9140SOL     OW38881   4.417   4.014   7.490 -0.1552  0.1790  0.3750
 9140SOL    HW138882   4.505   4.027   7.527 -0.3286 -4.6270  2.4488
 9140SOL    HW238883   4.371   4.090   7.526  0.8022  1.5687 -1.2671
 9141SOL     OW38884   2.595   4.104   2.608  0.0405 -0.1258 -0.0330
 9141SOL    HW138885   2.597   4.063   2.694 -0.9719  0.7149  0.3877
 9141SOL    HW238886   2.544   4.046   2.552 -2.0099  0.5656  1.1479
 9142SOL     OW38887   1.828   1.592   3.329 -0.0842 -0.0002 -0.6608
 9142SOL    HW138888   1.861   1.609   3.241 -1.0874 -2.7670 -1.5852
 9142SOL    HW238889   1.789   1.678   3.343  2.2671  0.8516  0.5780
 9143SOL     OW38890   3.541   2.764   3.437 -0.5599 -0.0325 -0.4732
 9143SOL    HW138891   3.529   2.706   3.512 -2.0171  0.4003 -0.3830
 9143SOL    HW238892   3.559   2.702   3.366  0.2165 -0.6899  0.2979
 9144SOL     OW38893   0.999   0.631   9.956  0.1537 -0.2962  0.1181
 9144SOL    HW138894   0.998   0.623   9.861 -1.1075 -2.9297  0.3427
 9144SOL    HW238895   0.909   0.635   9.989 -0.4273 -0.3729 -1.4768
 9145SOL     OW38896   2.096   2.223  12.200 -0.3329  0.1378 -0.5095
 9145SOL    HW138897   2.191   2.231  12.211 -0.3820  0.6057 -0.4137
 9145SOL    HW238898   2.077   2.317  12.204 -1.6991 -0.0726 -2.3066
 9146SOL     OW38899   1.314   3.394   5.110 -0.1063 -0.1460  0.1769
 9146SOL    HW138900   1.379   3.462   5.125 -1.5551  0.8517  1.8309
 9146SOL    HW238901   1.311   3.391   5.014 -1.4473 -0.7685  0.2426
 9147SOL     OW38902   2.228   3.844   3.976  0.0688 -0.7201 -0.7873
 9147SOL    HW138903   2.174   3.921   3.996  1.8841  0.5941 -1.0297
 9147SOL    HW238904   2.172   3.770   4.003  1.4922 -1.9062 -1.1044
 9148SOL     OW38905   0.080   4.184   1.717 -0.4016 -0.1544 -0.5921
 9148SOL    HW138906   0.148   4.194   1.651  0.2152 -1.0510 -0.0853
 9148SOL    HW238907   0.039   4.271   1.722  1.1410  0.5096  0.7041
 9149SOL     OW38908   3.316   2.117   4.972 -0.4508  0.1528  0.0522
 9149SOL    HW138909   3.371   2.044   5.001  1.0926  1.4182  0.2780
 9149SOL    HW238910   3.381   2.157   4.915 -0.1531 -0.4750 -0.0471
 9150SOL     OW38911   2.968   3.442   7.749  0.1498 -0.3468  0.1442
 9150SOL    HW138912   2.987   3.350   7.730 -0.2723 -0.0272 -1.9013
 9150SOL    HW238913   2.974   3.463   7.656 -1.7649  1.0043  0.3403
 9151SOL     OW38914   4.412   1.055   4.801  0.1839  0.2749 -0.0185
 9151SOL    HW138915   4.372   1.120   4.743  1.2961  1.1661  0.2184
 9151SOL    HW238916   4.400   1.089   4.890  0.1184 -0.9680  0.4408
 9152SOL     OW38917   1.091   2.216  16.511 -0.0180 -0.6448 -0.3849
 9152SOL    HW138918   1.022   2.238  16.574  1.3600 -0.0496  0.9043
 9152SOL    HW238919   1.143   2.296  16.511  1.5827 -1.6917 -0.8491
 9153SOL     OW38920   4.709   4.686   2.586 -0.1162 -0.9239  0.3345
 9153SOL    HW138921   4.660   0.015   2.648  1.2605 -0.3087  0.8932
 9153SOL    HW238922   0.032   0.022   2.530  0.0508  1.5414  3.1746
 9154SOL     OW38923   0.962   1.832  15.316  0.6412 -0.4658  0.0465
 9154SOL    HW138924   0.885   1.842  15.261  0.2684 -4.0402 -0.0552
 9154SOL    HW238925   1.019   1.777  15.262 -0.9555 -0.6310 -1.4630
 9155SOL     OW38926   4.636   3.878  13.267 -0.1487 -0.1693 -0.6931
 9155SOL    HW138927   4.598   3.907  13.350  0.8961  0.3413 -0.3947
 9155SOL    HW238928   0.004   3.869  13.288 -0.1539 -0.9887 -1.0340
 9156SOL     OW38929   3.660   0.778   2.785  0.3468  0.2990 -0.3538
 9156SOL    HW138930   3.578   0.798   2.830  0.8733  0.0731  0.7096
 9156SOL    HW238931   3.645   0.831   2.706 -1.9599 -0.7647 -0.6143
 9157SOL     OW38932   2.472   1.454   9.859 -0.5723  0.0818 -0.6080
 9157SOL    HW138933   2.521   1.424   9.782  2.7741 -1.6192  2.2064
 9157SOL    HW238934   2.424   1.528   9.821  0.7759  0.3049 -1.8940
 9158SOL     OW38935   1.369   4.362   1.070  0.1001 -0.5122  0.8258
 9158SOL    HW138936   1.405   4.338   0.985 -0.9720 -0.8532  0.4612
 9158SOL    HW238937   1.305   4.432   1.056 -0.4554 -1.2091 -0.1125
 9159SOL     OW38938   2.610   4.168   5.628  0.0125  0.3214 -0.0983
 9159SOL    HW138939   2.612   4.100   5.696  1.9517  0.9736  0.4925
 9159SOL    HW238940   2.562   4.239   5.672  0.1002 -0.5128  1.3446
 9160SOL     OW38941   2.042   3.621   4.478  0.2936 -0.8803 -0.3458
 9160SOL    HW138942   2.036   3.605   4.573  0.7040  3.9276  0.4836
 9160SOL    HW238943   2.024   3.533   4.445 -1.7919 -0.5615 -0.0774
 9161SOL     OW38944   0.767   0.785   2.350 -0.6521  0.4101 -0.1111
 9161SOL    HW138945   0.785   0.758   2.440 -1.3850 -0.9705 -0.3800
 9161SOL    HW238946   0.679   0.750   2.333 -0.1994  0.4159 -2.4996
 9162SOL     OW38947   3.834   2.693   5.168  0.5141  0.3138 -0.2284
 9162SOL    HW138948   3.783   2.720   5.092 -1.7135  0.2996  1.2780
 9162SOL    HW238949   3.875   2.615   5.130  0.5057  1.1884 -2.0110
 9163SOL     OW38950   1.812   4.437   4.216 -0.3456  0.2196 -0.6897
 9163SOL    HW138951   1.814   4.480   4.131  0.5991 -0.8137 -1.1843
 9163SOL    HW238952   1.836   4.507   4.277 -0.5060 -1.0046  0.7935
 9164SOL     OW38953   2.487   4.366   3.534 -0.2515  0.3909 -0.3494
 9164SOL    HW138954   2.467   4.354   3.441  0.4304  0.6093 -0.5270
 9164SOL    HW238955   2.544   4.289   3.536  1.6027  1.7291 -1.5658
 9165SOL     OW38956   4.094   3.078   5.351 -0.2988 -0.1541 -0.1639
 9165SOL    HW138957   4.066   3.017   5.420 -0.0334  0.0700  0.1372
 9165SOL    HW238958   4.184   3.046   5.344 -0.6332 -1.4415  1.5081
 9166SOL     OW38959   3.434   2.456   7.758 -0.1275  0.5563  0.0021
 9166SOL    HW138960   3.425   2.447   7.853  0.6313  1.7467  0.1908
 9166SOL    HW238961   3.403   2.372   7.723  3.2905 -0.6913 -0.0545
 9167SOL     OW38962   2.837   2.741  16.007  0.8256 -0.0203  0.0269
 9167SOL    HW138963   2.795   2.771  15.926 -1.1879 -2.5393  0.1524
 9167SOL    HW238964   2.904   2.805  16.031 -0.0899  1.1275 -0.4750
 9168SOL     OW38965   0.112   0.540  10.303  0.3876 -0.3022 -0.0424
 9168SOL    HW138966   0.117   0.505  10.392 -0.4597  1.0602  0.5252
 9168SOL    HW238967   0.090   0.632  10.314  0.9235 -0.1302 -0.3777
 9169SOL     OW38968   0.656   1.274  15.188  0.0824 -0.5570  0.2665
 9169SOL    HW138969   0.640   1.198  15.244  0.0401 -0.1939  0.7514
 9169SOL    HW238970   0.607   1.334  15.244 -0.0488 -1.0710  0.6978
 9170SOL     OW38971   3.430   4.233   0.522 -0.3846  0.0665  0.3803
 9170SOL    HW138972   3.491   4.208   0.453 -0.3611 -2.3278  1.2813
 9170SOL    HW238973   3.395   4.148   0.547  1.0891 -0.3978  0.7935
 9171SOL     OW38974   0.953   4.029  16.877 -0.2174 -0.3323 -0.0293
 9171SOL    HW138975   0.880   4.088  16.899 -0.0274  0.5705 -1.7731
 9171SOL    HW238976   0.912   3.943  16.883 -1.7038  0.5698  2.6845
 9172SOL     OW38977   1.439   3.886   0.299 -0.6770 -0.1226  0.2401
 9172SOL    HW138978   1.518   3.852   0.340  0.6953  2.8203  0.0091
 9172SOL    HW238979   1.463   3.906   0.209 -2.5422 -0.3295 -0.3225
 9173SOL     OW38980   2.889   0.355   6.741  0.4466  0.0667  0.3251
 9173SOL    HW138981   2.932   0.373   6.657 -2.3901 -0.3151 -1.2079
 9173SOL    HW238982   2.831   0.431   6.752  0.9545  0.5293 -0.1272
 9174SOL     OW38983   1.865   0.311  13.496 -0.7355 -0.2671  0.3489
 9174SOL    HW138984   1.850   0.404  13.479  2.0267  0.2235  0.5195
 9174SOL    HW238985   1.817   0.263  13.428  1.3477 -1.4411 -0.3256
 9175SOL     OW38986   1.011   0.546  13.837  1.1868 -0.8269 -0.0104
 9175SOL    HW138987   0.927   0.528  13.880  0.8957  1.4649  0.4018
 9175SOL    HW238988   1.006   0.511  13.748  3.6990  1.1157 -0.9143
 9176SOL     OW38989   1.172   0.579  14.680  0.1751  0.0256  0.1903
 9176SOL    HW138990   1.256   0.608  14.715  1.3549 -0.3505 -2.3156
 9176SOL    HW238991   1.195   0.492  14.647 -0.1885 -0.4928  1.3186
 9177SOL     OW38992   2.050   2.870   9.777 -0.2154  0.7240 -0.2483
 9177SOL    HW138993   2.105   2.826   9.842  0.4260  1.2786 -0.4149
 9177SOL    HW238994   2.062   2.963   9.798 -0.3275  0.5869  0.4245
 9178SOL     OW38995   4.457   2.328   1.698 -0.6727  0.5746 -0.2173
 9178SOL    HW138996   4.376   2.377   1.681 -0.6344  0.1735 -1.5585
 9178SOL    HW238997   4.471   2.338   1.792 -0.6298 -1.8412  0.0178
 9179SOL     OW38998   2.105   4.281   8.533  0.3333  0.8227 -0.0179
 9179SOL    HW138999   2.012   4.273   8.556  0.6701  0.7746  1.3558
 9179SOL    HW239000   2.103   4.284   8.438  3.3828 -0.1230 -0.1031
 9180SOL     OW39001   2.308   4.586   4.770 -0.2511  0.6618 -0.3675
 9180SOL    HW139002   2.219   4.621   4.766  0.0333  1.1537 -2.1493
 9180SOL    HW239003   2.316   4.519   4.837  1.1849  1.8442  0.6514
 9181SOL     OW39004   3.872   2.266   6.252  0.5526  0.3353  0.0299
 9181SOL    HW139005   3.889   2.191   6.308 -2.1524  0.0285  0.4489
 9181SOL    HW239006   3.787   2.290   6.289  1.1940  2.2587  0.2935
 9182SOL     OW39007   3.170   1.245   6.833  0.0979 -0.2917 -0.1444
 9182SOL    HW139008   3.209   1.312   6.777  0.4177 -0.1123  0.2941
 9182SOL    HW239009   3.145   1.178   6.769  0.3632  0.2326 -0.8011
 9183SOL     OW39010   0.908   1.016   6.141  0.1291  0.1407  0.1344
 9183SOL    HW139011   0.916   0.963   6.220 -0.8115 -0.3096 -0.0766
 9183SOL    HW239012   0.993   1.061   6.142  0.9538 -1.4023 -0.7430
 9184SOL     OW39013   0.230   0.635  10.671 -0.3361 -0.7417  0.3958
 9184SOL    HW139014   0.283   0.619  10.749  1.6448 -1.8277 -1.1894
 9184SOL    HW239015   0.152   0.580  10.684 -0.0570 -1.0811  0.6307
 9185SOL     OW39016   1.357   1.816  15.550 -0.5697 -0.1675  0.1385
 9185SOL    HW139017   1.337   1.846  15.639  1.2404  0.5984  0.2865
 9185SOL    HW239018   1.451   1.827  15.537 -0.4866 -0.7327  0.2739
 9186SOL     OW39019   4.436   2.838   5.636 -0.2587 -0.5785  0.3294
 9186SOL    HW139020   4.498   2.820   5.565 -0.7558  2.4515 -0.8751
 9186SOL    HW239021   4.381   2.760   5.643 -1.1770 -0.1641 -2.4048
 9187SOL     OW39022   0.386   0.160  13.459  0.0004 -0.2439 -0.0855
 9187SOL    HW139023   0.424   0.096  13.399 -1.0081  0.3459 -1.3695
 9187SOL    HW239024   0.304   0.184  13.416 -0.3152  1.7128  1.6416
 9188SOL     OW39025   0.175   2.763   4.154 -0.4906  0.2195 -0.5412
 9188SOL    HW139026   0.145   2.778   4.244 -0.1617  0.0460 -0.4064
 9188SOL    HW239027   0.270   2.760   4.161 -0.6037  0.6578  1.1122
 9189SOL     OW39028   4.129   1.946   2.439  0.1840  0.0679 -0.4188
 9189SOL    HW139029   4.201   2.007   2.419  2.1089 -2.0765  0.0342
 9189SOL    HW239030   4.176   1.874   2.481 -0.3229  1.5024  2.6680
 9190SOL     OW39031   4.111   1.292   5.831  0.2447 -0.3748  0.5837
 9190SOL    HW139032   4.094   1.221   5.893 -2.6602  0.3531  0.6061
 9190SOL    HW239033   4.188   1.266   5.779 -1.1212 -1.4782 -0.8861
 9191SOL     OW39034   1.737   4.296  11.958 -0.4961 -0.3494 -0.0152
 9191SOL    HW139035   1.693   4.357  11.899  0.6288  1.0841  0.6209
 9191SOL    HW239036   1.679   4.220  11.952  1.0812 -1.6287  1.0222
 9192SOL     OW39037   2.496   4.702   2.692 -0.7636  0.0268 -0.0358
 9192SOL    HW139038   2.531   4.674   2.607  0.1153  5.1877 -1.3724
 9192SOL    HW239039   2.427   0.030   2.653  0.0221  0.0151 -1.4224
 9193SOL     OW39040   0.809   0.126  15.105  0.4356 -0.0870  0.0063
 9193SOL    HW139041   0.800   0.160  15.015 -1.2204 -3.2648 -1.0360
 9193SOL    HW239042   0.837   0.207  15.147 -0.6169  0.7369 -0.8542
 9194SOL     OW39043   4.230   3.861   4.889 -0.2892  0.8749 -0.5365
 9194SOL    HW139044   4.205   3.818   4.807  1.4623 -0.0669 -0.5909
 9194SOL    HW239045   4.232   3.785   4.946 -1.6219  2.2183  1.3002
 9195SOL     OW39046   0.366   2.985   8.793 -0.9873  0.2398  0.1451
 9195SOL    HW139047   0.284   2.994   8.842  0.4463  3.3126  1.9854
 9195SOL    HW239048   0.341   2.967   8.702  2.2789  0.5427 -0.7927
 9196SOL     OW39049   4.081   1.249  17.678  0.1703  0.2399  0.1594
 9196SOL    HW139050   4.129   1.331  17.670  1.6213 -0.6603 -0.5896
 9196SOL    HW239051   4.051   1.244   0.066  1.4102  0.9031  0.6074
 9197SOL     OW39052   1.879   1.229   3.609 -0.4338  0.6753 -0.6233
 9197SOL    HW139053   1.899   1.236   3.515 -3.9744  0.4885 -1.4182
 9197SOL    HW239054   1.815   1.300   3.617 -0.2951  0.6443  0.6474
 9198SOL     OW39055   3.692   3.264   8.657  0.2263 -0.0269 -0.2702
 9198SOL    HW139056   3.618   3.325   8.657  1.8281  1.9530  1.8985
 9198SOL    HW239057   3.661   3.190   8.606 -2.6135  0.9140  0.0967
 9199SOL     OW39058   2.069   0.624   5.222 -0.2460  0.3420  0.0317
 9199SOL    HW139059   1.979   0.649   5.201 -0.7053 -0.5492  0.9213
 9199SOL    HW239060   2.047   0.550   5.278 -0.7848 -0.3778 -1.1141
 9200SOL     OW39061   3.247   0.487   6.131 -0.0798  0.7062 -0.0785
 9200SOL    HW139062   3.282   0.443   6.054 -0.3219 -0.6389  0.5716
 9200SOL    HW239063   3.158   0.451   6.133  0.1659  0.1966  1.4960
 9201SOL     OW39064   0.731   2.544   5.456 -1.3481  0.0730  0.1220
 9201SOL    HW139065   0.696   2.535   5.367 -1.3857  0.0702  0.1374
 9201SOL    HW239066   0.804   2.603   5.436 -0.7456  0.1745  2.6097
 9202SOL     OW39067   1.597   1.055  14.273  0.5036 -0.0046 -0.1949
 9202SOL    HW139068   1.515   1.007  14.264  0.2003  0.4276  0.3324
 9202SOL    HW239069   1.645   0.981  14.311 -0.0573 -0.9266 -1.2726
 9203SOL     OW39070   0.068   0.849  14.368  0.2874 -0.6528  0.6367
 9203SOL    HW139071   0.073   0.776  14.306 -0.4289 -0.2844  0.1313
 9203SOL    HW239072   0.101   0.916  14.308 -1.0662 -2.0682 -1.7309
 9204SOL     OW39073   0.749   1.431   2.372  0.0096  0.6727  0.1244
 9204SOL    HW139074   0.824   1.471   2.417 -0.7001  1.8282  0.2920
 9204SOL    HW239075   0.792   1.387   2.299  2.1304 -0.3796  1.9812
 9205SOL     OW39076   1.147   1.586   3.944 -0.0300 -0.0795 -0.0647
 9205SOL    HW139077   1.070   1.553   3.899 -0.3327  0.6783 -0.1002
 9205SOL    HW239078   1.126   1.664   3.995 -0.2242 -0.1507 -0.0378
 9206SOL     OW39079   2.717   0.224   3.206 -0.0758  0.1213  0.2857
 9206SOL    HW139080   2.768   0.239   3.286 -0.6413  1.2702  0.4326
 9206SOL    HW239081   2.662   0.302   3.211 -0.4673 -0.1875  0.7213
 9207SOL     OW39082   1.108   3.566   2.144  0.5960  0.5355 -0.3422
 9207SOL    HW139083   1.045   3.494   2.148  1.0192  0.1943  0.1151
 9207SOL    HW239084   1.128   3.589   2.235 -0.6603  3.5990 -0.8324
 9208SOL     OW39085   3.296   1.723   3.636 -0.0184  0.0769  0.4501
 9208SOL    HW139086   3.207   1.751   3.612 -0.0814 -0.5368 -0.0223
 9208SOL    HW239087   3.324   1.693   3.550 -0.4701  0.2958  0.2224
 9209SOL     OW39088   1.366   0.684  13.801 -0.2354  0.3176  0.3587
 9209SOL    HW139089   1.323   0.769  13.809 -0.4254  0.0804  1.8265
 9209SOL    HW239090   1.458   0.708  13.796  0.0820 -0.4696  2.6288
 9210SOL     OW39091   1.420   3.605  10.585  0.1393 -0.0907 -0.7338
 9210SOL    HW139092   1.345   3.621  10.527 -0.3026  0.7601  0.0812
 9210SOL    HW239093   1.383   3.538  10.643 -0.4100  1.1628  0.3607
 9211SOL     OW39094   0.864   2.788   1.750  0.2461 -0.0517  0.1671
 9211SOL    HW139095   0.778   2.749   1.763 -0.6481  1.5721 -0.8627
 9211SOL    HW239096   0.891   2.808   1.839 -0.4293 -1.2073  0.6231
 9212SOL     OW39097   1.368   0.789   5.983 -0.2063 -0.5220  0.1511
 9212SOL    HW139098   1.303   0.793   6.053 -0.1222 -0.2461  0.2148
 9212SOL    HW239099   1.345   0.707   5.940  1.0740 -1.0642  0.4992
 9213SOL     OW39100   2.499   2.631   4.769  0.0771  0.6322  0.4850
 9213SOL    HW139101   2.583   2.606   4.809 -0.2968 -0.6886  0.4422
 9213SOL    HW239102   2.441   2.596   4.836 -0.3521 -1.5125 -1.0055
 9214SOL     OW39103   2.628   1.227   5.079 -0.2914 -0.4306 -0.0997
 9214SOL    HW139104   2.648   1.236   4.986 -0.6047  0.6274 -0.0642
 9214SOL    HW239105   2.628   1.131   5.080  1.7733 -0.4392  0.3406
 9215SOL     OW39106   2.668   3.521   3.000  0.3584 -0.6732 -0.5896
 9215SOL    HW139107   2.727   3.557   2.934 -0.3446 -0.7317 -1.2457
 9215SOL    HW239108   2.739   3.521   3.065  0.6645 -0.4634 -0.9258
 9216SOL     OW39109   1.899   2.304  14.807 -0.3836 -0.3665  0.0306
 9216SOL    HW139110   1.876   2.357  14.883 -1.2340  0.5074 -0.8337
 9216SOL    HW239111   1.941   2.360  14.741  1.2830  0.3154  1.6550
 9217SOL     OW39112   1.397   4.469   5.284 -0.3886 -0.3600  0.3944
 9217SOL    HW139113   1.318   4.512   5.316 -0.7330 -1.0750  0.5094
 9217SOL    HW239114   1.364   4.405   5.220  0.4565 -0.7894  0.3840
 9218SOL     OW39115   4.079   0.719   2.231 -0.8531  0.0689 -0.7783
 9218SOL    HW139116   3.995   0.690   2.268  0.2986 -1.4406  0.6875
 9218SOL    HW239117   4.136   0.677   2.295  0.2969 -0.7340 -2.3402
 9219SOL     OW39118   0.789   0.259   2.777  0.1739 -0.2334  0.3534
 9219SOL    HW139119   0.877   0.296   2.767  1.0136 -1.8466  1.6343
 9219SOL    HW239120   0.772   0.235   2.686  2.4261 -1.7255  0.3229
 9220SOL     OW39121   0.652   3.330   6.374  0.7627 -0.8810  0.4132
 9220SOL    HW139122   0.725   3.285   6.332  1.1679  0.0117  0.1495
 9220SOL    HW239123   0.582   3.269   6.398 -0.8415  0.5266 -0.6620
 9221SOL     OW39124   3.975   1.119  16.570 -0.1759  0.0193  0.0841
 9221SOL    HW139125   3.902   1.057  16.558  0.1153 -0.6926  2.0497
 9221SOL    HW239126   4.047   1.059  16.586  0.1667  1.3747  3.4698
 9222SOL     OW39127   2.223   2.717   8.789  0.0471  0.3241  0.6724
 9222SOL    HW139128   2.173   2.790   8.753 -3.4888 -2.3865  0.0770
 9222SOL    HW239129   2.314   2.747   8.786  0.7169 -1.5371  2.3668
 9223SOL     OW39130   2.504   2.738   6.999 -0.4392 -0.4503 -0.0424
 9223SOL    HW139131   2.506   2.782   6.914 -2.3119 -0.8384 -0.2991
 9223SOL    HW239132   2.592   2.747   7.035 -0.2465  1.1012 -0.9101
 9224SOL     OW39133   1.898   0.895  10.289 -0.5669 -0.0333 -0.2637
 9224SOL    HW139134   1.829   0.911  10.353 -0.2492 -0.4776  0.1963
 9224SOL    HW239135   1.955   0.852  10.353  0.3934  1.9158  0.1997
 9225SOL     OW39136   2.988   3.088  12.325 -0.3226 -0.1400 -0.2100
 9225SOL    HW139137   2.997   3.102  12.231  1.6535  0.4982  0.0689
 9225SOL    HW239138   3.078   3.108  12.352 -0.2459 -1.7763  0.8113
 9226SOL     OW39139   4.144   3.754   8.190  0.1675 -0.0147  0.5382
 9226SOL    HW139140   4.078   3.711   8.245  0.9730 -0.2382  1.3367
 9226SOL    HW239141   4.165   3.684   8.128 -0.5624  0.2331  0.0123
 9227SOL     OW39142   3.656   3.871   0.344 -0.0533 -0.0018 -0.3345
 9227SOL    HW139143   3.712   3.881   0.421  0.7382 -2.4228 -0.5979
 9227SOL    HW239144   3.724   3.843   0.283  0.1762 -1.1966  0.4800
 9228SOL     OW39145   2.744   3.044   0.204 -0.0521  0.5495  0.3075
 9228SOL    HW139146   2.774   2.975   0.263  0.7560  2.0990  1.6841
 9228SOL    HW239147   2.762   3.128   0.244  0.4963 -0.0005  1.2079
 9229SOL     OW39148   2.935   0.084  13.876 -0.2518 -0.2567 -0.6083
 9229SOL    HW139149   2.854   0.042  13.849 -0.6550  0.2471 -0.1624
 9229SOL    HW239150   2.926   0.147  13.805 -0.5332  0.5127  0.1109
 9230SOL     OW39151   0.442   2.469  10.507 -0.2721  0.4537 -0.2239
 9230SOL    HW139152   0.358   2.515  10.501  0.2120  1.1620 -1.4417
 9230SOL    HW239153   0.415   2.386  10.548  0.1260 -0.2774 -1.4342
 9231SOL     OW39154   3.606   4.504   8.549  0.2595  0.2459  0.5720
 9231SOL    HW139155   3.598   4.559   8.626  0.7008  0.3637  0.5333
 9231SOL    HW239156   3.574   4.423   8.589  1.7303 -2.4202 -3.6261
 9232SOL     OW39157   3.748   4.719  16.115 -0.1357  0.1639  0.0315
 9232SOL    HW139158   3.675   4.690  16.059  0.7084  1.7634 -1.8737
 9232SOL    HW239159   3.809   0.028  16.049  1.7499 -0.1811  1.6104
 9233SOL     OW39160   2.951   1.414   7.081 -0.3983  0.1513 -0.4090
 9233SOL    HW139161   3.044   1.396   7.068 -0.5624  1.2605 -3.1210
 9233SOL    HW239162   2.903   1.394   7.000 -2.3049 -1.6839  1.1759
 9234SOL     OW39163   3.786   3.256   6.788  0.3662 -0.2690 -0.4530
 9234SOL    HW139164   3.863   3.205   6.814  1.3426  0.6480 -1.5669
 9234SOL    HW239165   3.770   3.296   6.873 -0.3199  0.4505 -0.9178
 9235SOL     OW39166   1.942   1.596   3.056 -0.0394  0.4370  0.4063
 9235SOL    HW139167   1.983   1.683   3.055  1.6285 -0.3229  1.2497
 9235SOL    HW239168   2.015   1.540   3.029 -2.0319 -1.9064 -0.1216
 9236SOL     OW39169   2.081   4.460   6.093 -0.3138 -0.5307  0.0110
 9236SOL    HW139170   2.147   4.527   6.081 -0.3492 -0.3274  0.9245
 9236SOL    HW239171   2.126   4.378   6.072 -2.2045 -1.4371 -0.5355
 9237SOL     OW39172   2.974   2.314   6.528 -0.0165 -0.4586 -0.3734
 9237SOL    HW139173   3.067   2.324   6.549 -0.0140  0.0609 -0.6118
 9237SOL    HW239174   2.977   2.311   6.432 -1.4436  0.4323 -0.4494
 9238SOL     OW39175   2.388   3.480  16.944 -0.5493 -0.0486  0.7938
 9238SOL    HW139176   2.463   3.537  16.958 -0.5678 -0.3582  2.2345
 9238SOL    HW239177   2.388   3.437  17.030 -2.4180 -1.1805  0.2470
 9239SOL     OW39178   0.233   3.895   1.990 -0.2075 -0.0785 -0.5664
 9239SOL    HW139179   0.273   3.965   1.940  1.5065 -0.6998 -0.0608
 9239SOL    HW239180   0.283   3.880   2.071  0.5568 -2.2110 -1.4181
 9240SOL     OW39181   1.468   3.046   3.178 -0.1030 -0.2189  0.1002
 9240SOL    HW139182   1.496   2.956   3.161  0.7955 -0.1405  1.2095
 9240SOL    HW239183   1.495   3.047   3.269 -0.9366  1.1280  0.3440
 9241SOL     OW39184   4.239   3.406   7.845 -0.1122  0.1028 -0.2029
 9241SOL    HW139185   4.165   3.346   7.836  0.5891 -0.5033 -1.8275
 9241SOL    HW239186   4.218   3.446   7.930 -2.0115  1.5194 -1.3327
 9242SOL     OW39187   0.942   0.093  13.886  0.1395 -0.2757 -0.3667
 9242SOL    HW139188   0.970   0.014  13.840  1.2639 -0.8258  1.2589
 9242SOL    HW239189   0.863   0.108  13.834  1.0818  0.8448 -1.4855
 9243SOL     OW39190   1.037   2.777   8.659  0.5294 -0.1210  0.2336
 9243SOL    HW139191   1.095   2.844   8.695 -0.1437  0.1474  0.8191
 9243SOL    HW239192   1.095   2.745   8.589 -0.8905 -0.1879 -0.9057
 9244SOL     OW39193   2.382   1.264   1.975 -0.0106 -0.1243  0.0179
 9244SOL    HW139194   2.465   1.237   1.936 -1.5184 -2.5111 -1.5638
 9244SOL    HW239195   2.401   1.284   2.067 -0.2988 -3.1695  0.7303
 9245SOL     OW39196   3.890   0.925  13.800 -0.3727 -0.5298 -0.4688
 9245SOL    HW139197   3.828   0.998  13.792  0.4759 -0.0385 -2.5405
 9245SOL    HW239198   3.964   0.963  13.752 -0.9564  0.7236 -0.3660
 9246SOL     OW39199   4.722   4.471  15.567  0.2397  0.5460  0.4987
 9246SOL    HW139200   0.047   4.550  15.546  0.2162  0.3939 -0.1350
 9246SOL    HW239201   0.039   4.451  15.651 -1.2172 -1.9608  0.6100
 9247SOL     OW39202   0.273   4.506  13.888  0.0746 -0.3553  0.0760
 9247SOL    HW139203   0.261   4.512  13.982  0.3761 -0.9358  0.1551
 9247SOL    HW239204   0.286   4.597  13.861 -2.2197  0.7919  2.9248
 9248SOL     OW39205   1.997   0.833  13.657 -0.5892 -0.3930 -0.0469
 9248SOL    HW139206   2.054   0.910  13.646 -0.6690 -0.5948 -1.9955
 9248SOL    HW239207   2.025   0.788  13.577  0.8906  0.0288  0.2290
 9249SOL     OW39208   4.139   3.622  14.098  0.1756 -0.0233  0.0594
 9249SOL    HW139209   4.113   3.687  14.033  1.2972  1.8121  1.4202
 9249SOL    HW239210   4.123   3.679  14.173 -1.0942 -1.1431  0.6324
 9250SOL     OW39211   3.861   2.599   3.864  0.2309 -0.1308 -0.3386
 9250SOL    HW139212   3.777   2.564   3.833  0.4825 -1.6205  0.6667
 9250SOL    HW239213   3.851   2.691   3.841  0.0333  0.1228  0.7836
 9251SOL     OW39214   1.785   3.618   5.928 -0.2133  0.5260  0.0740
 9251SOL    HW139215   1.802   3.687   5.864 -1.4644  2.6531  2.0163
 9251SOL    HW239216   1.844   3.638   6.000 -0.7902  1.3575  0.3224
 9252SOL     OW39217   2.404   2.596  11.726 -0.1221 -0.3111  0.5378
 9252SOL    HW139218   2.358   2.584  11.643 -1.9320  0.2415  1.4596
 9252SOL    HW239219   2.387   2.516  11.776  0.0893 -0.4481  0.3908
 9253SOL     OW39220   0.284   1.089   8.730 -0.3874  0.4032 -0.6492
 9253SOL    HW139221   0.321   1.015   8.682 -0.6661 -0.1744  0.0284
 9253SOL    HW239222   0.258   1.154   8.665  0.5265  1.6145  0.1971
 9254SOL     OW39223   1.855   3.609  14.631  0.8036  0.2187  0.0865
 9254SOL    HW139224   1.832   3.516  14.637  0.9128  0.1185 -1.0045
 9254SOL    HW239225   1.798   3.639  14.560  2.2455 -0.5163 -1.3705
 9255SOL     OW39226   2.643   0.187   1.600 -0.0873 -0.4005  0.0778
 9255SOL    HW139227   2.679   0.196   1.688  0.2071  0.5064 -0.1338
 9255SOL    HW239228   2.549   0.190   1.615 -0.4362 -0.1833 -2.0450
 9256SOL     OW39229   0.554   2.412   9.387  0.7664 -0.0636 -0.0563
 9256SOL    HW139230   0.573   2.487   9.444  0.9785  1.5565 -2.2423
 9256SOL    HW239231   0.460   2.428   9.380  1.4986  3.5425 -1.5035
 9257SOL     OW39232   2.062   3.605  10.591  0.0242  0.0624 -0.2075
 9257SOL    HW139233   2.123   3.532  10.583  0.3121  0.1672  0.9553
 9257SOL    HW239234   2.114   3.675  10.552 -1.2771  0.3626 -1.3946
 9258SOL     OW39235   2.992   4.289   0.596 -0.8839 -0.0993 -0.5007
 9258SOL    HW139236   3.005   4.196   0.578 -0.1494  0.1453 -1.2561
 9258SOL    HW239237   3.032   4.329   0.519 -1.2556  2.3663  0.5833
 9259SOL     OW39238   2.971   1.183   1.750  0.1764  0.2994 -0.2323
 9259SOL    HW139239   2.928   1.097   1.744  1.4329 -0.3119 -0.4076
 9259SOL    HW239240   3.021   1.164   1.671 -0.9159 -1.4223 -0.5315
 9260SOL     OW39241   0.850   4.074   7.717  0.2291 -0.2091  0.3460
 9260SOL    HW139242   0.887   4.158   7.746 -0.3110 -0.4309  1.6779
 9260SOL    HW239243   0.762   4.085   7.753  0.1543  1.2024 -0.2528
 9261SOL     OW39244   2.330   3.416   5.459 -0.5592 -0.4576 -0.1681
 9261SOL    HW139245   2.370   3.355   5.397  1.7606  1.9315 -1.0099
 9261SOL    HW239246   2.261   3.362   5.497  3.9458 -4.1538  2.8328
 9262SOL     OW39247   3.684   1.860  10.663  0.2576  0.5624 -0.1241
 9262SOL    HW139248   3.751   1.845  10.730 -0.3006 -1.4171 -0.0134
 9262SOL    HW239249   3.723   1.828  10.582  1.1314  1.1995  0.0483
 9263SOL     OW39250   3.706   0.656  16.562 -0.0919  0.4663 -0.0831
 9263SOL    HW139251   3.697   0.561  16.571 -2.2688  0.5422 -1.5360
 9263SOL    HW239252   3.641   0.688  16.625 -0.5166  1.6036 -1.0973
 9264SOL     OW39253   4.704   2.527   9.340  0.2526  0.0127  0.0304
 9264SOL    HW139254   0.042   2.573   9.396  1.0938 -0.3058 -0.6512
 9264SOL    HW239255   4.625   2.549   9.389 -0.8253 -0.9816 -1.2797
 9265SOL     OW39256   2.349   3.979  11.770  0.6419  0.3052 -0.2419
 9265SOL    HW139257   2.388   3.928  11.700 -0.2982  1.5200 -1.6551
 9265SOL    HW239258   2.430   3.980  11.821 -0.3991  0.4347  1.4068
 9266SOL     OW39259   4.453   2.174  13.011  0.4930  0.2884 -0.4513
 9266SOL    HW139260   4.536   2.156  12.967  0.0818  2.0912 -1.9591
 9266SOL    HW239261   4.385   2.167  12.944 -0.2062  1.9163  0.0915
 9267SOL     OW39262   0.534   3.874   4.120  0.7539 -0.6126 -0.1781
 9267SOL    HW139263   0.574   3.845   4.202 -0.3071 -1.2440  0.1190
 9267SOL    HW239264   0.613   3.869   4.067  0.5505 -2.0413 -0.3423
 9268SOL     OW39265   2.120   0.043  14.971  0.3230  0.3153  0.0320
 9268SOL    HW139266   2.177   0.117  14.949  1.7885 -0.7051  0.3971
 9268SOL    HW239267   2.152   4.711  14.901  0.8228  0.4487  0.1513
 9269SOL     OW39268   2.964   1.018   2.714 -0.3725 -0.0222  0.2449
 9269SOL    HW139269   2.939   0.959   2.785  0.6671 -0.7386  0.0338
 9269SOL    HW239270   2.891   1.079   2.721 -1.1245 -1.2403  2.8651
 9270SOL     OW39271   2.996   1.015   2.060  0.4804 -0.0451 -0.0449
 9270SOL    HW139272   2.992   1.098   2.012 -2.1174 -0.4470 -0.5504
 9270SOL    HW239273   2.981   1.038   2.151 -1.6761  1.7285 -0.8212
 9271SOL     OW39274   1.462   3.903   8.086 -0.3673 -0.5633  0.1691
 9271SOL    HW139275   1.388   3.931   8.034 -1.2125  0.3219  1.8475
 9271SOL    HW239276   1.469   3.985   8.135  0.3863 -0.2859 -0.3988
 9272SOL     OW39277   2.711   3.440   8.408  0.3719 -0.0081 -0.1351
 9272SOL    HW139278   2.694   3.364   8.352 -2.2853 -0.0372  0.6824
 9272SOL    HW239279   2.797   3.420   8.445  0.4169  1.8334  0.7467
 9273SOL     OW39280   3.446   1.156  13.636 -0.3860 -0.1707 -0.4474
 9273SOL    HW139281   3.467   1.123  13.549  0.0813 -1.7942  0.2692
 9273SOL    HW239282   3.418   1.076  13.681  0.1735 -0.6411 -0.9522
 9274SOL     OW39283   0.065   0.703   8.408 -0.5071 -0.1756  0.1797
 9274SOL    HW139284   0.057   0.651   8.328 -0.4606 -1.5526  1.0652
 9274SOL    HW239285   0.159   0.711   8.424 -0.6874 -0.2529  1.2812
 9275SOL     OW39286   2.471   2.622  16.052  0.4881 -0.3413  0.1569
 9275SOL    HW139287   2.405   2.572  16.100 -0.9057  2.3093  0.9948
 9275SOL    HW239288   2.532   2.629  16.125  3.0045  0.9810 -2.0437
 9276SOL     OW39289   1.320   3.153  11.341  0.0381 -0.1830  0.0599
 9276SOL    HW139290   1.293   3.228  11.288  2.4219 -0.8189 -2.0221
 9276SOL    HW239291   1.398   3.125  11.293  0.7166  0.8712  0.5500
 9277SOL     OW39292   4.104   2.298   5.486 -0.4115  0.4998  0.1267
 9277SOL    HW139293   4.124   2.241   5.560  0.0017 -0.3591 -0.6337
 9277SOL    HW239294   4.018   2.335   5.507 -0.7590 -0.1208 -0.1914
 9278SOL     OW39295   2.917   4.223   9.379  0.0339 -0.6006  0.9087
 9278SOL    HW139296   2.936   4.306   9.423  1.9362 -1.5596  1.8588
 9278SOL    HW239297   2.823   4.214   9.399 -0.0707 -2.7291 -0.6126
 9279SOL     OW39298   4.422   2.709   0.725  0.1535 -0.1759  0.2330
 9279SOL    HW139299   4.370   2.636   0.760 -0.4421  0.3247  0.4046
 9279SOL    HW239300   4.433   2.761   0.804  1.3061 -0.7372  0.4389
 9280SOL     OW39301   3.282   0.550  11.593  0.2350 -0.6040  0.1424
 9280SOL    HW139302   3.289   0.584  11.504  1.3075  0.9216  0.8164
 9280SOL    HW239303   3.203   0.598  11.618 -0.5536 -1.0342 -1.4995
 9281SOL     OW39304   4.452   3.563  11.859  0.2568  0.0737 -0.6388
 9281SOL    HW139305   4.449   3.472  11.831 -1.8451 -0.2115  0.5126
 9281SOL    HW239306   4.372   3.578  11.910  1.0003  0.6099  0.3734
 9282SOL     OW39307   1.621   3.807   2.718  0.1242  0.3666  0.4931
 9282SOL    HW139308   1.561   3.758   2.662 -0.0845 -1.2912  2.1622
 9282SOL    HW239309   1.624   3.895   2.681 -1.6626  0.1292 -0.1848
 9283SOL     OW39310   2.407   4.310  12.942 -0.0200  0.8445 -0.7835
 9283SOL    HW139311   2.369   4.343  12.861  2.0706  0.2780 -2.0027
 9283SOL    HW239312   2.412   4.393  12.990 -0.1531 -0.2323  1.0712
 9284SOL     OW39313   4.317   4.042   3.599  0.2898 -0.1033 -0.1591
 9284SOL    HW139314   4.295   4.020   3.508  1.2582  1.0590 -0.6895
 9284SOL    HW239315   4.379   3.972   3.616 -1.5922 -1.3427  1.5293
 9285SOL     OW39316   1.178   0.969   0.485 -0.0277  0.4747  0.4333
 9285SOL    HW139317   1.181   0.875   0.469 -0.5254  0.2626  1.5777
 9285SOL    HW239318   1.099   0.988   0.536 -0.9633 -2.7144  0.1437
 9286SOL     OW39319   1.058   3.602   3.796  0.0176 -0.1529 -0.2533
 9286SOL    HW139320   1.142   3.635   3.828  0.2360 -1.4680  0.5573
 9286SOL    HW239321   1.086   3.548   3.722 -0.1896  1.3765 -1.4388
 9287SOL     OW39322   2.277   4.385   5.226  0.1688  0.0158  0.1101
 9287SOL    HW139323   2.200   4.341   5.262  2.5945 -4.0646  0.3535
 9287SOL    HW239324   2.272   4.476   5.253 -1.9553 -0.1834  0.3691
 9288SOL     OW39325   4.192   3.417  10.061 -0.0905  0.3605 -0.2666
 9288SOL    HW139326   4.206   3.394   9.969  2.5989 -0.3331  0.3005
 9288SOL    HW239327   4.244   3.498  10.057  1.1237 -0.4335 -0.5435
 9289SOL     OW39328   4.534   1.310   8.232 -0.0262 -0.0251  0.0667
 9289SOL    HW139329   4.570   1.259   8.304  2.6322  1.6488 -0.0813
 9289SOL    HW239330   4.618   1.325   8.189 -0.6162  2.3112 -0.2717
 9290SOL     OW39331   0.434   3.439   3.871 -0.3831 -0.2708 -0.2407
 9290SOL    HW139332   0.453   3.485   3.790  0.2737 -0.3280 -0.1231
 9290SOL    HW239333   0.435   3.519   3.923  2.5438  0.9869 -2.2520
 9291SOL     OW39334   2.990   0.218   2.210 -0.4005  0.4837 -0.3181
 9291SOL    HW139335   2.997   0.128   2.243  1.0719  0.2493 -1.2781
 9291SOL    HW239336   3.079   0.245   2.187 -1.3660  2.1655 -2.0106
 9292SOL     OW39337   2.932   1.500   2.999  0.4775  0.0648 -0.1492
 9292SOL    HW139338   2.953   1.470   3.087  0.1492 -0.4814 -0.2532
 9292SOL    HW239339   2.907   1.413   2.968 -0.1751 -0.4664  1.8473
 9293SOL     OW39340   3.475   2.872  14.473 -0.3546  0.0903 -0.1553
 9293SOL    HW139341   3.530   2.842  14.401  0.8784  0.5212  0.6111
 9293SOL    HW239342   3.524   2.832  14.545  0.1929 -0.4619 -0.8432
 9294SOL     OW39343   4.248   2.525   4.975  0.6195  0.0601  0.2045
 9294SOL    HW139344   4.285   2.589   5.037 -0.0991  1.9473 -1.3044
 9294SOL    HW239345   4.231   2.453   5.035 -0.4270  1.4490  1.5831
 9295SOL     OW39346   1.065   0.910   5.131 -0.3873 -0.5941 -0.0852
 9295SOL    HW139347   1.022   0.825   5.136 -1.3196 -0.1664 -0.9959
 9295SOL    HW239348   1.131   0.911   5.062 -0.1226  0.8220  0.1873
 9296SOL     OW39349   1.887   0.626   8.314  0.3080  0.3848  0.0178
 9296SOL    HW139350   1.977   0.594   8.327 -0.6617 -2.1873  0.4166
 9296SOL    HW239351   1.897   0.694   8.248 -1.3692 -1.2450 -1.9100
 9297SOL     OW39352   1.264   2.171  11.141 -0.7369  0.0620 -0.4287
 9297SOL    HW139353   1.333   2.107  11.159 -0.3695  0.6120  0.1450
 9297SOL    HW239354   1.196   2.116  11.104 -0.5336 -0.3508 -0.1985
 9298SOL     OW39355   0.977   0.218  11.455 -0.5898  0.2005  0.4587
 9298SOL    HW139356   0.947   0.224  11.365 -1.4583 -2.4040  0.5755
 9298SOL    HW239357   1.050   0.280  11.462  0.0139 -0.2876 -1.7737
 9299SOL     OW39358   0.991   3.974  12.529 -0.1687  0.3059 -0.1611
 9299SOL    HW139359   0.970   4.058  12.489  0.1428 -0.3382 -1.6414
 9299SOL    HW239360   0.994   4.003  12.621  0.7249  1.0978 -0.4375
 9300SOL     OW39361   2.110   0.656   0.596  0.4782  0.2906  0.2666
 9300SOL    HW139362   2.066   0.732   0.635 -0.1786  0.7905 -1.4437
 9300SOL    HW239363   2.143   0.615   0.676  1.2366 -0.9996 -0.7015
 9301SOL     OW39364   4.163   0.188  11.508 -0.1506 -0.0241  0.0796
 9301SOL    HW139365   4.235   0.193  11.571  0.8881 -0.4652 -1.0664
 9301SOL    HW239366   4.129   0.100  11.524 -1.6600  0.6799  0.6599
 9302SOL     OW39367   1.466   1.339   6.685 -0.5105  0.3360  0.6137
 9302SOL    HW139368   1.435   1.413   6.633 -1.1901 -0.6191 -0.3549
 9302SOL    HW239369   1.421   1.354   6.768 -0.9532 -0.4867  0.5311
 9303SOL     OW39370   3.054   2.294  12.932 -0.6924  0.3384  0.0854
 9303SOL    HW139371   2.996   2.236  12.882  1.1784 -0.5100 -1.0953
 9303SOL    HW239372   3.006   2.375  12.951  1.3681  1.6675 -0.3891
 9304SOL     OW39373   0.770   3.052   1.641  0.7494 -0.6810 -0.0389
 9304SOL    HW139374   0.849   3.030   1.592  0.3549  0.8141 -1.3531
 9304SOL    HW239375   0.743   2.968   1.677  0.3530 -1.3712 -1.9647
 9305SOL     OW39376   1.132   3.222   1.613  0.0965 -0.1486 -0.1285
 9305SOL    HW139377   1.203   3.275   1.651  0.6775 -1.1694  0.2108
 9305SOL    HW239378   1.153   3.238   1.521  0.4027  0.6869  0.0859
 9306SOL     OW39379   4.411   3.022   4.376 -0.0546  0.2913  0.0029
 9306SOL    HW139380   4.478   2.976   4.325  1.2619  1.6666  0.4967
 9306SOL    HW239381   4.362   2.959   4.430 -0.4963 -0.0615 -0.8116
 9307SOL     OW39382   4.306   1.697   2.450 -0.2665  0.3082  0.2824
 9307SOL    HW139383   4.252   1.714   2.528  0.7556 -0.8977  1.2554
 9307SOL    HW239384   4.306   1.602   2.448 -2.5957  0.3423 -1.8092
 9308SOL     OW39385   4.158   2.732   2.854  0.0766  0.1354 -0.0330
 9308SOL    HW139386   4.138   2.639   2.849  0.7903 -0.0266  0.1628
 9308SOL    HW239387   4.100   2.766   2.922  0.9701  2.0839 -0.2344
 9309SOL     OW39388   2.492   0.181  17.525 -0.3188  0.2178 -0.1650
 9309SOL    HW139389   2.500   0.166  17.619  0.4477  1.8061  0.0185
 9309SOL    HW239390   2.470   0.089  17.516  0.2472  0.2102 -1.4649
 9310SOL     OW39391   4.692   0.278   8.692 -0.4285 -0.0523  0.1828
 9310SOL    HW139392   0.054   0.238   8.681  1.2691  3.7587 -0.2238
 9310SOL    HW239393   4.631   0.229   8.637 -0.0540 -0.0531 -0.2385
 9311SOL     OW39394   1.203   1.372   8.482 -0.0482  0.5188  0.0969
 9311SOL    HW139395   1.236   1.411   8.563 -1.4036 -1.8141  1.7852
 9311SOL    HW239396   1.109   1.371   8.499 -0.0242  2.4341  0.3603
 9312SOL     OW39397   4.173   1.777  10.667  0.1475  0.0932  0.8377
 9312SOL    HW139398   4.134   1.692  10.689 -1.0328  0.2062 -0.8076
 9312SOL    HW239399   4.103   1.823  10.621 -0.0482 -2.1204 -1.0714
 9313SOL     OW39400   1.861   1.424   6.342  0.5054 -0.0852 -0.0451
 9313SOL    HW139401   1.802   1.416   6.267 -0.4895  0.9628  0.6162
 9313SOL    HW239402   1.944   1.386   6.314 -0.6890 -0.1157 -3.6239
 9314SOL     OW39403   0.593   0.828   3.251  0.0466 -0.7330  0.0845
 9314SOL    HW139404   0.644   0.906   3.273 -0.2928 -0.2140 -1.0159
 9314SOL    HW239405   0.638   0.769   3.313  1.1608  0.4302  0.3835
 9315SOL     OW39406   2.908   3.172   2.571 -0.1181 -1.2610 -0.3592
 9315SOL    HW139407   2.863   3.209   2.647  2.5964 -0.6301  0.9495
 9315SOL    HW239408   2.999   3.159   2.598  0.4108  3.2221  0.0509
 9316SOL     OW39409   4.337   3.140   9.067 -0.0003  0.1361  0.4513
 9316SOL    HW139410   4.282   3.149   9.145 -2.4757 -0.8519 -1.1985
 9316SOL    HW239411   4.265   3.140   9.004  0.5204 -0.5133 -0.1448
 9317SOL     OW39412   2.012   3.037   7.611 -0.2029 -0.3044  0.0569
 9317SOL    HW139413   1.994   2.977   7.684  1.8131 -1.5970 -0.4773
 9317SOL    HW239414   1.926   3.034   7.571  0.5858  0.6745 -1.6933
 9318SOL     OW39415   0.874   1.820   8.237  0.5687 -0.0713 -0.4777
 9318SOL    HW139416   0.874   1.886   8.168 -0.0616  1.9690  1.4635
 9318SOL    HW239417   0.890   1.889   8.301 -0.5329 -1.2597  1.0774
 9319SOL     OW39418   1.303   2.012   9.806 -0.1679 -0.2454 -0.1106
 9319SOL    HW139419   1.258   1.934   9.773 -1.8715 -0.1523  1.9845
 9319SOL    HW239420   1.368   1.974   9.865  0.3959  3.3322  1.5889
 9320SOL     OW39421   1.110   4.655   1.926  0.3678  0.4184 -0.3670
 9320SOL    HW139422   1.108   0.005   1.985 -1.3121 -1.0214  1.4272
 9320SOL    HW239423   1.093   4.576   1.978  1.0893 -0.6121 -1.7012
 9321SOL     OW39424   4.271   2.618   5.675 -1.0078 -0.4258  0.2976
 9321SOL    HW139425   4.308   2.536   5.644 -1.9373  0.8690 -4.1724
 9321SOL    HW239426   4.186   2.594   5.710 -1.1402 -0.7749 -0.2739
 9322SOL     OW39427   3.152   2.502   3.085 -0.2212  0.4413 -0.3315
 9322SOL    HW139428   3.182   2.523   3.173 -1.1788 -2.5269  0.6961
 9322SOL    HW239429   3.116   2.588   3.060  0.0414  1.0049  1.2478
 9323SOL     OW39430   0.152   1.253  11.223 -0.1693  0.3308 -0.0219
 9323SOL    HW139431   0.218   1.281  11.160 -0.9862  0.0862 -0.9863
 9323SOL    HW239432   0.142   1.165  11.185 -1.6352  0.2073  0.6283
 9324SOL     OW39433   0.657   3.557   4.817 -0.0652 -0.5465  0.3518
 9324SOL    HW139434   0.694   3.540   4.903  2.6038  1.3582 -0.4325
 9324SOL    HW239435   0.648   3.474   4.770  1.0365  0.4843 -1.7257
 9325SOL     OW39436   2.519   2.658   4.188  0.1608 -0.2223 -0.1040
 9325SOL    HW139437   2.510   2.577   4.238  2.0381  0.4054  1.2799
 9325SOL    HW239438   2.455   2.714   4.231  1.3211  0.9183  0.1340
 9326SOL     OW39439   3.137   3.747   2.703 -0.3787  0.1320  0.2861
 9326SOL    HW139440   3.210   3.803   2.676  0.8239 -2.0246 -0.9219
 9326SOL    HW239441   3.070   3.763   2.638 -0.5020 -3.0540 -0.3746
 9327SOL     OW39442   4.305   4.127   7.881 -0.0349  0.1471 -0.6615
 9327SOL    HW139443   4.227   4.080   7.912  0.3264 -0.7500 -1.1071
 9327SOL    HW239444   4.353   4.132   7.964  1.7935 -0.5744 -1.6935
 9328SOL     OW39445   2.462   0.912   9.050 -0.2521  0.9379  0.4471
 9328SOL    HW139446   2.547   0.950   9.070  0.2927 -0.9007  1.5781
 9328SOL    HW239447   2.483   0.824   9.016 -1.8184  0.8505 -0.2990
 9329SOL     OW39448   1.982   2.540   5.846  0.0487 -0.2945 -0.3605
 9329SOL    HW139449   2.052   2.501   5.899 -0.4074 -0.0812  0.3983
 9329SOL    HW239450   1.915   2.566   5.910  0.7170 -0.1258  0.2766
 9330SOL     OW39451   3.763   4.642   7.052  0.8166 -0.0432 -0.4077
 9330SOL    HW139452   3.705   4.567   7.039 -0.5878  1.1406 -0.9578
 9330SOL    HW239453   3.722   4.685   7.127  2.2618 -1.6538  1.3320
 9331SOL     OW39454   2.801   1.368   4.817 -0.7360  0.0183  0.0380
 9331SOL    HW139455   2.804   1.327   4.730  3.7972  0.2779  0.0595
 9331SOL    HW239456   2.757   1.449   4.794 -2.6004 -1.8951 -3.1925
 9332SOL     OW39457   0.346   1.576  13.142 -0.3016 -0.2277  0.1697
 9332SOL    HW139458   0.352   1.586  13.047 -3.2480  2.2970  0.2387
 9332SOL    HW239459   0.251   1.575  13.153  0.0110 -2.8829  2.4074
 9333SOL     OW39460   1.785   1.341  16.869 -0.6169 -0.0764 -0.1763
 9333SOL    HW139461   1.742   1.339  16.784  1.6662 -0.7836 -1.3166
 9333SOL    HW239462   1.713   1.361  16.929 -0.8512  0.1417 -0.5336
 9334SOL     OW39463   2.723   4.596   2.106  0.2486  0.0643 -0.1217
 9334SOL    HW139464   2.736   4.650   2.184 -0.9467 -0.3157  0.3314
 9334SOL    HW239465   2.811   4.561   2.089  0.1935 -0.5319  0.8244
 9335SOL     OW39466   1.138   4.262   7.991 -0.0540  0.1029  0.2384
 9335SOL    HW139467   1.202   4.284   8.058 -1.4188  1.4319  1.0843
 9335SOL    HW239468   1.181   4.185   7.954 -0.3559  0.9504 -1.8669
 9336SOL     OW39469   4.395   1.977   3.102 -0.1218  0.3276  0.2372
 9336SOL    HW139470   4.480   1.952   3.066 -0.5009  0.7536 -0.9478
 9336SOL    HW239471   4.380   2.062   3.060 -0.7383  0.4234  0.6618
 9337SOL     OW39472   0.903   4.641  13.079 -0.0155  0.2087 -0.3343
 9337SOL    HW139473   0.896   4.558  13.032 -1.4565  0.2001 -0.0769
 9337SOL    HW239474   0.868   4.614  13.164  0.9677  0.6160  0.2021
 9338SOL     OW39475   3.525   0.716   4.729 -0.1875 -0.5424 -0.5968
 9338SOL    HW139476   3.565   0.791   4.773  1.5643 -0.5228 -2.2323
 9338SOL    HW239477   3.588   0.708   4.657  0.0972 -2.2443 -0.1514
 9339SOL     OW39478   0.200   3.513   9.081  0.4174  0.0335  0.5154
 9339SOL    HW139479   0.232   3.511   9.171  0.7200  0.5479  0.4205
 9339SOL    HW239480   0.275   3.467   9.042  1.1890  0.3936  1.5846
 9340SOL     OW39481   4.294   1.500   5.516  0.0252 -0.0253  0.3076
 9340SOL    HW139482   4.247   1.557   5.455 -0.4049 -1.5627 -0.7904
 9340SOL    HW239483   4.354   1.567   5.549 -0.1234  0.9733 -1.4610
 9341SOL     OW39484   0.034   2.420   9.108  0.1030 -0.3514 -0.0992
 9341SOL    HW139485   4.670   2.386   9.100 -0.2509  1.1051 -2.1627
 9341SOL    HW239486   0.022   2.468   9.189 -1.2577  0.7576 -0.9714
 9342SOL     OW39487   2.882   0.922  13.361 -0.0874 -0.2849  0.2336
 9342SOL    HW139488   2.861   0.859  13.293 -0.7403 -0.3923  0.5292
 9342SOL    HW239489   2.939   0.875  13.421  1.7925  1.6810 -0.0012
 9343SOL     OW39490   0.260   1.597   4.316 -0.1129 -0.0356  0.1724
 9343SOL    HW139491   0.318   1.627   4.386  1.0595  1.0589 -1.2740
 9343SOL    HW239492   0.171   1.613   4.349 -0.6007 -1.4973 -0.4353
 9344SOL     OW39493   1.217   3.129  15.420  0.3469 -0.2853  0.6964
 9344SOL    HW139494   1.254   3.049  15.455  0.6884 -1.0661 -1.4122
 9344SOL    HW239495   1.123   3.113  15.411  0.8026 -1.0201 -2.6911
 9345SOL     OW39496   1.714   0.604   4.517  0.3432 -0.2996  0.3011
 9345SOL    HW139497   1.763   0.622   4.436  0.9788 -1.5540  0.4139
 9345SOL    HW239498   1.703   0.686   4.567 -2.4396 -0.8341  0.5181
 9346SOL     OW39499   3.887   2.258  10.061 -0.2173  0.1222 -0.6284
 9346SOL    HW139500   3.960   2.304  10.019 -0.4195  0.4578 -0.6137
 9346SOL    HW239501   3.940   2.184  10.091 -0.6889 -0.0354 -0.1911
 9347SOL     OW39502   0.890   4.277   4.397 -0.1882 -0.0764 -0.3746
 9347SOL    HW139503   0.822   4.217   4.366 -2.1422  1.8490  0.2294
 9347SOL    HW239504   0.944   4.202   4.421  0.5081  0.5322 -0.0384
 9348SOL     OW39505   0.847   1.575   7.828  0.8128  0.0965 -0.8842
 9348SOL    HW139506   0.758   1.559   7.859  0.6033 -0.9353 -2.0184
 9348SOL    HW239507   0.836   1.601   7.736  1.7109  0.1960 -0.9655
 9349SOL     OW39508   3.047   3.006   5.273  0.3174  0.0597  0.7181
 9349SOL    HW139509   3.136   2.983   5.299  0.5137  0.5248  0.4531
 9349SOL    HW239510   2.999   3.006   5.355  1.1387  1.5562  1.1941
 9350SOL     OW39511   4.231   4.193   8.598  0.9369 -0.1256 -0.1166
 9350SOL    HW139512   4.210   4.122   8.658  1.1417 -1.4412 -1.6281
 9350SOL    HW239513   4.319   4.219   8.628  0.7676 -1.1501  1.2823
 9351SOL     OW39514   2.803   4.557   4.555 -0.4396  0.4412 -0.1646
 9351SOL    HW139515   2.857   4.636   4.551 -0.5286  0.4614 -0.9484
 9351SOL    HW239516   2.860   4.497   4.603 -0.1783 -0.0345 -1.0838
 9352SOL     OW39517   4.182   3.077  13.125 -0.1871 -0.3022  0.0638
 9352SOL    HW139518   4.128   3.041  13.196 -0.1929  0.2401  0.3363
 9352SOL    HW239519   4.266   3.034  13.140 -0.4889 -1.7518 -2.3762
 9353SOL     OW39520   2.894   2.362   4.088 -0.4958 -0.3715  0.5033
 9353SOL    HW139521   2.924   2.446   4.054 -0.3601 -2.1676 -3.8104
 9353SOL    HW239522   2.970   2.312   4.057 -1.4145 -1.7219  0.4293
 9354SOL     OW39523   0.396   1.401   9.340 -0.3393  0.0039  0.1685
 9354SOL    HW139524   0.394   1.463   9.268  0.7183  0.7594  0.8022
 9354SOL    HW239525   0.373   1.323   9.288 -4.5356  1.6947 -0.5208
 9355SOL     OW39526   1.306   2.419   3.597  0.2611  0.0538  0.3298
 9355SOL    HW139527   1.377   2.426   3.533  0.2647  0.8201  0.4149
 9355SOL    HW239528   1.246   2.360   3.550 -1.9164  2.6520 -0.1748
 9356SOL     OW39529   1.435   4.474  17.217  0.0774  0.3241 -0.2837
 9356SOL    HW139530   1.500   4.425  17.165  0.5182 -0.1940  0.7498
 9356SOL    HW239531   1.438   4.560  17.175 -0.6781  1.1366  1.3599
 9357SOL     OW39532   3.913   0.516   7.867  0.5763  0.4285 -0.0487
 9357SOL    HW139533   3.866   0.471   7.796 -0.4528  2.2311 -0.4912
 9357SOL    HW239534   3.858   0.511   7.945 -0.0706 -3.0412 -0.6893
 9358SOL     OW39535   2.491   4.466   4.200  0.4705  0.3415 -0.0134
 9358SOL    HW139536   2.432   4.417   4.143  1.9454 -2.6753  1.0548
 9358SOL    HW239537   2.571   4.459   4.148  0.3682 -1.4199  0.0737
 9359SOL     OW39538   2.955   0.979   3.235 -0.0439 -0.2171  0.4083
 9359SOL    HW139539   2.919   0.897   3.203  1.4205 -0.0940 -1.6290
 9359SOL    HW239540   3.029   0.996   3.175 -1.2608  0.2655 -0.9653
 9360SOL     OW39541   2.669   2.229   2.271 -0.2047 -0.0618 -0.2358
 9360SOL    HW139542   2.672   2.139   2.306 -1.1746  0.2343  0.6096
 9360SOL    HW239543   2.749   2.267   2.307 -0.6874 -0.0172  0.7826
 9361SOL     OW39544   0.671   2.584   3.307  0.3541 -0.1003 -0.1770
 9361SOL    HW139545   0.652   2.499   3.267 -2.3058  0.7677 -0.8007
 9361SOL    HW239546   0.641   2.644   3.238 -2.3076 -1.4885 -0.2399
 9362SOL     OW39547   0.794   0.652   3.365 -0.1027 -0.7684  0.0088
 9362SOL    HW139548   0.802   0.568   3.319  1.5708 -0.8342  0.4307
 9362SOL    HW239549   0.884   0.670   3.391 -0.4672 -1.9808  2.1823
 9363SOL     OW39550   4.586   2.912   3.018  0.0036  0.7314 -0.8008
 9363SOL    HW139551   4.560   2.824   2.993  1.8307  0.6609 -2.4994
 9363SOL    HW239552   4.588   2.899   3.113  1.4296 -1.6589 -1.1586
 9364SOL     OW39553   4.408   2.869   8.251  0.0021 -0.6208  0.2581
 9364SOL    HW139554   4.372   2.957   8.264  0.1430 -0.5435  0.1186
 9364SOL    HW239555   4.494   2.864   8.292 -0.4456 -1.7503  1.0774
 9365SOL     OW39556   0.433   0.747  10.514  0.3456 -0.7119  0.1219
 9365SOL    HW139557   0.411   0.838  10.531  0.2199 -0.5235 -1.0975
 9365SOL    HW239558   0.371   0.702  10.572  2.2994  0.8627  3.4180
 9366SOL     OW39559   2.268   2.994   8.927 -0.7562 -0.3636  0.5064
 9366SOL    HW139560   2.317   3.020   8.849  2.2462 -3.1230  1.5008
 9366SOL    HW239561   2.340   2.984   8.990  0.0393 -3.3052 -0.8737
 9367SOL     OW39562   4.210   3.085   3.635 -0.4484 -0.3949  0.5457
 9367SOL    HW139563   4.193   3.179   3.644  0.5049 -0.0150 -1.4672
 9367SOL    HW239564   4.224   3.077   3.541 -4.0441  2.5219 -0.2445
 9368SOL     OW39565   4.473   0.396   3.022  0.0750 -0.2075  0.1399
 9368SOL    HW139566   4.400   0.351   2.979  0.7219 -0.8535 -0.2884
 9368SOL    HW239567   4.451   0.370   3.112  0.8763 -1.7399 -0.1158
 9369SOL     OW39568   1.001   3.166  14.362 -0.3934 -0.4325  0.3340
 9369SOL    HW139569   0.990   3.238  14.424  1.8316  0.8828 -0.7971
 9369SOL    HW239570   0.956   3.093  14.404  1.2088 -2.5711 -1.6581
 9370SOL     OW39571   3.107   3.852   5.373  0.4859  0.3527 -0.3275
 9370SOL    HW139572   3.140   3.934   5.338  0.3141  0.8563  0.6724
 9370SOL    HW239573   3.016   3.882   5.383  0.1139 -0.7591 -0.3917
 9371SOL     OW39574   3.167   3.848   0.812  0.0616  0.1042 -0.5635
 9371SOL    HW139575   3.206   3.834   0.898 -0.3221 -0.3697 -0.4626
 9371SOL    HW239576   3.227   3.795   0.761 -0.6041  0.9493 -2.2322
 9372SOL     OW39577   2.704   4.439  15.857 -0.1704  0.4742 -0.1884
 9372SOL    HW139578   2.619   4.481  15.844  0.0135  1.0037  0.2611
 9372SOL    HW239579   2.767   4.490  15.805 -1.3572  0.4633 -1.6048
 9373SOL     OW39580   4.076   1.154   5.363  0.0557  0.4246  0.2576
 9373SOL    HW139581   4.170   1.136   5.365  0.0325  0.2339 -0.3980
 9373SOL    HW239582   4.040   1.088   5.422  0.4172  0.8210  0.9141
 9374SOL     OW39583   2.840   2.120   0.306 -0.3483  0.2877 -0.3214
 9374SOL    HW139584   2.923   2.080   0.279 -0.1183 -0.3730  1.3344
 9374SOL    HW239585   2.852   2.120   0.401  1.0194 -1.9447 -0.4839
 9375SOL     OW39586   1.397   2.784  14.783  0.7448 -0.2255 -0.4159
 9375SOL    HW139587   1.398   2.763  14.876  2.3446  3.5321  0.4305
 9375SOL    HW239588   1.466   2.727  14.749  1.7515  0.3618  0.6479
 9376SOL     OW39589   1.693   0.287  15.524 -0.5288  0.1729  0.1442
 9376SOL    HW139590   1.629   0.250  15.463 -1.3046  2.3877 -0.3899
 9376SOL    HW239591   1.651   0.253  15.603 -1.6628  0.1160 -0.4888
 9377SOL     OW39592   0.152   4.258   6.386  0.0373 -0.4404  0.4594
 9377SOL    HW139593   0.091   4.330   6.402  1.2293  0.9967 -1.2510
 9377SOL    HW239594   0.110   4.205   6.318  0.9442 -0.6869  0.0896
 9378SOL     OW39595   2.322   1.626  15.389  0.4824 -0.5445  0.6439
 9378SOL    HW139596   2.295   1.624  15.480 -0.9593 -1.3931  0.2003
 9378SOL    HW239597   2.319   1.534  15.362 -1.1235 -0.5343  0.7729
 9379SOL     OW39598   4.296   1.764  17.081 -0.3584  0.1821  0.0596
 9379SOL    HW139599   4.205   1.741  17.097 -1.2754  3.9446  0.1544
 9379SOL    HW239600   4.326   1.682  17.043 -1.1656 -0.0774 -0.0034
 9380SOL     OW39601   4.381   2.619   8.431  0.3903 -0.0351  0.4639
 9380SOL    HW139602   4.312   2.641   8.493  0.1158 -1.0341  0.5218
 9380SOL    HW239603   4.349   2.666   8.354  0.4585  0.8640  0.9937
 9381SOL     OW39604   1.675   0.644   9.503  0.0026 -0.1414 -0.0715
 9381SOL    HW139605   1.715   0.731   9.493  0.4005 -0.0868  2.0170
 9381SOL    HW239606   1.758   0.597   9.496 -0.2962 -0.5201 -1.0184
 9382SOL     OW39607   4.585   1.706   3.472  0.1908 -0.1846 -0.1945
 9382SOL    HW139608   4.512   1.659   3.432  1.3269 -1.5484 -0.6607
 9382SOL    HW239609   4.645   1.700   3.397 -1.2722 -1.8961 -1.2217
 9383SOL     OW39610   2.842   3.903   6.292 -0.0845  0.3236 -0.1701
 9383SOL    HW139611   2.832   3.950   6.375  0.4136 -0.6839  0.4590
 9383SOL    HW239612   2.897   3.830   6.320 -1.6702  0.5465  3.5609
 9384SOL     OW39613   2.453   0.530  13.749  0.2439 -0.2446  0.1934
 9384SOL    HW139614   2.428   0.448  13.792  0.4181  0.1035  0.9555
 9384SOL    HW239615   2.443   0.494  13.661 -1.6721  1.8326 -0.4174
 9385SOL     OW39616   3.163   2.747  14.605 -0.2187 -0.5971  0.4852
 9385SOL    HW139617   3.234   2.745  14.541 -1.4399  0.7725 -0.8957
 9385SOL    HW239618   3.173   2.655  14.632 -0.0799 -0.9573 -0.8172
 9386SOL     OW39619   2.932   2.827   9.748 -0.1100 -0.0837 -0.0593
 9386SOL    HW139620   3.009   2.884   9.749 -0.6616  0.6804 -0.3154
 9386SOL    HW239621   2.933   2.779   9.830 -0.1395  3.1795  1.8534
 9387SOL     OW39622   2.438   0.907   1.860  0.3338 -0.5118  0.4958
 9387SOL    HW139623   2.486   0.984   1.829  0.2401 -0.6348  0.0375
 9387SOL    HW239624   2.359   0.948   1.894 -0.3548  0.2863 -2.1016
 9388SOL     OW39625   1.986   3.695   0.155 -0.1698  0.5258  0.5204
 9388SOL    HW139626   2.069   3.663   0.120 -1.2906 -1.9863  0.0869
 9388SOL    HW239627   1.977   3.635   0.229  1.8454  0.1351  0.4396
 9389SOL     OW39628   2.250   3.403   2.209 -0.2871  0.1070  0.1143
 9389SOL    HW139629   2.157   3.413   2.189  0.0609  0.0753 -1.4699
 9389SOL    HW239630   2.260   3.309   2.199  2.3299  0.3730  0.1154
 9390SOL     OW39631   0.897   3.960   3.401  0.6339  0.4669  0.1812
 9390SOL    HW139632   0.887   3.955   3.306  0.0118  1.8163  0.1811
 9390SOL    HW239633   0.938   4.046   3.407 -1.1652  1.2529  1.0966
 9391SOL     OW39634   2.471   1.946   2.557  0.3173 -0.3294 -0.0184
 9391SOL    HW139635   2.531   2.020   2.566 -0.9752  0.7631 -0.4368
 9391SOL    HW239636   2.490   1.908   2.643  0.1002 -1.0284 -0.2756
 9392SOL     OW39637   1.184   3.207   5.247 -0.0535 -0.1687  0.0228
 9392SOL    HW139638   1.251   3.274   5.236  0.3393 -0.4253  0.9061
 9392SOL    HW239639   1.177   3.186   5.154 -1.3582  0.8781 -0.1079
 9393SOL     OW39640   1.950   3.533   6.871 -0.6569  1.0137  0.3878
 9393SOL    HW139641   1.990   3.454   6.835 -2.6102  0.2396 -0.0862
 9393SOL    HW239642   1.950   3.519   6.965 -1.8243  0.6747  0.3448
 9394SOL     OW39643   1.136   1.543   6.231  0.0743  0.6243 -0.4241
 9394SOL    HW139644   1.143   1.583   6.145 -0.5336  0.1837 -0.6737
 9394SOL    HW239645   1.227   1.531   6.258 -0.5671 -1.7420  0.7004
 9395SOL     OW39646   3.380   2.065   7.057  0.4129  0.6307 -0.4310
 9395SOL    HW139647   3.337   1.981   7.070 -1.6508  1.5608 -1.3230
 9395SOL    HW239648   3.417   2.064   6.969  0.8916  0.4515 -0.2320
 9396SOL     OW39649   1.647   3.070   7.008 -0.0446 -0.0061 -0.1717
 9396SOL    HW139650   1.688   3.131   7.069  2.1012 -2.7435  1.1588
 9396SOL    HW239651   1.568   3.043   7.056  0.2479 -0.2753  0.1638
 9397SOL     OW39652   1.864   2.640  14.634 -0.1747 -0.0820  0.3707
 9397SOL    HW139653   1.954   2.647  14.601 -0.3087  0.9033  0.2115
 9397SOL    HW239654   1.887   2.624  14.726  0.2669  0.3413  0.3325
 9398SOL     OW39655   1.080   0.576  10.567  0.1621 -0.4615  0.0238
 9398SOL    HW139656   1.032   0.493  10.566  1.4326 -1.1906  0.4754
 9398SOL    HW239657   1.168   0.544  10.545  0.4246  0.8235 -0.7738
 9399SOL     OW39658   0.611   4.620   3.398 -0.5295 -0.0640 -0.1074
 9399SOL    HW139659   0.618   4.691   3.333 -0.4909 -0.3461 -0.4104
 9399SOL    HW239660   0.624   4.540   3.347 -1.5501  0.0685 -0.5921
 9400SOL     OW39661   4.265   1.190   0.396 -0.6934  0.2352 -0.0515
 9400SOL    HW139662   4.336   1.192   0.461 -1.6655  0.4013  1.0135
 9400SOL    HW239663   4.246   1.280   0.371  0.5244  0.0756 -1.5599
 9401SOL     OW39664   4.330   1.741  17.426 -0.5356 -0.0169  0.1154
 9401SOL    HW139665   4.416   1.769  17.394 -1.0788 -1.0821 -2.2861
 9401SOL    HW239666   4.355   1.722  17.517 -2.4754 -3.3318 -0.0280
 9402SOL     OW39667   4.256   3.205   4.243  0.3729 -0.1835 -0.2765
 9402SOL    HW139668   4.317   3.195   4.170 -0.2216 -1.4476 -0.5954
 9402SOL    HW239669   4.322   3.184   4.309 -0.9360 -2.3671  0.3228
 9403SOL     OW39670   4.684   4.108   7.540  0.1214  0.3193 -0.3404
 9403SOL    HW139671   4.717   4.196   7.523  0.5226  0.0372 -1.0611
 9403SOL    HW239672   0.038   4.055   7.552 -0.6301 -1.0309 -1.3559
 9404SOL     OW39673   1.177   2.320   6.461 -0.7718  0.0074  0.0748
 9404SOL    HW139674   1.147   2.400   6.418  0.0669  0.1375 -0.2796
 9404SOL    HW239675   1.146   2.258   6.395 -0.0269  0.0633 -0.3265
 9405SOL     OW39676   1.913   2.137   6.928  0.4034 -0.1082  0.3746
 9405SOL    HW139677   1.863   2.218   6.938  0.3912 -0.0468 -0.1861
 9405SOL    HW239678   1.916   2.133   6.832  0.0197 -0.0823  0.3612
 9406SOL     OW39679   2.288   0.796  16.130  0.3624 -1.2623  0.4406
 9406SOL    HW139680   2.230   0.759  16.064 -1.4017  1.4000  0.5063
 9406SOL    HW239681   2.226   0.832  16.194  1.5971  2.4061 -0.4552
 9407SOL     OW39682   0.885   2.905   8.020 -0.1630 -1.0700  0.3111
 9407SOL    HW139683   0.936   2.931   8.097 -0.0637  1.9215 -0.7692
 9407SOL    HW239684   0.811   2.959   8.048 -2.0438 -2.3543 -2.1365
 9408SOL     OW39685   1.413   2.491   8.349  0.4298 -0.2964 -0.4021
 9408SOL    HW139686   1.445   2.530   8.268  1.1575 -1.7971 -0.8373
 9408SOL    HW239687   1.484   2.428   8.364  0.2452 -0.4205 -0.0457
 9409SOL     OW39688   1.953   1.423   7.947  0.3231  0.2302 -0.4105
 9409SOL    HW139689   1.959   1.364   7.872  0.9287 -1.5998  1.0649
 9409SOL    HW239690   1.953   1.352   8.012  0.4073 -1.6417 -2.4396
 9410SOL     OW39691   3.495   1.873  12.969 -0.4718 -0.1778 -0.2982
 9410SOL    HW139692   3.555   1.804  12.996  0.3452  0.3374 -0.8077
 9410SOL    HW239693   3.505   1.940  13.036  0.2865  1.8826 -2.4797
 9411SOL     OW39694   1.387   4.481   9.576 -0.4369 -0.3807 -0.8502
 9411SOL    HW139695   1.293   4.484   9.558 -0.8437  1.8109  1.6136
 9411SOL    HW239696   1.405   4.410   9.515 -0.5113  0.5194 -1.9103
 9412SOL     OW39697   2.780   2.988  17.428  0.0731  0.4054 -0.2654
 9412SOL    HW139698   2.818   3.065  17.386  1.4360 -0.2282 -0.1877
 9412SOL    HW239699   2.812   2.922  17.366  0.9468  1.2743 -0.7421
 9413SOL     OW39700   2.448   1.361   8.400 -0.1298  0.9740 -0.2059
 9413SOL    HW139701   2.431   1.429   8.466 -2.0872 -0.7416  1.0243
 9413SOL    HW239702   2.490   1.421   8.338  1.7880 -1.2450 -1.0851
 9414SOL     OW39703   4.065   1.553  15.202 -0.0700  0.1916 -0.3023
 9414SOL    HW139704   4.088   1.641  15.232 -0.9896  0.4279 -0.2910
 9414SOL    HW239705   3.982   1.532  15.245 -0.9142 -0.9387 -2.4884
 9415SOL     OW39706   2.986   4.321  11.562  0.4141 -0.2892 -0.6947
 9415SOL    HW139707   3.049   4.393  11.569  2.3266 -1.8303 -2.0169
 9415SOL    HW239708   3.052   4.253  11.552 -0.7617 -1.6461  0.8958
 9416SOL     OW39709   0.101   1.284   6.595 -0.2187  0.4522  0.2115
 9416SOL    HW139710   0.127   1.240   6.675  0.7090 -1.6317 -1.2366
 9416SOL    HW239711   0.151   1.366   6.592  1.6836 -0.7987 -2.0678
 9417SOL     OW39712   0.119   2.026   5.886  0.7561 -0.4199  0.3134
 9417SOL    HW139713   0.037   1.990   5.852 -0.4020  0.8509  1.7610
 9417SOL    HW239714   0.182   1.982   5.830 -0.1363 -1.6249  0.2474
 9418SOL     OW39715   1.329   0.745   1.393 -0.0931  0.2102  0.8374
 9418SOL    HW139716   1.384   0.683   1.443 -1.8530 -1.7716  0.2968
 9418SOL    HW239717   1.245   0.727   1.436 -0.0820  1.7161  1.4997
 9419SOL     OW39718   4.068   1.247   2.718  0.0513  0.5240 -0.2939
 9419SOL    HW139719   4.031   1.160   2.700  0.1449  1.0785 -3.2429
 9419SOL    HW239720   4.060   1.284   2.630  1.8611 -0.1003 -0.7179
 9420SOL     OW39721   0.646   0.656   0.825  0.5252 -0.5736  0.1711
 9420SOL    HW139722   0.558   0.621   0.844 -0.0049  1.2791  1.2016
 9420SOL    HW239723   0.627   0.724   0.761 -0.5719 -1.9416 -0.9534
 9421SOL     OW39724   4.069   0.348   3.670  0.6933 -0.0140  0.0871
 9421SOL    HW139725   4.014   0.371   3.595  0.1107  0.1598  0.5650
 9421SOL    HW239726   4.040   0.422   3.724  1.4826  1.3499 -1.3739
 9422SOL     OW39727   1.019   3.476  17.428 -0.1527 -0.1931 -0.0449
 9422SOL    HW139728   0.941   3.524  17.403  0.0529 -0.0876 -0.4939
 9422SOL    HW239729   1.078   3.550  17.445 -1.3594  0.5648  0.8174
 9423SOL     OW39730   1.653   3.104  11.520  0.6648  0.6618  0.2777
 9423SOL    HW139731   1.745   3.129  11.527  0.1679  2.4535  0.2045
 9423SOL    HW239732   1.637   3.075  11.430 -0.3244 -3.0871  1.6391
 9424SOL     OW39733   3.656   2.725  16.626 -0.0699  0.2682 -0.5607
 9424SOL    HW139734   3.666   2.791  16.557  0.0860 -1.1648 -1.9373
 9424SOL    HW239735   3.577   2.676  16.604 -1.5516  2.4571 -0.0743
 9425SOL     OW39736   1.490   2.498   9.359  0.2182 -0.4459  0.3514
 9425SOL    HW139737   1.474   2.537   9.273  0.4704  3.3765  2.0594
 9425SOL    HW239738   1.401   2.466   9.372 -0.5716  1.3035 -0.8724
 9426SOL     OW39739   3.279   0.564   7.501  0.2964  0.4447 -0.2625
 9426SOL    HW139740   3.290   0.469   7.501  0.3126  0.4443  1.3995
 9426SOL    HW239741   3.203   0.592   7.553  0.5509 -4.3956  2.6653
 9427SOL     OW39742   3.045   0.278   6.947 -0.3755  0.1188 -0.1775
 9427SOL    HW139743   2.966   0.290   6.894 -0.6379 -0.1415  0.1520
 9427SOL    HW239744   3.108   0.321   6.889 -1.4217 -0.4111 -1.6944
 9428SOL     OW39745   2.803   4.083  10.813 -0.4247  0.0251  0.8464
 9428SOL    HW139746   2.707   4.082  10.817 -0.4299  0.4524  0.8641
 9428SOL    HW239747   2.821   4.177  10.813 -0.4065  0.0211 -1.1100
 9429SOL     OW39748   4.118   2.165   0.243 -0.1210  0.3882  0.2832
 9429SOL    HW139749   4.075   2.248   0.223  4.6421  3.2451  1.9396
 9429SOL    HW239750   4.070   2.128   0.318  3.9835  0.2578  2.8540
 9430SOL     OW39751   1.658   1.218   8.466 -0.1701 -0.0262  0.0369
 9430SOL    HW139752   1.580   1.243   8.416 -0.2657 -2.1128 -0.8505
 9430SOL    HW239753   1.614   1.157   8.526 -0.3116  0.0181 -0.0200
 9431SOL     OW39754   3.776   1.992  11.117  0.5545 -0.2656 -0.0056
 9431SOL    HW139755   3.831   2.070  11.114  1.5144 -0.9226  0.4997
 9431SOL    HW239756   3.701   2.025  11.167  0.7868  1.0148 -0.5098
 9432SOL     OW39757   0.276   3.225   0.005  0.2734 -0.3949 -0.1581
 9432SOL    HW139758   0.322   3.161  17.653 -0.0419 -0.4504 -0.3631
 9432SOL    HW239759   0.333   3.300   0.018  0.4932 -0.2683 -1.9435
 9433SOL     OW39760   3.434   2.723   7.788  0.0450  0.2208 -0.0654
 9433SOL    HW139761   3.344   2.710   7.759 -0.0651  1.8560 -0.4628
 9433SOL    HW239762   3.464   2.633   7.805 -1.1596 -0.1095  0.2914
 9434SOL     OW39763   2.131   2.477   3.036 -0.6226 -0.4654 -0.0251
 9434SOL    HW139764   2.069   2.406   3.048  0.1983 -1.3170 -0.8269
 9434SOL    HW239765   2.081   2.522   2.968 -1.0593  0.2146  0.7536
 9435SOL     OW39766   3.298   2.944   9.106 -0.4234  0.2397  0.3259
 9435SOL    HW139767   3.290   3.027   9.153 -0.0164  0.1258  0.5926
 9435SOL    HW239768   3.231   2.884   9.135 -0.9882  1.0337  0.6599
 9436SOL     OW39769   1.864   0.900  16.784 -0.3226 -0.1605  0.0808
 9436SOL    HW139770   1.881   0.864  16.871  0.6195  0.5178  0.1705
 9436SOL    HW239771   1.951   0.937  16.771 -0.3922 -0.3652 -0.9566
 9437SOL     OW39772   2.626   0.696   5.100  0.3106 -0.2321  0.1664
 9437SOL    HW139773   2.619   0.747   5.019 -1.5798  1.5448  1.4588
 9437SOL    HW239774   2.533   0.685   5.118  0.1796  0.2675 -0.1750
 9438SOL     OW39775   4.563   1.534   5.903  0.3155 -0.0102  0.1051
 9438SOL    HW139776   4.533   1.553   5.813  0.0278 -0.6231  0.0742
 9438SOL    HW239777   4.658   1.528   5.890  0.5046  0.0718  1.4463
 9439SOL     OW39778   0.663   2.563   8.435  0.5730 -0.3243  0.0033
 9439SOL    HW139779   0.655   2.642   8.489 -1.3288  0.5278 -1.5007
 9439SOL    HW239780   0.757   2.558   8.418  0.3174  2.0609 -2.0272
 9440SOL     OW39781   1.520   0.800  17.082 -0.2067 -0.3392  0.1555
 9440SOL    HW139782   1.530   0.895  17.074  1.0120 -0.5539 -0.8794
 9440SOL    HW239783   1.554   0.779  16.995 -0.0410  1.6856 -0.2787
 9441SOL     OW39784   3.075   1.893  12.024  0.8285 -0.4726 -0.6423
 9441SOL    HW139785   3.076   1.915  11.931  0.6060  0.1947 -0.4877
 9441SOL    HW239786   3.156   1.927  12.062  0.4817  0.3249 -0.6057
 9442SOL     OW39787   1.369   3.845   4.303  0.2009 -0.3508  0.0037
 9442SOL    HW139788   1.382   3.884   4.216  0.5921 -0.9493 -0.2105
 9442SOL    HW239789   1.388   3.755   4.273 -0.0199 -0.5707  0.5326
 9443SOL     OW39790   0.692   1.058   7.614 -0.1838  0.8350  0.3783
 9443SOL    HW139791   0.722   1.087   7.700 -0.2435  0.4822  0.5195
 9443SOL    HW239792   0.772   1.097   7.579 -0.0050  0.8351  0.7894
 9444SOL     OW39793   1.070   0.690   1.477  0.4047  0.1943  0.0107
 9444SOL    HW139794   1.029   0.706   1.392 -0.1235  1.5078  0.4988
 9444SOL    HW239795   0.995   0.726   1.525 -0.6549  0.3604 -1.7351
 9445SOL     OW39796   4.502   2.632   3.004  0.2175 -0.4873 -0.3302
 9445SOL    HW139797   4.464   2.595   2.925  0.4885 -1.1612 -0.1439
 9445SOL    HW239798   4.590   2.595   3.005  1.5357  2.5742 -1.7943
 9446SOL     OW39799   2.820   2.517   1.101 -0.1862 -0.3601 -0.3561
 9446SOL    HW139800   2.833   2.522   1.006 -0.1191 -0.1822 -0.3370
 9446SOL    HW239801   2.835   2.609   1.122 -2.4009 -0.2771  0.8417
 9447SOL     OW39802   2.210   0.905  15.387 -0.4641  0.0505  0.2794
 9447SOL    HW139803   2.266   0.827  15.392 -0.0314  0.1797 -2.7263
 9447SOL    HW239804   2.234   0.950  15.468  2.2161 -0.2753 -0.3153
 9448SOL     OW39805   3.695   3.910   2.734 -0.1007  0.3230 -0.2061
 9448SOL    HW139806   3.657   3.998   2.728 -1.1729 -0.1572 -0.4254
 9448SOL    HW239807   3.640   3.854   2.679 -0.5180 -0.4495  0.9940
 9449SOL     OW39808   1.170   3.103  13.358 -0.4038 -0.0497 -0.2945
 9449SOL    HW139809   1.164   3.035  13.290 -1.5523 -1.6221  1.3851
 9449SOL    HW239810   1.260   3.130  13.340  0.4395 -1.5743  1.5986
 9450SOL     OW39811   1.042   0.339   1.497  0.3690 -0.3413  0.4220
 9450SOL    HW139812   1.031   0.425   1.536  1.8565  0.8845 -1.8353
 9450SOL    HW239813   1.098   0.284   1.553 -0.5032 -2.2304 -0.5598
 9451SOL     OW39814   0.926   3.306  12.237  0.0640  0.4347  0.2185
 9451SOL    HW139815   0.842   3.309  12.190  1.1674 -1.6670 -1.8478
 9451SOL    HW239816   0.897   3.319  12.327 -0.6714  0.2174  0.0165
 9452SOL     OW39817   1.069   1.394   0.460 -0.3593  0.2252 -0.3196
 9452SOL    HW139818   1.129   1.326   0.429  0.3321  0.2924  0.8715
 9452SOL    HW239819   1.127   1.453   0.508 -3.2658  0.7427  2.5184
 9453SOL     OW39820   0.312   3.261   4.619  0.0771 -0.0526 -0.3152
 9453SOL    HW139821   0.327   3.320   4.545 -2.3852  2.9324  1.5619
 9453SOL    HW239822   0.305   3.334   4.680 -1.7884 -1.0367  0.6580
 9454SOL     OW39823   2.349   4.128   7.001  1.0123  0.3038 -0.4224
 9454SOL    HW139824   2.375   4.214   7.033 -1.2558  0.2731  1.5267
 9454SOL    HW239825   2.388   4.069   7.066  0.7088  0.9073  0.3063
 9455SOL     OW39826   1.614   3.347   5.936  0.9141  0.0132 -0.1570
 9455SOL    HW139827   1.520   3.365   5.928  1.2800  1.4962 -1.1781
 9455SOL    HW239828   1.634   3.434   5.972  0.4615 -0.3257  0.9338
 9456SOL     OW39829   1.057   0.756  15.386  0.3236 -0.3283  0.3338
 9456SOL    HW139830   0.971   0.745  15.425  0.4860 -1.0775  0.4723
 9456SOL    HW239831   1.046   0.833  15.329  0.4866 -2.2339 -2.2829
 9457SOL     OW39832   1.388   3.923  12.030  0.3355  0.4423  0.2145
 9457SOL    HW139833   1.367   3.829  12.032  0.4107  0.3848 -2.2453
 9457SOL    HW239834   1.373   3.934  12.124  2.5391  1.0864  0.4981
 9458SOL     OW39835   2.939   3.322  15.232  0.0374 -0.2945  0.3833
 9458SOL    HW139836   3.000   3.259  15.272 -1.1269 -1.0521  0.9746
 9458SOL    HW239837   2.927   3.288  15.143  0.4261  1.0545 -0.1743
 9459SOL     OW39838   4.083   2.732   2.410  0.0490 -0.6872  0.5225
 9459SOL    HW139839   4.077   2.811   2.464  1.1726  0.4838 -1.0442
 9459SOL    HW239840   4.177   2.731   2.396  0.2007  4.7600  1.0266
 9460SOL     OW39841   1.044   3.286  14.599  0.6118 -0.9767  0.2070
 9460SOL    HW139842   1.071   3.377  14.602  1.7561 -1.3298  0.5553
 9460SOL    HW239843   1.132   3.252  14.584  1.2971  2.2384 -2.9272
 9461SOL     OW39844   3.859   2.540   8.181 -0.5220 -0.1886 -0.3235
 9461SOL    HW139845   3.931   2.479   8.196 -0.3829  0.0053 -0.1996
 9461SOL    HW239846   3.898   2.626   8.166 -0.2163 -0.3056 -0.1962
 9462SOL     OW39847   0.867   1.069   1.454 -0.3551  0.2793 -1.0062
 9462SOL    HW139848   0.868   1.157   1.492  0.4097  1.2355 -3.2289
 9462SOL    HW239849   0.950   1.046   1.496 -1.3473 -2.8519 -0.7463
 9463SOL     OW39850   0.839   3.769  16.916  0.0782 -0.4972  0.1158
 9463SOL    HW139851   0.779   3.803  16.982 -1.8998 -0.1430 -1.8609
 9463SOL    HW239852   0.845   3.675  16.929  2.1267 -0.4811 -0.6800
 9464SOL     OW39853   0.898   3.150  14.787  0.3214 -0.5606 -0.4328
 9464SOL    HW139854   0.961   3.196  14.732  1.2078 -3.6219 -1.9763
 9464SOL    HW239855   0.843   3.124  14.714 -0.6897  0.2361  0.0403
 9465SOL     OW39856   3.683   1.827   5.756 -0.5229 -0.1117  0.0286
 9465SOL    HW139857   3.765   1.864   5.723 -0.5864 -0.6835 -0.7652
 9465SOL    HW239858   3.653   1.887   5.825  1.9471  2.6156 -1.2809
 9466SOL     OW39859   4.158   3.101   2.193 -0.4260  0.6055  0.1035
 9466SOL    HW139860   4.150   3.194   2.211 -1.7760  0.2239  1.5202
 9466SOL    HW239861   4.181   3.100   2.100  2.3409 -3.3068  0.8423
 9467SOL     OW39862   0.931   0.199   3.386  0.0582  0.0586 -0.5885
 9467SOL    HW139863   1.010   0.162   3.427  1.0460  2.1142 -0.6147
 9467SOL    HW239864   0.883   0.209   3.468  1.2294 -1.1267  0.2582
 9468SOL     OW39865   0.089   4.675   4.510 -0.2609  0.0129  0.3743
 9468SOL    HW139866   0.068   4.658   4.602  0.0964  1.1064  0.6576
 9468SOL    HW239867   0.002   4.670   4.469 -0.2825 -1.4151  0.6089
 9469SOL     OW39868   2.559   0.499  15.560 -0.2119  0.3447  0.3058
 9469SOL    HW139869   2.572   0.551  15.639 -1.0267 -1.2025  1.4779
 9469SOL    HW239870   2.511   0.556  15.500 -0.1733  0.1162  0.0567
 9470SOL     OW39871   4.373   1.318   5.712  0.6441 -0.0212  0.4952
 9470SOL    HW139872   4.357   1.392   5.654  1.6740 -2.1892 -2.5153
 9470SOL    HW239873   4.399   1.247   5.654  0.7750 -1.0976  1.8666
 9471SOL     OW39874   1.469   2.222   9.255  0.1337 -0.4182 -0.2703
 9471SOL    HW139875   1.497   2.234   9.346 -0.5858  0.8452 -0.2154
 9471SOL    HW239876   1.375   2.208   9.271 -0.0394 -0.8354 -1.6469
 9472SOL     OW39877   1.486   0.096   5.712 -0.3627  0.1562  0.1781
 9472SOL    HW139878   1.404   0.144   5.727 -0.9601 -1.1489  1.1170
 9472SOL    HW239879   1.523   0.113   5.799 -1.3659  2.4657  0.1528
 9473SOL     OW39880   1.273   4.716  13.561  0.0023  0.1453 -0.2583
 9473SOL    HW139881   1.221   0.071  13.560  1.0499  0.8102 -0.6137
 9473SOL    HW239882   1.292   4.720  13.655  4.4492  0.1817 -1.1528
 9474SOL     OW39883   2.085   1.711  17.465  0.9125 -0.0976  0.4144
 9474SOL    HW139884   2.071   1.797  17.425  2.6317 -0.5005 -1.0587
 9474SOL    HW239885   2.079   1.725  17.559  0.7859 -0.3863  0.4486
 9475SOL     OW39886   2.749   1.382   9.790  0.5532 -0.5203  0.0801
 9475SOL    HW139887   2.798   1.464   9.799 -0.8332  0.1533  1.3814
 9475SOL    HW239888   2.804   1.341   9.723  3.0918  1.1324  1.1508
 9476SOL     OW39889   4.598   3.150  13.745 -0.0414 -0.3191  0.6289
 9476SOL    HW139890   4.513   3.123  13.710  0.9669  0.1963 -2.1968
 9476SOL    HW239891   4.646   3.104  13.677 -2.9136 -1.2916 -0.7444
 9477SOL     OW39892   4.698   2.156   0.532  0.4134 -0.5035  0.2047
 9477SOL    HW139893   4.665   2.070   0.559 -2.2118  0.5512  0.4247
 9477SOL    HW239894   0.062   2.142   0.501  0.8755 -2.5883  2.4388
 9478SOL     OW39895   3.096   2.117   4.281 -0.0045 -0.0995 -0.3236
 9478SOL    HW139896   3.109   2.193   4.339  1.1140 -0.1362 -0.5406
 9478SOL    HW239897   3.136   2.144   4.199  0.9625 -0.3959  0.0579
 9479SOL     OW39898   1.798   3.348   3.313 -0.2429 -0.7392 -0.2509
 9479SOL    HW139899   1.894   3.354   3.314 -0.4377  1.0213  3.8539
 9479SOL    HW239900   1.786   3.270   3.258  0.1519 -1.8816  1.2993
 9480SOL     OW39901   0.368   2.408   8.783 -0.1002 -0.2788 -0.3677
 9480SOL    HW139902   0.298   2.373   8.728 -0.1234  1.7069 -1.6125
 9480SOL    HW239903   0.320   2.482   8.818  0.5400  0.1937 -0.4906
 9481SOL     OW39904   3.077   3.431  16.848  0.1777  0.1903  0.2625
 9481SOL    HW139905   3.045   3.488  16.918  1.1476  0.5312  0.4352
 9481SOL    HW239906   3.091   3.488  16.773  1.2279  0.7130  0.8528
 9482SOL     OW39907   1.640   2.693   4.664 -0.6648 -0.0767 -0.7651
 9482SOL    HW139908   1.565   2.635   4.656 -0.9809  0.4862 -1.9331
 9482SOL    HW239909   1.713   2.633   4.681 -1.9178 -0.7893  2.0930
 9483SOL     OW39910   1.190   0.414  17.573 -0.2617 -0.3143  0.3637
 9483SOL    HW139911   1.232   0.496  17.551 -1.1650 -0.0274 -0.2708
 9483SOL    HW239912   1.212   0.392  17.664 -1.3485  0.0357  0.7106
 9484SOL     OW39913   3.336   4.059   4.579  0.1844 -0.0959 -0.0899
 9484SOL    HW139914   3.350   4.054   4.674  0.0667  0.2682 -0.0507
 9484SOL    HW239915   3.422   4.033   4.547  1.0072 -0.7505  2.6008
 9485SOL     OW39916   1.340   3.596   3.371  0.2278 -0.3857 -0.0045
 9485SOL    HW139917   1.360   3.557   3.456  1.4429 -0.3686 -0.2901
 9485SOL    HW239918   1.426   3.582   3.333 -1.0220 -0.6838 -2.7267
 9486SOL     OW39919   1.954   2.361   5.141 -0.9926 -0.0045 -0.1438
 9486SOL    HW139920   1.899   2.435   5.165 -2.1264 -1.3974  1.5523
 9486SOL    HW239921   1.897   2.309   5.085  2.4083 -2.9752 -0.8535
 9487SOL     OW39922   3.121   4.072   6.365 -0.7153  0.6307 -0.0165
 9487SOL    HW139923   3.054   4.139   6.374  0.6745  1.8312  1.3716
 9487SOL    HW239924   3.126   4.049   6.458  2.0194  0.1262 -0.2832
 9488SOL     OW39925   2.987   0.400   6.187  0.0353  0.5218 -0.1410
 9488SOL    HW139926   3.008   0.415   6.279  2.8425 -1.2776 -0.4899
 9488SOL    HW239927   2.955   0.309   6.190  1.8398  0.0087  3.4088
 9489SOL     OW39928   0.173   3.512   2.389 -0.6560  0.1818 -0.6899
 9489SOL    HW139929   0.088   3.550   2.367 -1.1898  0.0023  1.0577
 9489SOL    HW239930   0.201   3.494   2.299 -0.1135 -1.0938 -0.2454
 9490SOL     OW39931   4.506   3.237   5.480  0.2974  0.1750  0.0413
 9490SOL    HW139932   4.501   3.273   5.568  0.9957  0.3207  0.0204
 9490SOL    HW239933   4.581   3.180   5.494  0.2182 -0.0138 -0.3115
 9491SOL     OW39934   0.620   0.317   5.966  0.2742  0.4060  0.4529
 9491SOL    HW139935   0.653   0.278   5.885 -0.7838 -2.8499  1.5951
 9491SOL    HW239936   0.590   0.396   5.921 -0.1478  1.2632  2.2588
 9492SOL     OW39937   3.945   0.507   2.438 -0.2111 -0.5710 -0.3922
 9492SOL    HW139938   4.020   0.461   2.474 -0.8684 -0.5148  1.0767
 9492SOL    HW239939   3.867   0.454   2.457  0.1283 -0.5834  0.9628
 9493SOL     OW39940   2.375   2.973   2.387 -0.3138  0.4760  0.0104
 9493SOL    HW139941   2.336   3.031   2.322 -0.3120 -0.8250 -1.1461
 9493SOL    HW239942   2.381   2.891   2.338  1.5471 -0.4334  1.7748
 9494SOL     OW39943   0.906   1.654   0.918  0.4216 -0.5853 -0.0232
 9494SOL    HW139944   0.924   1.571   0.960  2.1300  0.0836  0.5532
 9494SOL    HW239945   0.813   1.646   0.895  0.3253  1.1720 -0.2916
 9495SOL     OW39946   0.825   4.583   3.938 -0.1474 -0.1208  0.6975
 9495SOL    HW139947   0.891   4.649   3.961  0.8724 -0.3154 -1.6702
 9495SOL    HW239948   0.830   4.595   3.843  2.0534  1.9949  1.0731
 9496SOL     OW39949   2.271   3.641  16.166  0.6259  0.1955  0.1107
 9496SOL    HW139950   2.251   3.618  16.257  1.7222  1.0779  0.5661
 9496SOL    HW239951   2.367   3.639  16.164  0.6819  0.0855  3.1324
 9497SOL     OW39952   0.179   3.586  13.503 -0.1113  0.5130 -0.6171
 9497SOL    HW139953   0.173   3.669  13.455  0.8158  0.1316 -1.3955
 9497SOL    HW239954   0.248   3.605  13.567 -0.5996  0.5916 -0.1138
 9498SOL     OW39955   2.333   3.061   2.649  0.2845 -0.6893  0.3274
 9498SOL    HW139956   2.348   3.027   2.560 -3.8787 -0.3337 -0.4759
 9498SOL    HW239957   2.288   3.145   2.648  1.0885 -0.2467  2.2499
 9499SOL     OW39958   2.357   1.498  11.612  0.4875 -0.6345 -0.2914
 9499SOL    HW139959   2.371   1.504  11.518  0.4778  3.8736  0.0107
 9499SOL    HW239960   2.424   1.434  11.637  2.1527  0.6550 -1.4655
 9500SOL     OW39961   4.047   1.466   2.227  0.1713  0.9737 -0.2655
 9500SOL    HW139962   4.106   1.455   2.152  0.6570 -0.1868  0.2877
 9500SOL    HW239963   4.040   1.561   2.239 -1.2886  0.7414  0.7395
 9501SOL     OW39964   0.203   0.107   2.796 -0.2812  0.3489 -0.0481
 9501SOL    HW139965   0.113   0.130   2.774 -0.3163 -2.3512 -2.6537
 9501SOL    HW239966   0.203   0.012   2.782 -0.8359  0.7424 -2.6371
 9502SOL     OW39967   3.948   4.374   2.748  0.6362  0.0654  0.2155
 9502SOL    HW139968   3.962   4.345   2.658  0.3039  2.5515 -0.6485
 9502SOL    HW239969   3.911   4.462   2.734 -1.1495 -0.9448 -1.3905
 9503SOL     OW39970   1.885   4.205   6.952 -0.0178 -0.4151  0.3188
 9503SOL    HW139971   1.840   4.154   6.885 -0.4888 -0.1801  0.4551
 9503SOL    HW239972   1.936   4.258   6.891  0.4657 -2.5522 -1.1079
 9504SOL     OW39973   1.730   1.067   7.918  0.1013 -0.0593 -0.1709
 9504SOL    HW139974   1.679   1.093   7.995  0.5872  0.7569 -0.1310
 9504SOL    HW239975   1.712   0.973   7.921 -0.9692  0.1725  0.5897
 9505SOL     OW39976   4.094   2.115   8.981  0.6265  0.2065  0.4348
 9505SOL    HW139977   4.165   2.051   8.979  1.7651  1.5569 -1.6704
 9505SOL    HW239978   4.095   2.126   9.076  2.2282 -0.2855  0.4758
 9506SOL     OW39979   0.234   2.364   7.881 -0.4591  0.2186  0.5259
 9506SOL    HW139980   0.183   2.335   7.957 -0.4262 -1.0639  0.0588
 9506SOL    HW239981   0.252   2.453   7.909  0.1999 -0.2584  1.6248
 9507SOL     OW39982   3.197   0.874   1.258 -0.3729  0.1150 -0.1993
 9507SOL    HW139983   3.109   0.913   1.253 -0.7871 -1.2194 -2.9863
 9507SOL    HW239984   3.185   0.792   1.306  2.7454 -0.4046 -0.3051
 9508SOL     OW39985   2.874   1.039   4.954  0.2939  0.3427  0.6195
 9508SOL    HW139986   2.941   0.980   4.989 -0.0716  0.1771  1.0489
 9508SOL    HW239987   2.910   1.125   4.975  1.6012  0.4854 -2.3294
 9509SOL     OW39988   3.090   0.651   4.254  0.2177  0.4233 -0.0205
 9509SOL    HW139989   3.006   0.627   4.293 -1.3601  0.7481 -3.2710
 9509SOL    HW239990   3.143   0.576   4.280 -0.6971  0.0927  0.8989
 9510SOL     OW39991   1.820   0.482   4.765 -0.5728  0.0891  0.0886
 9510SOL    HW139992   1.895   0.469   4.707 -1.3679  1.9795 -1.3569
 9510SOL    HW239993   1.769   0.527   4.699  0.5726  0.0628 -0.8227
 9511SOL     OW39994   4.463   2.297  10.667  0.1325  0.5492 -0.3215
 9511SOL    HW139995   4.400   2.269  10.733 -0.5311  0.3643 -1.0262
 9511SOL    HW239996   4.397   2.319  10.601 -0.6977 -0.3348  0.2145
 9512SOL     OW39997   3.363   4.041   5.812  0.0214 -0.1218 -0.3078
 9512SOL    HW139998   3.270   4.058   5.826 -0.0347 -0.1079 -0.6902
 9512SOL    HW239999   3.401   4.129   5.808 -2.1910  0.7817 -1.0855
 9513SOL     OW40000   3.677   0.579  13.306 -0.0997  0.5707 -0.2225
 9513SOL    HW140001   3.632   0.589  13.390 -0.5518  2.2723 -0.6654
 9513SOL    HW240002   3.678   0.485  13.319 -2.3027  0.1399 -3.1871
 9514SOL     OW40003   3.604   4.310   6.840  0.2345  0.2413  0.2595
 9514SOL    HW140004   3.697   4.292   6.826  0.2051 -0.7874  1.3654
 9514SOL    HW240005   3.574   4.297   6.750 -0.1263 -0.1138  0.4297
 9515SOL     OW40006   0.668   4.615  10.270  0.3175  0.5129 -0.4686
 9515SOL    HW140007   0.700   4.532  10.304 -0.5423 -0.1466 -1.2613
 9515SOL    HW240008   0.603   4.632  10.337 -0.9972 -4.0963 -0.6221
 9516SOL     OW40009   3.817   2.614  14.777  0.0859  0.2472  0.5830
 9516SOL    HW140010   3.885   2.599  14.711 -0.9238  0.3065 -0.4695
 9516SOL    HW240011   3.860   2.577  14.854  1.5760  1.5833  0.3908
 9517SOL     OW40012   3.375   1.620   0.700  0.4408 -0.0989  0.1878
 9517SOL    HW140013   3.366   1.542   0.754 -0.0832  0.6844  1.2190
 9517SOL    HW240014   3.469   1.623   0.680  0.8392 -1.3429  1.9812
 9518SOL     OW40015   0.211   2.515  10.871  0.0509 -0.7826 -0.0746
 9518SOL    HW140016   0.264   2.500  10.949 -0.4250  0.0325  0.4009
 9518SOL    HW240017   0.261   2.578  10.819 -3.5539 -0.4600 -3.1512
 9519SOL     OW40018   2.516   2.433   8.727  0.2425  0.2843  0.6270
 9519SOL    HW140019   2.572   2.411   8.653  0.8468  0.9081  0.9029
 9519SOL    HW240020   2.545   2.369   8.793 -2.8649 -2.6971 -0.8773
 9520SOL     OW40021   2.290   3.360   4.956 -0.0301  0.0975 -0.2276
 9520SOL    HW140022   2.319   3.294   5.019  1.3814 -0.6774 -1.6976
 9520SOL    HW240023   2.205   3.384   4.993 -0.3385  1.1438 -1.6161
 9521SOL     OW40024   0.883   1.882   8.738  0.1472 -0.5897 -0.5700
 9521SOL    HW140025   0.798   1.870   8.780  0.1948 -0.6958 -0.5034
 9521SOL    HW240026   0.868   1.960   8.684  3.3290  1.4969  1.5819
 9522SOL     OW40027   1.881   1.159  16.595 -0.1753 -0.3629  0.6391
 9522SOL    HW140028   1.962   1.199  16.626 -1.2317  1.6650  0.8154
 9522SOL    HW240029   1.815   1.221  16.626  1.3646  1.2518  0.6716
 9523SOL     OW40030   2.014   3.802   5.351 -0.0100  0.3335 -0.2709
 9523SOL    HW140031   1.995   3.781   5.260 -0.0196  0.3551 -0.2739
 9523SOL    HW240032   1.999   3.715   5.387 -1.5379  0.4821 -0.5623
 9524SOL     OW40033   2.889   3.884   8.723  0.0149 -0.8759 -0.5955
 9524SOL    HW140034   2.795   3.893   8.734  0.2240  2.4952 -1.7600
 9524SOL    HW240035   2.886   3.796   8.685 -0.6356  0.0633 -2.7068
 9525SOL     OW40036   3.448   3.628   4.552 -0.2811 -0.3152  0.3393
 9525SOL    HW140037   3.373   3.685   4.539  1.1294  1.4135 -0.2376
 9525SOL    HW240038   3.512   3.648   4.484 -0.7400 -2.7994 -0.8545
 9526SOL     OW40039   3.811   3.772   6.812  0.6195 -0.2929  0.3741
 9526SOL    HW140040   3.825   3.799   6.902  0.2311  2.3136 -0.3391
 9526SOL    HW240041   3.744   3.703   6.818 -0.9500  1.1836 -0.2770
 9527SOL     OW40042   0.264   1.615   5.325  0.0075 -0.2144 -0.1490
 9527SOL    HW140043   0.321   1.554   5.278 -0.0851 -0.4586  0.0588
 9527SOL    HW240044   0.195   1.607   5.259  0.4323 -0.1000 -0.6048
 9528SOL     OW40045   3.443   1.226   3.416  0.2840 -0.0703  0.6525
 9528SOL    HW140046   3.478   1.158   3.358 -2.4740 -1.9674  1.2014
 9528SOL    HW240047   3.440   1.189   3.504 -0.8977  1.9469  1.4808
 9529SOL     OW40048   3.186   1.739   5.005  0.3173 -0.5055 -0.4456
 9529SOL    HW140049   3.113   1.703   4.954 -0.8497 -1.4114  1.8548
 9529SOL    HW240050   3.232   1.780   4.933 -1.6622  1.3592 -0.6659
 9530SOL     OW40051   0.661   1.163   2.316  0.1494 -0.2348  0.3889
 9530SOL    HW140052   0.661   1.139   2.409  1.2325 -1.5420  0.0508
 9530SOL    HW240053   0.634   1.255   2.323 -2.0586 -0.9665  1.6977
 9531SOL     OW40054   1.504   1.753   7.325 -0.0016 -0.2065 -0.4903
 9531SOL    HW140055   1.566   1.809   7.372 -0.1519 -0.6283  0.2206
 9531SOL    HW240056   1.429   1.811   7.322  0.7123  0.6456 -1.6975
 9532SOL     OW40057   3.752   0.853  10.297  0.0359 -0.3108  0.2020
 9532SOL    HW140058   3.842   0.884  10.308  0.6165 -2.3290  1.0464
 9532SOL    HW240059   3.722   0.885  10.212 -0.0436  2.2921  1.1991
 9533SOL     OW40060   0.201   0.957   8.303  0.5132 -0.1996  0.0590
 9533SOL    HW140061   0.113   0.948   8.267  0.3926 -1.2227  0.6035
 9533SOL    HW240062   0.252   0.881   8.275 -1.7774 -1.7807  0.1395
 9534SOL     OW40063   2.511   0.988  14.688 -0.4437  0.1013 -0.6314
 9534SOL    HW140064   2.486   1.065  14.740  2.1710 -0.8979  2.0558
 9534SOL    HW240065   2.570   1.027  14.623  0.2747 -0.2630 -0.1913
 9535SOL     OW40066   3.380   0.697   6.238  0.3570 -0.0358  0.9547
 9535SOL    HW140067   3.341   0.612   6.218  0.6384 -0.1531  0.9012
 9535SOL    HW240068   3.344   0.751   6.167  3.0808  1.4257  0.6635
 9536SOL     OW40069   0.100   1.207  12.791  0.0618 -0.3683 -0.5035
 9536SOL    HW140070   0.021   1.157  12.770 -0.1014 -0.3890  0.1636
 9536SOL    HW240071   0.116   1.263  12.715  0.5556 -2.6303 -2.0635
 9537SOL     OW40072   3.423   1.617   8.505  0.1327  0.7248 -0.7562
 9537SOL    HW140073   3.469   1.549   8.456  1.0417  0.5869  0.2783
 9537SOL    HW240074   3.452   1.611   8.596  0.8731  1.2118 -0.9631
 9538SOL     OW40075   0.834   0.283   4.118  0.2906  0.0119 -0.0993
 9538SOL    HW140076   0.844   0.372   4.151 -1.4357 -0.7741  2.5650
 9538SOL    HW240077   0.881   0.229   4.182  1.9350 -0.6172 -1.8273
 9539SOL     OW40078   0.969   1.648   8.626  0.1406 -0.0364  0.1764
 9539SOL    HW140079   1.056   1.658   8.588  0.1889 -0.2517  0.2295
 9539SOL    HW240080   0.943   1.740   8.620  1.3192  0.1993 -1.1398
 9540SOL     OW40081   0.640   1.243   9.707 -0.1402  0.0758  0.3595
 9540SOL    HW140082   0.697   1.223   9.781 -2.7076 -1.8088  1.7996
 9540SOL    HW240083   0.569   1.180   9.712  0.9793 -1.2088  0.0500
 9541SOL     OW40084   0.217   1.220  10.500 -0.0206  0.4438  0.0470
 9541SOL    HW140085   0.252   1.141  10.458  0.1406  1.2930 -1.4087
 9541SOL    HW240086   0.275   1.222  10.577 -3.5813  0.0167  2.7501
 9542SOL     OW40087   2.357   1.778   0.237  0.2780  0.2963  0.3451
 9542SOL    HW140088   2.295   1.847   0.259  0.5329  0.2049  1.3378
 9542SOL    HW240089   2.435   1.817   0.276  0.6577  1.1329 -1.2601
 9543SOL     OW40090   2.476   0.272   2.852  0.0335  0.0757  0.1336
 9543SOL    HW140091   2.543   0.261   2.785 -0.2127 -1.7095  0.1892
 9543SOL    HW240092   2.478   0.186   2.893 -1.2556 -1.3349 -2.7596
 9544SOL     OW40093   4.660   3.387  13.546 -0.5155 -0.1492  0.3024
 9544SOL    HW140094   0.023   3.407  13.579 -0.8387  0.5006  0.7645
 9544SOL    HW240095   4.690   3.337  13.470  0.2103  0.4731  0.1673
 9545SOL     OW40096   4.276   3.010   1.092 -0.0974  0.0328 -0.2004
 9545SOL    HW140097   4.313   2.930   1.129  1.4304  0.8683  0.0639
 9545SOL    HW240098   4.307   3.000   1.002 -1.3556  0.7851 -0.7200
 9546SOL     OW40099   4.217   4.489   6.349 -0.1003 -0.4236  0.2215
 9546SOL    HW140100   4.131   4.447   6.345 -0.3334  0.0965 -0.2935
 9546SOL    HW240101   4.271   4.412   6.366 -1.8006 -1.4632  0.9676
 9547SOL     OW40102   1.148   4.114   5.485 -0.0145 -0.1919  0.4372
 9547SOL    HW140103   1.150   4.025   5.450 -0.9905 -0.0843  0.1310
 9547SOL    HW240104   1.234   4.152   5.465 -0.3175  0.0870 -0.3162
 9548SOL     OW40105   4.378   3.405   6.354  0.2345 -0.1846 -0.0213
 9548SOL    HW140106   4.368   3.500   6.342  1.4506  0.1208  1.5044
 9548SOL    HW240107   4.301   3.367   6.312  0.3291  1.1145 -1.3670
 9549SOL     OW40108   2.889   4.469   8.086 -0.1957 -0.1474 -0.5552
 9549SOL    HW140109   2.809   4.416   8.091 -0.4329  0.1864 -0.8042
 9549SOL    HW240110   2.858   4.560   8.082  2.2255  0.7759  2.0061
 9550SOL     OW40111   2.875   2.777   6.741 -0.0525 -0.0281  0.2575
 9550SOL    HW140112   2.818   2.845   6.776 -1.0041 -0.2741 -0.8510
 9550SOL    HW240113   2.901   2.816   6.658  0.3168  1.0039  0.8513
 9551SOL     OW40114   2.577   0.367   0.288  0.2127 -0.0611  0.1303
 9551SOL    HW140115   2.517   0.386   0.216  0.4295  0.7655  0.1698
 9551SOL    HW240116   2.556   0.274   0.294 -1.4575  0.2528 -0.8745
 9552SOL     OW40117   0.240   4.355   5.004  0.3961  0.0041  0.4744
 9552SOL    HW140118   0.176   4.402   5.058 -1.4747 -0.8862 -0.9623
 9552SOL    HW240119   0.318   4.398   5.039  1.2152 -0.8672 -0.2973
 9553SOL     OW40120   4.654   2.718   2.090 -0.1968 -0.1796  0.5319
 9553SOL    HW140121   4.672   2.741   2.181  0.9238 -0.8680  0.4907
 9553SOL    HW240122   0.006   2.668   2.065  0.2855  0.1524  1.3592
 9554SOL     OW40123   1.751   3.073   6.603 -0.1005 -0.8636 -0.0493
 9554SOL    HW140124   1.749   3.157   6.557 -1.1035 -1.6692 -1.4700
 9554SOL    HW240125   1.810   3.023   6.546 -0.8887 -2.0545  0.1832
 9555SOL     OW40126   1.232   4.616   1.000 -0.4801 -0.1825 -0.8703
 9555SOL    HW140127   1.214   4.615   0.906  0.9720  0.6092 -1.1586
 9555SOL    HW240128   1.145   4.607   1.038 -0.2431 -0.7769 -0.4582
 9556SOL     OW40129   1.096   4.366   2.839  0.0952  0.3308  0.7309
 9556SOL    HW140130   1.010   4.404   2.818  1.3821  2.0574 -1.4552
 9556SOL    HW240131   1.136   4.365   2.752  1.4756 -1.0841  1.3798
 9557SOL     OW40132   0.578   2.474   5.220 -0.0332  0.0089  0.4485
 9557SOL    HW140133   0.646   2.495   5.156 -1.3804 -1.3116 -1.4206
 9557SOL    HW240134   0.515   2.422   5.170  0.9039 -0.6788 -0.0251
 9558SOL     OW40135   2.795   1.186   6.091  0.5538 -0.2830 -0.5186
 9558SOL    HW140136   2.787   1.178   6.186 -0.0176 -0.0430 -0.5482
 9558SOL    HW240137   2.843   1.266   6.073  0.4753 -0.5341 -1.8310
 9559SOL     OW40138   1.618   0.165   8.354 -0.1618  0.2997 -0.0471
 9559SOL    HW140139   1.702   0.187   8.394  1.4938 -3.1328 -1.6685
 9559SOL    HW240140   1.560   0.203   8.420 -0.9139  0.7210 -0.9523
 9560SOL     OW40141   1.498   3.372   7.531 -0.0548  0.5968 -0.2220
 9560SOL    HW140142   1.535   3.307   7.590 -2.0391 -0.5492 -0.2341
 9560SOL    HW240143   1.451   3.421   7.598  0.0768  0.2721  0.1052
 9561SOL     OW40144   2.630   4.087   3.829 -0.3002  0.4906  0.2610
 9561SOL    HW140145   2.665   4.003   3.859 -1.5188 -0.8585 -2.0833
 9561SOL    HW240146   2.581   4.125   3.902 -0.8062 -0.1740  0.2628
 9562SOL     OW40147   3.325   3.679   3.132  0.7397  0.3528 -0.2435
 9562SOL    HW140148   3.249   3.656   3.185  3.0596  1.4377  3.5550
 9562SOL    HW240149   3.332   3.773   3.148 -0.3108 -0.1620  3.1871
 9563SOL     OW40150   0.946   1.203   0.191 -0.3758 -0.2346  0.2796
 9563SOL    HW140151   0.948   1.241   0.279 -0.1096  1.9653 -0.6873
 9563SOL    HW240152   1.034   1.209   0.155 -1.3283  1.5062 -1.7463
 9564SOL     OW40153   3.254   3.423   3.705  0.0841 -0.2672  0.6618
 9564SOL    HW140154   3.229   3.511   3.677 -0.8821 -1.0799 -1.0428
 9564SOL    HW240155   3.171   3.374   3.710 -0.6897  1.1569  1.7045
 9565SOL     OW40156   1.740   1.441   1.708  0.1278 -0.0229 -0.1902
 9565SOL    HW140157   1.748   1.352   1.673  0.4039 -1.6042  3.7872
 9565SOL    HW240158   1.659   1.469   1.666  0.2639 -0.3682 -0.6821
 9566SOL     OW40159   2.455   4.692   3.798  0.2167  0.1236  0.2090
 9566SOL    HW140160   2.503   4.683   3.880  0.6904  3.1335  0.2658
 9566SOL    HW240161   2.524   4.700   3.732  0.6238  0.5108  0.6814
 9567SOL     OW40162   2.083   1.151   0.595 -0.1818  0.1020 -0.1171
 9567SOL    HW140163   1.993   1.122   0.584  0.8078 -3.3169  0.6555
 9567SOL    HW240164   2.128   1.085   0.542 -0.9347 -1.2300  0.9102
 9568SOL     OW40165   3.362   0.333   8.017  0.2483  0.1698 -0.5180
 9568SOL    HW140166   3.312   0.367   8.091  1.3942  0.9671 -0.0995
 9568SOL    HW240167   3.406   0.253   8.048 -2.2761 -1.0285 -0.0163
   4.72514   4.72514  17.70194
