Membrane in water
40167
    1TCq1    O1    1   2.838   0.245  11.866 -0.5137 -0.4627  0.0000
    1TCq1    C1    2   2.716   0.297  11.894 -0.0562 -0.8958  0.6039
    1TCq1    O2    3   2.611   0.233  11.879 -0.6275 -0.7495  0.0463
    1TCq1    C2    4   2.728   0.427  11.825  0.7229  0.1551 -0.0017
    1TCq1    C3    5   2.822   0.521  11.864 -1.1802 -0.8955  0.4525
    1TCq1    C4    6   2.814   0.647  11.810  0.1218 -0.1828  0.1335
    1TCq1    C5    7   2.721   0.676  11.711  0.1017 -0.2787 -0.6049
    1TCq1    C6    8   2.625   0.584  11.678  0.0554  0.9385  0.3551
    1TCq1    C7    9   2.620   0.466  11.747 -0.5459  0.8671  0.0801
    1TCq1    C8   10   2.514   0.611  11.586 -0.1994  0.3246 -0.2565
    1TCq1    O4   11   2.424   0.530  11.593 -0.0298 -0.3508  0.0344
    1TCq1    C9   12   2.907   0.743  11.860  0.0489 -0.2380 -0.4091
    1TCq1    O5   13   3.000   0.704  11.943 -0.1374  0.2157 -0.3758
    1TCq1    O6   14   2.882   0.865  11.829  0.4790 -0.0664  0.4612
    1TCq1    H1   15   2.918   0.293  11.895 -2.2615  2.5577 -0.2307
    1TCq1    H2   16   2.886   0.498  11.949 -0.5865  1.6537  0.7143
    1TCq1    H3   17   2.715   0.778  11.673  0.0998 -0.0575  0.0021
    1TCq1    H4   18   2.546   0.390  11.725  0.4307 -0.8789  2.8193
    2MPD2     C   19   2.282   0.875  11.208  0.2303  0.5957 -0.3071
    2MPD2    C1   20   2.236   0.763  11.274  0.0109 -0.4064 -0.1139
    2MPD2    C2   21   2.308   0.702  11.372 -0.0489 -0.3320 -0.0246
    2MPD2    C3   22   2.437   0.758  11.401  0.7488  0.3294 -0.1765
    2MPD2    C4   23   2.482   0.871  11.333  0.5157  0.0434 -0.0386
    2MPD2    C5   24   2.404   0.917  11.228  0.3824 -0.6994 -0.4347
    2MPD2     H   25   2.264   0.623  11.432 -1.2022 -0.5299 -1.1250
    2MPD2    H1   26   2.577   0.918  11.355 -0.0169  1.1958 -0.1920
    2MPD2    H2   27   2.232   0.921  11.124  1.6713  1.1470 -0.8722
    2MPD2    H3   28   2.432   0.999  11.162  2.5793 -1.4372 -0.4067
    2MPD2     N   29   2.523   0.719  11.511  0.1663 -0.3727 -0.6073
    2MPD2    H5   30   2.608   0.771  11.522  0.0956 -0.4488  0.2749
    2MPD2    N1   31   2.107   0.712  11.254  0.7067 -0.0921 -0.1868
    2MPD2    H7   32   2.089   0.626  11.305  1.8530 -1.7716 -2.5707
    3TCq1    O1   33   1.929   2.554  11.867 -0.0526  0.1139  0.3075
    3TCq1    C1   34   1.975   2.681  11.855 -0.4410  0.3910 -0.6872
    3TCq1    O2   35   2.057   2.729  11.934 -0.4466 -0.6097  0.3383
    3TCq1    C2   36   1.849   2.750  11.832 -0.5601 -0.0880 -0.2986
    3TCq1    C3   37   1.810   2.843  11.923 -0.2602  0.4782 -0.6182
    3TCq1    C4   38   1.677   2.880  11.929 -0.6957  0.6286  0.9467
    3TCq1    C5   39   1.581   2.818  11.846  0.2436 -0.0194  0.2094
    3TCq1    C6   40   1.632   2.734  11.748 -0.3877 -0.2989  0.5506
    3TCq1    C7   41   1.766   2.703  11.737  0.4238  0.3514  0.3226
    3TCq1    C8   42   1.543   2.700  11.635  0.5561 -0.2044  0.3882
    3TCq1    O4   43   1.593   2.639  11.543 -0.4390 -0.1265 -0.2181
    3TCq1    C9   44   1.640   2.982  12.030 -0.1637 -0.2219 -0.1058
    3TCq1    O5   45   1.520   3.004  12.058 -0.1397  0.2169 -0.2562
    3TCq1    O6   46   1.729   3.039  12.094  0.2394 -0.2435 -0.1636
    3TCq1    H1   47   1.858   2.530  11.803  0.5460 -0.3539 -0.1736
    3TCq1    H2   48   1.879   2.892  11.991  1.4144  0.3947 -2.2723
    3TCq1    H3   49   1.482   2.862  11.853 -1.0285 -2.8337  0.1090
    3TCq1    H4   50   1.811   2.659  11.649  0.2800 -1.5295  1.1762
    4MPD2     C   51   1.074   2.611  11.437  0.2776  0.0986  0.4744
    4MPD2    C1   52   1.064   2.675  11.558  0.1936  0.5808  0.2027
    4MPD2    C2   53   1.176   2.723  11.620  0.2586  0.7857 -1.1616
    4MPD2    C3   54   1.299   2.697  11.577  0.7499 -0.3435  0.4748
    4MPD2    C4   55   1.317   2.626  11.459  0.3281  0.4098  0.5743
    4MPD2    C5   56   1.201   2.583  11.394  0.1120 -0.3649 -0.1647
    4MPD2     H   57   1.171   2.781  11.712 -0.3275 -0.5854 -0.3383
    4MPD2    H1   58   1.412   2.602  11.412 -0.6056 -0.9146 -0.6278
    4MPD2    H2   59   0.987   2.578  11.382  0.1314 -0.6145  1.1167
    4MPD2    H3   60   1.211   2.520  11.306 -1.2714 -1.5041  0.5033
    4MPD2     N   61   1.411   2.734  11.657  0.2058  0.1281 -0.3885
    4MPD2    H5   62   1.386   2.777  11.745  4.8466 -1.1484  1.5490
    4MPD2    N1   63   0.942   2.706  11.623  0.2378  0.3889 -0.0518
    4MPD2    H7   64   0.952   2.747  11.716  0.5439  0.9398 -0.3237
    5TCq1    O1   65   3.089   3.326  11.849  0.3406 -0.4433  0.1721
    5TCq1    C1   66   2.989   3.364  11.771 -0.5456 -0.1011  0.0612
    5TCq1    O2   67   2.986   3.461  11.691 -0.0457 -0.0738  0.9219
    5TCq1    C2   68   2.870   3.313  11.825 -0.1521  0.3970 -0.1151
    5TCq1    C3   69   2.860   3.286  11.959 -0.7586  0.0734  0.1251
    5TCq1    C4   70   2.747   3.234  12.011 -0.8409 -0.0381  1.0009
    5TCq1    C5   71   2.647   3.196  11.923  0.0259  0.0585  0.1357
    5TCq1    C6   72   2.658   3.215  11.787 -0.1578  0.2773 -0.2398
    5TCq1    C7   73   2.770   3.277  11.736 -0.3974 -0.6329 -0.6462
    5TCq1    C8   74   2.549   3.180  11.701  0.0299  0.0962  0.2830
    5TCq1    O4   75   2.467   3.100  11.752  0.5074 -0.5228 -0.4230
    5TCq1    C9   76   2.722   3.222  12.154  0.1519 -0.5099  0.7424
    5TCq1    O5   77   2.612   3.173  12.183 -0.7412 -0.7376 -0.0959
    5TCq1    O6   78   2.813   3.258  12.231 -0.4508 -0.2484 -0.6208
    5TCq1    H1   79   3.071   3.240  11.894  1.1714 -1.3101 -1.1325
    5TCq1    H2   80   2.940   3.312  12.027  0.4877  0.2826 -1.4228
    5TCq1    H3   81   2.553   3.156  11.959  0.7411  0.7056  2.7492
    5TCq1    H4   82   2.781   3.305  11.632 -0.4036  1.2053 -0.1581
    6MPD2     C   83   2.409   3.399  11.443 -0.3956  0.0614 -0.4265
    6MPD2    C1   84   2.422   3.282  11.515  0.0590 -0.7173 -0.0743
    6MPD2    C2   85   2.315   3.191  11.514 -0.2874  0.0391  0.2369
    6MPD2    C3   86   2.199   3.208  11.434 -0.0673  0.0330  0.0880
    6MPD2    C4   87   2.192   3.330  11.362  0.1148  0.0852 -0.2272
    6MPD2    C5   88   2.293   3.420  11.374 -0.2051 -0.1959  0.7129
    6MPD2     H   89   2.317   3.098  11.570 -1.2009 -0.3707 -0.4140
    6MPD2    H1   90   2.117   3.361  11.291  0.6033 -0.7195 -1.0917
    6MPD2    H2   91   2.478   3.479  11.465 -0.7515 -0.3036  1.9770
    6MPD2    H3   92   2.281   3.520  11.335  2.1208 -1.2203 -2.5743
    6MPD2     N   93   2.109   3.100  11.422  0.1225  0.9769  0.2561
    6MPD2    H5   94   2.137   3.009  11.458 -2.0513  0.1848 -0.0175
    6MPD2    N1   95   2.540   3.269  11.595 -0.0455 -0.2641 -0.4644
    6MPD2    H7   96   2.605   3.347  11.592  1.4500 -1.5352 -1.0554
    7TCq1    O1   97   3.718   3.811  13.107 -0.3265  0.2027 -0.2480
    7TCq1    C1   98   3.617   3.801  13.018 -0.0213  0.4971  0.1246
    7TCq1    O2   99   3.559   3.893  12.960 -0.0554 -0.0924 -0.2808
    7TCq1    C2  100   3.651   3.682  12.938 -0.0105  0.8353 -0.6088
    7TCq1    C3  101   3.654   3.686  12.798  0.7180 -0.6839 -0.5432
    7TCq1    C4  102   3.660   3.562  12.733 -0.5028  0.7151  0.2400
    7TCq1    C5  103   3.656   3.444  12.798 -0.2274  0.2003 -0.6583
    7TCq1    C6  104   3.668   3.445  12.931  0.3920  0.5025  0.1402
    7TCq1    C7  105   3.657   3.561  12.999  0.4029  0.7719 -0.2033
    7TCq1    C8  106   3.687   3.322  13.017  0.8382  0.7817 -0.7272
    7TCq1    O4  107   3.671   3.215  12.963 -0.1005  0.4612  0.0907
    7TCq1    C9  108   3.662   3.555  12.590 -0.1424  1.0346 -0.5109
    7TCq1    O5  109   3.626   3.655  12.520 -0.2930 -0.5043  0.1247
    7TCq1    O6  110   3.699   3.447  12.536 -0.1921  0.3840 -0.0752
    7TCq1    H1  111   3.765   3.727  13.124 -0.4976 -0.2405 -1.9547
    7TCq1    H2  112   3.672   3.777  12.742  0.4696  0.7769  1.7491
    7TCq1    H3  113   3.658   3.351  12.743 -0.1934 -0.0210 -0.2887
    7TCq1    H4  114   3.643   3.569  13.106 -0.8205  0.7960 -0.3638
    8MPD2     C  115   3.847   3.087  13.445 -0.4288  0.6759  0.2338
    8MPD2    C1  116   3.832   3.043  13.317  0.0232  0.3848  0.4954
    8MPD2    C2  117   3.786   3.125  13.208  0.2884  0.4323 -0.1953
    8MPD2    C3  118   3.765   3.261  13.236 -0.6114 -0.1873  0.5759
    8MPD2    C4  119   3.787   3.307  13.360  0.2247 -0.4014  0.5824
    8MPD2    C5  120   3.823   3.224  13.464 -0.3942 -0.0186 -0.3176
    8MPD2     H  121   3.789   3.087  13.107  1.4369 -0.8229  0.3103
    8MPD2    H1  122   3.777   3.412  13.385 -1.3449 -0.6215  0.8835
    8MPD2    H2  123   3.878   3.019  13.523  1.3824  0.5396 -0.5886
    8MPD2    H3  124   3.838   3.263  13.564 -0.4186 -0.3834 -0.1718
    8MPD2     N  125   3.747   3.350  13.135  0.1157  0.7078  0.5152
    8MPD2    H5  126   3.772   3.446  13.158  0.0702  0.3201  2.1478
    8MPD2    N1  127   3.854   2.899  13.293  0.1760 -0.0998 -0.3487
    8MPD2    H7  128   3.889   2.840  13.367 -1.7627 -0.4447  0.2907
    9TCq1    O1  129   1.674   1.310  10.583 -0.6540 -0.2755 -0.2465
    9TCq1    C1  130   1.626   1.387  10.689  0.5946  0.3093  0.1777
    9TCq1    O2  131   1.516   1.385  10.737  0.2556 -0.8314 -0.1830
    9TCq1    C2  132   1.732   1.483  10.734 -0.2291  1.7149  0.2981
    9TCq1    C3  133   1.849   1.491  10.655  0.6242 -0.0008  0.5351
    9TCq1    C4  134   1.939   1.589  10.692 -0.6142 -0.1907 -0.3947
    9TCq1    C5  135   1.913   1.673  10.796 -0.2349 -0.4891  1.0687
    9TCq1    C6  136   1.797   1.655  10.873  0.0489 -0.5334 -0.1995
    9TCq1    C7  137   1.707   1.556  10.848 -0.6630  0.4522  0.5992
    9TCq1    C8  138   1.776   1.763  10.967  0.0980  0.2154  0.2218
    9TCq1    O4  139   1.847   1.863  10.970 -0.0195 -0.7347  0.1545
    9TCq1    C9  140   2.061   1.592  10.612  0.1867 -0.4457  0.1947
    9TCq1    O5  141   2.160   1.649  10.666 -0.2096  0.0007  0.1346
    9TCq1    O6  142   2.067   1.517  10.512 -0.7117 -0.4755  0.8270
    9TCq1    H1  143   1.769   1.323  10.562 -1.6593  1.2384 -3.8154
    9TCq1    H2  144   1.860   1.439  10.561  1.9914 -0.2675  0.8399
    9TCq1    H3  145   1.975   1.761  10.811  0.7038 -0.6270 -1.9897
    9TCq1    H4  146   1.620   1.541  10.910 -1.3409  0.7858 -0.2751
   10MPD2     C  147   1.647   1.946  11.168  0.1633 -0.4162 -0.5691
   10MPD2    C1  148   1.634   1.811  11.161  0.2757  0.1636 -0.7670
   10MPD2    C2  149   1.548   1.747  11.251  0.2813 -0.3337  0.8029
   10MPD2    C3  150   1.483   1.813  11.358 -0.1568  0.2346 -0.8124
   10MPD2    C4  151   1.493   1.951  11.358  0.9008 -0.0295  0.2235
   10MPD2    C5  152   1.574   2.011  11.264  0.1354  0.7013 -0.0459
   10MPD2     H  153   1.519   1.645  11.231 -1.3309  0.3810 -0.5423
   10MPD2    H1  154   1.439   2.012  11.429 -0.6358 -0.3093 -0.7174
   10MPD2    H2  155   1.717   2.003  11.108  0.5562 -0.2982 -0.0052
   10MPD2    H3  156   1.583   2.119  11.267 -2.5563  0.9643 -2.0619
   10MPD2     N  157   1.391   1.756  11.449  0.7762 -0.3184 -0.0018
   10MPD2    H5  158   1.366   1.815  11.529  2.0856 -1.8769  1.5575
   10MPD2    N1  159   1.692   1.726  11.065  0.1095 -0.1489 -0.1687
   10MPD2    H7  160   1.662   1.629  11.066 -2.2381  0.5759  0.6564
   11TCq1    O1  161   2.561   1.973  14.707  0.0320 -0.1175  0.1654
   11TCq1    C1  162   2.428   1.978  14.702  0.3605  0.4109 -0.4335
   11TCq1    O2  163   2.358   2.043  14.779  0.1365  0.4653  0.4580
   11TCq1    C2  164   2.382   1.913  14.584 -0.0105 -0.1949  0.5260
   11TCq1    C3  165   2.457   1.821  14.518 -0.1112  0.4505 -1.1536
   11TCq1    C4  166   2.401   1.751  14.411 -0.6419 -0.5244 -0.6110
   11TCq1    C5  167   2.276   1.787  14.367 -0.1221 -0.0125  0.4415
   11TCq1    C6  168   2.210   1.884  14.440 -0.4795 -0.2712  0.8188
   11TCq1    C7  169   2.263   1.958  14.542  0.8013  0.3645 -0.5625
   11TCq1    C8  170   2.068   1.899  14.418 -0.6141  0.7586 -0.0853
   11TCq1    O4  171   2.009   1.979  14.489 -0.1421 -0.0735 -0.6374
   11TCq1    C9  172   2.486   1.660  14.333 -0.3478  0.1828  0.0764
   11TCq1    O5  173   2.605   1.648  14.366  0.3667  0.3371 -0.3753
   11TCq1    O6  174   2.442   1.638  14.221  0.2769  0.6737 -0.1386
   11TCq1    H1  175   2.604   1.948  14.622 -0.2619  0.0044 -0.0181
   11TCq1    H2  176   2.555   1.795  14.558 -0.9069  1.5833  1.5577
   11TCq1    H3  177   2.246   1.754  14.268  0.5578  3.6745 -0.9730
   11TCq1    H4  178   2.205   2.032  14.596 -1.5414 -1.6564 -0.2837
   12MPD2     C  179   1.790   1.919  14.307  0.2059  0.4170  0.5185
   12MPD2    C1  180   1.874   1.811  14.285  0.2480  0.3606  0.9392
   12MPD2    C2  181   1.826   1.702  14.221 -0.5693 -0.0199  0.0081
   12MPD2    C3  182   1.696   1.698  14.172  0.5663 -0.3303 -0.2610
   12MPD2    C4  183   1.612   1.812  14.190 -0.4513 -0.2219 -0.1267
   12MPD2    C5  184   1.667   1.922  14.254 -1.3647  0.0335 -0.0126
   12MPD2     H  185   1.891   1.617  14.203  0.9935  1.3514 -0.8114
   12MPD2    H1  186   1.505   1.810  14.170 -0.2837  0.9134 -1.1190
   12MPD2    H2  187   1.823   2.013  14.349  2.8556 -0.5946  0.6946
   12MPD2    H3  188   1.614   2.014  14.278  0.9926  1.2890  0.4316
   12MPD2     N  189   1.652   1.576  14.108 -0.4686  0.2424  0.4448
   12MPD2    H5  190   1.726   1.511  14.083 -1.0558  0.5782 -2.1775
   12MPD2    N1  191   2.010   1.814  14.322 -0.2864 -0.0421 -0.4309
   12MPD2    H7  192   2.074   1.746  14.284  0.0529  0.3769 -0.6115
   13TCq1    O1  193   1.974   1.765  11.387 -0.2072 -0.0005  0.3234
   13TCq1    C1  194   2.062   1.754  11.278  0.8453 -0.1227  0.0823
   13TCq1    O2  195   2.102   1.854  11.217  0.4134  0.0545 -0.0106
   13TCq1    C2  196   2.053   1.628  11.203  0.0501 -0.5618 -0.2684
   13TCq1    C3  197   2.153   1.610  11.114 -0.2204 -0.3344 -0.1441
   13TCq1    C4  198   2.143   1.501  11.031 -0.2704 -0.1516  0.0376
   13TCq1    C5  199   2.033   1.422  11.031  0.1188 -0.1024 -0.3051
   13TCq1    C6  200   1.927   1.460  11.110 -0.4422  0.0558  0.2074
   13TCq1    C7  201   1.933   1.556  11.199  0.5060  0.1793 -0.5328
   13TCq1    C8  202   1.813   1.371  11.111 -0.1677  0.7665 -0.0369
   13TCq1    O4  203   1.712   1.422  11.158  0.2505 -0.1291  0.4920
   13TCq1    C9  204   2.242   1.470  10.934  0.5346  0.4595  0.2451
   13TCq1    O5  205   2.225   1.376  10.855  0.2149  0.3678  0.1017
   13TCq1    O6  206   2.318   1.565  10.905  0.2693  0.0366  0.2687
   13TCq1    H1  207   1.935   1.681  11.419 -0.0800  0.0092  0.5018
   13TCq1    H2  208   2.223   1.692  11.109  0.8082 -1.1079  1.4256
   13TCq1    H3  209   2.027   1.353  10.948  1.6524 -1.1433  0.4716
   13TCq1    H4  210   1.849   1.587  11.261 -0.4074 -1.1407 -1.1032
   14MPD2     C  211   1.741   1.051  10.937 -0.0847  0.1092  0.5677
   14MPD2    C1  212   1.735   1.151  11.028 -0.2868  0.6866  0.1407
   14MPD2    C2  213   1.615   1.158  11.100  0.2761  0.0416 -0.1277
   14MPD2    C3  214   1.513   1.072  11.092 -0.1378 -0.4063  0.4159
   14MPD2    C4  215   1.525   0.969  11.006  0.5686  0.1446 -0.7981
   14MPD2    C5  216   1.638   0.958  10.934 -0.3927 -0.8861 -1.1182
   14MPD2     H  217   1.600   1.235  11.175 -0.9965  0.4107 -0.7560
   14MPD2    H1  218   1.451   0.892  10.983 -0.6350  1.6403 -1.9808
   14MPD2    H2  219   1.827   1.024  10.877 -1.3065 -1.5189 -0.4292
   14MPD2    H3  220   1.645   0.876  10.865 -1.4427 -0.5981 -1.5634
   14MPD2     N  221   1.392   1.097  11.160  0.6684  0.5364 -0.5691
   14MPD2    H5  222   1.395   1.181  11.215 -0.1521  1.2092 -1.5550
   14MPD2    N1  223   1.833   1.256  11.039  0.0239 -0.4292 -0.0031
   14MPD2    H7  224   1.919   1.236  10.990  2.3699  3.2948  2.6420
   15TCq1    O1  225   2.866   0.763   1.433 -0.0389 -0.1459  0.0893
   15TCq1    C1  226   2.770   0.710   1.365 -0.6586  0.6614  0.2705
   15TCq1    O2  227   2.719   0.753   1.263  0.3428 -0.4455  0.2479
   15TCq1    C2  228   2.763   0.571   1.401 -0.0777  0.3317  0.3276
   15TCq1    C3  229   2.774   0.536   1.534 -0.2013  0.0040  0.2575
   15TCq1    C4  230   2.812   0.406   1.571 -0.4845 -0.0896 -0.6895
   15TCq1    C5  231   2.815   0.310   1.469  0.2945 -0.4266 -0.2635
   15TCq1    C6  232   2.790   0.349   1.336  0.0780  0.3142  0.2058
   15TCq1    C7  233   2.760   0.481   1.294 -0.1990  0.9380  0.3535
   15TCq1    C8  234   2.801   0.249   1.240  0.0206  0.0761  0.4780
   15TCq1    O4  235   2.867   0.148   1.278  0.1768 -0.2329 -0.2340
   15TCq1    C9  236   2.863   0.374   1.703  0.2617 -0.5600  0.2881
   15TCq1    O5  237   2.819   0.449   1.790  0.1161  0.6288  0.4739
   15TCq1    O6  238   2.920   0.257   1.719 -0.0313 -0.9373  0.4827
   15TCq1    H1  239   2.892   0.705   1.508  0.6902 -1.5852 -1.3048
   15TCq1    H2  240   2.748   0.611   1.608  0.5138  3.1000 -2.6453
   15TCq1    H3  241   2.836   0.208   1.497 -0.2948 -1.1875 -2.6316
   15TCq1    H4  242   2.743   0.515   1.193 -0.0447 -0.3124 -0.0932
   16MPD2     C  243   2.601   0.189   0.928 -0.2791 -0.3288 -0.5135
   16MPD2    C1  244   2.710   0.184   1.017  0.1237 -0.6986  0.1053
   16MPD2    C2  245   2.793   0.075   1.001  0.4571  0.1625 -0.0399
   16MPD2    C3  246   2.777   4.712   0.896  0.8328 -0.3126  0.1763
   16MPD2    C4  247   2.670   0.009   0.812  0.1161  0.3936  0.7426
   16MPD2    C5  248   2.584   0.115   0.822 -0.5223  0.2877 -0.0763
   16MPD2     H  249   2.877   0.071   1.069 -1.4961 -3.1033  2.1676
   16MPD2    H1  250   2.660   4.674   0.723  2.2587  1.5415 -0.2718
   16MPD2    H2  251   2.536   0.275   0.935 -0.0929 -0.3472  1.3035
   16MPD2    H3  252   2.515   0.140   0.742  1.6647  1.2716 -1.6466
   16MPD2     N  253   2.861   4.596   0.884 -0.2559  0.4067  0.5511
   16MPD2    H5  254   2.923   4.579   0.963  1.4360  0.8020 -0.7066
   16MPD2    N1  255   2.718   0.267   1.124  0.5020  0.5181 -0.2363
   16MPD2    H7  256   2.644   0.335   1.115 -0.7349 -0.7074  0.7816
   17TCq1    O1  257   1.730   0.025  11.111 -0.1956  0.1931 -0.2309
   17TCq1    C1  258   1.640   0.093  11.187  0.2770 -0.3369  0.1825
   17TCq1    O2  259   1.572   0.048  11.274  0.1333 -0.4751 -0.3089
   17TCq1    C2  260   1.595   0.197  11.087 -0.0913 -0.3403  0.4647
   17TCq1    C3  261   1.461   0.200  11.064  0.2923  0.0408  0.8155
   17TCq1    C4  262   1.411   0.323  11.017  0.5075 -0.1947  0.2652
   17TCq1    C5  263   1.489   0.426  10.987 -0.5194 -0.4132  0.1942
   17TCq1    C6  264   1.626   0.413  10.998  0.2304  0.3728 -0.0245
   17TCq1    C7  265   1.682   0.297  11.057 -0.3643 -0.4160 -0.0201
   17TCq1    C8  266   1.711   0.526  10.958 -0.1394 -0.9960  0.5049
   17TCq1    O4  267   1.657   0.641  10.958  0.8020  0.3313  0.2924
   17TCq1    C9  268   1.263   0.328  10.994 -0.3745  0.3692 -0.1752
   17TCq1    O5  269   1.200   0.223  11.013  0.2811  0.2747 -0.8159
   17TCq1    O6  270   1.211   0.441  10.974  0.1542  0.0360  0.1796
   17TCq1    H1  271   1.758   0.073  11.030  1.0561 -0.2742 -0.0635
   17TCq1    H2  272   1.406   0.112  11.096  0.0321 -0.4771 -1.0869
   17TCq1    H3  273   1.441   0.518  10.954 -0.0855  0.2225  1.3312
   17TCq1    H4  274   1.785   0.290  11.092 -1.7219 -2.0472  3.6786
   18MPD2     C  275   1.945   0.710  10.886 -0.8578  0.6170 -0.3092
   18MPD2    C1  276   1.952   0.570  10.900 -0.6819 -0.2821 -0.2915
   18MPD2    C2  277   2.069   0.509  10.861 -0.5723 -0.1245  1.0005
   18MPD2    C3  278   2.170   0.590  10.817 -0.5917 -0.5101 -1.0079
   18MPD2    C4  279   2.164   0.726  10.814 -0.2925 -0.2809  0.3614
   18MPD2    C5  280   2.049   0.788  10.843  0.5978  0.0637  0.1718
   18MPD2     H  281   2.073   0.401  10.870  0.5881 -0.2896 -1.4684
   18MPD2    H1  282   2.253   0.781  10.787 -0.4216  0.0406  0.5934
   18MPD2    H2  283   1.854   0.761  10.913 -2.5034 -1.0294 -2.7568
   18MPD2    H3  284   2.032   0.894  10.828 -1.8216 -0.4564 -0.7844
   18MPD2     N  285   2.299   0.541  10.782 -0.0628 -0.2576 -0.0120
   18MPD2    H5  286   2.375   0.606  10.764  0.4509 -0.8565  0.0124
   18MPD2    N1  287   1.840   0.487  10.935  0.2211  0.1656 -0.0143
   18MPD2    H7  288   1.851   0.386  10.931  1.3812  0.3307 -0.7682
   19TMC2    C1  289   3.193   1.449  14.314  0.2752  0.3852 -0.1762
   19TMC2    C2  290   3.182   1.577  14.361  0.5407 -0.1141 -0.0460
   19TMC2    C3  291   3.053   1.617  14.386 -0.5703 -0.2026 -0.7040
   19TMC2    C4  292   3.083   1.375  14.274  0.5902  0.0368  0.5977
   19TMC2    C5  293   2.955   1.427  14.290  0.1138  0.1296 -0.1547
   19TMC2    C6  294   2.940   1.540  14.367 -0.2853  0.5381  0.0274
   19TMC2     C  295   3.323   1.384  14.326  0.1332  0.1659 -1.6493
   19TMC2     O  296   3.349   1.286  14.257  0.1559 -0.3146  0.1247
   19TMC2     H  297   3.256   1.634  14.416  1.2537  1.3094 -2.4628
   19TMC2    H1  298   3.092   1.276  14.231 -1.2122  0.0668  0.1523
   19TMC2    H2  299   2.840   1.577  14.385 -0.1511  1.3459 -0.9426
   19TMC2    C7  300   2.839   1.340  14.266  0.7268 -0.7034 -0.3882
   19TMC2    C8  301   3.027   1.733  14.464 -0.0795  0.0518  0.3222
   19TMC2    O1  302   2.867   1.232  14.208  0.1781 -0.2616 -0.4884
   19TMC2    O2  303   2.947   1.732  14.557 -0.4987  0.4789  0.7419
   19TMC2    O5  304   3.124   1.822  14.437 -0.1906  0.1623  0.1216
   19TMC2    H5  305   3.158   1.811  14.346 -2.6160 -2.2315 -0.5055
   20MPD2     C  306   3.586   1.300  14.427 -0.3251 -0.7224  0.2782
   20MPD2    C1  307   3.507   1.389  14.491  0.0938  0.6820  1.1844
   20MPD2    C2  308   3.541   1.420  14.622  0.8691  0.0291 -0.1365
   20MPD2    C3  309   3.662   1.382  14.669 -0.0295  0.0352  0.4334
   20MPD2    C4  310   3.746   1.302  14.598  0.1044  0.3978 -0.3775
   20MPD2    C5  311   3.703   1.256  14.480 -0.3473  0.1681  0.6359
   20MPD2     H  312   3.484   1.492  14.679  0.8915 -0.5298  0.5925
   20MPD2    H1  313   3.834   1.261  14.647 -2.7108 -2.7875  2.0493
   20MPD2    H2  314   3.566   1.255  14.330  0.1040 -1.9782  0.7690
   20MPD2    H3  315   3.760   1.182  14.425 -0.1094  0.3505  0.6358
   20MPD2     N  316   3.696   1.398  14.801  0.2575  0.1696 -0.6862
   20MPD2    H5  317   3.779   1.351  14.836 -1.1071 -1.8837 -0.1791
   20MPD2    N1  318   3.378   1.428  14.443 -0.2274  0.5670 -0.2179
   20MPD2    H7  319   3.319   1.479  14.509  0.5720 -0.9060  1.6323
   21MPD2     C  320   0.940   1.786  14.136  0.1739  0.3798 -0.2702
   21MPD2    C1  321   0.991   1.753  14.261  0.0548  0.5122 -0.3471
   21MPD2    C2  322   0.931   1.803  14.371  0.3546  0.3973 -0.8554
   21MPD2    C3  323   0.815   1.885  14.361 -0.7607 -0.5150 -0.0938
   21MPD2    C4  324   0.774   1.929  14.237 -0.3590  0.6677  0.5784
   21MPD2    C5  325   0.837   1.875  14.123  0.3861  1.2223 -0.1010
   21MPD2     H  326   0.962   1.780  14.473 -1.5082  1.0823 -0.1309
   21MPD2    H1  327   0.685   1.991  14.235 -0.9722 -0.2568 -0.7097
   21MPD2    H2  328   0.982   1.754  14.041 -2.8633 -2.5719 -0.6325
   21MPD2    H3  329   0.794   1.890  14.024  1.5001 -2.3048 -1.1184
   21MPD2     N  330   0.744   1.922  14.473 -0.2950  0.5151 -0.1698
   21MPD2    H5  331   0.676   1.996  14.463  0.5270  1.7135  2.9871
   21MPD2    N1  332   1.102   1.668  14.283  0.7516 -0.1478  0.5301
   21MPD2    H7  333   1.130   1.644  14.378 -0.8309 -0.9973  0.7845
   22TCq2    C1  334   0.740   1.849  14.595  0.3893 -0.7395 -0.0003
   22TCq2    O2  335   0.776   1.733  14.611  0.2536  0.2026 -0.4888
   22TCq2    C2  336   0.681   1.920  14.700  0.5122 -0.1779 -0.8875
   22TCq2    C3  337   0.649   1.850  14.818 -0.2845 -0.1131 -0.2801
   22TCq2    C4  338   0.610   1.931  14.923  0.2572 -0.2803 -0.3121
   22TCq2    C5  339   0.585   2.066  14.914 -0.2184 -0.2073  0.1340
   22TCq2    C6  340   0.590   2.120  14.793  0.2108  0.2601  0.1361
   22TCq2    C7  341   0.646   2.051  14.683  0.2229  0.2042 -0.4419
   22TCq2    C8  342   0.576   2.267  14.777 -0.6174 -0.6644 -0.0822
   22TCq2    O4  343   0.596   2.342  14.868 -1.0658  0.6776  0.6775
   22TCq2    C9  344   0.606   1.864  15.048 -0.1396  0.0824 -0.3940
   22TCq2    O5  345   0.577   1.928  15.149 -0.5655  0.1679  0.1902
   22TCq2    O6  346   0.604   1.740  15.047  0.0056  0.2935  0.0130
   22TCq2    H2  347   0.677   1.746  14.820 -0.5424 -0.1564  0.8123
   22TCq2    H3  348   0.561   2.118  15.006 -0.0449  1.3658 -0.7056
   22TCq2    H4  349   0.676   2.108  14.595 -0.8304  0.8504 -0.3766
   23MPD2     C  350   2.756   2.557  14.671 -0.0909  0.7730 -0.7536
   23MPD2    C1  351   2.629   2.571  14.728  0.3273  0.6919 -0.4424
   23MPD2    C2  352   2.545   2.668  14.677 -0.6857 -0.6783  0.2462
   23MPD2    C3  353   2.586   2.764  14.585 -0.1876 -0.5399  0.0802
   23MPD2    C4  354   2.713   2.753  14.536 -0.4092  0.0506 -0.2417
   23MPD2    C5  355   2.797   2.645  14.573  0.3833 -0.3326 -0.7014
   23MPD2     H  356   2.450   2.676  14.729 -1.3406  1.0308 -1.2235
   23MPD2    H1  357   2.731   2.820  14.453 -1.7555 -1.0256 -1.4093
   23MPD2    H2  358   2.828   2.483  14.702 -0.9364  0.4002  0.2897
   23MPD2    H3  359   2.899   2.649  14.536  0.9097  0.9228  0.8941
   23MPD2     N  360   2.499   2.869  14.534  0.1205  0.1236 -0.1957
   23MPD2    H5  361   2.540   2.932  14.466  0.8126 -0.8618 -0.6793
   23MPD2    N1  362   2.591   2.490  14.834  0.0054 -0.0047 -0.0060
   23MPD2    H7  363   2.501   2.519  14.872 -0.3910 -0.9930 -0.1674
   24TCq2    C1  364   2.367   2.889  14.546  0.2508  0.0715  0.1303
   24TCq2    O2  365   2.293   2.837  14.631 -0.5294  0.1686 -0.2374
   24TCq2    C2  366   2.314   2.977  14.444 -0.1446 -0.3873 -0.2133
   24TCq2    C3  367   2.391   2.988  14.325 -0.2620  0.1335 -0.0419
   24TCq2    C4  368   2.322   3.043  14.222 -0.1692 -0.2582  0.6340
   24TCq2    C5  369   2.204   3.111  14.234  0.6856 -0.0680 -0.0200
   24TCq2    C6  370   2.138   3.099  14.358  0.1373  0.3274  0.4900
   24TCq2    C7  371   2.187   3.033  14.464  0.1541 -0.3942 -0.2144
   24TCq2    C8  372   1.993   3.117  14.362 -0.6936 -0.4326  0.5463
   24TCq2    O4  373   1.937   3.060  14.461 -0.6448  0.0847 -0.2080
   24TCq2    C9  374   2.377   3.021  14.084  0.5674 -0.6649 -0.3312
   24TCq2    O5  375   2.305   3.051  13.981 -0.0934  0.3037  0.2452
   24TCq2    O6  376   2.496   2.985  14.077  0.1296  0.2897 -0.3094
   24TCq2    H2  377   2.485   2.940  14.302 -0.3954 -0.1768  0.0446
   24TCq2    H3  378   2.167   3.152  14.141  1.0181  0.2206 -0.0277
   24TCq2    H4  379   2.141   3.019  14.561  0.9751  0.0595  0.2366
   25TMC2    C1  380   0.679   4.197  11.256  0.3446 -0.1707 -0.7389
   25TMC2    C2  381   0.546   4.149  11.264 -0.0985 -0.5533  0.5543
   25TMC2    C3  382   0.500   4.146  11.388  0.7617  0.0371  0.2459
   25TMC2    C4  383   0.753   4.240  11.366 -0.7163  0.1293  0.1654
   25TMC2    C5  384   0.692   4.235  11.491 -0.2253 -0.5176  0.4926
   25TMC2    C6  385   0.561   4.197  11.502  1.1274 -0.2177  0.7122
   25TMC2     C  386   0.742   4.208  11.128  0.4267  0.0992  0.4259
   25TMC2     O  387   0.833   4.289  11.107  0.4770 -0.3468  0.4910
   25TMC2     H  388   0.486   4.125  11.177 -0.2173 -0.1923  0.5379
   25TMC2    H1  389   0.850   4.287  11.352 -0.3157 -0.0351  2.4388
   25TMC2    H2  390   0.505   4.203  11.595  2.3205  0.9929  1.3714
   25TMC2    C7  391   0.755   4.285  11.613  0.1076  0.3052 -0.2280
   25TMC2    C8  392   0.364   4.096  11.418  0.0451  0.0778 -0.1190
   25TMC2    O1  393   0.682   4.294  11.713 -0.6311 -0.2219 -0.0168
   25TMC2    O2  394   0.295   4.130  11.510  0.2729  0.2578  0.6002
   25TMC2    O5  395   0.327   4.011  11.322  0.0045 -0.0516 -0.1949
   25TMC2    H5  396   0.407   3.974  11.279  1.3632  3.7777 -0.9674
   26MPD2     C  397   0.807   4.010  10.657  0.5178 -0.3814 -0.5358
   26MPD2    C1  398   0.726   3.921  10.723 -0.8686  0.0217 -0.6493
   26MPD2    C2  399   0.699   3.950  10.856  0.6562 -0.2199  0.5147
   26MPD2    C3  400   0.738   4.069  10.915 -0.6582 -0.0832 -0.2729
   26MPD2    C4  401   0.804   4.164  10.838  0.0135  0.0090  0.6383
   26MPD2    C5  402   0.840   4.130  10.708 -0.4167 -0.5912  0.0766
   26MPD2     H  403   0.651   3.881  10.924 -1.1128 -1.3966 -1.9327
   26MPD2    H1  404   0.829   4.265  10.868  0.1385  0.4725 -1.0072
   26MPD2    H2  405   0.847   3.974  10.562  1.7219 -1.0390  0.2259
   26MPD2    H3  406   0.896   4.202  10.649 -1.4528  0.7531  0.7346
   26MPD2     N  407   0.701   4.098  11.053  0.1799  0.0250  0.1000
   26MPD2    H5  408   0.638   4.029  11.094 -1.2196  1.4123  0.3100
   26MPD2    N1  409   0.692   3.791  10.664  0.6222 -0.0574  0.5380
   26MPD2    H7  410   0.739   3.769  10.576 -0.2880 -1.9257  0.5318
   27TMC2    C1  411   4.630   1.765  11.891  0.2748  0.0779 -0.3145
   27TMC2    C2  412   4.648   1.729  11.765 -0.2741  0.2392  0.0308
   27TMC2    C3  413   4.610   1.818  11.668  0.0161 -0.2097 -0.4440
   27TMC2    C4  414   4.553   1.876  11.924  0.3057  0.7517 -0.0403
   27TMC2    C5  415   4.518   1.963  11.827  0.1322  0.4587  0.2522
   27TMC2    C6  416   4.550   1.939  11.699  0.3210  0.5351  0.4819
   27TMC2     C  417   4.639   1.654  11.988  0.3733  0.2937 -0.7246
   27TMC2     O  418   4.681   1.549  11.944 -0.2710  0.3349 -0.0144
   27TMC2     H  419   4.686   1.634  11.730 -0.9690 -0.0633  0.1000
   27TMC2    H1  420   4.550   1.906  12.028  4.3516  1.3723 -0.1078
   27TMC2    H2  421   4.512   2.001  11.619  2.3220  2.5352  1.0871
   27TMC2    C7  422   4.475   2.094  11.864  1.0187  0.0680 -0.6015
   27TMC2    C8  423   4.604   1.786  11.527  0.0758  0.3594 -0.4822
   27TMC2    O1  424   4.501   2.192  11.797  0.9159 -0.4035  0.0917
   27TMC2    O2  425   4.511   1.826  11.457 -0.0071 -0.1237 -0.1126
   27TMC2    O5  426   0.009   1.773  11.483 -0.8344 -0.7102  0.3473
   27TMC2    H5  427   0.075   1.744  11.548  1.4907 -1.3209 -2.2848
   28MPD2     C  428   4.367   1.444  12.382  1.5492  0.1335  0.2969
   28MPD2    C1  429   4.340   1.578  12.366 -0.8231  0.1111 -0.5458
   28MPD2    C2  430   4.402   1.646  12.259 -0.2191  0.3991  0.0943
   28MPD2    C3  431   4.497   1.590  12.184 -0.1810 -0.1859 -0.2306
   28MPD2    C4  432   4.529   1.454  12.192 -0.0523  0.5236  0.2971
   28MPD2    C5  433   4.459   1.385  12.291 -0.4721 -0.2025 -0.0123
   28MPD2     H  434   4.385   1.752  12.246  1.1057  0.2620 -2.6977
   28MPD2    H1  435   4.599   1.406  12.126 -1.7741 -1.2429 -0.2409
   28MPD2    H2  436   4.320   1.380  12.455  1.3599  1.0735  1.0030
   28MPD2    H3  437   4.483   1.280  12.298 -0.1175  0.0129  1.8851
   28MPD2     N  438   4.542   1.675  12.079 -0.1476 -0.0360 -0.2797
   28MPD2    H5  439   4.511   1.771  12.089 -2.0028 -1.0463  3.8348
   28MPD2    N1  440   4.253   1.640  12.458  0.3899 -0.5383 -0.4469
   28MPD2    H7  441   4.212   1.574  12.522  0.9551 -1.9146 -1.4955
   29MPD2     C  442   4.035   4.682  14.033  0.4718  0.2392  0.6799
   29MPD2    C1  443   4.159   4.643  13.990  0.5041 -0.0288 -0.6971
   29MPD2    C2  444   4.270   4.710  14.044  0.5673  0.3953 -0.1591
   29MPD2    C3  445   4.263   0.083  14.135 -0.8487 -0.0334 -0.1096
   29MPD2    C4  446   4.140   0.131  14.167 -0.3380  0.8472 -0.4736
   29MPD2    C5  447   4.034   0.065  14.108 -0.0873  0.1624 -0.2413
   29MPD2     H  448   4.367   4.679  14.008  0.4749  1.6206 -1.4751
   29MPD2    H1  449   4.110   0.203  14.242  0.5449  1.5906 -0.8364
   29MPD2    H2  450   3.941   4.638  14.001  1.2130 -0.0932 -1.0546
   29MPD2    H3  451   3.937   0.098  14.141  0.1517 -0.1999  0.8171
   29MPD2     N  452   4.376   0.142  14.196 -0.5707  0.1861 -0.2211
   29MPD2    H5  453   4.351   0.222  14.253 -2.6006 -0.0590 -0.7667
   29MPD2    N1  454   4.181   4.529  13.903 -0.3585  0.2489 -0.1089
   29MPD2    H7  455   4.277   4.515  13.872 -0.1107  1.5732  0.0437
   30TCq2    C1  456   4.510   0.102  14.172  0.8742 -0.2419 -0.1282
   30TCq2    O2  457   4.565   0.005  14.118  0.2756  0.3360  0.1106
   30TCq2    C2  458   4.593   0.189  14.258  0.4124  0.2413 -1.0069
   30TCq2    C3  459   4.705   0.129  14.312  0.4969 -0.7622  0.3723
   30TCq2    C4  460   0.035   0.179  14.427 -0.4036 -0.4191 -0.6949
   30TCq2    C5  461   4.725   0.301  14.464  0.2535  0.3993  0.2978
   30TCq2    C6  462   4.638   0.376  14.385 -0.9735 -0.2609  0.3671
   30TCq2    C7  463   4.569   0.320  14.283  0.3473 -0.2144 -0.7208
   30TCq2    C8  464   4.623   0.520  14.418 -0.7275 -0.0270  0.2529
   30TCq2    O4  465   4.629   0.545  14.536 -0.0852  0.3564 -0.5543
   30TCq2    C9  466   0.134   0.105  14.501 -0.2740  0.1352  0.4252
   30TCq2    O5  467   0.166   4.711  14.466  0.7562 -0.4659  0.3273
   30TCq2    O6  468   0.198   0.166  14.592 -0.1894 -0.0327  0.3115
   30TCq2    H2  469   4.726   0.029  14.277 -1.3964 -0.0627 -2.7112
   30TCq2    H3  470   0.041   0.334  14.558  0.9615 -1.0253  0.4769
   30TCq2    H4  471   4.491   0.366  14.224  0.6712  1.9498  0.5558
   31MPD2     C  472   2.392   3.299  14.640 -0.7059  0.0983  0.5599
   31MPD2    C1  473   2.277   3.373  14.662  0.2309 -0.0174 -0.1036
   31MPD2    C2  474   2.183   3.335  14.756 -0.0509 -0.0350 -0.1649
   31MPD2    C3  475   2.210   3.215  14.829 -0.0198  0.0228 -0.1509
   31MPD2    C4  476   2.326   3.151  14.807  0.9511 -0.3778 -0.1892
   31MPD2    C5  477   2.420   3.193  14.720 -0.0428 -1.1774  0.4689
   31MPD2     H  478   2.092   3.390  14.773 -1.1123 -2.2266  1.2428
   31MPD2    H1  479   2.353   3.055  14.851  0.0099 -0.1419  0.9075
   31MPD2    H2  480   2.464   3.332  14.566  1.0892  1.0460  2.7406
   31MPD2    H3  481   2.508   3.130  14.714  2.3204  2.3183 -1.2549
   31MPD2     N  482   2.121   3.145  14.918  0.6049 -0.2448  0.1877
   31MPD2    H5  483   2.152   3.059  14.962  0.3564 -0.1686  0.5132
   31MPD2    N1  484   2.264   3.497  14.587  0.2384 -0.0303 -0.0293
   31MPD2    H7  485   2.346   3.511  14.529  1.3125 -1.1766  1.1929
   32TCq2    C1  486   1.985   3.177  14.939 -0.1636  0.1875 -0.2030
   32TCq2    O2  487   1.920   3.251  14.869 -0.2838  0.6199  0.8991
   32TCq2    C2  488   1.924   3.094  15.043  0.7811  0.3771 -0.3348
   32TCq2    C3  489   1.792   3.084  15.035 -0.0806 -0.6266  0.4484
   32TCq2    C4  490   1.734   2.986  15.111 -0.3352 -0.9792  0.3861
   32TCq2    C5  491   1.805   2.917  15.202 -0.0209 -0.4186 -0.0314
   32TCq2    C6  492   1.941   2.946  15.214  0.2874  0.1934  0.5878
   32TCq2    C7  493   2.010   3.026  15.127 -0.7867  0.0667  0.5007
   32TCq2    C8  494   2.008   2.887  15.332  0.1485 -0.1196  0.4199
   32TCq2    O4  495   2.060   2.775  15.319 -0.0493  0.9301  0.3566
   32TCq2    C9  496   1.592   2.972  15.090 -0.0824  0.1295  0.1208
   32TCq2    O5  497   1.561   2.930  14.978 -0.1081 -0.7993 -0.2333
   32TCq2    O6  498   1.520   2.950  15.193 -0.1483  0.0413 -0.0027
   32TCq2    H2  499   1.726   3.141  14.971 -0.4965  0.1839  1.6096
   32TCq2    H3  500   1.769   2.843  15.272  2.3586 -1.5794 -0.0368
   32TCq2    H4  501   2.109   3.067  15.145 -0.3126 -0.7620 -0.2338
   33MPD2     C  502   2.678   0.428  10.035  0.3802 -0.5550 -0.5745
   33MPD2    C1  503   2.628   0.501  10.139 -0.6109  0.1975 -0.1854
   33MPD2    C2  504   2.569   0.623  10.106  0.0321 -0.3497  0.7969
   33MPD2    C3  505   2.585   0.681   9.983 -0.0634  0.8848 -0.0875
   33MPD2    C4  506   2.646   0.615   9.883  1.0222 -0.1332 -0.0482
   33MPD2    C5  507   2.689   0.487   9.908  0.2819 -0.2578 -0.2234
   33MPD2     H  508   2.530   0.681  10.189  1.0966 -0.2830  1.2522
   33MPD2    H1  509   2.648   0.644   9.779  0.4753  0.7588  0.1948
   33MPD2    H2  510   2.739   0.338  10.038  0.1914 -0.7177 -1.7079
   33MPD2    H3  511   2.740   0.431   9.831  2.9044  0.1462  1.2131
   33MPD2     N  512   2.537   0.810   9.949  0.0240 -0.5276 -0.0455
   33MPD2    H5  513   2.577   0.854   9.867 -0.4198  0.7937  0.4556
   33MPD2    N1  514   2.632   0.448  10.268  0.4418  1.0313 -0.4466
   33MPD2    H7  515   2.685   0.362  10.281  1.0217  1.5961  0.8671
   34TCq2    C1  516   2.439   0.873  10.014 -0.1632  0.2053  0.0583
   34TCq2    O2  517   2.364   0.833  10.098 -0.4147 -0.5012  0.4082
   34TCq2    C2  518   2.405   0.994   9.957  0.7596 -0.2627  0.4347
   34TCq2    C3  519   2.289   1.056   9.990  0.0820 -0.4363 -0.1327
   34TCq2    C4  520   2.260   1.182   9.949 -0.2986 -0.3102  0.4775
   34TCq2    C5  521   2.337   1.258   9.867  0.3568 -0.5275 -0.4592
   34TCq2    C6  522   2.451   1.190   9.824 -0.3871 -0.3811 -0.1821
   34TCq2    C7  523   2.483   1.062   9.868 -0.0041 -0.1039  0.3484
   34TCq2    C8  524   2.533   1.252   9.717  0.6880 -0.0838  0.3014
   34TCq2    O4  525   2.515   1.367   9.685 -0.6571  0.2427  0.1103
   34TCq2    C9  526   2.128   1.225   9.986  0.0589 -0.0017  0.0088
   34TCq2    O5  527   2.068   1.318   9.928 -0.2452 -0.0164  0.4272
   34TCq2    O6  528   2.072   1.174  10.086 -0.2464 -0.0863 -0.0475
   34TCq2    H2  529   2.214   0.992  10.034  1.7946 -1.8849  0.7145
   34TCq2    H3  530   2.314   1.361   9.841 -1.8995 -1.2284 -1.2393
   34TCq2    H4  531   2.587   1.033   9.856  0.1029 -0.1919  1.4414
   35MPD2     C  532   3.689   2.318  11.875  0.0518  0.3432 -0.0942
   35MPD2    C1  533   3.624   2.213  11.823 -0.7919 -0.5188  0.0772
   35MPD2    C2  534   3.540   2.228  11.715  0.0032 -0.7152 -0.2893
   35MPD2    C3  535   3.567   2.340  11.634 -0.0849 -0.3631 -0.1122
   35MPD2    C4  536   3.648   2.445  11.671 -0.7312 -0.4820 -0.3606
   35MPD2    C5  537   3.704   2.434  11.799  0.8232 -1.0584 -0.2733
   35MPD2     H  538   3.484   2.141  11.683  1.9300 -2.6054  1.4756
   35MPD2    H1  539   3.679   2.525  11.604  2.8917 -0.6315  1.1156
   35MPD2    H2  540   3.742   2.321  11.969  0.4626  2.7137 -0.4110
   35MPD2    H3  541   3.765   2.518  11.830 -1.9909  0.7476  0.2605
   35MPD2     N  542   3.509   2.337  11.508  0.2318  0.1150 -0.0929
   35MPD2    H5  543   3.445   2.259  11.492  0.8464 -0.1434 -1.2584
   35MPD2    N1  544   3.612   2.099  11.908 -0.0555  1.1889 -0.7265
   35MPD2    H7  545   3.656   2.110  11.999  0.2583  1.5879 -0.9258
   36TCq2    C1  546   3.532   2.424  11.403 -0.6010 -0.1764 -0.2734
   36TCq2    O2  547   3.601   2.527  11.393 -0.7380  0.0879 -0.4029
   36TCq2    C2  548   3.457   2.390  11.285  0.5351  0.1339  0.6756
   36TCq2    C3  549   3.467   2.470  11.182  0.0857 -0.6203  0.3531
   36TCq2    C4  550   3.392   2.452  11.066  0.1565  0.4071  0.0369
   36TCq2    C5  551   3.292   2.360  11.063 -0.1594  0.0898 -0.2604
   36TCq2    C6  552   3.285   2.268  11.170  0.3477  0.9111 -0.4103
   36TCq2    C7  553   3.366   2.281  11.278 -0.0541 -0.3743  0.0919
   36TCq2    C8  554   3.224   2.141  11.157 -0.1242  0.4436 -0.2751
   36TCq2    O4  555   3.239   2.051  11.239  0.3508  0.0681 -0.0853
   36TCq2    C9  556   3.395   2.539  10.951 -0.5311 -0.0199 -0.0347
   36TCq2    O5  557   3.348   2.497  10.846  0.0066  1.1312  0.4940
   36TCq2    O6  558   3.460   2.643  10.961  0.0743  0.2217 -0.1737
   36TCq2    H2  559   3.540   2.550  11.185 -1.1702  0.4044  3.3980
   36TCq2    H3  560   3.224   2.353  10.979 -0.6621 -2.1099  0.3344
   36TCq2    H4  561   3.356   2.204  11.354  0.8196 -0.9801 -0.4139
   37TMC2    C1  562   0.059   2.346  12.321 -0.4811 -0.6785 -0.0308
   37TMC2    C2  563   0.005   2.229  12.359  0.1413  0.7579  0.0183
   37TMC2    C3  564   4.725   2.127  12.270  0.1999 -0.2170 -0.5647
   37TMC2    C4  565   0.118   2.364  12.198  1.4458 -0.1431  0.6572
   37TMC2    C5  566   0.100   2.261  12.110  0.9264  0.2100  0.0182
   37TMC2    C6  567   0.045   2.146  12.145  0.7036 -0.5077  0.3798
   37TMC2     C  568   0.104   2.432  12.422 -0.2082 -0.0350  0.2027
   37TMC2     O  569   0.037   2.439  12.524 -0.7041 -0.0002  0.3000
   37TMC2     H  570   4.686   2.219  12.457  1.8797 -1.4377  0.6165
   37TMC2    H1  571   0.145   2.463  12.164  0.9376  0.2705  1.4585
   37TMC2    H2  572   0.049   2.063  12.075 -2.8820 -1.0595  0.8107
   37TMC2    C7  573   0.190   2.270  11.997  0.4345  0.2047  0.4607
   37TMC2    C8  574   4.676   1.996  12.307 -0.4125 -0.0751  0.7405
   37TMC2    O1  575   0.303   2.306  12.016 -0.3973  1.2408 -0.2132
   37TMC2    O2  576   4.605   1.929  12.230  0.6944  0.1168 -0.2033
   37TMC2    O5  577   0.002   1.958  12.421 -0.2501 -0.2586 -0.0788
   37TMC2    H5  578   0.086   2.003  12.441  0.5734 -2.0710  0.5598
   38MPD2     C  579   0.540   2.552  12.686  0.5589  0.8478 -0.2513
   38MPD2    C1  580   0.573   2.533  12.549  0.3257 -0.7537  0.3376
   38MPD2    C2  581   0.467   2.500  12.464  1.1283  1.0953  0.5238
   38MPD2    C3  582   0.337   2.481  12.505 -0.3383 -0.4737 -0.2210
   38MPD2    C4  583   0.313   2.500  12.641 -0.0878 -0.1560  0.0515
   38MPD2    C5  584   0.415   2.531  12.728 -0.0220 -0.6602 -0.8619
   38MPD2     H  585   0.481   2.501  12.356  1.3969 -0.2560  0.5451
   38MPD2    H1  586   0.220   2.475  12.690 -1.1584  0.4753 -1.6606
   38MPD2    H2  587   0.620   2.568  12.757 -0.8060 -0.9543  1.6781
   38MPD2    H3  588   0.388   2.539  12.832  2.1423 -0.2615 -0.3339
   38MPD2     N  589   0.239   2.444  12.410 -0.5156 -0.1629  0.1829
   38MPD2    H5  590   0.277   2.438  12.316  0.3520 -0.2553  0.5386
   38MPD2    N1  591   0.698   2.565  12.495  0.2089 -0.0547 -0.2945
   38MPD2    H7  592   0.699   2.533  12.398  0.1194  2.8394 -1.2417
   39MPD2     C  593   3.118   4.146   1.774 -0.1182 -0.1282  0.8115
   39MPD2    C1  594   3.093   4.278   1.748  0.1828  0.1305 -0.0916
   39MPD2    C2  595   2.970   4.312   1.686  0.5926  0.0791  0.1616
   39MPD2    C3  596   2.872   4.215   1.667 -0.0283  0.1772 -0.4020
   39MPD2    C4  597   2.906   4.086   1.698 -0.3514  0.2182 -1.1903
   39MPD2    C5  598   3.026   4.049   1.743  0.2460  0.2528 -0.1391
   39MPD2     H  599   2.947   4.415   1.661  0.5732 -0.3936 -1.7344
   39MPD2    H1  600   2.828   4.012   1.687  0.9037 -1.1817 -0.8647
   39MPD2    H2  601   3.216   4.119   1.811  0.2060  0.1116  0.1290
   39MPD2    H3  602   3.050   3.948   1.775 -1.4811 -0.3447 -0.7084
   39MPD2     N  603   2.742   4.243   1.614  0.0837  0.0460 -0.2189
   39MPD2    H5  604   2.691   4.163   1.580 -0.6924  1.0043 -1.2860
   39MPD2    N1  605   3.201   4.366   1.751 -0.6996  0.3750 -1.0816
   39MPD2    H7  606   3.292   4.327   1.772 -0.6461  0.6146 -0.8632
   40TCq2    C1  607   3.192   4.498   1.706 -0.0349 -0.1311 -0.1593
   40TCq2    O2  608   3.094   4.574   1.711 -0.2683  0.1273 -0.1643
   40TCq2    C2  609   3.325   4.558   1.676  0.2205  0.9706 -0.6697
   40TCq2    C3  610   3.331   4.694   1.674  0.1599 -0.6615 -0.2475
   40TCq2    C4  611   3.448   0.031   1.646  0.1261 -0.6485  0.4920
   40TCq2    C5  612   3.557   4.690   1.607  0.2474 -0.5973 -0.1683
   40TCq2    C6  613   3.552   4.555   1.627  0.3494  0.2443 -0.4245
   40TCq2    C7  614   3.439   4.486   1.654 -0.3906 -0.2287  0.0592
   40TCq2    C8  615   3.675   4.478   1.610 -0.1587  0.1591  0.3073
   40TCq2    O4  616   3.689   4.373   1.671 -0.1349 -0.0872  0.5201
   40TCq2    C9  617   3.454   0.180   1.640  0.4687  0.0429  0.3006
   40TCq2    O5  618   3.567   0.229   1.611 -0.1818  0.2341 -0.6930
   40TCq2    O6  619   3.342   0.236   1.657 -0.1863  0.6183 -0.5348
   40TCq2    H2  620   3.244   0.028   1.697 -0.2687 -1.1499 -0.5705
   40TCq2    H3  621   3.644   0.021   1.578 -1.0746  0.5812 -1.7989
   40TCq2    H4  622   3.448   4.379   1.671 -3.4258 -0.1776  2.0781
   41TMC2    C1  623   3.002   2.205  13.866  0.1720 -0.3440  0.0583
   41TMC2    C2  624   2.931   2.135  13.772 -0.2403  0.5136 -0.1759
   41TMC2    C3  625   2.950   2.170  13.644 -0.1753 -0.0598 -0.1660
   41TMC2    C4  626   3.106   2.280  13.834  0.8086  0.0973  0.0565
   41TMC2    C5  627   3.129   2.304  13.704  0.5684 -0.2337  0.6943
   41TMC2    C6  628   3.042   2.260  13.601  0.4943 -0.3636 -0.2141
   41TMC2     C  629   2.989   2.181  14.007  0.0496  0.4501  0.0921
   41TMC2     O  630   2.914   2.086  14.036  0.6741 -0.1858 -0.5365
   41TMC2     H  631   2.855   2.065  13.805  0.1208 -0.2625 -0.9773
   41TMC2    H1  632   3.176   2.318  13.907  1.6284  1.7619 -1.6271
   41TMC2    H2  633   3.063   2.272  13.496  2.9857 -1.4427  0.1621
   41TMC2    C7  634   3.205   2.430  13.689 -0.0065 -0.2151 -0.8239
   41TMC2    C8  635   2.888   2.079  13.545 -0.1442  0.0237 -0.1346
   41TMC2    O1  636   3.257   2.481  13.788  0.0701  0.5918  0.4219
   41TMC2    O2  637   2.940   2.077  13.438 -0.1759 -0.8025  0.0385
   41TMC2    O5  638   2.761   2.049  13.577  0.1408  0.0629 -0.1429
   41TMC2    H5  639   2.725   2.088  13.660  0.7574  2.9638 -1.2299
   42MPD2     C  640   3.031   2.185  14.295  0.4167 -0.5073 -0.2599
   42MPD2    C1  641   3.043   2.295  14.218  0.9339 -0.4331 -0.1159
   42MPD2    C2  642   3.075   2.416  14.271 -0.5311 -0.5743 -0.6683
   42MPD2    C3  643   3.105   2.431  14.407  0.5332 -0.8591  0.2554
   42MPD2    C4  644   3.093   2.319  14.486 -0.2581  0.2631  0.4438
   42MPD2    C5  645   3.055   2.195  14.432  0.6865  0.7906  0.4228
   42MPD2     H  646   3.077   2.507  14.213  1.5978  0.0351  0.3709
   42MPD2    H1  647   3.114   2.327  14.592 -0.4021 -1.3804  0.5972
   42MPD2    H2  648   3.002   2.091  14.250  0.7389 -1.0794  0.7190
   42MPD2    H3  649   3.055   2.101  14.487 -2.5073  0.5426 -0.0126
   42MPD2     N  650   3.152   2.551  14.461 -0.2570  0.0389  0.0430
   42MPD2    H5  651   3.178   2.545  14.559  2.3220  1.6732 -0.5402
   42MPD2    N1  652   3.017   2.292  14.080 -0.0774  0.2621 -0.3135
   42MPD2    H7  653   3.046   2.373  14.028 -3.2074  0.4019 -1.8003
   43MPD2     C  654   3.785   0.874   0.834 -0.6873  0.1359  0.5687
   43MPD2    C1  655   3.905   0.847   0.769  0.3884 -0.4362 -0.2684
   43MPD2    C2  656   3.995   0.955   0.773  0.1704  0.4795  0.2274
   43MPD2    C3  657   3.961   1.076   0.828 -0.4270 -0.7359 -0.3098
   43MPD2    C4  658   3.843   1.094   0.894  0.4637  0.4703 -1.0505
   43MPD2    C5  659   3.762   0.992   0.899 -0.0772 -0.0100  0.4776
   43MPD2     H  660   4.097   0.946   0.737  1.5072  0.7916  3.9824
   43MPD2    H1  661   3.808   1.182   0.946 -0.2054  0.2372 -1.1157
   43MPD2    H2  662   3.706   0.801   0.841 -1.2969  0.9447  2.1465
   43MPD2    H3  663   3.667   1.004   0.950  0.4702  0.3209  1.4236
   43MPD2     N  664   4.047   1.186   0.815  0.9747  0.4331  0.0988
   43MPD2    H5  665   4.010   1.268   0.862 -0.8175  0.1939 -0.8979
   43MPD2    N1  666   3.953   0.721   0.718  0.5657  0.1303 -0.1705
   43MPD2    H7  667   4.042   0.704   0.671 -0.4668  0.5382 -2.2409
   44TCq2    C1  668   4.360   1.503   1.031  0.5695 -0.5350  0.0939
   44TCq2    O2  669   4.429   1.601   1.052  0.3350  0.5685  0.0450
   44TCq2    C2  670   4.304   1.484   0.896 -0.7718  0.4461  0.4751
   44TCq2    C3  671   4.327   1.569   0.790 -0.0200 -0.3849  0.2871
   44TCq2    C4  672   4.303   1.531   0.663  1.1069 -0.1071  0.1742
   44TCq2    C5  673   4.246   1.411   0.637  0.1010 -0.2045 -0.3666
   44TCq2    C6  674   4.207   1.336   0.746 -0.6651 -0.5573  0.0124
   44TCq2    C7  675   4.223   1.378   0.874  0.0268 -0.3316  0.0961
   44TCq2    C8  676   4.153   1.204   0.732  0.8818 -0.2822  0.5052
   44TCq2    O4  677   4.200   1.135   0.641  0.0029  0.1615 -0.7646
   44TCq2    C9  678   4.329   1.621   0.551  0.4740  0.1589  0.3657
   44TCq2    O5  679   4.296   1.583   0.436  0.3307 -0.1085  0.1100
   44TCq2    O6  680   4.384   1.729   0.585 -0.1350 -0.0046  0.2966
   44TCq2    H2  681   4.370   1.666   0.813  1.1602 -0.5555 -1.1984
   44TCq2    H3  682   4.241   1.372   0.536 -0.5249  0.5426 -0.6191
   44TCq2    H4  683   4.192   1.306   0.949  0.8475 -0.4414  0.3287
   45TMC2    C1  684   0.935   1.654   9.499  0.5683  0.2944  0.3233
   45TMC2    C2  685   1.059   1.647   9.445  0.1174  0.1988  0.8989
   45TMC2    C3  686   1.129   1.763   9.470  0.1201  0.0222  0.7792
   45TMC2    C4  687   0.876   1.749   9.576 -0.1780 -0.6841  0.1445
   45TMC2    C5  688   0.956   1.860   9.601  0.2119  0.2665 -0.1609
   45TMC2    C6  689   1.083   1.870   9.544 -0.4497 -0.3877 -0.2249
   45TMC2     C  690   0.854   1.539   9.464  0.0819  0.1581  0.1095
   45TMC2     O  691   0.884   1.479   9.364 -0.4825  0.5506  0.6219
   45TMC2     H  692   1.099   1.561   9.394  3.8685  1.4347  1.7309
   45TMC2    H1  693   0.776   1.734   9.615  0.2099  0.1897  1.4493
   45TMC2    H2  694   1.143   1.960   9.551  0.5303 -1.0811  0.1813
   45TMC2    C7  695   0.935   1.929   9.727 -0.2885 -0.2233 -0.1602
   45TMC2    C8  696   1.263   1.778   9.430 -0.0682 -1.2249  0.2440
   45TMC2    O1  697   0.824   1.915   9.776 -0.0006  0.3185 -0.3411
   45TMC2    O2  698   1.348   1.841   9.487 -0.2234 -0.9293 -0.1562
   45TMC2    O5  699   1.290   1.700   9.322  0.2022  0.6149  0.6688
   45TMC2    H5  700   1.207   1.690   9.269 -0.5094  1.3140  1.6474
   46MPD2     C  701   0.658   1.316   9.418 -0.3274  1.2992 -0.6224
   46MPD2    C1  702   0.652   1.413   9.515 -0.4071 -0.1720 -0.9702
   46MPD2    C2  703   0.541   1.413   9.598  0.4689 -0.1432  0.5865
   46MPD2    C3  704   0.441   1.313   9.600  0.1583  0.1137 -0.3604
   46MPD2    C4  705   0.456   1.208   9.513 -0.7321  0.5558  0.1161
   46MPD2    C5  706   0.560   1.214   9.418 -0.0591  0.0081  0.3400
   46MPD2     H  707   0.528   1.499   9.662  3.2477 -1.7083  3.2475
   46MPD2    H1  708   0.396   1.118   9.503 -1.1863  0.7901  0.7392
   46MPD2    H2  709   0.736   1.317   9.342  0.8106 -0.5524  0.5276
   46MPD2    H3  710   0.552   1.151   9.330 -2.6457  1.9136 -0.7963
   46MPD2     N  711   0.322   1.325   9.672  0.7055 -0.1690  0.2482
   46MPD2    H5  712   0.315   1.411   9.724  2.0738  0.0188  0.1220
   46MPD2    N1  713   0.744   1.520   9.540 -0.2717  0.0711 -0.0095
   46MPD2    H7  714   0.717   1.586   9.611  1.3074  0.1438  0.5142
   47TMC2    C1  715   3.270   2.542   9.270  0.1294 -0.2150 -0.1204
   47TMC2    C2  716   3.316   2.530   9.143 -0.5186  0.1578 -0.4309
   47TMC2    C3  717   3.221   2.517   9.044 -0.5354 -0.1685 -0.7302
   47TMC2    C4  718   3.139   2.561   9.294  0.3211 -0.0524 -0.2791
   47TMC2    C5  719   3.047   2.563   9.193  0.3305 -0.5077 -0.2577
   47TMC2    C6  720   3.089   2.542   9.066 -0.1131 -0.1412 -0.0209
   47TMC2     C  721   3.364   2.573   9.378 -0.2142 -0.7066  0.0111
   47TMC2     O  722   3.454   2.647   9.343  0.5805  0.1927  0.3854
   47TMC2     H  723   3.417   2.510   9.109  0.2728  1.5623  1.1139
   47TMC2    H1  724   3.105   2.564   9.397 -0.0598  1.6523 -0.4546
   47TMC2    H2  725   3.007   2.544   8.994  1.0505  1.0055 -1.3293
   47TMC2    C7  726   2.912   2.565   9.210 -0.1791  0.3503 -0.2753
   47TMC2    C8  727   3.268   2.509   8.910  0.2354  0.7432  0.6651
   47TMC2    O1  728   2.834   2.524   9.122 -0.4497  0.5030 -0.2878
   47TMC2    O2  729   3.381   2.537   8.873 -0.1074  0.4105  0.5758
   47TMC2    O5  730   3.191   2.407   8.852  0.4836  0.0087  0.1604
   47TMC2    H5  731   3.126   2.376   8.919  1.6864 -1.2093  0.7593
   48MPD2     C  732   3.534   2.594   9.615  0.2459  0.3187 -0.2773
   48MPD2    C1  733   3.436   2.504   9.602 -0.0871  0.1194  0.6140
   48MPD2    C2  734   3.422   2.406   9.701 -0.4365  0.4099  0.5021
   48MPD2    C3  735   3.489   2.420   9.822  0.3535  0.5244  0.3570
   48MPD2    C4  736   3.591   2.514   9.829  0.2293 -0.2196 -0.1733
   48MPD2    C5  737   3.622   2.591   9.723 -0.6581  0.4810 -0.0744
   48MPD2     H  738   3.356   2.321   9.686 -1.4359  0.9652  1.7831
   48MPD2    H1  739   3.652   2.539   9.915 -0.2128  3.1200 -0.8604
   48MPD2    H2  740   3.543   2.676   9.545 -1.0203  0.5583 -0.1454
   48MPD2    H3  741   3.705   2.661   9.725 -2.0110  2.0728  0.2420
   48MPD2     N  742   3.471   2.319   9.912  0.4786 -0.3113 -0.7025
   48MPD2    H5  743   3.412   2.241   9.887 -0.0121 -0.0657 -0.3075
   48MPD2    N1  744   3.353   2.498   9.491  0.2312  0.4651 -0.0487
   48MPD2    H7  745   3.270   2.443   9.507  0.9325 -1.2574 -2.2672
   49MPD2     C  746   1.131   4.334   9.883  0.3466  0.6697  0.2083
   49MPD2    C1  747   1.103   4.416   9.987  0.0849  0.1614  0.3779
   49MPD2    C2  748   1.001   4.381  10.072  0.4863  0.4903 -0.8615
   49MPD2    C3  749   0.923   4.270  10.062  0.4599  0.4631 -0.6660
   49MPD2    C4  750   0.964   4.178   9.970 -1.2083 -0.6364 -0.1945
   49MPD2    C5  751   1.059   4.215   9.882 -0.4381 -0.2625 -0.1554
   49MPD2     H  752   0.979   4.442  10.159  1.5209 -0.6049  0.1659
   49MPD2    H1  753   0.914   4.083   9.953 -1.4768 -0.4622 -0.3784
   49MPD2    H2  754   1.206   4.349   9.806  0.4753  1.3413  0.4634
   49MPD2    H3  755   1.084   4.138   9.809 -0.0096 -0.6634  0.4105
   49MPD2     N  756   0.817   4.230  10.154 -0.2138  0.3540  0.0281
   49MPD2    H5  757   0.777   4.137  10.153  0.0668  0.2471 -1.3096
   49MPD2    N1  758   1.176   4.533  10.012 -0.1678 -0.2971  0.7303
   49MPD2    H7  759   1.158   4.595  10.090 -1.5152  0.7696 -0.4125
   50TCq2    C1  760   1.274   4.586   9.935  0.3110  0.0843 -0.6794
   50TCq2    O2  761   1.312   4.554   9.825  0.1870 -0.0436 -0.4028
   50TCq2    C2  762   1.309   4.719   9.975 -0.5329 -0.5970  0.1095
   50TCq2    C3  763   1.262   0.041  10.094  0.2043 -0.2893 -0.1489
   50TCq2    C4  764   1.291   0.166  10.129 -0.4289  0.1657 -0.5418
   50TCq2    C5  765   1.359   0.251  10.048 -0.5350  0.2545  0.5767
   50TCq2    C6  766   1.395   0.203   9.922 -0.2248  0.2792 -0.2566
   50TCq2    C7  767   1.375   0.072   9.886  0.2387  0.2121 -0.0750
   50TCq2    C8  768   1.466   0.297   9.839 -0.0618 -0.0049  0.4434
   50TCq2    O4  769   1.540   0.377   9.900 -0.0869 -0.1680  0.0356
   50TCq2    C9  770   1.262   0.215  10.262 -0.3776 -0.0188  0.3023
   50TCq2    O5  771   1.327   0.317  10.306 -0.1877  0.1258 -0.0660
   50TCq2    O6  772   1.196   0.133  10.331 -0.3688 -0.5456  0.1491
   50TCq2    H2  773   1.218   4.702  10.169  1.7676 -1.0510  0.1041
   50TCq2    H3  774   1.357   0.353  10.086 -0.4041  1.0467 -1.5486
   50TCq2    H4  775   1.410   0.034   9.790 -3.8691 -0.9267 -1.1203
   51MPD2     C  776   0.631   4.402   1.404 -0.3548  0.3567 -0.2812
   51MPD2    C1  777   0.713   4.437   1.294  0.0588 -0.6432 -0.3680
   51MPD2    C2  778   0.681   4.543   1.216 -0.1812  0.0127 -0.1019
   51MPD2    C3  779   0.562   4.607   1.237 -0.3135 -0.0166  0.1693
   51MPD2    C4  780   0.470   4.559   1.328 -0.1850  0.5555 -0.5662
   51MPD2    C5  781   0.508   4.468   1.420 -0.4492 -0.1068 -0.7226
   51MPD2     H  782   0.750   4.572   1.137  0.0914  2.6784  1.1115
   51MPD2    H1  783   0.378   4.616   1.331 -1.2886 -1.2798  0.6980
   51MPD2    H2  784   0.640   4.318   1.472 -1.2206  0.6861  0.2423
   51MPD2    H3  785   0.435   4.443   1.496  1.7802  2.2467  2.1996
   51MPD2     N  786   0.519   4.725   1.172  0.3766 -0.1583  0.4799
   51MPD2    H5  787   0.427   0.036   1.194  0.6101  1.0110 -0.5219
   51MPD2    N1  788   0.846   4.385   1.270 -0.2621 -0.0140 -0.0840
   51MPD2    H7  789   0.904   4.429   1.199 -1.5894 -1.3715 -1.9991
   52TCq2    C1  790   0.604   0.082   1.102 -1.0632  0.2753 -0.0757
   52TCq2    O2  791   0.723   0.095   1.123  0.3435 -0.2374 -0.9476
   52TCq2    C2  792   0.532   0.202   1.073 -0.1447  0.2832  0.6070
   52TCq2    C3  793   0.407   0.201   1.031 -0.1569 -0.4105 -0.6140
   52TCq2    C4  794   0.328   0.305   1.056 -0.3844 -0.5106 -0.5082
   52TCq2    C5  795   0.365   0.419   1.122 -0.5240 -0.0759  0.0465
   52TCq2    C6  796   0.500   0.422   1.155 -0.8571 -0.2906 -1.0990
   52TCq2    C7  797   0.585   0.315   1.132  0.0954 -0.5864 -0.8714
   52TCq2    C8  798   0.544   0.545   1.234  0.3623 -0.4082 -0.5169
   52TCq2    O4  799   0.667   0.556   1.243 -0.4666 -0.0767  0.0911
   52TCq2    C9  800   0.190   0.291   1.014 -0.2716 -0.2907 -0.0523
   52TCq2    O5  801   0.156   0.191   0.944  0.4638 -0.1306 -0.0212
   52TCq2    O6  802   0.113   0.378   1.054 -0.2100  0.2489 -0.1309
   52TCq2    H2  803   0.372   0.115   0.975 -1.7966 -0.1927  0.0700
   52TCq2    H3  804   0.293   0.499   1.135  0.7407  0.7941  1.5884
   52TCq2    H4  805   0.686   0.318   1.172  0.1536  0.2411 -1.0728
   53TMC2    C1  806   0.780   2.137  11.576 -0.6589  0.2503 -0.6893
   53TMC2    C2  807   0.874   2.040  11.549 -0.2359  0.5906  0.1593
   53TMC2    C3  808   1.006   2.064  11.581  0.5902 -0.4076 -0.1399
   53TMC2    C4  809   0.820   2.259  11.625  0.6363  0.1710 -0.6024
   53TMC2    C5  810   0.950   2.280  11.661  0.2905  0.7566 -0.1186
   53TMC2    C6  811   1.042   2.174  11.650  0.1730 -0.0817  0.4630
   53TMC2     C  812   0.634   2.107  11.565 -1.0560 -0.3693  0.9406
   53TMC2     O  813   0.604   2.004  11.504  0.2417 -0.2254 -0.1208
   53TMC2     H  814   0.830   1.953  11.501 -1.2064  0.3091  1.5487
   53TMC2    H1  815   0.751   2.342  11.626 -1.5766 -1.6758 -0.5123
   53TMC2    H2  816   1.136   2.178  11.703  0.4228 -0.0782  0.0146
   53TMC2    C7  817   0.966   2.386  11.751  0.3455  0.4152 -0.5894
   53TMC2    C8  818   1.088   1.947  11.582  0.1988 -0.0464 -0.5860
   53TMC2    O1  819   0.870   2.447  11.796  0.1641 -0.0026  0.1455
   53TMC2    O2  820   1.047   1.834  11.569 -1.0015  0.3526  0.2474
   53TMC2    O5  821   1.217   1.986  11.580  0.8926 -0.5198 -0.5270
   53TMC2    H5  822   1.228   2.078  11.547 -0.8078  0.2420  0.9946
   54MPD2     C  823   0.335   2.112  11.546 -0.4938 -0.3050 -0.1845
   54MPD2    C1  824   0.408   2.176  11.646  0.4680  0.6339 -0.3614
   54MPD2    C2  825   0.343   2.230  11.752  0.2307 -0.3810  0.1955
   54MPD2    C3  826   0.204   2.216  11.760 -0.4441 -0.8961 -0.5184
   54MPD2    C4  827   0.129   2.174  11.648  0.1962  0.2797 -0.2101
   54MPD2    C5  828   0.198   2.119  11.545  0.5189 -0.2240  0.5702
   54MPD2     H  829   0.409   2.267  11.830  0.1001 -0.2203  0.2300
   54MPD2    H1  830   0.021   2.176  11.643  0.1782 -1.5736 -0.6500
   54MPD2    H2  831   0.382   2.079  11.454 -0.6713 -0.2259 -0.3028
   54MPD2    H3  832   0.144   2.082  11.459  0.4034  0.8290  0.1884
   54MPD2     N  833   0.126   2.238  11.880  0.1981  0.3599 -0.1393
   54MPD2    H5  834   0.032   2.200  11.877  1.1189 -1.9641  0.5500
   54MPD2    N1  835   0.552   2.190  11.635  0.8755  0.5759 -0.1797
   54MPD2    H7  836   0.603   2.252  11.697  0.7233 -0.6317  1.1421
   55MPD2     C  837   2.205   0.080  17.142 -0.4038 -0.1320  0.2985
   55MPD2    C1  838   2.167   0.070  17.276  0.4348 -0.3327  0.2415
   55MPD2    C2  839   2.130   0.184  17.340  0.6672  0.1499 -0.1458
   55MPD2    C3  840   2.165   0.300  17.283 -0.2510 -0.8267  0.3024
   55MPD2    C4  841   2.210   0.311  17.151 -1.0450 -0.4211 -0.3014
   55MPD2    C5  842   2.218   0.201  17.079  0.4411  0.2565  0.0818
   55MPD2     H  843   2.090   0.183  17.441  0.3809 -0.8426 -0.2659
   55MPD2    H1  844   2.225   0.407  17.103 -0.4501 -0.3327  0.0656
   55MPD2    H2  845   2.231   4.717  17.088  0.5065 -0.0533  0.6111
   55MPD2    H3  846   2.242   0.207  16.973  0.0050  0.2770 -0.0172
   55MPD2     N  847   2.150   0.413  17.366 -0.0160  0.5728 -0.0695
   55MPD2    H5  848   2.108   0.403  17.458  0.2555  1.4364  0.1495
   55MPD2    N1  849   2.169   4.669  17.339  0.3907 -0.7548 -0.0631
   55MPD2    H7  850   2.220   4.594  17.295  1.9668  0.1189  0.2762
   56TCq2    C1  851   2.103   4.640  17.453  0.2715  0.4983  0.3487
   56TCq2    O2  852   2.041   4.712  17.532 -0.2654  0.1367 -0.2500
   56TCq2    C2  853   2.120   4.495  17.488 -0.5920  0.0184 -0.5838
   56TCq2    C3  854   2.164   4.393  17.405  0.1558  0.4516  0.4663
   56TCq2    C4  855   2.203   4.277  17.461  0.5492 -0.6482 -0.5487
   56TCq2    C5  856   2.198   4.258  17.593 -0.2093  0.1041 -0.0644
   56TCq2    C6  857   2.160   4.359  17.679  0.1977  0.0539 -0.4032
   56TCq2    C7  858   2.115   4.481  17.628 -0.2295  0.3162 -0.3340
   56TCq2    C8  859   2.169   4.347   0.115  0.7147  0.4105 -0.3741
   56TCq2    O4  860   2.198   4.241   0.167  0.0351 -0.4085  0.5363
   56TCq2    C9  861   2.268   4.171  17.381 -0.7977 -0.2812  0.9359
   56TCq2    O5  862   2.321   4.080  17.441  0.2665 -0.0390  0.2198
   56TCq2    O6  863   2.233   4.163  17.262  0.3411  0.1044 -0.1393
   56TCq2    H2  864   2.190   4.401  17.300  1.8157  1.4762  0.9447
   56TCq2    H3  865   2.259   4.183  17.641 -0.7758  0.5373  1.3124
   56TCq2    H4  866   2.070   4.563  17.682 -0.3805  0.5151 -0.7610
   57TMC2    C1  867   1.388   1.748  13.713  0.5460 -0.3169  0.3715
   57TMC2    C2  868   1.516   1.746  13.770 -0.0155  0.2035  0.0112
   57TMC2    C3  869   1.598   1.662  13.710 -0.0107  0.0882 -0.6973
   57TMC2    C4  870   1.345   1.675  13.605 -0.3711 -0.4747  0.4484
   57TMC2    C5  871   1.442   1.599  13.544 -0.3281 -0.2376  0.0429
   57TMC2    C6  872   1.567   1.592  13.596  0.8634  0.1825 -0.3838
   57TMC2     C  873   1.306   1.862  13.745 -0.1689  0.0947  0.3795
   57TMC2     O  874   1.248   1.917  13.651  0.2143 -0.1182 -0.5869
   57TMC2     H  875   1.542   1.802  13.859  1.0389 -1.1151  0.5189
   57TMC2    H1  876   1.248   1.695  13.561 -0.9182  1.2105  2.3800
   57TMC2    H2  877   1.648   1.536  13.552  0.1209  1.3258 -3.1582
   57TMC2    C7  878   1.407   1.509  13.436 -0.4194  0.8714 -0.0263
   57TMC2    C8  879   1.726   1.640  13.770  0.3123  0.7124  0.2725
   57TMC2    O1  880   1.506   1.455  13.388 -0.1022 -0.6836 -0.3574
   57TMC2    O2  881   1.797   1.543  13.743  0.1425  0.1786 -0.2297
   57TMC2    O5  882   1.770   1.763  13.813 -0.0826  0.2387 -0.0153
   57TMC2    H5  883   1.701   1.832  13.826 -1.3440 -0.4367 -3.0260
   58MPD2     C  884   1.048   2.163  14.066  0.0551 -0.5147  0.1591
   58MPD2    C1  885   1.059   2.170  13.932  0.7572  0.0336 -0.5697
   58MPD2    C2  886   1.151   2.082  13.869  0.2962 -0.0914  0.7685
   58MPD2    C3  887   1.218   1.984  13.943 -0.1239 -0.3040  0.2942
   58MPD2    C4  888   1.200   1.973  14.076  0.3529  0.3567  0.3072
   58MPD2    C5  889   1.122   2.067  14.139 -0.6403  0.3704 -0.5304
   58MPD2     H  890   1.165   2.096  13.762 -1.0586  0.2339  0.6323
   58MPD2    H1  891   1.265   1.901  14.124  2.1071 -0.4219 -3.2879
   58MPD2    H2  892   0.987   2.224  14.131  3.5711  0.3979  2.6295
   58MPD2    H3  893   1.111   2.053  14.246  1.9040  0.0628 -0.2981
   58MPD2     N  894   1.307   1.891  13.882 -0.0064 -0.1028 -0.0767
   58MPD2    H5  895   1.332   1.811  13.940 -0.9037 -1.8316 -2.0775
   58MPD2    N1  896   0.992   2.258  13.852 -0.3502  0.0818 -0.5324
   58MPD2    H7  897   0.994   2.246  13.751  0.8407  0.0069 -0.4984
   59MPD2     C  898   3.841   1.505  13.204 -0.0084 -0.0912  0.3743
   59MPD2    C1  899   3.956   1.486  13.135  0.5449  0.2806  0.3766
   59MPD2    C2  900   4.067   1.560  13.180  0.6194  0.0308 -0.5378
   59MPD2    C3  901   4.062   1.637  13.293 -0.2546  0.1739 -0.2825
   59MPD2    C4  902   3.950   1.638  13.370 -0.4857  0.2883 -0.6324
   59MPD2    C5  903   3.841   1.566  13.328 -0.1966  0.4356 -0.7587
   59MPD2     H  904   4.156   1.548  13.120 -0.1880  0.6912 -1.8654
   59MPD2    H1  905   3.943   1.696  13.461 -1.3714 -1.0774  0.1676
   59MPD2    H2  906   3.747   1.458  13.176  0.0577  0.1221 -0.2017
   59MPD2    H3  907   3.746   1.579  13.378  1.2984  2.0850  1.6635
   59MPD2     N  908   4.170   1.714  13.342  0.1252 -1.1932  0.0571
   59MPD2    H5  909   4.155   1.772  13.424  0.2772 -1.3342  0.1858
   59MPD2    N1  910   3.959   1.399  13.025 -0.2031  0.1115  0.1505
   59MPD2    H7  911   4.048   1.399  12.977  1.1475 -2.0280  2.6877
   60TCq2    C1  912   3.863   1.310  12.985  0.0832  0.1011  0.1062
   60TCq2    O2  913   3.756   1.284  13.041 -0.3997 -0.4888  0.0492
   60TCq2    C2  914   3.920   1.215  12.891 -1.0000  0.3962  0.7068
   60TCq2    C3  915   3.861   1.098  12.904 -0.1371 -0.3037  0.1600
   60TCq2    C4  916   3.849   1.023  12.793 -0.3371  0.5174  0.2112
   60TCq2    C5  917   3.885   1.063  12.670 -0.2083  0.0579  0.3663
   60TCq2    C6  918   3.942   1.182  12.658 -0.3520  0.3562 -0.6999
   60TCq2    C7  919   3.963   1.257  12.769  0.2340 -0.4298  0.1521
   60TCq2    C8  920   3.995   1.217  12.531 -0.1530 -0.1802  0.5104
   60TCq2    O4  921   4.034   1.125  12.457 -0.0695  0.0874  0.0790
   60TCq2    C9  922   3.791   0.894  12.806  0.2706  0.8846 -0.3485
   60TCq2    O5  923   3.717   0.881  12.908  0.3405  0.0798  0.9543
   60TCq2    O6  924   3.801   0.819  12.705  0.2138  0.1754  0.2241
   60TCq2    H2  925   3.829   1.058  13.000  1.3842  0.3809  0.9487
   60TCq2    H3  926   3.862   0.994  12.589 -0.3071  1.3975 -0.7598
   60TCq2    H4  927   4.000   1.358  12.753 -2.0596  0.5273  0.8409
   61MPD2     C  928   3.824   2.891  15.149  0.3246  0.2238 -0.0508
   61MPD2    C1  929   3.768   2.946  15.031  0.1279  0.1429  0.6713
   61MPD2    C2  930   3.858   3.009  14.942 -0.6597  0.8698  0.5317
   61MPD2    C3  931   3.990   3.021  14.966 -0.1772  0.6656 -1.2182
   61MPD2    C4  932   4.045   2.964  15.083  0.1177  0.3776 -0.5487
   61MPD2    C5  933   3.960   2.897  15.167 -0.5167 -0.6153 -0.1850
   61MPD2     H  934   3.806   3.040  14.851 -0.5235 -3.0352 -0.8809
   61MPD2    H1  935   4.150   2.959  15.107  0.1365 -0.2933 -0.7599
   61MPD2    H2  936   3.757   2.831  15.210 -0.6957  1.2590 -0.1431
   61MPD2    H3  937   4.007   2.852  15.255 -2.6035  0.8544  1.6728
   61MPD2     N  938   4.076   3.093  14.882 -0.5742 -0.4800  0.0012
   61MPD2    H5  939   4.177   3.087  14.893 -0.7062 -0.0482  1.3374
   61MPD2    N1  940   3.629   2.941  14.986 -0.2639  0.1462 -0.4297
   61MPD2    H7  941   3.615   2.972  14.890 -1.2284  2.7058  0.5518
   62TCq2    C1  942   3.519   2.901  15.057 -0.0258 -0.3644 -0.7293
   62TCq2    O2  943   3.516   2.854  15.165 -0.1327 -0.3132  0.3109
   62TCq2    C2  944   3.394   2.908  14.981 -0.7664  1.0274  0.1262
   62TCq2    C3  945   3.303   2.816  15.017  0.1431 -0.5239 -0.3891
   62TCq2    C4  946   3.172   2.823  14.972  0.0723 -0.4526 -0.4747
   62TCq2    C5  947   3.141   2.927  14.882 -0.2511 -0.1735 -0.2844
   62TCq2    C6  948   3.236   3.019  14.850 -1.0173 -0.1644  1.0543
   62TCq2    C7  949   3.365   3.015  14.900  0.1319  0.7076  0.3210
   62TCq2    C8  950   3.183   3.136  14.787 -0.6372  0.8926 -0.0692
   62TCq2    O4  951   3.068   3.134  14.744 -0.3244  0.0640 -0.1879
   62TCq2    C9  952   3.081   2.720  15.015  0.2586 -0.7085 -0.1473
   62TCq2    O5  953   3.127   2.607  15.040 -0.8175  0.4064  0.4365
   62TCq2    O6  954   2.960   2.739  14.986 -0.1951  0.1028 -0.1051
   62TCq2    H2  955   3.331   2.733  15.081 -0.6471 -1.0315 -0.6996
   62TCq2    H3  956   3.038   2.929  14.849 -0.8399  0.3902  1.5930
   62TCq2    H4  957   3.434   3.095  14.877 -1.2304  1.5727 -0.8246
   63TMC2    C1  958   2.658   3.080  10.152  0.1855 -0.5942  0.5129
   63TMC2    C2  959   2.783   3.042  10.130 -1.0335  0.5721 -0.2911
   63TMC2    C3  960   2.842   3.082  10.016  0.6246 -0.0711 -0.1015
   63TMC2    C4  961   2.590   3.156  10.063 -0.4420  0.8187 -0.0734
   63TMC2    C5  962   2.647   3.198   9.950 -0.7145 -0.6094 -0.8979
   63TMC2    C6  963   2.778   3.153   9.917 -0.3198  0.3486 -0.1611
   63TMC2     C  964   2.591   3.042  10.286  0.2621  0.1167  1.8280
   63TMC2     O  965   2.499   3.116  10.314  0.0603 -0.4432  0.8309
   63TMC2     H  966   2.838   2.989  10.207 -1.6975  0.0190 -0.1954
   63TMC2    H1  967   2.485   3.179  10.077 -0.9026  1.0523 -3.8628
   63TMC2    H2  968   2.833   3.186   9.829 -0.9146 -1.3490 -1.1846
   63TMC2    C7  969   2.560   3.242   9.840 -0.2575  0.4196 -0.2146
   63TMC2    C8  970   2.962   3.003   9.984 -0.1702  0.0194  0.3868
   63TMC2    O1  971   2.435   3.232   9.849  0.6939 -0.0645  0.0482
   63TMC2    O2  972   3.052   2.974  10.058 -0.1162  0.2559 -0.1102
   63TMC2    O5  973   2.969   2.981   9.850 -0.0837  0.0887 -0.2961
   63TMC2    H5  974   2.888   2.984   9.794  0.7161 -0.7760 -1.5146
   64MPD2     C  975   2.470   2.696  10.643  0.0153  0.4191 -0.1680
   64MPD2    C1  976   2.565   2.643  10.555 -0.2265  1.7523  0.1492
   64MPD2    C2  977   2.607   2.721  10.455 -0.4019  0.8070 -0.2439
   64MPD2    C3  978   2.570   2.853  10.435 -0.2153  0.8343  0.5470
   64MPD2    C4  979   2.476   2.903  10.524 -0.6357 -0.2869  0.0635
   64MPD2    C5  980   2.421   2.828  10.625 -0.2157  0.1693 -0.0082
   64MPD2     H  981   2.684   2.685  10.388  0.4522  4.1041 -1.0608
   64MPD2    H1  982   2.458   3.010  10.528 -3.6868 -0.7745 -0.5499
   64MPD2    H2  983   2.417   2.643  10.721 -0.4468  1.7638  0.4299
   64MPD2    H3  984   2.345   2.863  10.693 -0.1443 -0.6130  0.4686
   64MPD2     N  985   2.638   2.926  10.341  0.3585 -0.1239  0.0186
   64MPD2    H5  986   2.709   2.869  10.296  0.8802  0.0269  0.6419
   64MPD2    N1  987   2.603   2.505  10.561 -0.1565 -0.0029 -0.1474
   64MPD2    H7  988   2.660   2.467  10.486  0.0116  0.2653 -0.1546
   65MPD2     C  989   4.241   2.931  15.751 -0.3185 -0.0717  0.8217
   65MPD2    C1  990   4.220   2.915  15.617 -0.8634 -0.3654  0.7312
   65MPD2    C2  991   4.157   2.788  15.580  0.1635  0.4305 -0.7744
   65MPD2    C3  992   4.116   2.696  15.675  0.4317 -0.6324 -0.6434
   65MPD2    C4  993   4.123   2.734  15.805  0.1758 -1.0371  0.2500
   65MPD2    C5  994   4.184   2.846  15.844  0.3898 -0.2153  0.3690
   65MPD2     H  995   4.150   2.774  15.472  1.7108 -0.7250 -0.7280
   65MPD2    H1  996   4.081   2.670  15.882  0.8809  1.2219  2.5057
   65MPD2    H2  997   4.284   3.017  15.801 -1.1085  1.3800 -0.9794
   65MPD2    H3  998   4.171   2.876  15.948  2.6193 -1.0306  0.8673
   65MPD2     N  999   4.078   2.563  15.638  0.5398 -0.1312 -0.2065
   65MPD2    H5 1000   4.049   2.515  15.723  0.1626 -0.8144 -0.7219
   65MPD2    N1 1001   4.256   3.018  15.533  0.6113 -0.2097  0.0988
   65MPD2    H7 1002   4.262   3.112  15.570 -1.9785  0.0710 -0.2023
   66TCq2    C1 1003   4.282   3.004  15.407  0.0253 -0.1178  0.4456
   66TCq2    O2 1004   4.315   2.903  15.343 -0.3508  0.6303 -0.3551
   66TCq2    C2 1005   4.284   3.127  15.336 -0.2776  0.5980  0.2275
   66TCq2    C3 1006   4.355   3.128  15.220 -0.6929 -0.0006 -0.8988
   66TCq2    C4 1007   4.356   3.239  15.147 -0.3553 -0.2330  0.0542
   66TCq2    C5 1008   4.256   3.336  15.169 -0.0066 -0.3040  0.7043
   66TCq2    C6 1009   4.173   3.316  15.276 -0.7496  0.7477  1.0866
   66TCq2    C7 1010   4.195   3.222  15.368 -0.0756 -0.5530  0.1323
   66TCq2    C8 1011   4.062   3.404  15.299 -0.0364  1.0103 -0.2204
   66TCq2    O4 1012   4.024   3.465  15.197 -0.4392 -0.2196  0.2201
   66TCq2    C9 1013   4.448   3.246  15.037 -0.0011  0.0283  1.3141
   66TCq2    O5 1014   4.523   3.149  15.026  0.0040 -0.3176 -0.6056
   66TCq2    O6 1015   4.439   3.341  14.957  0.4557  0.3273  0.0359
   66TCq2    H2 1016   4.430   3.053  15.203  3.2506  2.7806  4.2567
   66TCq2    H3 1017   4.258   3.419  15.099 -0.3875 -0.2362  0.7709
   66TCq2    H4 1018   4.114   3.188  15.432  0.8372 -5.9741 -1.5139
   67MPD2     C 1019   4.065   1.834  14.133 -0.4313 -0.2459  0.1574
   67MPD2    C1 1020   3.989   1.942  14.179 -0.4850 -0.6456  0.4533
   67MPD2    C2 1021   3.864   1.959  14.122  0.0223 -0.3690  0.4021
   67MPD2    C3 1022   3.803   1.866  14.040 -0.5827 -0.7018 -0.1984
   67MPD2    C4 1023   3.877   1.756  14.005  0.2186  0.4306 -0.2845
   67MPD2    C5 1024   4.011   1.750  14.043 -0.2162  0.2057 -0.2389
   67MPD2     H 1025   3.803   2.042  14.155  0.2905  1.0773 -2.7389
   67MPD2    H1 1026   3.838   1.677  13.942  0.7516  0.2148 -0.3489
   67MPD2    H2 1027   4.163   1.807  14.169  0.5867 -0.0881 -2.5340
   67MPD2    H3 1028   4.078   1.672  14.010 -0.4337  0.4549 -1.2760
   67MPD2     N 1029   3.676   1.900  13.994  0.5847  0.2270  0.0341
   67MPD2    H5 1030   3.635   1.979  14.043  0.7707  0.5945 -0.3959
   67MPD2    N1 1031   4.035   2.029  14.279 -0.0770 -0.5943  0.0206
   67MPD2    H7 1032   3.972   2.107  14.295  2.9674  1.7849  0.4445
   68TCq2    C1 1033   4.143   2.002  14.363  0.0336 -0.2593  0.6114
   68TCq2    O2 1034   4.208   1.901  14.376 -0.3141 -1.0227  0.0622
   68TCq2    C2 1035   4.184   2.127  14.438  1.3602 -0.0909  0.0703
   68TCq2    C3 1036   4.128   2.251  14.413 -0.0292 -0.8360  0.6370
   68TCq2    C4 1037   4.153   2.349  14.505  0.4845  0.5860 -0.0432
   68TCq2    C5 1038   4.237   2.339  14.611 -0.2703 -0.0443 -0.1310
   68TCq2    C6 1039   4.310   2.220  14.621 -0.3580 -0.2444  0.7279
   68TCq2    C7 1040   4.286   2.120  14.532 -0.6338 -1.0795 -0.5931
   68TCq2    C8 1041   4.425   2.211  14.709 -0.6153 -0.3398  0.1402
   68TCq2    O4 1042   4.509   2.128  14.673  0.2401 -0.3023  0.2019
   68TCq2    C9 1043   4.073   2.471  14.485 -0.3479  0.2437  0.1397
   68TCq2    O5 1044   4.036   2.501  14.367  0.2005  0.3414  0.1281
   68TCq2    O6 1045   4.080   2.546  14.579  0.7525  0.5476 -0.3057
   68TCq2    H2 1046   4.053   2.268  14.337 -0.8889 -1.6521  1.3061
   68TCq2    H3 1047   4.250   2.422  14.680 -0.2037  1.1152 -1.5225
   68TCq2    H4 1048   4.341   2.026  14.538 -3.5493 -2.7991 -0.5882
   69TMC2    C1 1049   1.592   2.792  12.325 -0.3734 -0.2907  0.3056
   69TMC2    C2 1050   1.718   2.840  12.330  0.0763 -0.1631 -0.4445
   69TMC2    C3 1051   1.817   2.758  12.270 -0.6772 -1.0859  0.1479
   69TMC2    C4 1052   1.569   2.664  12.281 -0.2719  1.1852  0.3187
   69TMC2    C5 1053   1.670   2.587  12.218 -0.4885 -0.0863 -0.4753
   69TMC2    C6 1054   1.803   2.630  12.216  0.5079  0.7895 -0.3699
   69TMC2     C 1055   1.517   2.817  12.444  0.1221  0.3329  0.5097
   69TMC2     O 1056   1.441   2.724  12.479 -0.3573  0.6167  0.8862
   69TMC2     H 1057   1.745   2.939  12.365  0.1331 -0.7670  1.2209
   69TMC2    H1 1058   1.465   2.634  12.275 -0.6397  2.3996  0.4955
   69TMC2    H2 1059   1.881   2.568  12.173 -0.6617 -1.6589  1.0105
   69TMC2    C7 1060   1.643   2.456  12.157 -0.7928  0.3904  0.6096
   69TMC2    C8 1061   1.946   2.818  12.258  0.1149  0.1866  0.0396
   69TMC2    O1 1062   1.702   2.432  12.054 -0.1440  0.3439 -0.2811
   69TMC2    O2 1063   2.048   2.761  12.295  0.1944  0.0932 -0.0847
   69TMC2    O5 1064   1.939   2.948  12.237  0.2466 -0.3030  0.1564
   69TMC2    H5 1065   1.857   2.989  12.203  1.4126  2.8185  1.0860
   70MPD2     C 1066   1.451   3.147  12.610 -0.1439 -0.1152  0.1699
   70MPD2    C1 1067   1.434   3.012  12.582 -0.0814  0.3459  0.1987
   70MPD2    C2 1068   1.342   2.939  12.657  0.0048 -0.1419 -0.5363
   70MPD2    C3 1069   1.286   2.991  12.773 -0.3186  0.3581  0.4980
   70MPD2    C4 1070   1.311   3.121  12.805 -0.0026  0.3134 -0.4849
   70MPD2    C5 1071   1.385   3.199  12.718  0.2845 -0.1733  0.4924
   70MPD2     H 1072   1.319   2.837  12.629  0.4563 -0.0424 -1.2917
   70MPD2    H1 1073   1.258   3.172  12.884 -1.5337  0.4010 -1.5649
   70MPD2    H2 1074   1.515   3.211  12.550  0.7691 -0.2959  0.9565
   70MPD2    H3 1075   1.415   3.296  12.756  0.9971 -0.2188  0.0561
   70MPD2     N 1076   1.210   2.920  12.870  0.0860 -0.6799 -0.3692
   70MPD2    H5 1077   1.183   2.975  12.951 -3.6529 -2.3182 -0.4936
   70MPD2    N1 1078   1.511   2.945  12.475 -0.3323  0.5158 -1.0299
   70MPD2    H7 1079   1.566   3.013  12.423  3.0423  0.2015  2.1957
   71TMC2    C1 1080   2.832   3.392   1.830  0.6608 -0.2775  0.4482
   71TMC2    C2 1081   2.922   3.347   1.926  0.7550 -0.0789  0.3221
   71TMC2    C3 1082   2.905   3.390   2.056 -0.0828 -0.1022  0.5505
   71TMC2    C4 1083   2.718   3.454   1.860 -0.2261 -0.0165  0.0267
   71TMC2    C5 1084   2.694   3.487   1.994  0.2966 -0.5230 -0.3731
   71TMC2    C6 1085   2.791   3.452   2.085  0.1050 -0.5203 -0.4090
   71TMC2     C 1086   2.851   3.354   1.692 -0.4756 -0.4175 -0.1300
   71TMC2     O 1087   2.777   3.397   1.606 -0.1917  0.3230 -0.1242
   71TMC2     H 1088   3.011   3.285   1.915  1.7162  1.0530  1.7039
   71TMC2    H1 1089   2.656   3.495   1.781 -0.0944  0.2603  0.0664
   71TMC2    H2 1090   2.778   3.491   2.185  0.7755 -0.8947 -0.1786
   71TMC2    C7 1091   2.570   3.555   2.025 -0.6387  1.1190  0.1010
   71TMC2    C8 1092   2.968   3.322   2.161  0.3290  0.0296  0.3469
   71TMC2    O1 1093   2.560   3.592   2.140 -0.0319  0.3900  0.1539
   71TMC2    O2 1094   2.912   3.279   2.260  0.1289 -0.1239  0.1695
   71TMC2    O5 1095   3.089   3.372   2.171 -0.4345  0.4015  0.5017
   71TMC2    H5 1096   3.119   3.416   2.088  1.5783 -0.4106  0.8107
   72MPD2     C 1097   2.944   2.982   1.344 -0.0933 -0.4240  0.2640
   72MPD2    C1 1098   2.882   3.107   1.335  0.4301 -0.1173 -0.5217
   72MPD2    C2 1099   2.901   3.202   1.437  0.1532  0.3109 -0.1981
   72MPD2    C3 1100   2.952   3.162   1.560 -0.0158  0.1897  0.4199
   72MPD2    C4 1101   3.017   3.045   1.567  0.2990 -0.4150 -0.1665
   72MPD2    C5 1102   3.006   2.949   1.464 -0.3395  0.6300  0.4330
   72MPD2     H 1103   2.852   3.296   1.418 -2.3660 -1.2526 -1.4202
   72MPD2    H1 1104   3.055   3.007   1.661 -1.7324  0.7803  1.1112
   72MPD2    H2 1105   2.936   2.905   1.268  0.0230 -0.0247 -0.1548
   72MPD2    H3 1106   3.036   2.848   1.486 -1.7308 -0.3389 -2.1006
   72MPD2     N 1107   2.934   3.240   1.679 -0.0813 -0.9347 -0.1544
   72MPD2    H5 1108   2.973   3.213   1.768  0.3570  2.8627  0.8017
   72MPD2    N1 1109   2.810   3.150   1.220  0.3987  0.6294 -0.9536
   72MPD2    H7 1110   2.759   3.235   1.242  1.0339  0.4041  1.3788
   73TMC2    C1 1111   4.342   0.745  12.811  0.1807  0.3885  0.1993
   73TMC2    C2 1112   4.280   0.719  12.691  0.0827 -0.0401  0.6457
   73TMC2    C3 1113   4.147   0.698  12.694 -0.5669  0.1204  0.5081
   73TMC2    C4 1114   4.267   0.742  12.928 -0.1683 -0.2327 -0.3548
   73TMC2    C5 1115   4.133   0.720  12.927 -1.0711 -0.4643  0.2837
   73TMC2    C6 1116   4.071   0.690  12.810  0.3172 -0.3571  0.6483
   73TMC2     C 1117   4.427   0.859  12.826  0.6792  0.4456  0.3453
   73TMC2     O 1118   4.375   0.960  12.869  0.0201  0.5089 -0.3665
   73TMC2     H 1119   4.329   0.727  12.595 -2.2790  1.0977 -0.4889
   73TMC2    H1 1120   4.325   0.746  13.020 -2.6237 -0.9798  1.2116
   73TMC2    H2 1121   3.965   0.668  12.816  0.6788 -1.8354  1.4784
   73TMC2    C7 1122   4.065   0.816  13.015  0.5093  0.0829 -0.4847
   73TMC2    C8 1123   4.092   0.657  12.570  0.0852  0.1919 -0.2048
   73TMC2    O1 1124   3.952   0.790  13.045  0.0320  1.1097  0.1210
   73TMC2    O2 1125   4.154   0.603  12.485 -0.1030  0.1103  0.0780
   73TMC2    O5 1126   3.960   0.663  12.571 -0.5274 -0.5250  0.1690
   73TMC2    H5 1127   3.916   0.730  12.628 -1.5003 -0.3491 -0.7758
   74MPD2     C 1128   0.147   1.116  12.828 -0.1698  0.1214  1.1406
   74MPD2    C1 1129   0.025   1.145  12.890  0.1376 -0.4265  0.4243
   74MPD2    C2 1130   4.645   1.049  12.878  0.0316 -0.5836 -0.3065
   74MPD2    C3 1131   4.654   0.937  12.802 -0.2612  0.1820 -0.3716
   74MPD2    C4 1132   0.043   0.918  12.731 -0.6101 -0.7436  0.3814
   74MPD2    C5 1133   0.154   1.005  12.752 -0.0122 -0.3732  0.5676
   74MPD2     H 1134   4.558   1.062  12.942  0.6598 -1.0760  0.6539
   74MPD2    H1 1135   0.050   0.839  12.657 -0.6331  0.1734 -0.6070
   74MPD2    H2 1136   0.236   1.177  12.832 -0.6706  0.8341  1.5506
   74MPD2    H3 1137   0.245   0.988  12.695  0.0330  0.2555  0.4510
   74MPD2     N 1138   4.553   0.842  12.778 -0.3420  0.1026 -0.5411
   74MPD2    H5 1139   4.569   0.762  12.718 -0.6400  0.3503 -0.9484
   74MPD2    N1 1140   0.015   1.260  12.970 -0.0929  0.1400 -0.1173
   74MPD2    H7 1141   0.093   1.323  12.985  0.4785 -0.2761 -1.3339
   75TCq2    C1 1142   3.607   1.835  13.898  0.5534  0.7412  0.5253
   75TCq2    O2 1143   3.647   1.747  13.819  0.1038  0.4790  0.5511
   75TCq2    C2 1144   3.474   1.896  13.885 -0.2185 -0.4706  0.0539
   75TCq2    C3 1145   3.390   1.861  13.990 -0.0306  0.0972 -0.5621
   75TCq2    C4 1146   3.249   1.873  13.968  0.3324  0.4989 -0.3545
   75TCq2    C5 1147   3.206   1.896  13.842  0.1173 -0.6246  0.1750
   75TCq2    C6 1148   3.302   1.908  13.745  0.3867 -0.0888  0.2629
   75TCq2    C7 1149   3.434   1.911  13.754  0.2314  0.2148  0.4996
   75TCq2    C8 1150   3.257   1.947  13.618  0.7735  0.3039  0.9356
   75TCq2    O4 1151   3.155   1.895  13.575  0.3369  0.5360 -0.3408
   75TCq2    C9 1152   3.160   1.843  14.078 -0.4427 -0.0789 -0.0478
   75TCq2    O5 1153   3.205   1.821  14.190  0.3518 -0.4134 -0.1193
   75TCq2    O6 1154   3.045   1.809  14.042 -0.2281  0.1618 -0.0060
   75TCq2    H2 1155   3.437   1.863  14.088  2.4809 -1.8320 -1.7393
   75TCq2    H3 1156   3.103   1.911  13.814  0.7541 -0.0729 -1.9134
   75TCq2    H4 1157   3.501   1.902  13.670 -2.8634 -0.8505 -1.8895
   76MPD2     C 1158   2.138   1.985  12.162  0.6479 -0.7201 -1.0269
   76MPD2    C1 1159   2.180   1.920  12.042 -0.2352 -0.6375  0.2860
   76MPD2    C2 1160   2.313   1.924  12.010  0.7812  0.0068 -0.4949
   76MPD2    C3 1161   2.408   1.981  12.097 -0.1557 -0.7064  1.0333
   76MPD2    C4 1162   2.362   2.035  12.215  0.5216  0.1148  0.3437
   76MPD2    C5 1163   2.231   2.034  12.246 -0.3391 -0.1318  0.6473
   76MPD2     H 1164   2.352   1.882  11.918  2.6830  1.2708 -0.2533
   76MPD2    H1 1165   2.427   2.075  12.291 -2.3834  3.0119  1.3181
   76MPD2    H2 1166   2.033   1.987  12.189  1.4152  2.3801  1.7731
   76MPD2    H3 1167   2.189   2.075  12.338  1.2284  0.5712  1.0388
   76MPD2     N 1168   2.542   1.994  12.078 -0.1040  0.4165  0.0433
   76MPD2    H5 1169   2.604   2.041  12.143  0.5002 -1.4044  0.7846
   76MPD2    N1 1170   2.084   1.869  11.952  0.1218 -0.2487 -0.0878
   76MPD2    H7 1171   2.104   1.824  11.863  1.4660 -0.4550  0.3145
   77TCq2    C1 1172   2.613   1.958  11.965  0.3766 -0.5292 -0.1259
   77TCq2    O2 1173   2.568   1.928  11.855  0.1844 -0.0916 -0.0506
   77TCq2    C2 1174   2.746   1.996  11.983 -0.2279  0.1736  0.0709
   77TCq2    C3 1175   2.802   2.086  11.893 -0.3554  0.2776 -0.2652
   77TCq2    C4 1176   2.915   2.153  11.925 -0.1573  0.7822 -0.3701
   77TCq2    C5 1177   2.971   2.126  12.047  0.2127 -0.1428  0.3092
   77TCq2    C6 1178   2.920   2.031  12.136 -0.2358  0.1972 -0.2143
   77TCq2    C7 1179   2.805   1.962  12.105  0.1742  0.2556 -0.1381
   77TCq2    C8 1180   2.970   2.014  12.273  0.2850 -0.4429  0.4624
   77TCq2    O4 1181   2.943   1.911  12.333 -0.3608  0.1529  0.1146
   77TCq2    C9 1182   2.980   2.246  11.834  0.4908 -0.6287  0.3886
   77TCq2    O5 1183   2.959   2.239  11.713  0.4902  0.7576 -0.4429
   77TCq2    O6 1184   3.072   2.307  11.892  0.1436 -0.6916  0.3089
   77TCq2    H2 1185   2.751   2.116  11.802 -0.0414 -2.9108 -1.4794
   77TCq2    H3 1186   3.067   2.171  12.070 -0.0824  1.3804 -1.4925
   77TCq2    H4 1187   2.765   1.891  12.176  2.0460 -0.5501  0.1287
   78MPD1     C 1188   3.253   3.819   1.040  0.5395  0.9966  0.3441
   78MPD1    C1 1189   3.230   3.682   1.033 -0.4215  0.0926 -0.3475
   78MPD1    C2 1190   3.208   3.613   1.147 -0.3305  0.5958 -0.5775
   78MPD1    C3 1191   3.235   3.672   1.273 -0.2527  0.2343  0.7011
   78MPD1    C4 1192   3.270   3.802   1.284 -0.0493  0.5446  0.4957
   78MPD1    C5 1193   3.274   3.874   1.167 -1.1385 -0.6623 -0.0639
   78MPD1     H 1194   3.154   3.520   1.144 -0.5005  0.6379  1.1669
   78MPD1    H1 1195   3.311   3.840   1.377 -3.1633  3.0640  0.8506
   78MPD1    H2 1196   3.273   3.881   0.953  1.2623  0.4547  0.1276
   78MPD1    H3 1197   3.316   3.975   1.166  0.0129 -1.1286  0.8336
   78MPD1     N 1198   3.245   3.595   1.393  0.2830 -0.2063 -0.2157
   78MPD1    H5 1199   3.271   3.643   1.479  0.5753 -2.2424  0.8134
   78MPD1    N1 1200   3.210   3.617   0.907  0.2394  0.6278  0.5005
   78MPD1    H6 1201   3.221   3.690   0.837 -1.5323 -0.8365 -1.2939
   78MPD1    H7 1202   3.115   3.583   0.898 -0.6374  3.4205 -0.5303
   79TCq2    C1 1203   3.239   3.459   1.400  0.4855 -0.8999 -0.0799
   79TCq2    O2 1204   3.256   3.376   1.307  0.0765  0.4431 -0.1705
   79TCq2    C2 1205   3.256   3.407   1.534  0.6258 -0.0538  0.6295
   79TCq2    C3 1206   3.227   3.488   1.634 -0.1075 -0.2033 -0.4633
   79TCq2    C4 1207   3.254   3.459   1.759  0.0461  0.1992 -0.1333
   79TCq2    C5 1208   3.328   3.350   1.788 -0.0584  0.7112  0.1025
   79TCq2    C6 1209   3.373   3.274   1.679  0.0215 -0.0968 -0.0693
   79TCq2    C7 1210   3.334   3.300   1.556 -0.2465  0.2159  0.2371
   79TCq2    C8 1211   3.500   3.209   1.701 -0.2329 -0.8739  0.2078
   79TCq2    O4 1212   3.561   3.184   1.599 -0.0882 -0.2485  0.0859
   79TCq2    C9 1213   3.209   3.546   1.862  0.1540  0.8683 -0.4887
   79TCq2    O5 1214   3.189   3.492   1.975  0.1489 -0.1074 -0.1771
   79TCq2    O6 1215   3.200   3.665   1.830 -0.7848 -0.9614  0.5493
   79TCq2    H2 1216   3.158   3.569   1.610  0.0637 -0.4792 -1.8890
   79TCq2    H3 1217   3.356   3.343   1.893  1.7450  1.9265 -0.3037
   79TCq2    H4 1218   3.360   3.232   1.476 -1.5816 -2.5389  2.1298
   80MPD2     C 1219   0.984   1.976  11.933  0.4017  0.4837 -0.4222
   80MPD2    C1 1220   0.866   2.033  11.984 -0.2095 -0.2968 -0.0635
   80MPD2    C2 1221   0.873   2.146  12.063  0.2419 -0.4225 -0.6426
   80MPD2    C3 1222   0.995   2.215  12.068 -0.0581 -0.2975 -0.0993
   80MPD2    C4 1223   1.107   2.163  12.006  0.3580  0.1276 -0.6680
   80MPD2    C5 1224   1.104   2.043  11.940 -0.6386 -0.0637 -1.0198
   80MPD2     H 1225   0.784   2.181  12.115  0.3726 -1.2532  0.1470
   80MPD2    H1 1226   1.204   2.210  12.019 -0.5465  1.6923  0.3871
   80MPD2    H2 1227   0.972   1.888  11.872  1.0239  0.5797 -0.6848
   80MPD2    H3 1228   1.198   2.012  11.895  0.8629  2.2142  0.5505
   80MPD2     N 1229   1.012   2.331  12.141 -0.9853  0.0612 -0.3580
   80MPD2    H5 1230   1.103   2.377  12.140 -1.8188  1.7532  0.4611
   80MPD2    N1 1231   0.736   1.987  11.969 -0.3495  0.3133 -0.5899
   80MPD2    H7 1232   0.661   2.037  12.016  0.1796  0.1445  0.4238
   81TCq2    C1 1233   0.699   1.896  11.874 -0.5967  0.7811 -0.4310
   81TCq2    O2 1234   0.767   1.845  11.790 -0.2745  0.0601  0.8791
   81TCq2    C2 1235   0.564   1.849  11.888  0.1585  0.2532  1.0858
   81TCq2    C3 1236   0.506   1.805  11.765 -0.1565 -0.4965 -0.0395
   81TCq2    C4 1237   0.375   1.766  11.768  0.2594  0.0599 -0.6858
   81TCq2    C5 1238   0.309   1.766  11.884 -0.4286 -0.5822 -0.5071
   81TCq2    C6 1239   0.372   1.800  12.001  0.1043  0.2317 -1.2110
   81TCq2    C7 1240   0.493   1.863  12.004  0.2102  0.5628  0.0346
   81TCq2    C8 1241   0.318   1.755  12.122 -0.1508  0.2749 -0.0805
   81TCq2    O4 1242   0.199   1.748  12.129  0.1177 -0.7037 -0.2251
   81TCq2    C9 1243   0.314   1.720  11.643 -0.0157  0.9125  0.4756
   81TCq2    O5 1244   0.189   1.683  11.651 -0.0091 -0.2699  0.8282
   81TCq2    O6 1245   0.401   1.681  11.557  0.0462  0.1402 -0.2247
   81TCq2    H2 1246   0.568   1.785  11.678  2.2914  2.3568  1.0569
   81TCq2    H3 1247   0.207   1.727  11.888  0.3065 -2.5958 -1.3832
   81TCq2    H4 1248   0.536   1.894  12.099 -1.7243 -0.1937  1.1727
   82MPD2     C 1249   4.603   1.763  10.446  0.7002 -0.2786  0.9310
   82MPD2    C1 1250   4.499   1.698  10.500  0.3996 -0.2612  0.2056
   82MPD2    C2 1251   4.499   1.663  10.630  0.0886 -0.0425 -0.0470
   82MPD2    C3 1252   4.606   1.700  10.702 -0.5973  0.5515 -0.1627
   82MPD2    C4 1253   4.715   1.774  10.653 -0.2827  0.5765  0.6141
   82MPD2    C5 1254   4.708   1.807  10.518 -1.0902  0.2818  0.4317
   82MPD2     H 1255   4.426   1.593  10.669  0.3459 -0.8511 -1.0001
   82MPD2    H1 1256   0.080   1.795  10.707  0.6735  2.4090 -1.7669
   82MPD2    H2 1257   4.598   1.772  10.338 -0.8183  1.6890  1.1432
   82MPD2    H3 1258   0.062   1.851  10.461  0.1809 -3.3332 -0.5208
   82MPD2     N 1259   4.636   1.644  10.829 -0.5297  0.2183 -0.7953
   82MPD2    H5 1260   0.004   1.655  10.863 -0.0896 -2.2291 -1.1831
   82MPD2    N1 1261   4.400   1.653  10.409  0.0307  0.5759  0.2589
   82MPD2    H7 1262   4.419   1.666  10.310  0.1671 -2.8633 -0.1865
   83TCq2    C1 1263   4.550   1.568  10.912  0.2772  0.5166 -0.1054
   83TCq2    O2 1264   4.428   1.563  10.911  0.3475  0.6947  0.5891
   83TCq2    C2 1265   4.615   1.468  10.997  0.0378 -0.2918 -0.1575
   83TCq2    C3 1266   0.020   1.461  11.010 -0.4562  0.4224 -0.2613
   83TCq2    C4 1267   0.076   1.354  11.069 -0.5540 -0.1344 -0.3004
   83TCq2    C5 1268   0.008   1.254  11.125 -0.5795  0.0599 -0.0313
   83TCq2    C6 1269   4.593   1.265  11.110 -0.0520 -0.1351 -0.2322
   83TCq2    C7 1270   4.531   1.376  11.060 -0.4339 -0.6179 -0.4448
   83TCq2    C8 1271   4.519   1.143  11.142  0.2847 -0.0645 -0.1322
   83TCq2    O4 1272   4.407   1.158  11.189  0.8588 -0.6079 -0.2369
   83TCq2    C9 1273   0.217   1.343  11.063  0.3691 -0.3140 -0.3748
   83TCq2    O5 1274   0.271   1.247  11.134  0.6562 -0.4847 -0.5128
   83TCq2    O6 1275   0.281   1.443  11.017  0.0823  0.0967  0.2031
   83TCq2    H2 1276   0.083   1.539  10.971 -1.2709  0.5090 -1.4268
   83TCq2    H3 1277   0.063   1.168  11.161 -1.3438 -0.4635 -0.1154
   83TCq2    H4 1278   4.424   1.371  11.042 -0.0927 -2.3992 -1.9526
   84TCq2    C1 1279   0.770   4.303  10.262 -0.3190 -0.3141  0.3831
   84TCq2    O2 1280   0.823   4.400  10.320 -0.3616 -0.1930  0.3867
   84TCq2    C2 1281   0.663   4.228  10.331 -0.3957  0.0468  0.1586
   84TCq2    C3 1282   0.621   4.100  10.288 -0.2058  0.1252 -0.1398
   84TCq2    C4 1283   0.532   4.029  10.366 -0.1436 -0.1145 -0.3249
   84TCq2    C5 1284   0.480   4.081  10.474 -0.0548 -0.0977 -0.4767
   84TCq2    C6 1285   0.524   4.207  10.516  0.4552 -0.1273  0.1122
   84TCq2    C7 1286   0.623   4.278  10.452  0.2665  0.1049 -0.2706
   84TCq2    C8 1287   0.491   4.272  10.645 -0.0206  0.6087  0.3210
   84TCq2    O4 1288   0.510   4.391  10.647 -0.2189 -0.0260 -0.4847
   84TCq2    C9 1289   0.484   3.900  10.324 -0.3056  0.4444 -0.2232
   84TCq2    O5 1290   0.384   3.853  10.379 -0.2782  0.3513  0.3840
   84TCq2    O6 1291   0.534   3.859  10.218 -0.2813 -0.4854  0.0796
   84TCq2    H2 1292   0.643   4.056  10.191 -1.4176 -2.0600  0.5662
   84TCq2    H3 1293   0.410   4.026  10.536  0.7498 -0.9842 -0.3441
   84TCq2    H4 1294   0.670   4.368  10.489 -0.2942  0.0622  0.5358
   85MPD2     C 1295   1.674   3.321  16.410  0.2315  0.6980  0.1096
   85MPD2    C1 1296   1.577   3.356  16.311 -0.4067  0.4541  0.1425
   85MPD2    C2 1297   1.610   3.452  16.221 -0.3668 -0.3138 -0.3589
   85MPD2    C3 1298   1.740   3.502  16.215 -0.0919  0.5368  0.6753
   85MPD2    C4 1299   1.837   3.465  16.305 -0.3452  0.3634 -0.8923
   85MPD2    C5 1300   1.798   3.373  16.402 -0.5755 -0.3428  0.4136
   85MPD2     H 1301   1.532   3.491  16.157 -2.0459 -3.5691 -0.2859
   85MPD2    H1 1302   1.940   3.498  16.301 -1.3892  3.5243 -1.5597
   85MPD2    H2 1303   1.653   3.239  16.477  0.2649  0.4021 -0.2441
   85MPD2    H3 1304   1.876   3.340  16.470 -0.4412 -1.2540 -0.1768
   85MPD2     N 1305   1.767   3.585  16.107  0.1583 -0.2974 -0.1596
   85MPD2    H5 1306   1.682   3.615  16.060  0.1547 -0.5099 -0.2890
   85MPD2    N1 1307   1.450   3.290  16.295 -0.3921  0.0186  0.9930
   85MPD2    H7 1308   1.394   3.312  16.213  2.1153  2.2598 -0.1202
   86TCq2    C1 1309   1.890   3.637  16.066  0.7425 -0.9771 -0.1227
   86TCq2    O2 1310   2.003   3.618  16.111  0.6074  0.1411  0.3332
   86TCq2    C2 1311   1.881   3.711  15.948 -0.2327 -0.1578 -0.6755
   86TCq2    C3 1312   1.761   3.781  15.942 -0.3108 -0.0625 -0.1091
   86TCq2    C4 1313   1.751   3.879  15.846 -0.3420  0.2558  0.3250
   86TCq2    C5 1314   1.856   3.903  15.763 -0.3185  0.6652  0.1391
   86TCq2    C6 1315   1.974   3.841  15.785  1.3045 -0.2283  0.5794
   86TCq2    C7 1316   1.995   3.743  15.873  0.1446 -0.2818  0.1380
   86TCq2    C8 1317   2.081   3.866  15.686 -0.3548 -0.0750 -0.2482
   86TCq2    O4 1318   2.182   3.795  15.692 -0.0219 -0.3903  0.5785
   86TCq2    C9 1319   1.623   3.949  15.833  0.1505 -0.2316  0.0736
   86TCq2    O5 1320   1.530   3.938  15.914 -0.0659  0.0998  0.7230
   86TCq2    O6 1321   1.618   4.052  15.762  0.5541 -0.8730  0.4645
   86TCq2    H2 1322   1.668   3.764  15.995 -1.3457  2.3684 -1.1319
   86TCq2    H3 1323   1.828   3.978  15.690 -2.1235  0.8396  0.9969
   86TCq2    H4 1324   2.087   3.688  15.860  0.7258  1.0877 -1.6194
   87MPD2     C 1325   3.274   2.379   1.272  0.4926  0.0374 -0.1483
   87MPD2    C1 1326   3.345   2.452   1.182 -0.0193  0.3378  0.1239
   87MPD2    C2 1327   3.275   2.513   1.075  0.1841  0.2407 -0.0572
   87MPD2    C3 1328   3.136   2.484   1.060 -0.2083  0.1347  0.3099
   87MPD2    C4 1329   3.076   2.389   1.144 -0.1774  0.1834 -0.0589
   87MPD2    C5 1330   3.144   2.342   1.258  0.3472 -0.3215  0.3976
   87MPD2     H 1331   3.319   2.579   1.001 -2.7406  2.1986 -0.0722
   87MPD2    H1 1332   2.972   2.362   1.132  0.0095  0.1113 -1.5928
   87MPD2    H2 1333   3.332   2.322   1.344 -0.5934  0.4556  1.0502
   87MPD2    H3 1334   3.093   2.283   1.333 -1.2986  0.2919 -0.2383
   87MPD2     N 1335   3.062   2.557   0.964  0.1689 -0.1475  0.3862
   87MPD2    H5 1336   3.107   2.630   0.911  0.5930 -1.5555 -1.2145
   87MPD2    N1 1337   3.484   2.472   1.194 -0.2893 -0.0281  0.1392
   87MPD2    H7 1338   3.530   2.418   1.266 -1.5261 -2.3876 -0.8284
   88TCq2    C1 1339   3.566   2.548   1.112  0.0500  0.2213 -0.4959
   88TCq2    O2 1340   3.538   2.616   1.013  0.0624  0.1082  0.3531
   88TCq2    C2 1341   3.707   2.509   1.121 -0.5388  0.1291 -0.0837
   88TCq2    C3 1342   3.771   2.490   1.249 -0.3985 -0.6270 -0.0471
   88TCq2    C4 1343   3.897   2.435   1.248 -0.7303  0.1252  0.0742
   88TCq2    C5 1344   3.974   2.428   1.137 -0.2307 -0.6891 -0.3252
   88TCq2    C6 1345   3.907   2.456   1.021 -0.2354  0.3879 -0.4674
   88TCq2    C7 1346   3.780   2.508   1.008 -0.1512  0.0658 -0.3169
   88TCq2    C8 1347   3.979   2.445   0.897  0.7186  0.0754 -0.1102
   88TCq2    O4 1348   4.083   2.378   0.907  0.4526 -0.5915  0.2244
   88TCq2    C9 1349   3.961   2.393   1.374 -0.3825 -0.1381 -1.5428
   88TCq2    O5 1350   4.082   2.355   1.367 -0.1437  0.1352  0.1637
   88TCq2    O6 1351   3.891   2.375   1.475 -0.4180  0.1895  0.2403
   88TCq2    H2 1352   3.717   2.496   1.342  1.3763 -3.1769  1.1387
   88TCq2    H3 1353   4.078   2.398   1.139 -0.2543 -0.7608 -0.1519
   88TCq2    H4 1354   3.722   2.504   0.917  0.0617  0.0256 -0.4502
   89MPD2     C 1355   3.970   4.418   1.561  0.2408  0.2522  1.0521
   89MPD2    C1 1356   3.890   4.510   1.486 -0.2763  0.2550 -0.1630
   89MPD2    C2 1357   3.956   4.578   1.385  0.9691 -0.6200 -0.1944
   89MPD2    C3 1358   4.083   4.550   1.347 -0.4374  0.7272 -0.3996
   89MPD2    C4 1359   4.155   4.455   1.414  0.6556 -0.2868 -0.0509
   89MPD2    C5 1360   4.096   4.393   1.520  1.1011  0.4376  0.2631
   89MPD2     H 1361   3.902   4.653   1.328 -1.1922 -0.0550  2.6300
   89MPD2    H1 1362   4.254   4.418   1.388  0.8502 -0.6139  1.1538
   89MPD2    H2 1363   3.927   4.366   1.646 -0.3451  0.6937  1.0234
   89MPD2    H3 1364   4.156   4.324   1.579  0.9516 -0.2505 -0.3924
   89MPD2     N 1365   4.143   4.615   1.237 -0.9793  0.6331  0.1227
   89MPD2    H5 1366   4.085   4.690   1.199 -1.5513  0.0195 -0.2170
   89MPD2    N1 1367   3.758   4.536   1.514 -0.1635 -0.1952  0.1463
   89MPD2    H7 1368   3.716   4.615   1.465  1.9801 -0.0700 -1.5128
   90TCq2    C1 1369   4.271   4.593   1.184  0.2221 -0.1126 -0.3786
   90TCq2    O2 1370   4.349   4.503   1.200  0.3878  0.0193 -0.1104
   90TCq2    C2 1371   4.317   4.715   1.107 -0.5466 -0.4404  0.2572
   90TCq2    C3 1372   4.436   4.707   1.038  0.4917 -0.0840  0.2639
   90TCq2    C4 1373   4.470   0.086   0.954 -0.4304 -0.4592 -0.0487
   90TCq2    C5 1374   4.399   0.204   0.945 -0.5507 -0.1372  0.3426
   90TCq2    C6 1375   4.292   0.216   1.030 -0.1667  0.2613 -0.3185
   90TCq2    C7 1376   4.243   0.103   1.096  0.1739 -0.0997  0.4530
   90TCq2    C8 1377   4.214   0.333   1.040  0.4694  0.3888  0.2323
   90TCq2    O4 1378   4.096   0.321   1.061  0.2319 -0.4878 -0.4496
   90TCq2    C9 1379   4.585   0.086   0.870  0.1545  0.0667 -0.7385
   90TCq2    O5 1380   4.668   4.718   0.888  0.2253  0.0004 -0.1294
   90TCq2    O6 1381   4.602   0.187   0.795  0.3376  0.4659 -0.0733
   90TCq2    H2 1382   4.503   4.622   1.039  1.0681  0.3746  0.4549
   90TCq2    H3 1383   4.415   0.276   0.865 -0.7432 -0.0630  0.3699
   90TCq2    H4 1384   4.171   0.130   1.173 -0.3744 -0.5873  0.1129
   91TMC2    C1 1385   0.859   0.497  16.507 -0.6561 -0.0167  0.0915
   91TMC2    C2 1386   0.852   0.611  16.579  0.2143 -0.2187 -0.2187
   91TMC2    C3 1387   0.789   0.600  16.699 -0.2722  0.2958  0.3275
   91TMC2    C4 1388   0.795   0.381  16.550 -0.1095  0.2491  0.3110
   91TMC2    C5 1389   0.721   0.381  16.665 -0.0859  0.4903 -0.3488
   91TMC2    C6 1390   0.717   0.491  16.739 -0.1830 -0.0084  0.0918
   91TMC2     C 1391   0.934   0.494  16.376  0.4644  0.1799 -0.0191
   91TMC2     O 1392   0.950   0.599  16.318  0.5115  0.5040 -0.2548
   91TMC2     H 1393   0.901   0.701  16.544 -0.8115  0.9847  1.4200
   91TMC2    H1 1394   0.795   0.295  16.484 -0.5413 -0.7112  1.5729
   91TMC2    H2 1395   0.657   0.495  16.829 -0.5990  1.5299 -0.2489
   91TMC2    C7 1396   0.648   0.267  16.714 -0.5538 -0.6368  0.3466
   91TMC2    C8 1397   0.807   0.708  16.786  0.7333 -0.2208  0.4030
   91TMC2    O1 1398   0.582   0.272  16.817  0.2977 -0.0554 -0.0906
   91TMC2    O2 1399   0.725   0.733  16.871 -0.1591  0.4183 -0.5671
   91TMC2    O5 1400   0.935   0.695  16.808 -0.2385  0.0869 -0.3940
   91TMC2    H5 1401   0.988   0.652  16.738 -0.9218 -0.5344 -0.5267
   92MPD2     C 1402   1.116   0.427  16.145 -0.5488  0.4945 -0.5396
   92MPD2    C1 1403   1.082   0.342  16.245 -0.3159 -0.5917 -0.9881
   92MPD2    C2 1404   1.139   0.217  16.250 -0.2449 -0.5771 -0.2984
   92MPD2    C3 1405   1.236   0.175  16.153 -0.0094  0.2707  1.0991
   92MPD2    C4 1406   1.276   0.268  16.061  0.1903  0.2676 -0.5110
   92MPD2    C5 1407   1.216   0.390  16.058  0.1369  0.3614  0.7333
   92MPD2     H 1408   1.100   0.151  16.327  0.5300  0.2449  0.8098
   92MPD2    H1 1409   1.340   0.241  15.977 -0.6841 -0.8371 -0.8245
   92MPD2    H2 1410   1.072   0.526  16.143 -1.5115  0.0791  0.2019
   92MPD2    H3 1411   1.247   0.453  15.976  2.8765 -1.5162  0.3285
   92MPD2     N 1412   1.302   0.059  16.176 -0.3266 -0.0447  0.5541
   92MPD2    H5 1413   1.273   0.009  16.259  2.4601 -2.5826 -0.0073
   92MPD2    N1 1414   0.991   0.371  16.349  0.8626  0.3735  0.4438
   92MPD2    H7 1415   0.975   0.292  16.411 -1.0484  1.5887  1.5273
   93MPD2     C 1416   3.272   4.582  13.984 -0.1452 -0.2907  0.7677
   93MPD2    C1 1417   3.250   4.716  13.968 -0.6191 -0.2137  0.2320
   93MPD2    C2 1418   3.116   0.036  13.962 -0.4542 -0.7881  0.2629
   93MPD2    C3 1419   3.013   4.668  13.978  0.5390  0.1357  0.3834
   93MPD2    C4 1420   3.047   4.538  14.000 -0.3487 -0.0901  0.3511
   93MPD2    C5 1421   3.176   4.498  14.012 -1.0326  0.4937 -0.3828
   93MPD2     H 1422   3.093   0.141  13.949 -0.0521 -0.5082  1.7966
   93MPD2    H1 1423   2.973   4.463  14.024  0.6712 -0.7478  1.4244
   93MPD2    H2 1424   3.376   4.553  13.989  0.1971  0.6111 -0.9921
   93MPD2    H3 1425   3.197   4.392  14.016 -2.3599  0.2739  1.0863
   93MPD2     N 1426   2.876   4.705  13.985  0.1384 -0.1773  0.7166
   93MPD2    H5 1427   2.812   4.627  14.000  0.7966 -0.8993 -0.2128
   93MPD2    N1 1428   3.349   0.092  13.954  0.0513 -0.4941 -0.2978
   93MPD2    H7 1429   3.315   0.186  13.968  0.3080 -0.6589  1.5224
   94TCq2    C1 1430   3.489   0.066  13.969 -0.0834 -0.1017 -0.4101
   94TCq2    O2 1431   3.549   4.690  13.945  0.1292 -0.1863  0.2664
   94TCq2    C2 1432   3.561   0.193  13.985  0.0751 -0.2652 -0.6254
   94TCq2    C3 1433   3.519   0.278  14.082 -0.1260 -0.3136  0.4210
   94TCq2    C4 1434   3.602   0.384  14.108 -0.1561 -0.1278 -0.7510
   94TCq2    C5 1435   3.717   0.403  14.029  0.1097 -0.1600  0.8782
   94TCq2    C6 1436   3.752   0.300  13.947  0.1487 -0.0137  0.4036
   94TCq2    C7 1437   3.676   0.196  13.914 -0.1579  0.2067 -0.8807
   94TCq2    C8 1438   3.891   0.293  13.905  0.2652  0.7563  0.0088
   94TCq2    O4 1439   3.917   0.211  13.816  0.2053  0.3637 -0.1003
   94TCq2    C9 1440   3.569   0.486  14.207  0.2413 -0.3156 -0.0709
   94TCq2    O5 1441   3.455   0.474  14.263 -0.4484 -1.3953  0.0411
   94TCq2    O6 1442   3.667   0.555  14.246  0.2613  0.0178 -0.4213
   94TCq2    H2 1443   3.435   0.252  14.145 -1.1219  0.6981 -0.4896
   94TCq2    H3 1444   3.768   0.498  14.038 -0.9117  0.4859 -0.0421
   94TCq2    H4 1445   3.717   0.120  13.848  1.7371  0.2658  0.2359
   95TMC2    C1 1446   3.311   2.414  16.220 -0.6013 -0.2905  0.5205
   95TMC2    C2 1447   3.264   2.540  16.193  0.0332 -0.3423 -0.6308
   95TMC2    C3 1448   3.210   2.619  16.293  0.5442  0.5048 -0.1600
   95TMC2    C4 1449   3.324   2.372  16.355 -0.2286  0.0861 -0.2873
   95TMC2    C5 1450   3.265   2.447  16.453  0.0286  0.6285 -0.0346
   95TMC2    C6 1451   3.211   2.571  16.421  0.5479  0.7667  0.2325
   95TMC2     C 1452   3.378   2.355  16.108 -0.6313 -0.5111 -0.2484
   95TMC2     O 1453   3.401   2.417  16.006 -0.0674  0.1695  0.2867
   95TMC2     H 1454   3.280   2.590  16.098 -0.5364 -1.4574 -1.3121
   95TMC2    H1 1455   3.366   2.275  16.378 -2.9055 -0.8806  0.5544
   95TMC2    H2 1456   3.182   2.636  16.502 -1.6025 -1.1885  1.0313
   95TMC2    C7 1457   3.264   2.412  16.597 -0.1673  0.1826 -0.1373
   95TMC2    C8 1458   3.240   2.760  16.280 -0.5098  0.0111  0.0771
   95TMC2    O1 1459   3.220   2.496  16.681 -0.1981  0.0002 -0.0775
   95TMC2    O2 1460   3.315   2.808  16.195 -0.1141  0.5445 -0.3544
   95TMC2    O5 1461   3.142   2.826  16.346  0.0580 -0.1458 -0.3139
   95TMC2    H5 1462   3.069   2.777  16.391 -1.3855  1.8555 -0.4955
   96MPD2     C 1463   3.563   1.955  15.866  0.3239 -0.2008  0.5939
   96MPD2    C1 1464   3.592   2.087  15.852  0.0078 -0.4716 -0.3593
   96MPD2    C2 1465   3.535   2.177  15.941  0.0305  0.2924  0.1080
   96MPD2    C3 1466   3.449   2.131  16.041 -0.1327  0.3262 -0.4637
   96MPD2    C4 1467   3.435   1.993  16.062  0.1030 -0.8027 -0.1776
   96MPD2    C5 1468   3.488   1.913  15.965  0.5407 -0.2045  0.8079
   96MPD2     H 1469   3.555   2.284  15.938 -3.6864  0.9704 -0.0632
   96MPD2    H1 1470   3.375   1.944  16.138  0.1037 -1.1193 -0.3797
   96MPD2    H2 1471   3.609   1.877  15.806  1.7960  2.0232 -1.2041
   96MPD2    H3 1472   3.492   1.806  15.982 -0.2820 -0.2261  0.8700
   96MPD2     N 1473   3.388   2.219  16.130 -0.3102 -0.5628  0.1192
   96MPD2    H5 1474   3.355   2.181  16.218 -1.6207  0.4098  0.0497
   96MPD2    N1 1475   3.682   2.119  15.750  0.0706 -0.2596  0.4849
   96MPD2    H7 1476   3.696   2.042  15.686 -0.5914  1.7527 -2.0733
   97MPD2     C 1477   0.631   3.806   0.789  0.0789  0.3929 -0.4207
   97MPD2    C1 1478   0.523   3.881   0.840  0.0441 -0.1470  0.1733
   97MPD2    C2 1479   0.500   4.014   0.786 -0.1658  0.3204  0.0134
   97MPD2    C3 1480   0.586   4.069   0.690  0.0596  0.4640 -0.5978
   97MPD2    C4 1481   0.697   3.991   0.650 -0.1368 -0.2638 -0.6071
   97MPD2    C5 1482   0.717   3.865   0.700 -0.5720  0.5275 -0.1616
   97MPD2     H 1483   0.414   4.073   0.815  0.4668  0.3829  1.7412
   97MPD2    H1 1484   0.784   4.029   0.599 -0.7609 -2.0193 -2.9581
   97MPD2    H2 1485   0.660   3.709   0.828  0.1466 -0.3337 -2.2792
   97MPD2    H3 1486   0.801   3.805   0.667  0.1644 -0.3324  3.2968
   97MPD2     N 1487   0.573   4.194   0.624  0.3621 -0.1585 -0.3217
   97MPD2    H5 1488   0.646   4.222   0.559 -0.6028  2.2181 -0.3539
   97MPD2    N1 1489   0.446   3.815   0.940  0.0082  0.7763  0.0535
   97MPD2    H7 1490   0.479   3.725   0.973 -1.0931  1.0268  1.8271
   98TCq2    C1 1491   0.458   4.274   0.636  0.6232 -0.3045 -0.4206
   98TCq2    O2 1492   0.345   4.254   0.685  0.3226 -0.8745  0.7034
   98TCq2    C2 1493   0.467   4.393   0.566 -0.2976 -0.7319  0.1525
   98TCq2    C3 1494   0.378   4.493   0.611 -0.3972 -0.3841 -0.5364
   98TCq2    C4 1495   0.405   4.623   0.582 -0.2094 -0.1863 -0.0740
   98TCq2    C5 1496   0.516   4.660   0.507 -0.1164 -0.2883 -0.0327
   98TCq2    C6 1497   0.602   4.556   0.464 -0.0324  0.1433 -0.6458
   98TCq2    C7 1498   0.576   4.421   0.486  0.1339  0.4213  0.2815
   98TCq2    C8 1499   0.719   4.584   0.377 -0.4440 -1.0428  0.0692
   98TCq2    O4 1500   0.789   4.488   0.352 -0.0513 -0.1140  0.5706
   98TCq2    C9 1501   0.321   4.725   0.634 -0.2797 -1.2382 -0.4384
   98TCq2    O5 1502   0.349   0.120   0.620  0.4274  0.1728  0.2739
   98TCq2    O6 1503   0.226   4.689   0.711  0.3160  0.0506  0.2433
   98TCq2    H2 1504   0.298   4.472   0.682 -1.7203  0.6110 -1.7236
   98TCq2    H3 1505   0.535   0.035   0.475  2.8384 -1.2680 -1.4080
   98TCq2    H4 1506   0.631   4.338   0.442 -1.5517 -1.7350  2.2469
   99MPD2     C 1507   4.467   1.362   1.518  0.0503  0.0156  0.0240
   99MPD2    C1 1508   4.371   1.283   1.470  0.0316 -0.1508 -0.4653
   99MPD2    C2 1509   4.326   1.302   1.336  0.1275  0.4426  0.2788
   99MPD2    C3 1510   4.379   1.400   1.253  0.3040  0.2162  0.1554
   99MPD2    C4 1511   4.470   1.480   1.316  0.0023 -0.4278 -0.4784
   99MPD2    C5 1512   4.520   1.458   1.446 -0.8629 -0.2762  0.2094
   99MPD2     H 1513   4.248   1.242   1.292  1.1313  0.3043 -1.3124
   99MPD2    H1 1514   4.506   1.571   1.268  1.3254 -1.5893 -1.6865
   99MPD2    H2 1515   4.510   1.345   1.616 -0.3836 -0.9819  0.0373
   99MPD2    H3 1516   4.594   1.527   1.485 -1.5211  0.8031 -0.4460
   99MPD2     N 1517   4.320   1.409   1.126 -0.1715  0.3129  0.9337
   99MPD2    H5 1518   4.252   1.341   1.093  0.5422  0.9214 -1.7872
   99MPD2    N1 1519   4.310   1.185   1.556  0.3571  0.0346  0.1511
   99MPD2    H7 1520   4.228   1.138   1.520  0.5506  1.5701 -2.3013
  100TCq2    C1 1521   4.353   1.148   1.684  0.0721 -0.8336  0.1381
  100TCq2    O2 1522   4.430   1.199   1.765 -0.4070  0.6301 -0.2002
  100TCq2    C2 1523   4.250   1.066   1.745  0.2451 -0.1882 -0.2484
  100TCq2    C3 1524   4.187   1.115   1.862  0.0609  0.8940  0.2043
  100TCq2    C4 1525   4.062   1.062   1.890 -0.3758  0.2335 -0.1575
  100TCq2    C5 1526   4.003   0.964   1.808 -0.0899  0.1860  0.1901
  100TCq2    C6 1527   4.072   0.927   1.699  0.3142  0.4582 -0.1562
  100TCq2    C7 1528   4.192   0.976   1.662  0.5897  0.6680  0.5884
  100TCq2    C8 1529   4.021   0.842   1.599 -0.1938  0.0495  0.7080
  100TCq2    O4 1530   4.099   0.810   1.509 -0.5063  0.5973  0.4640
  100TCq2    C9 1531   3.987   1.097   2.006 -0.0913  0.1243 -0.4486
  100TCq2    O5 1532   4.044   1.170   2.089 -0.0131 -0.5547  0.7585
  100TCq2    O6 1533   3.865   1.095   1.986 -0.1047  0.2262  0.0558
  100TCq2    H2 1534   4.233   1.196   1.917  0.0475  0.3159  1.0659
  100TCq2    H3 1535   3.910   0.917   1.838 -1.1674  2.2953  0.1279
  100TCq2    H4 1536   4.242   0.952   1.569  0.1372  0.1122  0.4922
  101MPD2     C 1537   0.058   2.188  12.735 -0.3913  0.3311 -0.1627
  101MPD2    C1 1538   4.723   2.274  12.824 -0.4184  0.5737  0.8321
  101MPD2    C2 1539   4.672   2.226  12.941 -0.2172 -0.4414  0.4376
  101MPD2    C3 1540   4.694   2.092  12.968  0.2650 -0.7348  0.5708
  101MPD2    C4 1541   0.027   2.011  12.874 -0.2291  0.0768 -0.4865
  101MPD2    C5 1542   0.075   2.064  12.761 -0.3346 -0.3085  0.0857
  101MPD2     H 1543   4.608   2.289  13.002  1.8883  0.8974  1.2968
  101MPD2    H1 1544   0.040   1.904  12.885  1.5955  0.3005 -0.3917
  101MPD2    H2 1545   0.102   2.220  12.641 -0.1187 -0.2221 -0.2215
  101MPD2    H3 1546   0.122   1.997  12.691 -0.0276 -0.4821  0.4565
  101MPD2     N 1547   4.645   2.036  13.094  0.4719  0.2871  0.3832
  101MPD2    H5 1548   4.664   1.937  13.110 -1.1462  0.1057  1.1504
  101MPD2    N1 1549   4.696   2.403  12.778 -0.1774 -0.0403  0.3522
  101MPD2    H7 1550   0.005   2.432  12.688 -1.5269  1.1467  0.2032
  102TCq2    C1 1551   0.165   2.847  12.628  0.3326  0.5837  0.6567
  102TCq2    O2 1552   0.179   2.918  12.527 -0.6701 -0.0996  0.1563
  102TCq2    C2 1553   0.033   2.796  12.662 -0.4898  0.1580  0.2815
  102TCq2    C3 1554   4.650   2.842  12.590 -0.1023 -0.4438 -0.3090
  102TCq2    C4 1555   4.527   2.775  12.595  0.4538 -0.0970 -0.7266
  102TCq2    C5 1556   4.517   2.679  12.692 -0.3424 -0.2724 -0.9210
  102TCq2    C6 1557   4.629   2.624  12.748 -0.7617  0.2237 -0.0418
  102TCq2    C7 1558   0.027   2.680  12.734 -0.0691  0.5330 -0.0263
  102TCq2    C8 1559   4.612   2.503  12.830 -0.1345 -0.3655  0.4063
  102TCq2    O4 1560   4.525   2.485  12.914 -0.0493 -0.1725 -0.5215
  102TCq2    C9 1561   4.412   2.830  12.530  0.0354 -0.5355  1.0965
  102TCq2    O5 1562   4.425   2.944  12.482  0.3486 -0.3834  0.1308
  102TCq2    O6 1563   4.306   2.768  12.561 -0.1300 -0.5660 -0.6864
  102TCq2    H2 1564   4.656   2.935  12.534  1.9396 -0.4006 -0.0076
  102TCq2    H3 1565   4.418   2.637  12.704 -0.8738  1.7229  1.7113
  102TCq2    H4 1566   0.109   2.624  12.777  0.6941  0.8363 -1.0666
  103TMC2    C1 1567   3.237   2.626  12.739  0.0151  0.5571 -0.2840
  103TMC2    C2 1568   3.239   2.755  12.703 -0.5076  0.0285  0.5167
  103TMC2    C3 1569   3.264   2.856  12.796  0.4215 -0.4244  0.9241
  103TMC2    C4 1570   3.265   2.589  12.866 -0.0619  0.0510 -0.2691
  103TMC2    C5 1571   3.311   2.686  12.954  0.0840  0.3177 -0.0735
  103TMC2    C6 1572   3.293   2.819  12.927  0.8577 -0.2824 -0.1569
  103TMC2     C 1573   3.184   2.536  12.643  0.0059 -0.3362  0.3897
  103TMC2     O 1574   3.120   2.586  12.552 -0.2937 -0.0469 -0.4523
  103TMC2     H 1575   3.194   2.789  12.611  2.6286  1.8687 -0.3190
  103TMC2    H1 1576   3.248   2.488  12.903 -1.1501  0.0693 -0.7046
  103TMC2    H2 1577   3.298   2.900  12.999  2.2125  0.0475 -0.6304
  103TMC2    C7 1578   3.298   2.649  13.085 -0.7697 -0.8978 -0.5829
  103TMC2    C8 1579   3.188   2.981  12.784 -0.2726  0.2775  0.2497
  103TMC2    O1 1580   3.277   2.532  13.106 -0.4553 -0.5486 -0.6732
  103TMC2    O2 1581   3.079   2.989  12.726  0.0751  0.2128  0.0468
  103TMC2    O5 1582   3.283   3.065  12.745  0.2131 -0.1282 -0.4027
  103TMC2    H5 1583   3.371   3.040  12.781  0.9173  1.0386 -1.2854
  104MPD2     C 1584   3.170   2.179  12.700 -0.3402  0.0783 -0.4010
  104MPD2    C1 1585   3.173   2.289  12.619 -0.2269 -0.7833  0.5837
  104MPD2    C2 1586   3.138   2.273  12.490  0.2881  0.1614 -0.7600
  104MPD2    C3 1587   3.099   2.147  12.440  0.5340  0.6337 -0.5089
  104MPD2    C4 1588   3.114   2.038  12.523 -0.2331  0.1566 -0.3530
  104MPD2    C5 1589   3.150   2.055  12.655 -0.5374  0.0590  0.1498
  104MPD2     H 1590   3.127   2.361  12.427  0.4834  1.6069  1.2401
  104MPD2    H1 1591   3.093   1.933  12.505  0.0615  0.4151 -2.1828
  104MPD2    H2 1592   3.211   2.202  12.798  1.0485 -0.4027 -0.8704
  104MPD2    H3 1593   3.154   1.974  12.728  0.8253 -0.0870 -0.0967
  104MPD2     N 1594   3.044   2.130  12.310  0.5647 -0.3254  0.2980
  104MPD2    H5 1595   3.030   2.215  12.256 -2.3553 -1.0043 -0.0425
  104MPD2    N1 1596   3.205   2.413  12.684  0.4860  0.7298 -0.3305
  104MPD2    H7 1597   3.261   2.404  12.769  0.2767  1.6115 -0.0982
  105MPD2     C 1598   0.274   2.110  17.522 -0.3063  0.1158  0.1592
  105MPD2    C1 1599   0.136   2.131  17.510  0.1452 -0.3133 -0.5255
  105MPD2    C2 1600   0.071   2.205  17.600 -0.4454  0.9033 -0.2190
  105MPD2    C3 1601   0.131   2.253   0.007  0.3111 -0.2719 -0.4851
  105MPD2    C4 1602   0.269   2.236   0.020  0.1228  0.1713 -0.4389
  105MPD2    C5 1603   0.336   2.168  17.633  0.0870 -0.7345  0.6026
  105MPD2     H 1604   4.689   2.207  17.593 -0.4700  0.9427  0.1616
  105MPD2    H1 1605   0.320   2.270   0.109  0.9408 -0.7059 -0.5606
  105MPD2    H2 1606   0.338   2.070  17.444  1.1925 -0.8128  1.8731
  105MPD2    H3 1607   0.442   2.153  17.653 -0.1387 -1.8669  0.9305
  105MPD2     N 1608   0.045   2.293   0.111 -0.0978 -0.3664 -0.2579
  105MPD2    H5 1609   4.672   2.277   0.101  0.2508 -2.0492 -0.9869
  105MPD2    N1 1610   0.060   2.072  17.413  0.0483  0.2434  0.5588
  105MPD2    H7 1611   4.702   2.118  17.382 -0.5953 -0.9169  0.5944
  106TCq2    C1 1612   0.089   2.329   0.236 -0.6026  0.0789  0.8148
  106TCq2    O2 1613   0.205   2.350   0.271 -0.1041 -0.2452 -0.5631
  106TCq2    C2 1614   4.711   2.324   0.336  0.4265 -0.4179 -0.2603
  106TCq2    C3 1615   0.007   2.268   0.458  0.3593 -0.6844 -0.1492
  106TCq2    C4 1616   4.630   2.221   0.538 -0.1420  0.4180  0.2029
  106TCq2    C5 1617   4.503   2.248   0.503  0.1074  0.4219 -0.6087
  106TCq2    C6 1618   4.488   2.319   0.388  0.1840  0.0251  0.5685
  106TCq2    C7 1619   4.585   2.356   0.303 -0.0061 -0.0669 -0.3252
  106TCq2    C8 1620   4.358   2.378   0.368  0.0287  0.2654  0.2303
  106TCq2    O4 1621   4.335   2.425   0.257 -0.3551 -0.4353  0.0544
  106TCq2    C9 1622   4.658   2.139   0.652 -0.3382  0.0399 -0.4168
  106TCq2    O5 1623   0.043   2.127   0.694  0.2673  0.4831  0.2381
  106TCq2    O6 1624   4.556   2.088   0.709 -0.7071  0.4364 -0.5058
  106TCq2    H2 1625   0.105   2.224   0.472  0.1044 -0.0003  3.7049
  106TCq2    H3 1626   4.418   2.217   0.563  1.8874  1.3706  2.4030
  106TCq2    H4 1627   4.568   2.411   0.211 -0.2625  1.5606  0.6884
  107TMC2    C1 1628   0.499   0.201  11.267 -0.2322 -0.0339  0.0123
  107TMC2    C2 1629   0.611   0.216  11.189 -0.0156  0.0430  0.1493
  107TMC2    C3 1630   0.685   0.102  11.164 -0.2544 -0.3889  0.1384
  107TMC2    C4 1631   0.451   0.073  11.306 -0.0722  0.2463 -0.2740
  107TMC2    C5 1632   0.511   4.693  11.253  0.3971 -0.0453  0.1248
  107TMC2    C6 1633   0.626   4.701  11.175 -0.4299 -0.1886  0.9989
  107TMC2     C 1634   0.458   0.310  11.340 -0.3089  0.5248  0.3826
  107TMC2     O 1635   0.430   0.292  11.460  0.3497 -0.1675  0.1863
  107TMC2     H 1636   0.667   0.308  11.172 -0.6646  0.3983 -0.0889
  107TMC2    H1 1637   0.363   0.056  11.368  1.6044 -2.9806  1.2386
  107TMC2    H2 1638   0.679   4.607  11.166 -0.2819 -0.1386  1.3467
  107TMC2    C7 1639   0.435   4.574  11.227 -0.6444  0.0986  0.1178
  107TMC2    C8 1640   0.826   0.120  11.169  0.0242 -0.2435  0.0639
  107TMC2    O1 1641   0.342   4.560  11.305  0.3856 -0.2755 -0.9666
  107TMC2    O2 1642   0.881   0.221  11.209 -0.3630  0.3791 -0.1269
  107TMC2    O5 1643   0.896   0.023  11.110  0.0730  0.1037  0.1153
  107TMC2    H5 1644   0.840   4.680  11.068  1.6856 -1.6354  0.8636
  108MPD2     C 1645   0.510   0.656  11.224 -0.5851  0.7094 -0.5536
  108MPD2    C1 1646   0.476   0.555  11.313 -0.4965 -0.3181 -0.2954
  108MPD2    C2 1647   0.440   0.594  11.443 -0.4556  0.1143 -0.6075
  108MPD2    C3 1648   0.441   0.728  11.476 -0.4516  0.6030  0.1214
  108MPD2    C4 1649   0.469   0.825  11.383 -0.1295 -0.0509 -0.0807
  108MPD2    C5 1650   0.506   0.786  11.258  0.0475 -0.1570 -0.0113
  108MPD2     H 1651   0.421   0.517  11.517 -1.4356  1.1273  0.1906
  108MPD2    H1 1652   0.469   0.929  11.412  0.1917 -0.5556  1.7303
  108MPD2    H2 1653   0.542   0.624  11.125  0.5831  0.4239 -0.0869
  108MPD2    H3 1654   0.531   0.857  11.180  0.6197  0.2567  0.5448
  108MPD2     N 1655   0.414   0.770  11.607  0.1146  0.0260 -0.4708
  108MPD2    H5 1656   0.401   0.870  11.619 -1.4739 -0.4064  1.3641
  108MPD2    N1 1657   0.484   0.423  11.268  0.5861 -0.6412  0.1436
  108MPD2    H7 1658   0.507   0.406  11.171 -1.0168 -3.0176  0.1705
  109MPD2     C 1659   4.563   2.842   2.033 -0.6085 -0.6700 -0.1106
  109MPD2    C1 1660   4.596   2.900   1.914  0.8111  0.3893 -0.0617
  109MPD2    C2 1661   4.724   2.911   1.877 -0.8875  0.3123 -0.7558
  109MPD2    C3 1662   0.100   2.893   1.969 -0.2364  0.3862  0.3069
  109MPD2    C4 1663   0.068   2.832   2.088  0.4672  0.3450 -0.2732
  109MPD2    C5 1664   4.667   2.805   2.119 -0.4397  0.4590 -0.1038
  109MPD2     H 1665   0.024   2.970   1.790  1.5951 -0.7872 -0.7356
  109MPD2    H1 1666   0.148   2.826   2.161 -0.9720 -3.1131  1.0512
  109MPD2    H2 1667   4.461   2.812   2.051 -0.2053 -0.8218  1.9703
  109MPD2    H3 1668   4.634   2.751   2.206 -3.4011  1.0221 -0.8515
  109MPD2     N 1669   0.233   2.912   1.920 -0.2900 -1.2809 -0.8096
  109MPD2    H5 1670   0.253   2.965   1.836  1.3100  0.8513  0.9312
  109MPD2    N1 1671   4.492   2.946   1.829  0.3253 -0.1393  0.1743
  109MPD2    H7 1672   4.398   2.948   1.867  0.1564 -0.8241 -0.2068
  110TCq2    C1 1673   0.350   2.864   1.977  0.2196  0.5897  0.0027
  110TCq2    O2 1674   0.368   2.776   2.062  0.1377  0.0302  0.5040
  110TCq2    C2 1675   0.468   2.908   1.898  0.0904  0.0733  0.5040
  110TCq2    C3 1676   0.581   2.826   1.888  0.0522 -0.9348  0.5730
  110TCq2    C4 1677   0.679   2.848   1.796  0.3494  0.5070 -0.1740
  110TCq2    C5 1678   0.677   2.959   1.727  0.6571  0.4729 -0.0538
  110TCq2    C6 1679   0.579   3.053   1.747 -0.2147 -0.2149 -0.2717
  110TCq2    C7 1680   0.465   3.021   1.827 -0.0018 -0.2157  0.1164
  110TCq2    C8 1681   0.566   3.176   1.668  0.5061 -0.7785 -0.0079
  110TCq2    O4 1682   0.450   3.212   1.654 -0.5544  0.1933 -0.1889
  110TCq2    C9 1683   0.780   2.753   1.772  0.1035 -0.7761 -0.2073
  110TCq2    O5 1684   0.765   2.632   1.814  0.1589  0.4930 -0.2875
  110TCq2    O6 1685   0.893   2.793   1.726  0.7269 -0.1408 -0.0508
  110TCq2    H2 1686   0.588   2.729   1.936  1.1492 -0.9082  0.4765
  110TCq2    H3 1687   0.760   2.975   1.659  0.3164 -1.5093 -0.9573
  110TCq2    H4 1688   0.380   3.087   1.838 -0.5085 -1.0812  1.3757
  111TMC2    C1 1689   4.684   2.989  11.694 -0.5302 -0.3158  0.2953
  111TMC2    C2 1690   4.604   3.008  11.803 -0.0550 -0.2918 -0.0076
  111TMC2    C3 1691   4.651   3.117  11.875  0.5589 -0.1719  0.1435
  111TMC2    C4 1692   0.085   3.037  11.680  0.1722  0.5328  0.5548
  111TMC2    C5 1693   0.124   3.134  11.767 -0.1896  0.9356  0.4866
  111TMC2    C6 1694   0.040   3.185  11.854 -0.0967 -0.8180  0.6161
  111TMC2     C 1695   4.649   2.887  11.591 -0.3677  0.4041 -0.2272
  111TMC2     O 1696   4.722   2.880  11.490 -0.3150 -0.9328 -0.6083
  111TMC2     H 1697   4.503   2.970  11.813 -0.8264  1.0974 -2.6281
  111TMC2    H1 1698   0.154   2.986  11.614 -0.4369  0.7683 -0.2729
  111TMC2    H2 1699   0.074   3.263  11.922 -1.2527 -0.4270  0.7539
  111TMC2    C7 1700   0.263   3.156  11.799  0.0326 -0.1617 -0.1599
  111TMC2    C8 1701   4.553   3.182  11.968 -0.0505 -0.0667  0.0973
  111TMC2    O1 1702   0.295   3.187  11.914 -0.4451  0.6983  0.6479
  111TMC2    O2 1703   4.446   3.221  11.919 -0.5855 -0.7710 -0.6652
  111TMC2    O5 1704   4.623   3.235  12.069 -0.2517  0.1854 -0.6886
  111TMC2    H5 1705   4.700   3.179  12.094  0.5636  1.2671 -0.7747
  112MPD2     C 1706   4.312   2.607  11.322  1.2401 -0.6583  0.2221
  112MPD2    C1 1707   4.430   2.668  11.284 -0.6631 -0.6537 -0.0532
  112MPD2    C2 1708   4.508   2.731  11.378  0.6590 -0.1964 -0.0519
  112MPD2    C3 1709   4.474   2.734  11.513 -0.4014 -0.1180 -0.2897
  112MPD2    C4 1710   4.371   2.651  11.547  0.0083  0.1480  0.2940
  112MPD2    C5 1711   4.287   2.586  11.460  0.5018  0.7007  0.6359
  112MPD2     H 1712   4.592   2.785  11.334 -0.2809  1.5488  0.3022
  112MPD2    H1 1713   4.344   2.642  11.652 -1.0168  0.3161  0.0410
  112MPD2    H2 1714   4.237   2.575  11.251  0.7939 -1.1004  0.8937
  112MPD2    H3 1715   4.194   2.538  11.489  0.3056  0.8577  0.2602
  112MPD2     N 1716   4.532   2.817  11.613  0.1809 -0.6594 -0.6415
  112MPD2    H5 1717   4.472   2.825  11.695  1.5122  0.4098  0.2368
  112MPD2    N1 1718   4.465   2.694  11.149 -0.9316  0.6360 -0.7366
  112MPD2    H7 1719   4.541   2.759  11.132  0.2366  0.0036  2.0927
  113MPD2     C 1720   3.200   0.784   0.787  0.2636 -0.2552  0.0196
  113MPD2    C1 1721   3.144   0.912   0.791 -1.3943  0.4168  0.2285
  113MPD2    C2 1722   3.023   0.935   0.731 -0.3471  0.0605  0.5892
  113MPD2    C3 1723   2.959   0.832   0.661 -0.4962 -1.0058  0.1618
  113MPD2    C4 1724   3.009   0.701   0.661 -0.2944  0.0560 -0.0704
  113MPD2    C5 1725   3.139   0.680   0.719 -0.3645 -0.9269 -0.0960
  113MPD2     H 1726   2.980   1.034   0.743  1.4428  0.6167  2.5449
  113MPD2    H1 1727   2.947   0.618   0.627 -1.6018  0.8805  0.3053
  113MPD2    H2 1728   3.301   0.762   0.820  0.6095 -1.3380 -1.7962
  113MPD2    H3 1729   3.192   0.586   0.713  0.9197 -0.0961 -1.8248
  113MPD2     N 1730   2.822   0.839   0.609  0.4617 -0.1189  0.7005
  113MPD2    H5 1731   2.777   0.752   0.584  0.6669  0.3280 -1.1588
  113MPD2    N1 1732   3.192   1.015   0.872 -0.5741 -0.2678  0.0281
  113MPD2    H7 1733   3.157   1.109   0.859 -1.3717 -0.5803 -0.1351
  114TCq2    C1 1734   2.759   0.957   0.576 -0.7137 -0.2733  0.0145
  114TCq2    O2 1735   2.816   1.067   0.568  0.1000 -1.0266  0.2419
  114TCq2    C2 1736   2.634   0.933   0.512  0.2444  0.1342  0.8544
  114TCq2    C3 1737   2.638   0.980   0.383  0.8836 -0.1431 -0.4609
  114TCq2    C4 1738   2.598   0.893   0.283 -0.0409  0.0030  0.6828
  114TCq2    C5 1739   2.548   0.766   0.315  0.5888  0.2318 -0.1069
  114TCq2    C6 1740   2.527   0.734   0.445 -0.1226  0.3468  0.3427
  114TCq2    C7 1741   2.568   0.817   0.546  0.3203  0.4105 -0.0765
  114TCq2    C8 1742   2.462   0.608   0.484 -0.3632 -0.3196  0.2997
  114TCq2    O4 1743   2.483   0.523   0.397 -0.0607 -0.1503  0.5672
  114TCq2    C9 1744   2.604   0.935   0.150 -0.6109 -0.4910  0.5333
  114TCq2    O5 1745   2.614   1.055   0.125  0.6624 -0.0408 -0.0893
  114TCq2    O6 1746   2.622   0.845   0.062  0.3132  0.2945  0.7249
  114TCq2    H2 1747   2.687   1.075   0.360  0.8926  0.0325  0.2773
  114TCq2    H3 1748   2.505   0.701   0.240  0.7765 -0.2735  0.2224
  114TCq2    H4 1749   2.579   0.787   0.650  0.1823  2.2424  0.4552
  115TMC2    C1 1750   3.487   3.409   0.129 -0.2786  0.2739 -0.0045
  115TMC2    C2 1751   3.444   3.373   0.256  0.7793 -0.0119  1.0442
  115TMC2    C3 1752   3.355   3.455   0.327  0.2903  0.0056  0.1023
  115TMC2    C4 1753   3.441   3.519   0.068  0.3676  0.3356  0.3622
  115TMC2    C5 1754   3.339   3.593   0.136  0.0080  0.3208  0.5076
  115TMC2    C6 1755   3.297   3.566   0.263 -0.2725  0.5232  0.0308
  115TMC2     C 1756   3.522   3.303   0.044 -0.1744  0.0896 -0.0129
  115TMC2     O 1757   3.501   3.321  17.633  0.0757 -0.1568 -0.1738
  115TMC2     H 1758   3.478   3.284   0.307  1.5126 -1.4387 -1.9977
  115TMC2    H1 1759   3.482   3.547  17.680 -0.4400  1.3056  0.3081
  115TMC2    H2 1760   3.208   3.616   0.299 -0.3068  1.2713 -1.1176
  115TMC2    C7 1761   3.291   3.716   0.078  0.6274 -0.3561 -0.8401
  115TMC2    C8 1762   3.330   3.406   0.453 -0.1561  0.4602  0.4501
  115TMC2    O1 1763   3.216   3.787   0.144  0.2537 -0.2286 -0.8862
  115TMC2    O2 1764   3.284   3.292   0.460 -0.0123 -0.1788  0.1474
  115TMC2    O5 1765   3.328   3.504   0.545 -0.0969 -0.2196  0.0230
  115TMC2    H5 1766   3.374   3.580   0.502 -1.0345 -0.6904 -1.8272
  116MPD2     C 1767   3.861   2.981  17.575  0.4102 -0.5528  0.6425
  116MPD2    C1 1768   3.730   3.000  17.536  0.5605 -0.8867 -0.1828
  116MPD2    C2 1769   3.653   3.081  17.618 -0.2035  0.2456 -0.3639
  116MPD2    C3 1770   3.700   3.143   0.022  0.6912 -0.1338 -0.4446
  116MPD2    C4 1771   3.825   3.104   0.063  0.6516  0.1773  0.2304
  116MPD2    C5 1772   3.907   3.032  17.690  0.6300  0.9163  0.4810
  116MPD2     H 1773   3.548   3.097  17.596 -0.1142 -1.1416 -1.8047
  116MPD2    H1 1774   3.864   3.148   0.154 -1.1918 -1.9401  2.0365
  116MPD2    H2 1775   3.939   2.924  17.525  0.6593  0.0533  0.3285
  116MPD2    H3 1776   4.006   3.006   0.018  0.7414  1.0031  0.2321
  116MPD2     N 1777   3.618   3.228   0.098  0.4074 -0.1019  0.0529
  116MPD2    H5 1778   3.668   3.268   0.176  2.6364  0.5101 -1.6934
  116MPD2    N1 1779   3.693   2.934  17.420 -0.0523 -0.4438  0.2509
  116MPD2    H7 1780   3.770   2.895  17.369  0.3288 -0.4419  0.8212
  117TMC2    C1 1781   2.285   0.653  14.081  0.6819 -0.2921  0.0922
  117TMC2    C2 1782   2.353   0.544  14.131 -0.0894 -0.8338  0.4756
  117TMC2    C3 1783   2.479   0.558  14.172  0.0127  0.2481  0.1045
  117TMC2    C4 1784   2.346   0.770  14.066  0.0032  0.0680 -0.2037
  117TMC2    C5 1785   2.477   0.783  14.102  0.7242 -0.4632  0.4610
  117TMC2    C6 1786   2.547   0.681  14.155 -0.0962 -0.6704  0.2064
  117TMC2     C 1787   2.148   0.633  14.036  0.2109 -0.1642 -0.3883
  117TMC2     O 1788   2.126   0.517  14.004 -0.6333  0.0732  0.2502
  117TMC2     H 1789   2.304   0.448  14.136  1.2046 -1.6033 -1.4767
  117TMC2    H1 1790   2.296   0.850  14.012  1.7670  0.3282 -1.4554
  117TMC2    H2 1791   2.640   0.704  14.206  0.6104  0.2483 -1.4886
  117TMC2    C7 1792   2.533   0.916  14.128  0.8481  0.2729  0.1186
  117TMC2    C8 1793   2.530   0.457  14.259  0.0299 -0.1709 -0.1971
  117TMC2    O1 1794   2.656   0.925  14.131  0.2925 -0.2209 -0.2778
  117TMC2    O2 1795   2.463   0.382  14.323  0.6584 -0.1591 -0.0550
  117TMC2    O5 1796   2.654   0.422  14.212  0.4104 -0.2315 -0.2424
  117TMC2    H5 1797   2.679   0.492  14.147 -0.3990 -0.4203 -0.7562
  118MPD2     C 1798   2.362   1.164  14.332 -0.5169 -0.6946  0.3007
  118MPD2    C1 1799   2.465   1.111  14.260  0.0624  0.1313 -0.2344
  118MPD2    C2 1800   2.583   1.173  14.265 -0.4079 -0.1407  0.5684
  118MPD2    C3 1801   2.606   1.290  14.340 -0.5701 -0.1834 -0.4762
  118MPD2    C4 1802   2.496   1.334  14.415  0.5240 -0.1340  0.5659
  118MPD2    C5 1803   2.374   1.272  14.412 -0.3286  0.7867 -0.2688
  118MPD2     H 1804   2.664   1.144  14.200 -0.0696  2.7390 -0.2836
  118MPD2    H1 1805   2.499   1.422  14.479 -0.5158  0.6494 -0.4737
  118MPD2    H2 1806   2.261   1.129  14.314 -0.4169 -0.2604 -1.1802
  118MPD2    H3 1807   2.294   1.312  14.472 -0.8271  1.7054 -1.5366
  118MPD2     N 1808   2.720   1.373  14.336 -0.5637  0.3840 -0.2225
  118MPD2    H5 1809   2.713   1.463  14.383  0.5321 -0.9988  2.5939
  118MPD2    N1 1810   2.435   0.990  14.191 -0.1589  0.6322 -0.3706
  118MPD2    H7 1811   2.341   0.953  14.187 -0.4180  1.0576  1.6801
  119MPD2     C 1812   0.909   2.326  13.145 -0.4519  0.2231 -0.3274
  119MPD2    C1 1813   0.783   2.329  13.205 -0.7810 -0.8427 -0.2162
  119MPD2    C2 1814   0.678   2.252  13.148  0.0969  0.3799  0.0678
  119MPD2    C3 1815   0.687   2.189  13.026 -0.3524  0.1809  0.2559
  119MPD2    C4 1816   0.804   2.196  12.963 -0.3597  0.1597 -0.1856
  119MPD2    C5 1817   0.911   2.267  13.017  0.0372 -0.1248 -0.9761
  119MPD2     H 1818   0.588   2.238  13.206 -0.2038 -1.5619 -0.8550
  119MPD2    H1 1819   0.826   2.141  12.873  1.4097 -1.2695  1.1223
  119MPD2    H2 1820   1.000   2.372  13.182  0.1749 -0.5260 -0.9543
  119MPD2    H3 1821   1.002   2.271  12.958  1.0162  2.0262  0.6979
  119MPD2     N 1822   0.578   2.105  12.982 -0.7894 -0.4479 -0.4434
  119MPD2    H5 1823   0.604   2.038  12.910 -2.0977  0.3648 -1.6823
  119MPD2    N1 1824   0.763   2.373  13.341  0.0419 -0.0455 -0.4451
  119MPD2    H7 1825   0.665   2.371  13.365  0.1646  0.2229  0.0816
  120TCq2    C1 1826   0.453   2.092  13.042  0.4623  0.0443  0.2958
  120TCq2    O2 1827   0.392   2.171  13.112  0.5653  0.6900  0.0995
  120TCq2    C2 1828   0.400   1.959  13.018 -0.9009  0.2265  0.5601
  120TCq2    C3 1829   0.478   1.856  12.975  0.1056  0.1600 -1.3214
  120TCq2    C4 1830   0.435   1.729  12.997 -0.1599 -0.2712 -0.7119
  120TCq2    C5 1831   0.317   1.702  13.066  0.4710 -0.0492 -0.0950
  120TCq2    C6 1832   0.241   1.811  13.106 -0.1878 -0.0255 -0.4052
  120TCq2    C7 1833   0.286   1.938  13.091 -0.1113  0.2075  0.3194
  120TCq2    C8 1834   0.137   1.778  13.207 -0.6411  1.1273 -0.8655
  120TCq2    O4 1835   0.019   1.799  13.183  0.0160 -0.0724 -0.0890
  120TCq2    C9 1836   0.514   1.614  12.962  0.0744 -0.0979  0.1040
  120TCq2    O5 1837   0.619   1.650  12.907 -0.2263 -1.1175  0.1075
  120TCq2    O6 1838   0.490   1.510  13.025 -0.1890 -0.0952  0.4600
  120TCq2    H2 1839   0.578   1.871  12.937 -0.1080  0.7230 -1.6484
  120TCq2    H3 1840   0.280   1.603  13.090 -1.9356  0.4570 -1.6213
  120TCq2    H4 1841   0.219   2.014  13.128 -2.0172 -0.4298 -1.8142
  121TMC2    C1 1842   1.931   3.551  14.140 -0.4649  0.7350 -0.0168
  121TMC2    C2 1843   1.818   3.533  14.214 -0.0371 -0.4452  0.1172
  121TMC2    C3 1844   1.692   3.517  14.161  0.4954 -0.0153 -0.2305
  121TMC2    C4 1845   1.918   3.553  13.999 -0.0755 -0.4719  0.0464
  121TMC2    C5 1846   1.790   3.542  13.945  0.3148 -0.3613  0.6657
  121TMC2    C6 1847   1.677   3.518  14.022 -0.6428 -0.0423 -0.0751
  121TMC2     C 1848   2.065   3.503  14.187  0.2816  0.6520  0.5966
  121TMC2     O 1849   2.069   3.427  14.276 -0.1275  0.6844  0.2046
  121TMC2     H 1850   1.829   3.520  14.321  0.7835 -3.0222 -0.2943
  121TMC2    H1 1851   2.006   3.550  13.936 -0.0788  2.1130 -0.0930
  121TMC2    H2 1852   1.577   3.499  13.985 -0.5604 -0.8463  0.1029
  121TMC2    C7 1853   1.768   3.518  13.801  0.3880 -0.0681  0.6139
  121TMC2    C8 1854   1.583   3.481  14.248 -0.2516 -0.0680 -0.6435
  121TMC2    O1 1855   1.871   3.515  13.734 -0.3496  0.1187  0.3049
  121TMC2    O2 1856   1.612   3.432  14.355 -0.4009  0.4183 -0.0335
  121TMC2    O5 1857   1.463   3.521  14.198 -0.7766  1.0438  0.2806
  121TMC2    H5 1858   1.457   3.560  14.108  0.5840  0.3428 -0.1121
  122MPD2     C 1859   2.360   3.448  14.219 -0.7998  0.0076  0.3062
  122MPD2    C1 1860   2.308   3.551  14.146 -0.7680 -0.0792 -0.1321
  122MPD2    C2 1861   2.403   3.643  14.090  0.2515 -0.3827 -0.3969
  122MPD2    C3 1862   2.529   3.611  14.078  0.4124 -0.2231  0.7763
  122MPD2    C4 1863   2.580   3.498  14.139  0.3327  0.1079  0.1733
  122MPD2    C5 1864   2.497   3.433  14.223  0.3270 -0.4318  0.3300
  122MPD2     H 1865   2.363   3.728  14.036 -0.6859 -1.4552 -1.3842
  122MPD2    H1 1866   2.684   3.469  14.132  1.1317  2.5187  2.2935
  122MPD2    H2 1867   2.294   3.381  14.273  0.2839 -0.0314  1.5773
  122MPD2    H3 1868   2.544   3.358  14.286 -0.6585 -1.4044 -0.0993
  122MPD2     N 1869   2.621   3.690  14.005 -0.1041 -0.3820  0.2993
  122MPD2    H5 1870   2.715   3.653  14.002  0.4726  1.0952  0.1957
  122MPD2    N1 1871   2.171   3.576  14.129  0.7241  0.1588 -0.2225
  122MPD2    H7 1872   2.151   3.671  14.098 -1.1786 -0.1386  0.0598
  123MPD2     C 1873   0.433   0.005   9.089  0.5164 -0.8459  0.0690
  123MPD2    C1 1874   0.433   0.114   9.179 -0.3794  0.1301 -0.3173
  123MPD2    C2 1875   0.484   0.236   9.127  0.4561  0.2350  0.0079
  123MPD2    C3 1876   0.516   0.241   8.994  0.7124 -0.4026 -0.2754
  123MPD2    C4 1877   0.524   0.130   8.914  0.1032  0.0547 -0.2620
  123MPD2    C5 1878   0.482   0.010   8.962 -0.3118  0.1564  0.0241
  123MPD2     H 1879   0.493   0.328   9.184  2.5773  0.7236 -1.1292
  123MPD2    H1 1880   0.577   0.139   8.820 -0.3365 -0.5295 -0.5636
  123MPD2    H2 1881   0.388   4.639   9.122  2.6960 -2.3898 -1.3301
  123MPD2    H3 1882   0.482   4.643   8.908  1.2469 -0.2208  0.6651
  123MPD2     N 1883   0.580   0.364   8.948  0.0638  0.1208 -0.1516
  123MPD2    H5 1884   0.570   0.441   9.013  1.0972  1.1553 -1.2200
  123MPD2    N1 1885   0.377   0.097   9.303 -0.1238  0.4186 -0.2633
  123MPD2    H7 1886   0.328   0.009   9.317 -0.0775  0.2906 -0.9051
  124TCq2    C1 1887   0.604   0.394   8.817 -0.2175 -0.3018 -0.7999
  124TCq2    O2 1888   0.566   0.336   8.717  0.4390 -0.5087 -0.2207
  124TCq2    C2 1889   0.655   0.529   8.802  0.1648 -0.6576  0.3894
  124TCq2    C3 1890   0.615   0.601   8.690 -0.0345 -0.1994 -0.7362
  124TCq2    C4 1891   0.675   0.721   8.671 -0.2731  0.0809  0.3367
  124TCq2    C5 1892   0.777   0.770   8.747  0.1921  0.1901  0.2250
  124TCq2    C6 1893   0.817   0.697   8.856 -0.7939 -0.2953  0.5724
  124TCq2    C7 1894   0.750   0.579   8.888  0.3325 -0.0349 -1.3307
  124TCq2    C8 1895   0.925   0.742   8.948 -0.0359  0.0550  0.3268
  124TCq2    O4 1896   0.964   0.669   9.040  0.1215 -0.1049  0.7805
  124TCq2    C9 1897   0.626   0.793   8.560  0.1502  0.1023 -0.2375
  124TCq2    O5 1898   0.540   0.743   8.476 -0.6363  0.5273 -0.2315
  124TCq2    O6 1899   0.678   0.911   8.554  0.4460 -0.2134  0.2381
  124TCq2    H2 1900   0.548   0.555   8.618 -1.4037  1.6219 -0.6268
  124TCq2    H3 1901   0.810   0.870   8.720 -0.4417  0.4967  0.5867
  124TCq2    H4 1902   0.793   0.519   8.968  0.4802  1.7295 -0.0878
  125TMC2    C1 1903   1.963   2.474   9.181  0.9198 -0.0460 -0.6294
  125TMC2    C2 1904   1.994   2.469   9.047 -0.4539 -0.3454 -0.1801
  125TMC2    C3 1905   2.118   2.503   8.999  0.6152  0.2155 -0.8589
  125TMC2    C4 1906   2.066   2.507   9.271  0.5150  0.1908  0.4591
  125TMC2    C5 1907   2.182   2.545   9.219  0.9356 -0.1819 -0.1216
  125TMC2    C6 1908   2.216   2.548   9.085  0.3218 -0.2504 -0.1913
  125TMC2     C 1909   1.826   2.460   9.224 -0.2089  0.1968  0.4134
  125TMC2     O 1910   1.738   2.470   9.135 -0.6710  0.0960 -0.1192
  125TMC2     H 1911   1.923   2.444   8.969 -1.8434  2.7494  0.0954
  125TMC2    H1 1912   2.049   2.520   9.377  2.0066  0.0654  0.7048
  125TMC2    H2 1913   2.303   2.596   9.042 -0.3243  2.3268  1.4217
  125TMC2    C7 1914   2.266   2.612   9.319  0.0191 -0.9025 -0.8202
  125TMC2    C8 1915   2.143   2.507   8.859 -0.1266  0.2155  0.6071
  125TMC2    O1 1916   2.216   2.638   9.431 -0.2597 -0.0981 -0.1172
  125TMC2    O2 1917   2.055   2.504   8.775  0.0787 -0.1692 -0.3792
  125TMC2    O5 1918   2.278   2.484   8.844  0.3295  0.2064 -0.1826
  125TMC2    H5 1919   2.332   2.471   8.925  0.3634 -0.8686 -0.3786
  126MPD1     C 1920   1.450   2.425   9.584  0.0120 -0.1867  0.4572
  126MPD1    C1 1921   1.561   2.362   9.635  0.1072 -0.3440 -0.4691
  126MPD1    C2 1922   1.670   2.346   9.547 -0.1673 -0.2826 -0.3747
  126MPD1    C3 1923   1.687   2.414   9.427  0.1319 -0.0316 -0.5074
  126MPD1    C4 1924   1.574   2.472   9.379 -0.6278  0.3031 -0.4365
  126MPD1    C5 1925   1.461   2.468   9.454 -0.8041 -0.2244 -0.4905
  126MPD1     H 1926   1.754   2.291   9.588  0.0931  0.9857  0.8205
  126MPD1    H1 1927   1.589   2.524   9.285  1.4326  0.1419 -0.1863
  126MPD1    H2 1928   1.358   2.447   9.636 -0.5261 -2.4600  0.4626
  126MPD1    H3 1929   1.383   2.530   9.413 -1.5138 -0.4107  0.5671
  126MPD1     N 1930   1.811   2.408   9.352 -0.3414 -0.2667 -0.5646
  126MPD1    H5 1931   1.892   2.380   9.406 -0.6712 -1.0635 -0.4782
  126MPD1    N1 1932   1.552   2.290   9.753  0.3025  0.4053 -0.2586
  126MPD1    H6 1933   1.485   2.329   9.820 -0.3919  1.6500 -1.6847
  126MPD1    H7 1934   1.643   2.262   9.790  0.2530  2.5199  1.5158
  127MPD2     C 1935   2.861   1.740   9.827  0.6154  0.2774  0.5915
  127MPD2    C1 1936   2.959   1.802   9.757 -0.6951 -0.1712  0.5349
  127MPD2    C2 1937   3.056   1.880   9.824  0.0242 -0.3809  0.3141
  127MPD2    C3 1938   3.054   1.897   9.957 -0.2737 -0.0696  0.4466
  127MPD2    C4 1939   2.951   1.831  10.027 -0.8774  1.1176  0.4757
  127MPD2    C5 1940   2.858   1.759   9.958 -0.4332  0.2633 -0.8061
  127MPD2     H 1941   3.122   1.944   9.767 -1.3463  1.4327  0.7596
  127MPD2    H1 1942   2.942   1.836  10.135  2.7053 -0.3658  0.8383
  127MPD2    H2 1943   2.783   1.682   9.778 -0.2977  2.5361 -0.5978
  127MPD2    H3 1944   2.784   1.705  10.016  1.7418 -0.6006  1.1862
  127MPD2     N 1945   3.157   1.972  10.015  0.0301  0.1201  0.7807
  127MPD2    H5 1946   3.233   2.005   9.956  2.3599 -3.5352  1.7181
  127MPD2    N1 1947   2.948   1.792   9.611  0.1859  0.2547  0.0144
  127MPD2    H7 1948   2.874   1.730   9.576  0.4670  1.1572 -2.1799
  128TCq2    C1 1949   3.026   1.845   9.514 -0.4025  0.3145 -0.2701
  128TCq2    O2 1950   3.133   1.898   9.529  0.4530 -0.0953  0.0109
  128TCq2    C2 1951   2.977   1.810   9.385 -0.9123  0.1001 -0.6514
  128TCq2    C3 1952   3.036   1.888   9.289 -0.5961  0.7290 -0.5760
  128TCq2    C4 1953   3.020   1.838   9.156  0.1736  0.0808 -0.3859
  128TCq2    C5 1954   2.988   1.706   9.135 -0.7442 -1.2330 -0.1366
  128TCq2    C6 1955   2.948   1.634   9.241 -0.4244  0.2240  0.3071
  128TCq2    C7 1956   2.951   1.678   9.367  0.5847  0.2075  0.5113
  128TCq2    C8 1957   2.907   1.494   9.225  0.1767 -0.1755 -0.6233
  128TCq2    O4 1958   2.949   1.431   9.133 -0.2181  0.9442  0.3472
  128TCq2    C9 1959   3.090   1.912   9.053  0.2708 -0.4626  0.4099
  128TCq2    O5 1960   3.147   2.019   9.084 -0.4753  0.5885  0.5552
  128TCq2    O6 1961   3.103   1.859   8.939 -0.3602 -0.0573 -0.2212
  128TCq2    H2 1962   3.072   1.990   9.303  0.3199  0.3054  0.1365
  128TCq2    H3 1963   2.996   1.660   9.038  3.3815 -0.4127 -0.1870
  128TCq2    H4 1964   2.938   1.616   9.455  2.4129 -1.0824 -0.1277
  129MPD2     C 1965   1.184   3.445   1.260 -0.7833 -0.6410  0.3451
  129MPD2    C1 1966   1.062   3.507   1.240  0.5104 -0.8165 -0.4175
  129MPD2    C2 1967   1.056   3.642   1.260  0.1499  0.2593 -0.0618
  129MPD2    C3 1968   1.167   3.718   1.302 -0.5666  0.7802 -0.3202
  129MPD2    C4 1969   1.284   3.652   1.318 -0.3448 -0.0217  0.2400
  129MPD2    C5 1970   1.290   3.519   1.300  0.0304 -0.1021  0.2021
  129MPD2     H 1971   0.957   3.685   1.252 -0.5573 -1.4571 -0.5040
  129MPD2    H1 1972   1.372   3.704   1.352  0.3132 -0.2774 -1.0637
  129MPD2    H2 1973   1.201   3.341   1.235  1.8536 -0.0081 -0.5188
  129MPD2    H3 1974   1.386   3.468   1.303 -0.3686 -0.8242  0.7812
  129MPD2     N 1975   1.149   3.856   1.325 -0.7248 -0.0987 -0.2712
  129MPD2    H5 1976   1.055   3.893   1.314 -0.4445  0.7677  0.2554
  129MPD2    N1 1977   0.945   3.439   1.205  0.9409 -0.4085 -0.1502
  129MPD2    H7 1978   0.862   3.497   1.201  2.1396  1.2923 -0.6365
  130TCq2    C1 1979   0.915   3.303   1.211  0.8954  0.3491 -0.0593
  130TCq2    O2 1980   0.991   3.213   1.248 -0.3479  0.7325 -0.1350
  130TCq2    C2 1981   0.770   3.282   1.181 -0.2853  0.3358 -0.3253
  130TCq2    C3 1982   0.703   3.378   1.109  0.4195  0.1622  0.7907
  130TCq2    C4 1983   0.568   3.352   1.102  0.1961  0.7279  0.4765
  130TCq2    C5 1984   0.506   3.260   1.175  0.1078  0.4940  0.3712
  130TCq2    C6 1985   0.573   3.176   1.254  0.4476  0.3131 -0.0132
  130TCq2    C7 1986   0.707   3.190   1.264  0.5332  0.0692  0.1367
  130TCq2    C8 1987   0.508   3.071   1.333  0.1978 -0.4810 -1.4143
  130TCq2    O4 1988   0.391   3.084   1.368 -0.3014 -0.1532 -0.5907
  130TCq2    C9 1989   0.492   3.443   1.024  0.2295  0.1648 -0.1215
  130TCq2    O5 1990   0.372   3.416   1.000  0.2636 -0.0256 -0.2035
  130TCq2    O6 1991   0.537   3.558   1.003  0.2432 -0.3154  0.2805
  130TCq2    H2 1992   0.749   3.455   1.048 -0.6329 -0.8588 -1.2995
  130TCq2    H3 1993   0.398   3.263   1.174  0.0374 -1.4748  2.9972
  130TCq2    H4 1994   0.762   3.123   1.329  0.5987  0.0248  0.0362
  131MPD2     C 1995   0.171   0.830   9.941 -0.4127  0.5183 -0.4312
  131MPD2    C1 1996   0.282   0.796   9.878 -0.0161  0.0160 -0.0221
  131MPD2    C2 1997   0.300   0.664   9.833 -0.3408  0.7483 -0.3474
  131MPD2    C3 1998   0.198   0.571   9.847  0.3720 -0.1592  0.2861
  131MPD2    C4 1999   0.081   0.609   9.915 -0.1621  0.0631 -0.2449
  131MPD2    C5 2000   0.073   0.735   9.961 -1.4474 -0.5108  0.0689
  131MPD2     H 2001   0.389   0.650   9.773  0.3221 -0.6864  0.9744
  131MPD2    H1 2002   4.723   0.543   9.910  0.6490 -0.8293 -2.1565
  131MPD2    H2 2003   0.164   0.931   9.979 -0.9254  0.7865 -1.2305
  131MPD2    H3 2004   4.701   0.753  10.002 -0.5702  3.6815  0.3882
  131MPD2     N 2005   0.210   0.447   9.779 -0.4993  0.0008  0.0880
  131MPD2    H5 2006   0.285   0.439   9.712  1.5653  1.2610  2.2482
  131MPD2    N1 2007   0.378   0.903   9.872 -0.1996 -0.3071  0.2647
  131MPD2    H7 2008   0.360   0.998   9.902  1.8751  0.5116 -1.0253
  132TCq2    C1 2009   0.870   1.178   9.670  0.5605 -0.3311  0.0349
  132TCq2    O2 2010   0.882   1.106   9.572  0.4056  0.9067 -0.0654
  132TCq2    C2 2011   0.753   1.159   9.748  0.3876 -0.6268 -0.5300
  132TCq2    C3 2012   0.709   1.261   9.827 -0.5058  0.2001 -0.9342
  132TCq2    C4 2013   0.598   1.243   9.904  0.3904 -0.0817 -1.1364
  132TCq2    C5 2014   0.530   1.127   9.907 -0.1569  0.1818 -0.3384
  132TCq2    C6 2015   0.579   1.021   9.831 -1.1485 -0.2730 -0.1913
  132TCq2    C7 2016   0.687   1.039   9.750 -0.5471 -0.1745 -0.2055
  132TCq2    C8 2017   0.504   0.896   9.822  0.3142 -0.5799  0.1835
  132TCq2    O4 2018   0.559   0.805   9.763  0.4477 -0.1223 -0.3073
  132TCq2    C9 2019   0.566   1.348   9.998  0.8207  0.3039 -0.4856
  132TCq2    O5 2020   0.656   1.428  10.025 -0.1114 -0.1693 -0.4279
  132TCq2    O6 2021   0.461   1.338  10.066  0.3289 -0.2505 -0.6580
  132TCq2    H2 2022   0.745   1.364   9.821 -1.2292  0.5999  1.6284
  132TCq2    H3 2023   0.454   1.120   9.984 -0.1922  1.2710 -0.2711
  132TCq2    H4 2024   0.731   0.963   9.687  0.6906 -0.7314  1.3316
  133MPD2     C 2025   4.285   1.063  10.407 -0.1170  0.5273 -0.7268
  133MPD2    C1 2026   4.334   0.977  10.303  1.1096 -0.7883  0.3849
  133MPD2    C2 2027   4.418   1.036  10.211  0.0558 -0.1357  0.6894
  133MPD2    C3 2028   4.435   1.173  10.202 -0.3256 -0.5880  0.4765
  133MPD2    C4 2029   4.382   1.256  10.302  0.2692 -0.6239  0.1374
  133MPD2    C5 2030   4.317   1.199  10.406  1.0362 -0.5529  0.3917
  133MPD2     H 2031   4.471   0.969  10.145  1.2473 -0.2251  1.7412
  133MPD2    H1 2032   4.405   1.362  10.301 -0.0476 -0.5614 -0.8429
  133MPD2    H2 2033   4.224   1.033  10.491  1.8150 -1.7689 -0.1328
  133MPD2    H3 2034   4.287   1.272  10.481  1.7252 -2.0585  2.1299
  133MPD2     N 2035   4.519   1.236  10.110 -0.3024  1.1151 -0.0827
  133MPD2    H5 2036   4.540   1.334  10.120 -0.0944  1.0998 -0.3589
  133MPD2    N1 2037   4.301   0.843  10.310 -0.0039  0.3039  0.0933
  133MPD2    H7 2038   4.216   0.817  10.359 -1.0412  1.6491 -0.9981
  134TCq2    C1 2039   4.362   0.748  10.237  0.0820 -0.8449  0.0081
  134TCq2    O2 2040   4.468   0.750  10.185  0.2245 -0.2016 -0.4995
  134TCq2    C2 2041   4.289   0.624  10.227 -0.1247 -0.2301  0.1573
  134TCq2    C3 2042   4.165   0.625  10.283  0.7408 -0.3659  0.0748
  134TCq2    C4 2043   4.066   0.551  10.223 -0.3711  0.7357  0.6159
  134TCq2    C5 2044   4.088   0.474  10.110  0.5595  0.3400 -0.0120
  134TCq2    C6 2045   4.221   0.468  10.068  0.2606  0.4304  0.4818
  134TCq2    C7 2046   4.319   0.539  10.125  0.2034 -0.8113 -0.7511
  134TCq2    C8 2047   4.264   0.389   9.957  0.0276 -1.4258  0.3608
  134TCq2    O4 2048   4.184   0.302   9.918 -0.5912  0.4076  1.0017
  134TCq2    C9 2049   3.931   0.567  10.274 -0.0977 -0.0806 -0.5883
  134TCq2    O5 2050   3.838   0.538  10.195 -0.0947  0.0058  0.9617
  134TCq2    O6 2051   3.913   0.617  10.388  0.5829 -0.5880 -0.2028
  134TCq2    H2 2052   4.146   0.676  10.376 -4.2697  1.8860 -2.2068
  134TCq2    H3 2053   4.004   0.425  10.063 -1.2633  4.3345 -0.8742
  134TCq2    H4 2054   4.417   0.548  10.079  0.8283 -1.4481  0.4488
  135MPD2     C 2055   1.928   2.833   9.178  0.1468 -0.4626 -0.1072
  135MPD2    C1 2056   1.998   2.857   9.297  0.4105 -0.5418  0.2246
  135MPD2    C2 2057   2.131   2.902   9.285  0.3117  0.0809 -0.4491
  135MPD2    C3 2058   2.186   2.917   9.159  0.5958 -0.0623 -0.5222
  135MPD2    C4 2059   2.110   2.899   9.041  0.2814  0.2741  0.0989
  135MPD2    C5 2060   1.985   2.858   9.053  0.5080 -0.3448 -0.3587
  135MPD2     H 2061   2.183   2.924   9.378  0.2387 -0.6132 -0.2483
  135MPD2    H1 2062   2.142   2.922   8.940 -0.3173 -0.2180 -0.2038
  135MPD2    H2 2063   1.829   2.790   9.163 -0.3975  1.4573 -2.1021
  135MPD2    H3 2064   1.927   2.844   8.963 -0.3228  0.5820  0.0384
  135MPD2     N 2065   2.319   2.949   9.135  0.2045 -0.3319  0.1861
  135MPD2    H5 2066   2.364   2.933   9.046  1.6298  2.8289  0.3391
  135MPD2    N1 2067   1.938   2.826   9.418 -0.1260 -0.1576 -0.0245
  135MPD2    H7 2068   2.002   2.818   9.497 -3.0148 -0.9827  2.2360
  136TCq2    C1 2069   1.805   2.826   9.443 -0.5299 -0.4792  0.5908
  136TCq2    O2 2070   1.724   2.874   9.366 -0.1231 -0.4807  0.5338
  136TCq2    C2 2071   1.767   2.773   9.570  0.6709 -0.4015 -0.3528
  136TCq2    C3 2072   1.861   2.702   9.645  1.0045  0.3670  0.0193
  136TCq2    C4 2073   1.819   2.646   9.764 -0.0398 -0.7446 -0.4979
  136TCq2    C5 2074   1.692   2.669   9.806  0.7128  0.9081 -1.3046
  136TCq2    C6 2075   1.607   2.755   9.736 -0.1898 -0.2200  0.0824
  136TCq2    C7 2076   1.642   2.803   9.614  0.3844  0.4814 -0.6600
  136TCq2    C8 2077   1.480   2.803   9.787 -0.4616 -0.3519  0.0279
  136TCq2    O4 2078   1.404   2.866   9.709 -0.6204 -0.3525 -0.0106
  136TCq2    C9 2079   1.908   2.570   9.840 -0.2462 -0.1193 -0.1981
  136TCq2    O5 2080   1.865   2.516   9.942 -0.1706  0.6870  0.3688
  136TCq2    O6 2081   2.007   2.521   9.767  0.1384 -0.4550  0.0570
  136TCq2    H2 2082   1.956   2.682   9.598 -0.5976 -1.1775 -2.5881
  136TCq2    H3 2083   1.655   2.623   9.897  0.2945  2.9004 -0.4692
  136TCq2    H4 2084   1.580   2.877   9.564 -0.9218 -0.6935 -0.7876
  137MPD2     C 2085   2.732   2.360   9.523  0.1521  0.3766 -0.4556
  137MPD2    C1 2086   2.596   2.348   9.518  0.6523  0.1859 -0.3001
  137MPD2    C2 2087   2.526   2.390   9.635  0.6232  0.1325  0.5192
  137MPD2    C3 2088   2.595   2.443   9.747  0.4947 -0.5957 -0.0851
  137MPD2    C4 2089   2.730   2.455   9.742  0.5192  0.0797  0.4464
  137MPD2    C5 2090   2.794   2.422   9.629 -0.0760  0.1429 -0.1056
  137MPD2     H 2091   2.419   2.393   9.647  0.4283 -2.0757 -0.5474
  137MPD2    H1 2092   2.786   2.499   9.824 -1.7638  0.3481  1.8711
  137MPD2    H2 2093   2.788   2.333   9.433 -0.1309 -2.7156  0.2861
  137MPD2    H3 2094   2.902   2.429   9.636  0.0274 -1.2910 -0.3011
  137MPD2     N 2095   2.521   2.490   9.862 -0.1016 -0.1947 -0.5348
  137MPD2    H5 2096   2.423   2.513   9.853 -0.2900 -0.8251 -0.0791
  137MPD2    N1 2097   2.534   2.288   9.409 -0.5492  0.4555 -0.2049
  137MPD2    H7 2098   2.593   2.246   9.338 -0.8184 -0.3706  0.0564
  138TCq2    C1 2099   2.398   2.290   9.389  0.4722  0.1287  0.0922
  138TCq2    O2 2100   2.308   2.321   9.466 -0.2447  0.1579 -0.0825
  138TCq2    C2 2101   2.357   2.215   9.270 -0.2605 -0.4050  0.6848
  138TCq2    C3 2102   2.422   2.215   9.149 -0.1805  0.4987 -0.1034
  138TCq2    C4 2103   2.361   2.168   9.035 -0.4395  0.2797  0.0579
  138TCq2    C5 2104   2.235   2.120   9.035  0.1397  0.3807 -0.2105
  138TCq2    C6 2105   2.169   2.110   9.156 -0.5159  0.7217 -0.3682
  138TCq2    C7 2106   2.228   2.175   9.270  0.2033 -0.1515  0.9785
  138TCq2    C8 2107   2.018   2.089   9.157  0.1087 -0.3157  0.0582
  138TCq2    O4 2108   1.967   2.063   9.047 -0.2433  0.3343  0.5166
  138TCq2    C9 2109   2.440   2.174   8.915 -1.0408  0.3192 -0.5700
  138TCq2    O5 2110   2.404   2.094   8.822 -0.4748  0.3480 -0.3292
  138TCq2    O6 2111   2.550   2.242   8.918  0.7850 -0.2447 -0.1847
  138TCq2    H2 2112   2.523   2.255   9.143  0.8359 -1.6653  2.1414
  138TCq2    H3 2113   2.190   2.079   8.946 -1.7787 -1.5256  1.6424
  138TCq2    H4 2114   2.172   2.187   9.362 -2.3238 -0.7773 -0.4640
  139TMC2    C1 2115   2.206   1.785  13.958  0.0711  0.7555  0.3873
  139TMC2    C2 2116   2.326   1.829  13.992  0.1743  0.4517  0.2478
  139TMC2    C3 2117   2.345   1.955  14.033  0.5748 -0.1770  0.8175
  139TMC2    C4 2118   2.096   1.862  13.962 -0.5175 -0.4928 -0.7475
  139TMC2    C5 2119   2.116   1.991  14.003 -0.4418  0.0556 -0.6904
  139TMC2    C6 2120   2.237   2.034  14.044  0.4785 -0.7088 -0.1140
  139TMC2     C 2121   2.185   1.643  13.934 -0.1555  0.1265 -0.2509
  139TMC2     O 2122   2.079   1.613  13.877  0.3353  0.0990 -0.3882
  139TMC2     H 2123   2.406   1.756  13.991 -0.5905 -0.4009  2.2100
  139TMC2    H1 2124   2.002   1.828  13.922  0.1894 -1.5762 -1.4993
  139TMC2    H2 2125   2.249   2.138  14.072 -0.1484 -0.3695 -1.0942
  139TMC2    C7 2126   1.995   2.063  14.041 -0.3015  0.0819  0.3078
  139TMC2    C8 2127   2.470   1.984  14.104 -1.5669 -0.5290 -0.9023
  139TMC2    O1 2128   1.895   2.033  13.974  0.2585 -0.3809  0.0959
  139TMC2    O2 2129   2.476   2.085  14.174 -0.5164 -0.7256 -0.0911
  139TMC2    O5 2130   2.566   1.956  14.012  0.4486  0.6483 -0.1455
  139TMC2    H5 2131   2.534   1.887  13.951  0.8907 -0.3697  0.7762
  140MPD2     C 2132   2.432   1.383  14.004 -0.3933 -0.2013  0.5971
  140MPD2    C1 2133   2.325   1.437  13.941  0.1749  0.3245  0.0864
  140MPD2    C2 2134   2.249   1.371  13.850 -0.2764  0.2336  0.1804
  140MPD2    C3 2135   2.288   1.243  13.825 -0.6039 -0.3352 -0.0346
  140MPD2    C4 2136   2.398   1.185  13.882  0.8394  0.1683 -0.8636
  140MPD2    C5 2137   2.481   1.258  13.968 -0.1270  0.0111 -1.1677
  140MPD2     H 2138   2.168   1.419  13.796  2.3295  2.5041 -1.7167
  140MPD2    H1 2139   2.435   1.090  13.846  0.5452 -0.2781  0.0059
  140MPD2    H2 2140   2.484   1.443  14.078  0.0163 -0.6317  0.6601
  140MPD2    H3 2141   2.576   1.214  14.000 -0.9314 -1.5243 -0.8950
  140MPD2     N 2142   2.214   1.176  13.732 -0.0251  0.1197 -0.8045
  140MPD2    H5 2143   2.142   1.219  13.675  0.2876 -1.6046 -2.5041
  140MPD2    N1 2144   2.284   1.565  13.987 -0.6509  0.2956 -1.0572
  140MPD2    H7 2145   2.348   1.604  14.056  0.2981  2.5706 -3.2166
  141TCq2    C1 2146   3.169   2.672  14.402 -1.3804 -0.9081  0.8181
  141TCq2    O2 2147   3.132   2.718  14.297 -0.4315  0.6246  0.2330
  141TCq2    C2 2148   3.238   2.770  14.487 -0.1068  0.1973  0.2528
  141TCq2    C3 2149   3.329   2.727  14.582 -0.0393 -0.5121  0.0436
  141TCq2    C4 2150   3.433   2.806  14.624 -0.7231  0.5073  0.7874
  141TCq2    C5 2151   3.444   2.934  14.577  0.1303  0.1693  0.5706
  141TCq2    C6 2152   3.352   2.975  14.482 -0.0250 -0.2507  0.5238
  141TCq2    C7 2153   3.253   2.894  14.437 -0.1911  0.3655  0.4353
  141TCq2    C8 2154   3.396   3.071  14.384  0.0328  0.8758  0.1334
  141TCq2    O4 2155   3.344   3.087  14.274 -0.0997 -1.2874  0.2542
  141TCq2    C9 2156   3.537   2.758  14.718 -0.1775 -0.1784 -0.3799
  141TCq2    O5 2157   3.651   2.804  14.690 -0.0772 -0.0906  0.4264
  141TCq2    O6 2158   3.505   2.663  14.805  0.0738  0.0877  0.2075
  141TCq2    H2 2159   3.326   2.631  14.632 -2.8617 -0.9841 -1.0482
  141TCq2    H3 2160   3.531   2.990  14.608  0.2050  0.2002  0.3091
  141TCq2    H4 2161   3.191   2.923  14.353  2.3379  0.2627 -1.4629
  142MPD2     C 2162   0.970   0.339  10.092 -0.1268 -0.2855  0.6439
  142MPD2    C1 2163   0.986   0.279   9.965  0.0017 -0.1476 -0.4900
  142MPD2    C2 2164   1.066   0.351   9.874 -0.1951  0.8492 -0.1381
  142MPD2    C3 2165   1.124   0.471   9.915 -0.6497  0.4752  0.8976
  142MPD2    C4 2166   1.109   0.522  10.039 -0.2277  0.0764 -0.4499
  142MPD2    C5 2167   1.025   0.456  10.120 -0.0648  0.3307  0.2412
  142MPD2     H 2168   1.091   0.310   9.777  0.6825 -1.4002  1.0417
  142MPD2    H1 2169   1.162   0.609  10.077 -1.3944 -0.0943  1.5797
  142MPD2    H2 2170   0.915   0.289  10.171 -0.4208 -1.9417 -0.6109
  142MPD2    H3 2171   1.013   0.491  10.221  0.7407 -0.9316  0.7744
  142MPD2     N 2172   1.205   0.558   9.828 -0.3864 -0.6299  0.1235
  142MPD2    H5 2173   1.245   0.643   9.865  1.0735 -1.2316 -0.0650
  142MPD2    N1 2174   0.930   0.150   9.938  0.5705 -0.0096  0.2844
  142MPD2    H7 2175   0.882   0.111  10.019  1.6584  0.1520  1.0009
  143TCq2    C1 2176   1.221   0.536   9.692  0.1231 -0.6490 -0.7623
  143TCq2    O2 2177   1.164   0.450   9.626  0.1189  0.5602 -0.1017
  143TCq2    C2 2178   1.313   0.624   9.620  0.7443 -0.4991  0.3921
  143TCq2    C3 2179   1.409   0.697   9.694  0.0486 -0.1957  0.1066
  143TCq2    C4 2180   1.488   0.777   9.616 -0.5168 -0.5054  0.4358
  143TCq2    C5 2181   1.472   0.809   9.487  0.0045  0.2507  0.0265
  143TCq2    C6 2182   1.371   0.743   9.422 -0.1053  0.1379 -0.3231
  143TCq2    C7 2183   1.288   0.654   9.489  0.1801  0.5462 -0.4174
  143TCq2    C8 2184   1.337   0.767   9.281 -0.4532 -0.0444  0.1748
  143TCq2    O4 2185   1.280   0.673   9.229 -0.3873 -0.3698  0.2035
  143TCq2    C9 2186   1.606   0.818   9.683  1.2812 -0.1162  0.0138
  143TCq2    O5 2187   1.625   0.782   9.804  0.2833 -0.3731 -0.5637
  143TCq2    O6 2188   1.704   0.843   9.608 -0.1375 -0.4916  0.2287
  143TCq2    H2 2189   1.440   0.678   9.796  2.0615 -1.1940 -0.6803
  143TCq2    H3 2190   1.544   0.878   9.444  1.4784 -1.2677  0.0503
  143TCq2    H4 2191   1.215   0.593   9.437 -0.1228  0.2051  0.4137
  144MPD2     C 2192   2.473   4.617   0.170 -0.3477 -0.1197  0.3872
  144MPD2    C1 2193   2.604   4.603   0.143  0.5264 -0.5032 -0.0132
  144MPD2    C2 2194   2.700   4.633   0.233  0.6386  0.1438 -0.3749
  144MPD2    C3 2195   2.665   4.693   0.353 -0.4904 -0.5841  0.0057
  144MPD2    C4 2196   2.536   0.002   0.371  0.1979  0.1617 -0.1861
  144MPD2    C5 2197   2.442   4.686   0.285 -0.2918  0.4611 -0.1770
  144MPD2     H 2198   2.804   4.616   0.209  0.9548 -0.9496  1.8036
  144MPD2    H1 2199   2.510   0.052   0.464  0.4976  1.7970 -0.9840
  144MPD2    H2 2200   2.390   4.575   0.114  0.4860 -1.5897  0.2546
  144MPD2    H3 2201   2.341   4.716   0.310 -0.4921  0.9977 -1.6210
  144MPD2     N 2202   2.766   4.721   0.456  0.2017 -0.1260 -0.0873
  144MPD2    H5 2203   2.742   0.070   0.520 -0.2898  0.3513 -0.8404
  144MPD2    N1 2204   2.645   4.560   0.018 -0.0920 -0.0707 -0.1669
  144MPD2    H7 2205   2.746   4.546   0.012 -0.3339 -1.5669 -0.7614
  145TCq2    C1 2206   2.883   4.647   0.460 -0.1513  0.6268 -1.0766
  145TCq2    O2 2207   2.907   4.542   0.400  0.1541 -0.3211  0.0130
  145TCq2    C2 2208   2.981   4.698   0.555  0.3732 -0.7367  0.0802
  145TCq2    C3 2209   3.069   4.599   0.604 -0.8961 -0.1011 -0.6888
  145TCq2    C4 2210   3.163   4.639   0.691  0.5785 -0.2144 -0.0567
  145TCq2    C5 2211   3.164   0.040   0.745 -0.6874  0.7014  0.1644
  145TCq2    C6 2212   3.067   0.123   0.710 -0.3496  0.1925  0.6891
  145TCq2    C7 2213   2.975   0.097   0.611  0.0191 -0.0063  0.4739
  145TCq2    C8 2214   3.054   0.244   0.795  0.2412 -0.0468 -1.5663
  145TCq2    O4 2215   3.139   0.273   0.878 -0.3095  0.8161  0.0323
  145TCq2    C9 2216   3.266   4.544   0.724  0.6520  0.2109  0.3219
  145TCq2    O5 2217   3.366   4.585   0.788 -0.5646 -0.0995 -1.0526
  145TCq2    O6 2218   3.232   4.423   0.712  0.3482 -0.2268 -1.0282
  145TCq2    H2 2219   3.073   4.508   0.546  0.9493  0.7065 -1.8589
  145TCq2    H3 2220   3.239   0.062   0.821  1.0490 -2.3562 -0.6766
  145TCq2    H4 2221   2.912   0.172   0.565 -0.9301 -2.9282 -2.9997
  146TMC2    C1 2222   0.348   3.506  11.651  0.3722  0.2405  0.0620
  146TMC2    C2 2223   0.333   3.489  11.515  0.0631 -0.4152 -0.8360
  146TMC2    C3 2224   0.440   3.454  11.438  0.4995  0.1449 -0.6155
  146TMC2    C4 2225   0.467   3.476  11.708 -0.7877  0.0964 -0.2492
  146TMC2    C5 2226   0.577   3.450  11.631  0.2899  0.3591 -0.8062
  146TMC2    C6 2227   0.567   3.434  11.493  0.0908  0.4526  0.3763
  146TMC2     C 2228   0.225   3.510  11.735 -0.7093 -0.2422 -0.2774
  146TMC2     O 2229   0.119   3.498  11.675 -0.1546  0.0825  0.6056
  146TMC2     H 2230   0.232   3.506  11.477  0.4764  1.2458 -1.1940
  146TMC2    H1 2231   0.480   3.509  11.810  1.2275  0.5209 -0.6298
  146TMC2    H2 2232   0.646   3.412  11.422 -1.0129 -4.0155  0.5003
  146TMC2    C7 2233   0.703   3.419  11.686  0.9041  0.9680  0.2651
  146TMC2    C8 2234   0.436   3.418  11.301 -0.2527 -0.4685 -0.1333
  146TMC2    O1 2235   0.793   3.402  11.606  0.3122  0.2430 -0.6588
  146TMC2    O2 2236   0.514   3.356  11.239  0.2587 -0.2733  0.1875
  146TMC2    O5 2237   0.335   3.484  11.248 -0.1817  0.0141  0.0851
  146TMC2    H5 2238   0.293   3.550  11.307  1.2797  0.7357  0.3168
  147MPD2     C 2239   1.055   3.453  12.043  0.1494  0.2747 -0.0382
  147MPD2    C1 2240   0.930   3.454  12.104 -0.7224  0.0566 -0.8790
  147MPD2    C2 2241   0.813   3.445  12.029 -0.5023  0.4708 -0.2501
  147MPD2    C3 2242   0.832   3.432  11.894  0.5001 -0.2734 -0.0878
  147MPD2    C4 2243   0.959   3.417  11.837  0.2635  0.6845  0.5448
  147MPD2    C5 2244   1.072   3.436  11.912  0.7717 -0.9221  0.3734
  147MPD2     H 2245   0.717   3.444  12.080  0.7244  0.7091  2.0844
  147MPD2    H1 2246   0.978   3.411  11.731  1.2180 -0.6101  0.7914
  147MPD2    H2 2247   1.137   3.464  12.114  1.6848  0.0981 -1.7756
  147MPD2    H3 2248   1.167   3.427  11.861  0.6319 -2.2742  0.3555
  147MPD2     N 2249   0.710   3.430  11.820 -0.0506  0.1549 -0.0775
  147MPD2    H5 2250   0.629   3.454  11.877  0.0383 -1.3147  0.6954
  147MPD2    N1 2251   0.938   3.451  12.246 -0.1160 -0.7122 -0.0616
  147MPD2    H7 2252   1.034   3.439  12.277  0.7441  0.5220 -2.2809
  148MPD2     C 2253   1.262   1.499  10.550 -0.0600  0.0775 -0.5918
  148MPD2    C1 2254   1.218   1.405  10.455  0.1549  0.4987  0.4138
  148MPD2    C2 2255   1.097   1.340  10.476  0.1182  0.0090 -0.2113
  148MPD2    C3 2256   1.025   1.362  10.592 -0.0206  0.4934  0.0684
  148MPD2    C4 2257   1.069   1.462  10.681  0.4069 -0.2260  0.1050
  148MPD2    C5 2258   1.192   1.527  10.660 -0.5049 -0.2452 -0.0626
  148MPD2     H 2259   1.070   1.261  10.408 -2.0883 -0.4561  1.2111
  148MPD2    H1 2260   1.022   1.470  10.779  0.4437 -0.7822  0.1678
  148MPD2    H2 2261   1.360   1.546  10.550 -1.0579  2.1383 -1.6667
  148MPD2    H3 2262   1.234   1.570  10.750 -0.9605 -0.6596  0.3493
  148MPD2     N 2263   0.901   1.295  10.624 -0.1162  0.2262  0.0677
  148MPD2    H5 2264   0.848   1.316  10.708  1.0349 -1.6914  1.2744
  148MPD2    N1 2265   1.280   1.387  10.325  0.2626  0.6927  0.1099
  148MPD2    H7 2266   1.245   1.305  10.275 -0.2528  0.7306  0.4032
  149TCq2    C1 2267   1.373   1.458  10.260  0.2018 -0.3026  0.4986
  149TCq2    O2 2268   1.419   1.564  10.296  0.7806 -0.1023 -0.2628
  149TCq2    C2 2269   1.409   1.395  10.130  0.6324  0.0345 -0.5454
  149TCq2    C3 2270   1.523   1.430  10.065 -0.2737  0.2758  0.2065
  149TCq2    C4 2271   1.545   1.362   9.942 -0.9748 -0.4752  0.3013
  149TCq2    C5 2272   1.470   1.249   9.912 -0.4192 -0.8841  0.0752
  149TCq2    C6 2273   1.346   1.234   9.964  0.6798 -0.3845  0.9140
  149TCq2    C7 2274   1.317   1.308  10.075 -0.0558  0.2876  0.5994
  149TCq2    C8 2275   1.267   1.114   9.940  0.4958 -0.2303  0.3664
  149TCq2    O4 2276   1.205   1.080  10.040 -0.3069 -0.4044  0.2166
  149TCq2    C9 2277   1.682   1.365   9.892  0.6382 -0.3273  0.1736
  149TCq2    O5 2278   1.711   1.306   9.784 -0.0201  0.2657  0.1872
  149TCq2    O6 2279   1.769   1.415   9.964  0.3167 -0.0163 -0.4299
  149TCq2    H2 2280   1.599   1.490  10.114  0.1738 -1.9004  2.1421
  149TCq2    H3 2281   1.504   1.178   9.838  2.0860 -0.8601  1.2354
  149TCq2    H4 2282   1.218   1.300  10.116 -0.2249 -1.6317 -0.1996
  150MPD2     C 2283   1.366   1.673  12.270  0.0805 -0.0617  0.1751
  150MPD2    C1 2284   1.425   1.642  12.150 -0.0080  0.0081  0.0375
  150MPD2    C2 2285   1.562   1.634  12.153  0.3426  0.2945  0.4795
  150MPD2    C3 2286   1.632   1.676  12.264  0.7110 -0.0987 -0.4430
  150MPD2    C4 2287   1.565   1.723  12.380  0.0776  0.5948 -0.1449
  150MPD2    C5 2288   1.428   1.717  12.381 -0.3080 -0.0502  0.4552
  150MPD2     H 2289   1.613   1.612  12.060 -3.1994 -1.2440 -1.1170
  150MPD2    H1 2290   1.621   1.748  12.470  1.7404 -0.8039 -0.7789
  150MPD2    H2 2291   1.258   1.685  12.271  0.0977 -0.0679  2.6426
  150MPD2    H3 2292   1.372   1.743  12.470 -1.8417  0.1040 -0.5552
  150MPD2     N 2293   1.771   1.663  12.257  0.2526  0.2222  0.7897
  150MPD2    H5 2294   1.801   1.629  12.167  1.4469  0.6841  1.0067
  150MPD2    N1 2295   1.341   1.633  12.037 -0.0440  0.6639  0.5817
  150MPD2    H7 2296   1.242   1.612  12.041 -0.0027  0.2945 -0.3404
  151TCq2    C1 2297   1.865   1.718  12.342 -0.0498  0.6173  0.1860
  151TCq2    O2 2298   1.855   1.750  12.461  0.5438  0.2111  0.3612
  151TCq2    C2 2299   2.002   1.694  12.307 -0.3682 -0.6180  0.7498
  151TCq2    C3 2300   2.027   1.612  12.204 -0.1041 -0.2460 -0.3316
  151TCq2    C4 2301   2.157   1.582  12.175  0.4152  0.0460  0.0898
  151TCq2    C5 2302   2.257   1.615  12.266  0.2457 -0.5283 -0.5823
  151TCq2    C6 2303   2.224   1.692  12.374 -0.4157  1.1915  0.1847
  151TCq2    C7 2304   2.098   1.743  12.395 -0.6561 -0.0419 -0.1389
  151TCq2    C8 2305   2.333   1.749  12.451  0.5009 -0.2753 -0.5132
  151TCq2    O4 2306   2.320   1.861  12.505 -0.2902 -0.4290 -0.1655
  151TCq2    C9 2307   2.190   1.520  12.046  0.2460  0.5095  0.2989
  151TCq2    O5 2308   2.314   1.492  12.033 -0.5426 -0.9105  0.1039
  151TCq2    O6 2309   2.099   1.475  11.972  0.0647 -0.3331  0.3209
  151TCq2    H2 2310   1.949   1.575  12.138  2.0830 -3.2308 -1.2291
  151TCq2    H3 2311   2.361   1.589  12.248 -0.2852 -2.6775 -0.5452
  151TCq2    H4 2312   2.076   1.801  12.484  2.1125  1.0995 -0.1972
  152MPD2     C 2313   1.574   1.239  12.397 -0.0071  1.2977 -0.6067
  152MPD2    C1 2314   1.598   1.361  12.457 -0.0447  0.0639 -0.3292
  152MPD2    C2 2315   1.485   1.418  12.516 -0.1545  0.2027  0.6534
  152MPD2    C3 2316   1.358   1.364  12.505  0.7925  0.2748 -0.4317
  152MPD2    C4 2317   1.341   1.248  12.437 -0.1143 -0.1959 -0.1198
  152MPD2    C5 2318   1.449   1.191  12.378 -0.5777  0.6207  0.1302
  152MPD2     H 2319   1.503   1.515  12.562  2.3744 -0.1063  0.3188
  152MPD2    H1 2320   1.249   1.194  12.416  0.6435 -0.5376 -2.5445
  152MPD2    H2 2321   1.648   1.164  12.374  0.5132  0.8918  2.4192
  152MPD2    H3 2322   1.448   1.103  12.315  2.3417 -0.1423  1.1431
  152MPD2     N 2323   1.254   1.444  12.561  0.2710  0.2925 -0.0303
  152MPD2    H5 2324   1.285   1.522  12.618 -2.0676  1.0069  0.2520
  152MPD2    N1 2325   1.731   1.409  12.477 -0.3240 -0.1642  0.3736
  152MPD2    H7 2326   1.744   1.491  12.537 -0.7142  0.2801 -0.1479
  153TCq2    C1 2327   1.842   1.353  12.413 -0.3824  0.2632 -0.0372
  153TCq2    O2 2328   1.851   1.265  12.329  0.3210 -0.0759 -0.0428
  153TCq2    C2 2329   1.968   1.398  12.474 -0.5806  0.4040 -0.3833
  153TCq2    C3 2330   2.077   1.346  12.424 -0.2212  0.3356 -0.6758
  153TCq2    C4 2331   2.197   1.368  12.483 -0.0191  0.3081  0.1091
  153TCq2    C5 2332   2.202   1.431  12.603 -0.6971  0.4816 -0.1763
  153TCq2    C6 2333   2.088   1.475  12.663  0.7062  0.0621 -0.3348
  153TCq2    C7 2334   1.965   1.454  12.604 -0.9215 -0.2609  0.0199
  153TCq2    C8 2335   2.099   1.595  12.740 -0.2724 -0.4406 -0.0153
  153TCq2    O4 2336   2.000   1.665  12.749 -0.2801 -0.0811 -0.2529
  153TCq2    C9 2337   2.307   1.331  12.408  0.6701 -0.1094  0.6162
  153TCq2    O5 2338   2.285   1.271  12.301  0.5405  0.3929 -0.9831
  153TCq2    O6 2339   2.422   1.379  12.438 -0.2821  0.1781  0.0491
  153TCq2    H2 2340   2.067   1.300  12.326  1.1142  0.1211 -0.7137
  153TCq2    H3 2341   2.303   1.452  12.634 -0.6944  0.1859  0.0230
  153TCq2    H4 2342   1.879   1.508  12.642 -0.9982 -1.3108  1.3350
  154MPD2     C 2343   3.253   1.219  17.548  0.1118 -1.0392 -0.0882
  154MPD2    C1 2344   3.298   1.271  17.671  0.6965 -0.7468 -0.2976
  154MPD2    C2 2345   3.211   1.332   0.052  0.5375  1.1408  0.1411
  154MPD2    C3 2346   3.079   1.348   0.019 -0.1268  0.0834 -0.0556
  154MPD2    C4 2347   3.034   1.304  17.603 -0.0554  0.3908 -0.3839
  154MPD2    C5 2348   3.124   1.242  17.513  0.1024  0.1499 -0.4231
  154MPD2     H 2349   3.252   1.380   0.140 -2.5385 -0.3721  2.4080
  154MPD2    H1 2350   2.940   1.333  17.559 -1.2150  0.5336  2.1647
  154MPD2    H2 2351   3.318   1.175  17.473  1.8396  1.3027  0.0144
  154MPD2    H3 2352   3.086   1.210  17.417  1.2554  1.7750 -1.4151
  154MPD2     N 2353   3.002   1.435   0.100  0.4514  0.5733 -0.8149
  154MPD2    H5 2354   3.050   1.463   0.184  2.4650  2.3941 -2.5961
  154MPD2    N1 2355   3.437   1.257  17.701  0.1249  0.2950  0.0494
  154MPD2    H7 2356   3.488   1.228  17.617 -1.2415  0.3338 -0.7944
  155TCq2    C1 2357   3.503   1.278   0.116  0.1979 -0.4568  0.0533
  155TCq2    O2 2358   3.454   1.327   0.218 -0.0946  0.3269  0.3423
  155TCq2    C2 2359   3.650   1.247   0.111 -0.2415  0.4027  0.1857
  155TCq2    C3 2360   3.737   1.347   0.140  0.1795  0.4390  0.6894
  155TCq2    C4 2361   3.861   1.345   0.075 -0.6681  0.6449 -0.1398
  155TCq2    C5 2362   3.904   1.244  17.704  0.1165 -0.1999 -0.4441
  155TCq2    C6 2363   3.811   1.143  17.682 -0.3490  0.3954  0.5082
  155TCq2    C7 2364   3.685   1.148   0.038  0.1667 -0.4493  0.7037
  155TCq2    C8 2365   3.812   1.082  17.558  0.0152  0.1918 -0.3935
  155TCq2    O4 2366   3.696   1.058  17.519 -0.5603  0.3884 -0.2917
  155TCq2    C9 2367   3.952   1.459   0.080 -0.3744 -0.7205 -0.4005
  155TCq2    O5 2368   4.034   1.470  17.694  0.4085  0.4230  0.4597
  155TCq2    O6 2369   3.948   1.535   0.174 -0.3040  0.3561 -0.5725
  155TCq2    H2 2370   3.709   1.434   0.198 -1.0514 -0.6994  1.7936
  155TCq2    H3 2371   3.991   1.260  17.641  1.0020 -0.1712  0.7702
  155TCq2    H4 2372   3.617   1.064   0.031  0.1917 -0.2905 -1.3979
  156MPD2     C 2373   2.528   3.370  12.415  0.2264 -0.4394 -0.3115
  156MPD2    C1 2374   2.451   3.447  12.329 -0.6887  0.1796  0.2124
  156MPD2    C2 2375   2.375   3.559  12.380 -0.5015 -0.5628  0.6659
  156MPD2    C3 2376   2.377   3.587  12.511  0.3016  0.7513  0.4079
  156MPD2    C4 2377   2.442   3.509  12.594  0.4433 -0.3274  0.3301
  156MPD2    C5 2378   2.524   3.402  12.545 -0.3248  0.5548  0.8152
  156MPD2     H 2379   2.311   3.618  12.315  0.0521 -0.7833 -0.0717
  156MPD2    H1 2380   2.437   3.519  12.702 -1.5117 -1.0884  0.3299
  156MPD2    H2 2381   2.591   3.291  12.377 -0.2414 -1.2428  0.5871
  156MPD2    H3 2382   2.582   3.345  12.617 -1.4031 -2.2638 -0.5529
  156MPD2     N 2383   2.291   3.690  12.554 -0.5292  0.0767  0.3008
  156MPD2    H5 2384   2.254   3.746  12.479  0.6711  1.1677  0.5100
  156MPD2    N1 2385   2.439   3.411  12.194 -0.1440  0.6319  0.0359
  156MPD2    H7 2386   2.485   3.324  12.169 -1.8379  0.0161 -0.9594
  157TCq2    C1 2387   2.370   3.479  12.095  0.5338  0.6934 -0.0189
  157TCq2    O2 2388   2.329   3.595  12.094 -0.1468  0.0988  0.5275
  157TCq2    C2 2389   2.338   3.401  11.979 -0.3469 -0.3218 -0.8798
  157TCq2    C3 2390   2.312   3.268  12.000  0.2854 -0.2772  0.2337
  157TCq2    C4 2391   2.232   3.206  11.910 -0.6396  0.7934 -0.5292
  157TCq2    C5 2392   2.176   3.273  11.805 -0.2529 -0.4578  0.5866
  157TCq2    C6 2393   2.192   3.406  11.791  0.3971 -0.4965 -0.0512
  157TCq2    C7 2394   2.274   3.474  11.881 -0.5496 -0.1898 -0.2408
  157TCq2    C8 2395   2.084   3.483  11.724 -0.1120  0.2255 -0.1849
  157TCq2    O4 2396   2.104   3.609  11.719 -0.4309  0.7709 -0.0103
  157TCq2    C9 2397   2.220   3.064  11.927 -0.0443  0.4234 -0.4508
  157TCq2    O5 2398   2.279   3.007  12.021 -0.0525  0.1880 -0.9566
  157TCq2    O6 2399   2.157   3.005  11.835 -0.1962 -0.1009  0.2644
  157TCq2    H2 2400   2.370   3.214  12.073  0.0379 -0.9624 -0.0769
  157TCq2    H3 2401   2.123   3.218  11.728  0.4022 -0.5911  0.2329
  157TCq2    H4 2402   2.301   3.578  11.869  0.7524 -0.3531  1.2395
  158TMC2    C1 2403   1.812   2.743  13.193 -0.0623 -0.5726 -0.1709
  158TMC2    C2 2404   1.805   2.667  13.079 -0.7313  0.1196  0.2337
  158TMC2    C3 2405   1.678   2.656  13.026  0.1719  0.0870 -0.1583
  158TMC2    C4 2406   1.702   2.807  13.249 -0.7144  0.0251 -0.7528
  158TMC2    C5 2407   1.581   2.790  13.188  0.7874 -0.5516 -0.3099
  158TMC2    C6 2408   1.565   2.714  13.080 -0.2370  0.3679  0.4163
  158TMC2     C 2409   1.941   2.770  13.253 -0.1662  0.4314  0.1788
  158TMC2     O 2410   2.034   2.769  13.174  0.4799  0.0423  0.0131
  158TMC2     H 2411   1.887   2.615  13.032 -2.0844 -2.3537  0.5780
  158TMC2    H1 2412   1.711   2.874  13.333  1.7698 -1.3990  0.1181
  158TMC2    H2 2413   1.463   2.706  13.043 -0.9213  2.3804  1.8434
  158TMC2    C7 2414   1.462   2.818  13.270 -0.0760 -0.0345  0.0830
  158TMC2    C8 2415   1.653   2.559  12.910  0.0652  0.2797 -0.5160
  158TMC2    O1 2416   1.364   2.854  13.209  0.0024  0.4323 -0.1958
  158TMC2    O2 2417   1.740   2.530  12.831  0.3359 -0.3787  0.6897
  158TMC2    O5 2418   1.575   2.466  12.967  0.2534 -0.9686  0.2529
  158TMC2    H5 2419   1.535   2.495  13.052 -2.0758 -2.7121 -0.2571
  159MPD2     C 2420   2.267   2.970  13.604 -0.3753 -0.5713 -0.5031
  159MPD2    C1 2421   2.156   2.917  13.665  0.1961 -0.5282 -0.1665
  159MPD2    C2 2422   2.055   2.858  13.590 -0.0840  0.3636 -0.8243
  159MPD2    C3 2423   2.059   2.860  13.450 -0.1009 -0.1148  0.2392
  159MPD2    C4 2424   2.172   2.911  13.386 -0.1178 -0.1910  0.0725
  159MPD2    C5 2425   2.267   2.959  13.469  0.6047  0.0884  0.4755
  159MPD2     H 2426   1.975   2.805  13.641  1.2706 -0.5227  0.3950
  159MPD2    H1 2427   2.175   2.911  13.278  0.6221  0.0093  0.0953
  159MPD2    H2 2428   2.354   3.010  13.654 -1.2782  0.3992  0.2904
  159MPD2    H3 2429   2.352   2.997  13.414 -0.0960  1.0245  0.0254
  159MPD2     N 2430   1.943   2.804  13.385 -0.5509  0.0605 -0.3911
  159MPD2    H5 2431   1.863   2.779  13.443 -1.6201 -0.0970 -1.9159
  159MPD2    N1 2432   2.147   2.932  13.811 -1.0386  0.5699 -0.1597
  159MPD2    H7 2433   2.223   2.977  13.863 -0.0658 -2.8417  1.3884
  160TMC2    C1 2434   2.221   0.798   1.245 -0.7789  0.2052 -0.0736
  160TMC2    C2 2435   2.296   0.687   1.266  0.2916 -0.3195  0.1843
  160TMC2    C3 2436   2.386   0.651   1.172  0.8930  0.8570 -0.0659
  160TMC2    C4 2437   2.250   0.886   1.145  0.6449  0.9042 -0.9580
  160TMC2    C5 2438   2.346   0.848   1.051  0.5386 -0.6086  0.4987
  160TMC2    C6 2439   2.407   0.729   1.059 -0.2092  0.2849 -0.0907
  160TMC2     C 2440   2.140   0.836   1.361 -0.4631  0.6255  0.4313
  160TMC2     O 2441   2.163   0.787   1.471 -0.2538  0.2787  0.3233
  160TMC2     H 2442   2.269   0.620   1.347 -2.0158  2.3459  1.6120
  160TMC2    H1 2443   2.196   0.979   1.133 -3.0561 -1.1394 -0.0827
  160TMC2    H2 2444   2.471   0.694   0.979  0.9889  1.9527  0.1212
  160TMC2    C7 2445   2.366   0.918   0.926  0.4782  0.7811  0.1872
  160TMC2    C8 2446   2.451   0.523   1.171  0.4905  0.2940  0.3642
  160TMC2    O1 2447   2.392   0.847   0.831  0.3631 -0.4247  0.2529
  160TMC2    O2 2448   2.489   0.469   1.067 -0.3095  0.0935 -0.0222
  160TMC2    O5 2449   2.436   0.463   1.293 -0.2335  0.0113  0.3797
  160TMC2    H5 2450   2.400   0.522   1.363  1.0633 -1.2016  2.0585
  161MPD2     C 2451   1.926   0.939   1.542 -0.0843  0.3904 -0.6523
  161MPD2    C1 2452   1.925   0.944   1.404 -0.5318 -0.0522  0.2980
  161MPD2    C2 2453   1.816   0.995   1.342  0.8557  0.1073 -0.2527
  161MPD2    C3 2454   1.706   1.047   1.408 -0.2666 -0.2049 -0.6424
  161MPD2    C4 2455   1.708   1.047   1.548 -0.2407  0.0500  0.0109
  161MPD2    C5 2456   1.818   0.993   1.610  0.0423 -0.2656  0.9436
  161MPD2     H 2457   1.819   0.996   1.234 -0.0651 -0.4282 -0.2810
  161MPD2    H1 2458   1.617   1.078   1.599  0.0683  1.3505 -0.2388
  161MPD2    H2 2459   2.005   0.894   1.600  0.5779 -0.4519 -2.1878
  161MPD2    H3 2460   1.823   0.978   1.717 -0.1242  0.9971  1.1283
  161MPD2     N 2461   1.588   1.095   1.348 -0.3212  0.3082  0.1534
  161MPD2    H5 2462   1.514   1.118   1.412 -0.9133 -0.6584 -0.1906
  161MPD2    N1 2463   2.029   0.901   1.318 -0.5223  0.3335  0.4286
  161MPD2    H7 2464   2.027   0.916   1.218 -0.3458  0.2680  0.4161
  162TMC2    C1 2465   4.140   2.756   0.964  0.2296 -0.3453  0.7146
  162TMC2    C2 2466   4.036   2.811   0.895  0.7137  0.4181 -0.4976
  162TMC2    C3 2467   3.929   2.843   0.965 -0.9164  0.4309 -0.0453
  162TMC2    C4 2468   4.144   2.748   1.099  0.2641 -0.1434 -0.5278
  162TMC2    C5 2469   4.023   2.788   1.165  0.0914  0.3514 -0.5619
  162TMC2    C6 2470   3.920   2.840   1.099 -0.0289 -0.5059  0.3506
  162TMC2     C 2471   4.264   2.707   0.891 -0.2018 -0.3387 -0.3376
  162TMC2     O 2472   4.338   2.627   0.952 -0.1975  0.9387  0.5168
  162TMC2     H 2473   4.039   2.828   0.788 -2.4046  1.6343 -0.3576
  162TMC2    H1 2474   4.225   2.693   1.146 -1.2116 -1.7397  0.1323
  162TMC2    H2 2475   3.837   2.882   1.156 -0.3465  0.6411 -0.9346
  162TMC2    C7 2476   4.016   2.772   1.306 -0.4138 -0.2829  0.3267
  162TMC2    C8 2477   3.803   2.871   0.891 -0.4153  0.0061 -0.3655
  162TMC2    O1 2478   3.908   2.795   1.358  0.1992  0.5274  0.0275
  162TMC2    O2 2479   3.763   2.808   0.797 -0.0880  0.3518  0.1766
  162TMC2    O5 2480   3.727   2.957   0.962 -0.3895 -0.0262 -0.6618
  162TMC2    H5 2481   3.786   3.022   1.006  1.8013 -0.5758 -2.7466
  163MPD2     C 2482   4.529   2.693   0.442 -0.0153  0.5576  0.0848
  163MPD2    C1 2483   4.569   2.675   0.572 -0.2023  0.3800 -0.0651
  163MPD2    C2 2484   4.488   2.680   0.674  0.7751 -0.0047 -0.0435
  163MPD2    C3 2485   4.354   2.718   0.651  0.1441 -0.7170  0.2327
  163MPD2    C4 2486   4.315   2.756   0.527 -0.3629 -0.0538  0.4819
  163MPD2    C5 2487   4.401   2.744   0.417 -0.4317 -0.3644 -0.0353
  163MPD2     H 2488   4.519   2.649   0.773  0.9620 -1.0574 -0.4338
  163MPD2    H1 2489   4.218   2.803   0.516 -0.0236  1.0828  2.3336
  163MPD2    H2 2490   4.591   2.683   0.353  1.8475  2.6315  1.1345
  163MPD2    H3 2491   4.376   2.768   0.314 -1.2602  1.7632  0.6483
  163MPD2     N 2492   4.259   2.738   0.755  0.1791  0.1403 -0.1697
  163MPD2    H5 2493   4.172   2.781   0.724  0.6570  0.2630 -1.3109
  163MPD2    N1 2494   4.706   2.636   0.586  0.3802  0.7315 -0.0372
  163MPD2    H7 2495   0.027   2.652   0.498  1.6530  0.4525  0.5992
  164TCq2    C1 2496   0.816   2.676  11.585 -0.3701 -0.0659 -0.2928
  164TCq2    O2 2497   0.784   2.591  11.505  0.1551 -0.3078  0.6188
  164TCq2    C2 2498   0.716   2.743  11.665  0.8924  0.9265 -0.3338
  164TCq2    C3 2499   0.748   2.744  11.799  0.2025  0.3450 -0.1494
  164TCq2    C4 2500   0.651   2.731  11.895 -0.5014 -0.1006 -0.3091
  164TCq2    C5 2501   0.528   2.710  11.855  0.1907 -1.2335 -0.2341
  164TCq2    C6 2502   0.497   2.698  11.721  1.2893 -1.0793 -0.4842
  164TCq2    C7 2503   0.589   2.712  11.621  0.6453  0.1642  0.1057
  164TCq2    C8 2504   0.370   2.630  11.682 -0.7515  0.7753  0.0439
  164TCq2    O4 2505   0.367   2.573  11.575  0.5467  0.0158  0.2263
  164TCq2    C9 2506   0.690   2.714  12.031 -0.0407  0.7582 -0.5884
  164TCq2    O5 2507   0.600   2.681  12.107 -0.3661 -0.1351 -0.5360
  164TCq2    O6 2508   0.818   2.710  12.057 -0.1982 -0.3957  0.1237
  164TCq2    H2 2509   0.851   2.748  11.833  0.8948 -0.9589 -2.1112
  164TCq2    H3 2510   0.459   2.695  11.938 -1.9609  1.4563 -1.5484
  164TCq2    H4 2511   0.572   2.689  11.517  1.2226  0.7613 -0.1213
  165MPD2     C 2512   0.335   0.781   1.431 -0.2927 -0.5382  0.4513
  165MPD2    C1 2513   0.453   0.719   1.381 -0.9666  0.2961 -0.1365
  165MPD2    C2 2514   0.570   0.765   1.441 -0.4056  0.0780 -0.9997
  165MPD2    C3 2515   0.578   0.871   1.525 -0.3339  0.0221  0.1612
  165MPD2    C4 2516   0.467   0.942   1.565 -0.2899 -0.0689  0.0885
  165MPD2    C5 2517   0.343   0.890   1.522  1.1241 -0.1419 -0.0310
  165MPD2     H 2518   0.659   0.707   1.426 -0.1386  0.2103  0.0996
  165MPD2    H1 2519   0.477   1.022   1.637  0.0818  0.4803 -0.5707
  165MPD2    H2 2520   0.238   0.756   1.391 -0.7998  0.5191  1.0177
  165MPD2    H3 2521   0.257   0.950   1.547 -0.1666 -2.3723  0.8482
  165MPD2     N 2522   0.704   0.922   1.564  0.0110 -0.4530  0.4726
  165MPD2    H5 2523   0.785   0.876   1.524  0.1888 -0.1800  0.5162
  165MPD2    N1 2524   0.445   0.616   1.288 -0.4864  0.7268 -0.2839
  165MPD2    H7 2525   0.352   0.583   1.266  0.2955 -0.9369 -1.0798
  166TCq2    C1 2526   0.730   1.019   1.666 -0.2996  0.7483  0.0305
  166TCq2    O2 2527   0.656   1.085   1.733  0.2781 -0.0354  0.2955
  166TCq2    C2 2528   0.869   1.066   1.670  0.9686 -0.3149  0.1754
  166TCq2    C3 2529   0.896   1.174   1.740 -0.4813  0.6896 -0.5899
  166TCq2    C4 2530   1.022   1.219   1.745  0.6330 -0.1296  0.4421
  166TCq2    C5 2531   1.118   1.154   1.684 -0.2761 -0.0499 -0.4520
  166TCq2    C6 2532   1.088   1.047   1.606 -0.8102  0.2035 -0.4694
  166TCq2    C7 2533   0.960   0.991   1.600  0.2244 -0.1102 -0.8605
  166TCq2    C8 2534   1.195   0.987   1.521 -0.9039 -0.3878 -0.6147
  166TCq2    O4 2535   1.315   0.981   1.553  0.1898  0.7197 -0.3268
  166TCq2    C9 2536   1.056   1.339   1.813  0.0498 -0.1280 -0.1325
  166TCq2    O5 2537   1.177   1.375   1.802  0.0468 -0.6207 -0.4142
  166TCq2    O6 2538   0.960   1.403   1.870  0.0920 -0.0583  0.3868
  166TCq2    H2 2539   0.815   1.220   1.795 -2.9839 -0.4752 -3.3062
  166TCq2    H3 2540   1.221   1.186   1.691 -0.8226  2.0901 -2.4215
  166TCq2    H4 2541   0.947   0.895   1.551 -0.2879 -0.3771 -0.2013
  167TMC2    C1 2542   4.396   2.156  12.671  1.1715 -0.3799  0.1510
  167TMC2    C2 2543   4.317   2.184  12.776  0.7017  0.6819  0.3898
  167TMC2    C3 2544   4.303   2.077  12.861  0.5162  0.4544  0.7830
  167TMC2    C4 2545   4.477   2.047  12.658  0.0009 -0.2981 -0.0138
  167TMC2    C5 2546   4.460   1.948  12.747 -0.4681 -0.1210 -0.5544
  167TMC2    C6 2547   4.370   1.956  12.857 -0.6275 -0.5660 -0.4796
  167TMC2     C 2548   4.374   2.253  12.562 -0.1692  0.4373  0.5415
  167TMC2     O 2549   4.323   2.361  12.585 -0.0730  0.0711 -0.3716
  167TMC2     H 2550   4.240   2.260  12.768 -2.5757 -2.7333 -1.2118
  167TMC2    H1 2551   4.538   2.040  12.568 -2.4252 -1.3250 -1.5753
  167TMC2    H2 2552   4.379   1.890  12.942 -1.0879  0.4048  0.3297
  167TMC2    C7 2553   4.537   1.824  12.739  0.1864 -0.1102  0.4490
  167TMC2    C8 2554   4.202   2.084  12.969  0.0066 -0.3403  0.2032
  167TMC2    O1 2555   4.547   1.755  12.841  0.2649  0.3920 -0.2479
  167TMC2    O2 2556   4.150   1.983  13.017  0.4028 -0.6087 -1.0355
  167TMC2    O5 2557   4.136   2.200  12.960 -0.5801 -0.4059 -0.3853
  167TMC2    H5 2558   4.182   2.287  12.954 -2.0915  0.3828 -0.3976
  168MPD2     C 2559   4.397   2.354  12.291  0.1263 -0.2649 -0.2027
  168MPD2    C1 2560   4.371   2.219  12.315  0.7943 -0.4758 -0.6657
  168MPD2    C2 2561   4.370   2.124  12.208 -0.0125  0.1718  0.7173
  168MPD2    C3 2562   4.405   2.171  12.086  0.0511 -0.1075 -0.6682
  168MPD2    C4 2563   4.425   2.306  12.065  0.4360 -0.3476  0.5356
  168MPD2    C5 2564   4.404   2.404  12.162  0.8166  0.3930 -0.1043
  168MPD2     H 2565   4.357   2.018  12.227  2.6840 -0.3747 -0.5021
  168MPD2    H1 2566   4.450   2.343  11.966  2.1870 -2.4695  0.1948
  168MPD2    H2 2567   4.393   2.434  12.365  0.4263  0.2608 -0.7596
  168MPD2    H3 2568   4.429   2.508  12.149 -1.1602  0.7803 -0.7867
  168MPD2     N 2569   4.408   2.082  11.985 -0.8754 -0.0072 -0.1195
  168MPD2    H5 2570   4.383   1.989  12.019 -1.9326 -0.1411 -1.2664
  168MPD2    N1 2571   4.376   2.172  12.448  0.0955  0.8049  0.2797
  168MPD2    H7 2572   4.390   2.076  12.477 -1.9995  0.8401  1.4162
  169MPD1     C 2573   3.643   4.703   9.208 -0.1907 -0.2179 -0.4144
  169MPD1    C1 2574   3.662   0.106   9.178 -0.6435  0.1768  0.2849
  169MPD1    C2 2575   3.562   0.196   9.204 -0.3371 -0.0994  0.0940
  169MPD1    C3 2576   3.438   0.157   9.254  0.1906  0.2501 -0.0952
  169MPD1    C4 2577   3.418   0.021   9.279  0.1759 -0.2668 -0.0555
  169MPD1    C5 2578   3.528   4.669   9.263 -0.0847  0.0249  1.2669
  169MPD1     H 2579   3.577   0.299   9.175 -0.1724 -0.1690 -0.0716
  169MPD1    H1 2580   3.326   4.707   9.321 -0.1526  0.6291  0.1001
  169MPD1    H2 2581   3.720   4.631   9.183  1.7328  2.0498 -1.0434
  169MPD1    H3 2582   3.522   4.565   9.293  0.3521  0.2108  1.9748
  169MPD1     N 2583   3.341   0.257   9.265  0.6324 -0.0895 -0.5337
  169MPD1    H5 2584   3.365   0.350   9.232 -0.2321  0.6602  0.9719
  169MPD1    N1 2585   3.766   0.146   9.092 -0.2405 -0.1313 -0.7855
  169MPD1    H6 2586   3.812   0.234   9.114  0.8023 -1.2933  1.7312
  169MPD1    H7 2587   3.843   0.079   9.091 -0.1089  0.0126 -0.1683
  170MPD1     C 2588   1.652   4.569  12.903 -0.0182 -0.0511  0.1750
  170MPD1    C1 2589   1.572   4.667  12.848  0.1793 -0.0065  0.0949
  170MPD1    C2 2590   1.462   4.704  12.925 -0.0646 -0.8087  0.2032
  170MPD1    C3 2591   1.437   4.651  13.048  0.6311 -0.3734  0.2537
  170MPD1    C4 2592   1.511   4.549  13.091  0.0471 -1.1304 -0.5563
  170MPD1    C5 2593   1.621   4.513  13.021 -0.0118  0.3785  0.6673
  170MPD1     H 2594   1.404   0.057  12.880 -0.6722 -1.4760 -0.1831
  170MPD1    H1 2595   1.507   4.509  13.191  0.1603  1.4234  0.4737
  170MPD1    H2 2596   1.738   4.539  12.844 -0.3453  0.7079 -0.7034
  170MPD1    H3 2597   1.689   4.446  13.072 -1.3749 -1.9776 -0.6124
  170MPD1     N 2598   1.315   4.691  13.109 -0.3011 -0.1369 -0.1829
  170MPD1    H5 2599   1.270   0.039  13.058 -0.9576  0.7857  1.7779
  170MPD1    N1 2600   1.612   0.023  12.741 -0.3455 -0.2075  0.1096
  170MPD1    H6 2601   1.530   0.059  12.692  1.0001  1.2013 -1.0571
  170MPD1    H7 2602   1.663   4.688  12.680  0.3482 -1.9699  2.4846
  171MPD1     C 2603   4.676   1.719  15.446 -0.4471  0.0149  0.4270
  171MPD1    C1 2604   0.047   1.622  15.480 -0.5516  0.2924 -0.8493
  171MPD1    C2 2605   0.011   1.491  15.485  0.3842 -0.2269  0.2802
  171MPD1    C3 2606   4.601   1.453  15.478  0.0837  1.3191 -0.4253
  171MPD1    C4 2607   4.503   1.551  15.468 -0.4245 -0.0562 -0.6214
  171MPD1    C5 2608   4.543   1.680  15.439 -0.3509  0.3090 -0.6335
  171MPD1     H 2609   0.093   1.421  15.497  2.3838  1.8104 -1.4502
  171MPD1    H1 2610   4.398   1.527  15.458  0.3148 -3.1449 -0.9130
  171MPD1    H2 2611   4.699   1.825  15.436  1.1485 -0.5728 -1.9107
  171MPD1    H3 2612   4.466   1.756  15.431  0.9945  1.5430 -1.8523
  171MPD1     N 2613   4.562   1.316  15.495 -1.1418 -0.2852  0.8379
  171MPD1    H5 2614   4.462   1.298  15.503 -1.5149  1.2510 -0.5565
  171MPD1    N1 2615   0.183   1.654  15.485 -0.3066  0.0452  0.5757
  171MPD1    H6 2616   0.203   1.748  15.519  0.0988  0.5494 -1.0582
  171MPD1    H7 2617   0.248   1.594  15.535  1.0231 -0.0191 -1.2248
  172MPD1     C 2618   2.838   4.061   0.222 -0.9114  0.0824 -0.6049
  172MPD1    C1 2619   2.776   4.181   0.228 -0.4854 -0.1272  0.4115
  172MPD1    C2 2620   2.845   4.293   0.181 -0.4794  0.2143  0.0044
  172MPD1    C3 2621   2.981   4.276   0.150  1.2160  0.1958  0.7502
  172MPD1    C4 2622   3.047   4.161   0.151  0.4890 -0.3222  0.1315
  172MPD1    C5 2623   2.974   4.052   0.184 -0.5215 -0.2348 -0.0912
  172MPD1     H 2624   2.797   4.390   0.170 -0.3773  0.3638  0.8987
  172MPD1    H1 2625   3.152   4.161   0.124  0.2230  0.1679 -0.9263
  172MPD1    H2 2626   2.786   3.969   0.246  0.5250 -0.8044 -0.8607
  172MPD1    H3 2627   3.020   3.955   0.175 -0.7511 -0.3198 -0.3559
  172MPD1     N 2628   3.061   4.386   0.117  0.5196 -0.3162 -0.0033
  172MPD1    H5 2629   3.160   4.384   0.141  0.6305 -2.6357 -0.6736
  172MPD1    N1 2630   2.645   4.196   0.283  0.5408  0.3566 -0.1688
  172MPD1    H6 2631   2.632   4.126   0.356 -1.2216 -0.0761 -0.9045
  172MPD1    H7 2632   2.631   4.286   0.329  1.0065  0.6718 -0.6465
  173MPD1     C 2633   0.279   0.534  14.144  1.0931  0.7626 -0.3815
  173MPD1    C1 2634   0.304   0.405  14.189  0.3543 -0.2505 -0.9344
  173MPD1    C2 2635   0.302   0.391  14.324 -0.5036 -0.1967 -0.4000
  173MPD1    C3 2636   0.262   0.492  14.417  0.3317 -0.0455  0.0435
  173MPD1    C4 2637   0.248   0.621  14.364  0.5378  0.5391 -0.1548
  173MPD1    C5 2638   0.257   0.641  14.229  0.2390  0.4005  0.2916
  173MPD1     H 2639   0.322   0.295  14.370  2.2661  0.5309 -0.1167
  173MPD1    H1 2640   0.249   0.707  14.429  1.5202  1.1901 -1.0121
  173MPD1    H2 2641   0.299   0.563  14.042 -0.5099  3.6900  0.1174
  173MPD1    H3 2642   0.257   0.742  14.191  1.9238  0.9276  1.6708
  173MPD1     N 2643   0.256   0.465  14.556 -0.2490  0.5124 -0.2463
  173MPD1    H5 2644   0.277   0.370  14.585 -0.7481  0.7756  0.9688
  173MPD1    N1 2645   0.362   0.310  14.101  0.4856 -0.1454  0.2934
  173MPD1    H6 2646   0.357   0.212  14.125 -0.3741 -0.1672  0.0234
  173MPD1    H7 2647   0.318   0.319  14.010  1.2700 -2.1464 -0.2799
  174MPD1     C 2648   0.786   4.680  15.028  0.2712 -0.2966 -0.3115
  174MPD1    C1 2649   0.666   4.655  15.087 -0.1523  0.3991 -0.2919
  174MPD1    C2 2650   0.554   4.713  15.029  0.2217  0.2775 -0.0316
  174MPD1    C3 2651   0.564   0.090  14.931  0.4775 -0.6883  0.8841
  174MPD1    C4 2652   0.685   0.102  14.866 -0.5335 -0.1306  0.0640
  174MPD1    C5 2653   0.792   0.048  14.925 -0.4743  0.4392 -0.1167
  174MPD1     H 2654   0.460   4.690  15.079 -0.0468  0.1525 -0.5904
  174MPD1    H1 2655   0.702   0.179  14.791 -2.5687  1.5261  1.2877
  174MPD1    H2 2656   0.873   4.623  15.056 -1.0069 -2.8051 -1.4643
  174MPD1    H3 2657   0.891   0.079  14.893 -0.8987  0.9792 -0.8918
  174MPD1     N 2658   0.457   0.177  14.890 -0.4996  0.7277  0.6765
  174MPD1    H5 2659   0.464   0.219  14.799  0.9552  0.9744  0.9118
  174MPD1    N1 2660   0.654   4.540  15.166 -0.3026 -0.5092 -0.2896
  174MPD1    H6 2661   0.736   4.511  15.217  0.1300  1.1487 -0.0563
  174MPD1    H7 2662   0.576   4.543  15.232 -1.1095  0.1825 -1.2611
  175MPD1     C 2663   3.436   1.555  15.249  0.3425  0.2189  0.3627
  175MPD1    C1 2664   3.363   1.442  15.211  0.6059 -0.1562 -0.5395
  175MPD1    C2 2665   3.318   1.357  15.304 -0.1933 -0.1651 -0.1140
  175MPD1    C3 2666   3.359   1.370  15.435  0.2692  0.1251  0.2421
  175MPD1    C4 2667   3.441   1.469  15.469  0.5007  0.0567 -0.2274
  175MPD1    C5 2668   3.480   1.567  15.377  0.2483 -0.6752  0.6721
  175MPD1     H 2669   3.250   1.276  15.281 -1.1257  0.3546  0.8188
  175MPD1    H1 2670   3.477   1.487  15.569 -0.6170  1.2391 -0.0286
  175MPD1    H2 2671   3.470   1.629  15.177  0.8011  0.2249  0.5807
  175MPD1    H3 2672   3.540   1.650  15.413 -0.7923  0.8706 -1.1758
  175MPD1     N 2673   3.324   1.282  15.538  0.1999 -0.6772  1.0876
  175MPD1    H5 2674   3.356   1.300  15.633 -0.5871 -2.1081  1.6278
  175MPD1    N1 2675   3.319   1.435  15.078 -0.5133 -0.0786  0.0335
  175MPD1    H6 2676   3.392   1.476  15.020 -1.7863  2.7736  0.4541
  175MPD1    H7 2677   3.320   1.337  15.052 -0.4910  0.2301 -1.1372
  176MPD1     C 2678   0.622   2.756  16.298 -0.1418 -0.1173 -0.2199
  176MPD1    C1 2679   0.490   2.793  16.290  0.0864 -0.1227 -0.6671
  176MPD1    C2 2680   0.416   2.814  16.405 -0.7175  0.1841 -0.5973
  176MPD1    C3 2681   0.473   2.793  16.529 -0.1926 -0.4241  0.1421
  176MPD1    C4 2682   0.606   2.758  16.532 -0.2623  0.0916  0.5396
  176MPD1    C5 2683   0.680   2.742  16.421 -0.1700 -0.0761 -0.7106
  176MPD1     H 2684   0.313   2.848  16.396 -0.6265  0.7404  0.5583
  176MPD1    H1 2685   0.662   2.742  16.624  1.5848  0.3323 -0.5386
  176MPD1    H2 2686   0.684   2.745  16.210 -1.4353 -0.6944 -1.0656
  176MPD1    H3 2687   0.781   2.705  16.421 -0.0537  0.2252  0.6893
  176MPD1     N 2688   0.400   2.817  16.643  0.7074 -0.4350  0.0027
  176MPD1    H5 2689   0.312   2.867  16.630  0.2983 -1.6074 -1.8386
  176MPD1    N1 2690   0.429   2.820  16.166 -0.1852  0.4908  1.5659
  176MPD1    H6 2691   0.334   2.784  16.166 -0.1581  0.4279  0.7060
  176MPD1    H7 2692   0.475   2.770  16.090 -3.7420  0.3252 -0.4889
  177MPD1     C 2693   3.822   1.585  10.624 -0.9782  0.6514  0.8733
  177MPD1    C1 2694   3.692   1.556  10.596  0.0495 -0.6727 -0.2656
  177MPD1    C2 2695   3.622   1.643  10.519  0.3688 -0.2842  0.6892
  177MPD1    C3 2696   3.671   1.766  10.478 -0.4377 -0.6791  0.1028
  177MPD1    C4 2697   3.806   1.793  10.511 -0.4144 -0.2560  0.0485
  177MPD1    C5 2698   3.880   1.707  10.583  0.3560 -0.0662 -0.0881
  177MPD1     H 2699   3.518   1.619  10.499  0.9207 -0.8006 -1.6708
  177MPD1    H1 2700   3.859   1.883  10.481  0.2727 -0.7730 -0.2814
  177MPD1    H2 2701   3.877   1.513  10.684 -1.4666  0.7825  1.4729
  177MPD1    H3 2702   3.984   1.736  10.594  0.9508 -1.6804 -1.6532
  177MPD1     N 2703   3.594   1.856  10.403  0.1365  0.7541  0.1666
  177MPD1    H5 2704   3.505   1.819  10.369  1.5338 -2.4329 -0.0386
  177MPD1    N1 2705   3.641   1.429  10.638  0.4119 -0.8209  0.6309
  177MPD1    H6 2706   3.689   1.396  10.721  1.6091 -1.5032 -0.3361
  177MPD1    H7 2707   3.540   1.431  10.647  0.5956 -1.5894  2.7868
  178MPD1     C 2708   0.842   3.862   0.275  0.1196  0.1543  0.0786
  178MPD1    C1 2709   0.861   3.979   0.199 -0.6868 -0.3058 -0.1351
  178MPD1    C2 2710   0.888   3.971   0.069  0.4676 -0.0537 -0.2775
  178MPD1    C3 2711   0.906   3.854   0.007 -0.3080  0.8284 -0.2788
  178MPD1    C4 2712   0.873   3.739   0.073  0.7005  0.2523 -1.1255
  178MPD1    C5 2713   0.830   3.747   0.202 -0.0028  0.3886 -0.2889
  178MPD1     H 2714   0.909   4.067   0.023 -1.2088  0.6891  0.4890
  178MPD1    H1 2715   0.865   3.642   0.026  0.6289 -0.5779  0.5754
  178MPD1    H2 2716   0.819   3.865   0.381  0.1848 -1.7150  0.1379
  178MPD1    H3 2717   0.781   3.663   0.251  1.1812 -0.6654 -0.9321
  178MPD1     N 2718   0.943   3.844  17.575 -0.4538 -0.3134  0.0989
  178MPD1    H5 2719   0.961   3.748  17.548 -0.1973 -0.4047  0.6005
  178MPD1    N1 2720   0.811   4.099   0.251  0.1612 -0.3011  0.6164
  178MPD1    H6 2721   0.809   4.107   0.352 -1.0092  0.1234  0.5552
  178MPD1    H7 2722   0.850   4.182   0.207  2.0206 -1.0116  0.9309
  179MPD1     C 2723   0.836   2.491  16.279  0.0359 -0.0685 -0.7027
  179MPD1    C1 2724   0.768   2.389  16.356  0.2153 -0.1438 -0.0547
  179MPD1    C2 2725   0.716   2.276  16.301  0.0671  0.5722 -0.1691
  179MPD1    C3 2726   0.734   2.251  16.167 -0.5302 -0.3516 -0.5833
  179MPD1    C4 2727   0.803   2.350  16.098 -0.4460 -0.1344  0.0408
  179MPD1    C5 2728   0.851   2.465  16.148 -0.2854 -0.4441  0.2392
  179MPD1     H 2729   0.658   2.202  16.357  2.0811 -0.3950  0.6335
  179MPD1    H1 2730   0.834   2.345  15.994 -2.0252  1.3126 -0.5005
  179MPD1    H2 2731   0.892   2.573  16.323 -0.9071  0.7182 -0.9646
  179MPD1    H3 2732   0.903   2.538  16.087 -0.7538 -0.2466  0.0724
  179MPD1     N 2733   0.684   2.127  16.104  0.2594  0.7687  0.7655
  179MPD1    H5 2734   0.694   2.115  16.004 -1.8695  0.6228  0.5542
  179MPD1    N1 2735   0.747   2.419  16.496  0.2790  0.1805  0.4235
  179MPD1    H6 2736   0.818   2.483  16.530  0.4726 -0.4708  1.2348
  179MPD1    H7 2737   0.755   2.336  16.554  0.0550 -0.4995 -0.5154
  180MPD1     C 2738   0.289   3.901  14.375 -0.6587 -0.3371  0.4486
  180MPD1    C1 2739   0.206   3.864  14.473  0.3031 -0.5055 -0.2151
  180MPD1    C2 2740   0.166   3.732  14.475 -0.3375  0.2161  0.0306
  180MPD1    C3 2741   0.224   3.635  14.393 -0.5930 -0.1056  0.5862
  180MPD1    C4 2742   0.318   3.677  14.300  0.6454 -0.0723 -0.2799
  180MPD1    C5 2743   0.352   3.806  14.296 -0.6868  0.0270  0.1130
  180MPD1     H 2744   0.091   3.699  14.546 -1.5704  1.6836 -0.6149
  180MPD1    H1 2745   0.368   3.606  14.234  1.5977  2.2730 -2.0565
  180MPD1    H2 2746   0.316   4.006  14.364  0.5997 -0.8152 -1.0954
  180MPD1    H3 2747   0.421   3.840  14.220 -0.1177  0.4504  0.8122
  180MPD1     N 2748   0.175   3.510  14.408  0.0984 -0.5544 -0.0334
  180MPD1    H5 2749   0.125   3.484  14.493  2.5686 -1.0549  1.2757
  180MPD1    N1 2750   0.131   3.966  14.535 -0.2943  0.4562 -0.4433
  180MPD1    H6 2751   0.193   4.045  14.554 -1.1510  0.4724  2.2531
  180MPD1    H7 2752   0.105   3.944  14.631  2.5034  0.4401  0.3275
  181MPD1     C 2753   1.965   0.579  10.548 -0.2837  0.1952  0.0318
  181MPD1    C1 2754   2.069   0.594  10.454  0.3279 -0.4497 -0.1129
  181MPD1    C2 2755   2.077   0.490  10.364 -0.1890  0.0855  0.0888
  181MPD1    C3 2756   2.011   0.371  10.373  0.6514 -0.1824  0.3599
  181MPD1    C4 2757   1.911   0.359  10.466  0.6084  0.0510  0.0624
  181MPD1    C5 2758   1.894   0.459  10.554 -0.6411  0.0324 -0.4375
  181MPD1     H 2759   2.148   0.501  10.283  0.3311 -1.5604  0.3042
  181MPD1    H1 2760   1.862   0.265  10.484  3.1876 -0.9364  1.8553
  181MPD1    H2 2761   1.940   0.656  10.620 -1.6134  1.5214 -1.8587
  181MPD1    H3 2762   1.812   0.440  10.621 -1.2350  1.2995 -0.8036
  181MPD1     N 2763   2.048   0.263  10.285 -0.2463 -0.3902  0.2630
  181MPD1    H5 2764   2.125   0.281  10.220 -0.9120 -2.0185 -0.9903
  181MPD1    N1 2765   2.135   0.715  10.448 -0.2935 -0.6628 -0.0911
  181MPD1    H6 2766   2.225   0.701  10.404 -0.3779  0.3789 -0.6023
  181MPD1    H7 2767   2.154   0.762  10.537  0.0057 -0.7022 -0.1363
  182MPD1     C 2768   2.193   4.009   1.593 -0.0811  0.1904  0.0271
  182MPD1    C1 2769   2.280   3.936   1.509 -0.6790 -0.3300  0.3973
  182MPD1    C2 2770   2.289   3.961   1.373 -0.0020  0.6066  0.3589
  182MPD1    C3 2771   2.201   4.057   1.313 -0.0291 -0.6467  0.4422
  182MPD1    C4 2772   2.123   4.132   1.401 -0.0591 -0.2090  0.1281
  182MPD1    C5 2773   2.120   4.106   1.536  0.4544 -0.7653 -0.7742
  182MPD1     H 2774   2.364   3.914   1.310 -1.0594 -1.6934  0.8192
  182MPD1    H1 2775   2.064   4.217   1.370  2.1854  1.4175  0.2932
  182MPD1    H2 2776   2.179   3.982   1.697  2.0562  0.5243  0.3980
  182MPD1    H3 2777   2.053   4.160   1.603 -0.3989 -3.0492  0.1980
  182MPD1     N 2778   2.186   4.077   1.175 -0.1418  0.1094 -0.3948
  182MPD1    H5 2779   2.106   4.134   1.150 -0.8088 -0.8268 -0.3867
  182MPD1    N1 2780   2.387   3.863   1.559  0.2221 -0.0482  0.2530
  182MPD1    H6 2781   2.365   3.820   1.649 -0.1440  0.3689  0.3674
  182MPD1    H7 2782   2.418   3.785   1.502  3.2303 -0.1925  2.0808
  183MPD1     C 2783   4.282   4.218   8.935 -0.3006  0.3874 -0.2242
  183MPD1    C1 2784   4.297   4.119   9.030  0.2304  0.0263 -0.1132
  183MPD1    C2 2785   4.192   4.107   9.127  0.1865 -0.4724 -0.1989
  183MPD1    C3 2786   4.080   4.188   9.122  0.1730 -0.1299  0.4482
  183MPD1    C4 2787   4.070   4.293   9.024  0.5368  0.2982 -0.3182
  183MPD1    C5 2788   4.170   4.300   8.935  0.1643 -0.3896  0.9027
  183MPD1     H 2789   4.192   4.036   9.209 -1.5403  0.2220  0.4026
  183MPD1    H1 2790   3.984   4.358   9.010  1.8159  1.8656 -0.8672
  183MPD1    H2 2791   4.353   4.222   8.854 -0.5839 -1.0613 -0.5334
  183MPD1    H3 2792   4.163   4.383   8.866  0.3210  0.8027  2.3043
  183MPD1     N 2793   3.977   4.173   9.221  0.4190 -0.0327 -0.0148
  183MPD1    H5 2794   3.981   4.084   9.270 -0.3011 -0.0669 -0.0214
  183MPD1    N1 2795   4.410   4.035   9.029  0.3217  1.2486 -0.1247
  183MPD1    H6 2796   4.456   4.016   9.118  0.0767 -0.2705 -0.3284
  183MPD1    H7 2797   4.490   4.072   8.979 -0.8100  0.7569 -2.2718
  184MPD1     C 2798   2.042   2.102  10.122 -0.1224 -0.2592 -0.7117
  184MPD1    C1 2799   2.136   2.194  10.160 -0.3757  0.4477  0.1902
  184MPD1    C2 2800   2.271   2.184  10.109 -0.0311 -0.3188  0.3149
  184MPD1    C3 2801   2.304   2.075  10.038 -0.1569 -0.2848  0.7122
  184MPD1    C4 2802   2.210   1.974  10.011  0.0509 -0.1345  0.4423
  184MPD1    C5 2803   2.075   1.994  10.038  0.5657  0.4729  0.0228
  184MPD1     H 2804   2.338   2.267  10.128 -0.0336 -0.1944 -0.2243
  184MPD1    H1 2805   2.241   1.883   9.961  1.1071  1.2098 -1.3362
  184MPD1    H2 2806   1.941   2.104  10.162 -0.9064 -0.6671 -2.6890
  184MPD1    H3 2807   2.005   1.914  10.018  3.3866 -1.6882 -1.1159
  184MPD1     N 2808   2.437   2.050   9.994  0.4207  0.1045 -0.0807
  184MPD1    H5 2809   2.438   1.982   9.918  1.5189  2.2446 -1.9745
  184MPD1    N1 2810   2.101   2.306  10.235 -0.1650  0.0454  0.2962
  184MPD1    H6 2811   2.025   2.284  10.300  1.3565  1.9205  2.6770
  184MPD1    H7 2812   2.185   2.329  10.287  0.9206  0.6881 -1.7518
  185MPD1     C 2813   2.458   1.841   9.196  0.7981 -0.5326  0.0434
  185MPD1    C1 2814   2.585   1.895   9.194 -0.4706 -0.9225 -0.5341
  185MPD1    C2 2815   2.626   1.943   9.316 -0.2916  0.2128 -0.4208
  185MPD1    C3 2816   2.551   1.946   9.436 -0.3401  0.6413 -0.2682
  185MPD1    C4 2817   2.416   1.903   9.426  0.1858  0.1624 -0.6760
  185MPD1    C5 2818   2.367   1.861   9.300 -0.3735 -0.0605 -0.1050
  185MPD1     H 2819   2.730   1.973   9.315 -0.8371  2.1359  0.1141
  185MPD1    H1 2820   2.364   1.883   9.519  2.7364  0.4741  0.8205
  185MPD1    H2 2821   2.413   1.798   9.107  1.8813  1.1477 -1.3118
  185MPD1    H3 2822   2.266   1.822   9.305  0.0369 -1.0758  0.3188
  185MPD1     N 2823   2.602   1.993   9.559 -0.0688  0.4754  0.2525
  185MPD1    H5 2824   2.542   1.988   9.641  0.4738 -1.4303  0.5514
  185MPD1    N1 2825   2.668   1.880   9.082 -0.0349 -0.1690  0.0762
  185MPD1    H6 2826   2.747   1.944   9.080  0.4823 -0.7938  0.4303
  185MPD1    H7 2827   2.619   1.894   8.994  2.6119 -0.9923 -1.5156
  186MPD1     C 2828   0.939   1.600  16.060 -0.4358  0.9347 -0.4997
  186MPD1    C1 2829   1.049   1.669  16.019  0.3624 -0.2765  0.0050
  186MPD1    C2 2830   1.070   1.800  16.059  0.1605  0.6439  1.3366
  186MPD1    C3 2831   0.983   1.863  16.151 -0.0004  0.5071  0.0587
  186MPD1    C4 2832   0.879   1.777  16.191 -0.1206 -0.1108 -0.5746
  186MPD1    C5 2833   0.853   1.654  16.147 -0.7575  0.1160 -0.0657
  186MPD1     H 2834   1.154   1.848  16.009 -0.9516  0.4342 -0.7515
  186MPD1    H1 2835   0.807   1.828  16.255  0.4414  1.9091 -1.5572
  186MPD1    H2 2836   0.915   1.500  16.026  0.9128  0.3575  0.2682
  186MPD1    H3 2837   0.763   1.600  16.176 -0.8801  0.5271  0.3137
  186MPD1     N 2838   1.007   1.980  16.220  0.0067 -0.2367  0.4898
  186MPD1    H5 2839   0.937   2.008  16.288  0.2888  0.1152  0.6340
  186MPD1    N1 2840   1.136   1.609  15.918  0.5133 -0.1158  0.3317
  186MPD1    H6 2841   1.127   1.508  15.927 -2.3270  0.2256  1.4257
  186MPD1    H7 2842   1.233   1.638  15.924  0.0784  1.2065  1.0748
  187MPD1     C 2843   3.413   4.541  17.692 -0.1154 -0.2317  0.7865
  187MPD1    C1 2844   3.435   4.404  17.675 -0.0904 -0.8706 -0.3535
  187MPD1    C2 2845   3.556   4.354   0.005 -0.1227 -0.0623  0.6987
  187MPD1    C3 2846   3.667   4.437   0.019  0.2975 -0.4351 -0.0666
  187MPD1    C4 2847   3.650   4.573   0.015  0.6530 -1.1804  1.1197
  187MPD1    C5 2848   3.522   4.623   0.007 -0.2364 -0.0707  0.2599
  187MPD1     H 2849   3.575   4.247   0.001 -2.5568 -0.5241  1.8127
  187MPD1    H1 2850   3.726   4.643   0.048  1.5350 -0.7115 -1.9353
  187MPD1    H2 2851   3.315   4.586  17.682  0.4649  0.8389 -0.0883
  187MPD1    H3 2852   3.501   0.002   0.016  3.6135  0.6189  1.0988
  187MPD1     N 2853   3.802   4.390   0.046 -0.7306  0.1318  0.1730
  187MPD1    H5 2854   3.873   4.462   0.041 -0.3645 -0.4308 -2.8959
  187MPD1    N1 2855   3.327   4.332  17.645  0.1013 -0.0108  0.1973
  187MPD1    H6 2856   3.349   4.244  17.599 -0.5451  0.1869 -0.4894
  187MPD1    H7 2857   3.290   4.379  17.563 -1.0353 -1.5690 -0.1749
  188MPD1     C 2858   0.475   3.181   9.140  0.0749 -0.5206 -0.2982
  188MPD1    C1 2859   0.581   3.103   9.137 -0.5144  0.5111  0.2896
  188MPD1    C2 2860   0.588   2.989   9.212 -0.6941 -0.5363  0.1132
  188MPD1    C3 2861   0.476   2.956   9.292  0.3578 -0.7354 -0.2433
  188MPD1    C4 2862   0.375   3.053   9.311 -0.2165  0.3507 -0.2647
  188MPD1    C5 2863   0.377   3.170   9.233 -0.3512  0.1587 -0.5176
  188MPD1     H 2864   0.672   2.921   9.205 -0.7103 -0.4101 -1.3168
  188MPD1    H1 2865   0.285   3.021   9.362 -0.1333  1.2224  0.4224
  188MPD1    H2 2866   0.467   3.250   9.056  0.4094  0.0116  0.1069
  188MPD1    H3 2867   0.303   3.248   9.219 -1.6103 -0.7815  0.8579
  188MPD1     N 2868   0.476   2.839   9.370  0.2314  0.2766  0.3501
  188MPD1    H5 2869   0.408   2.838   9.446  0.4380 -1.1482  0.5103
  188MPD1    N1 2870   0.684   3.128   9.047  0.3943  0.1407 -0.2182
  188MPD1    H6 2871   0.691   3.227   9.024 -2.1651  0.5635  0.9403
  188MPD1    H7 2872   0.773   3.100   9.090 -0.5414  1.0996  2.3207
  189MPD1     C 2873   1.831   3.984   0.009  0.3371  0.0821  0.0283
  189MPD1    C1 2874   1.739   3.989   0.112 -0.0828 -0.1093  0.3405
  189MPD1    C2 2875   1.676   4.113   0.136  0.4677 -0.6850  0.2078
  189MPD1    C3 2876   1.713   4.223   0.064  0.1471 -0.2800  0.7540
  189MPD1    C4 2877   1.823   4.218  17.696 -0.0231  0.4738  0.1797
  189MPD1    C5 2878   1.884   4.100  17.666 -0.1351  0.1327 -0.3187
  189MPD1     H 2879   1.599   4.115   0.211  0.1125 -0.8921 -0.1477
  189MPD1    H1 2880   1.866   4.305  17.648  0.4830 -0.1003 -0.4037
  189MPD1    H2 2881   1.872   3.890  17.682 -2.2444 -1.4860  1.2766
  189MPD1    H3 2882   1.970   4.107  17.600  1.1360 -0.0102  1.3348
  189MPD1     N 2883   1.637   4.336   0.087 -0.6086  1.1260  0.2092
  189MPD1    H5 2884   1.553   4.332   0.143 -0.5597 -0.7116  0.1517
  189MPD1    N1 2885   1.689   3.876   0.176  0.3423 -0.6553  0.2634
  189MPD1    H6 2886   1.631   3.895   0.258  0.4425 -2.0882  0.6804
  189MPD1    H7 2887   1.763   3.806   0.178  0.1671 -0.8573 -0.2293
  190MPD1     C 2888   4.723   3.414  15.809  1.0099 -0.1569 -0.8214
  190MPD1    C1 2889   0.034   3.333  15.916 -0.1415 -0.2273  0.1353
  190MPD1    C2 2890   0.165   3.297  15.930 -0.4884  0.0513 -0.0758
  190MPD1    C3 2891   0.263   3.339  15.836 -0.8254  0.2240  0.2562
  190MPD1    C4 2892   0.219   3.403  15.717 -0.2018  0.2016 -0.4175
  190MPD1    C5 2893   0.088   3.441  15.714  0.0113  0.5052  0.7339
  190MPD1     H 2894   0.191   3.236  16.016  0.6221  0.0981 -0.3853
  190MPD1    H1 2895   0.274   3.431  15.628  1.9857 -0.5966  0.6948
  190MPD1    H2 2896   4.622   3.453  15.801  0.2597 -1.9886 -0.3851
  190MPD1    H3 2897   0.049   3.509  15.639 -0.2474 -1.2897 -0.7502
  190MPD1     N 2898   0.392   3.294  15.866 -0.0160 -0.0015  0.7892
  190MPD1    H5 2899   0.401   3.231  15.945 -4.7093 -1.1589  0.4238
  190MPD1    N1 2900   4.667   3.302  16.017 -0.8428 -0.2756  0.3385
  190MPD1    H6 2901   4.580   3.263  15.981 -0.6591 -0.6973  0.3517
  190MPD1    H7 2902   4.705   3.234  16.082  0.6269 -0.4497 -0.7147
  191MPD1     C 2903   3.954   4.101  11.955 -0.3215  0.0949  1.4250
  191MPD1    C1 2904   3.977   4.187  12.062  0.4609  0.7135 -0.3022
  191MPD1    C2 2905   4.109   4.227  12.090 -0.1673 -0.1990  0.3757
  191MPD1    C3 2906   4.216   4.179  12.020 -0.2173  0.7644 -0.4001
  191MPD1    C4 2907   4.203   4.086  11.919  0.2357  0.6761 -0.2293
  191MPD1    C5 2908   4.070   4.044  11.891  0.9336  0.9331 -0.0131
  191MPD1     H 2909   4.126   4.297  12.171  0.1723  1.4464 -1.1178
  191MPD1    H1 2910   4.286   4.041  11.867 -0.7506 -1.2788 -0.1211
  191MPD1    H2 2911   3.853   4.072  11.929 -0.4521 -0.0289  2.0729
  191MPD1    H3 2912   4.055   3.982  11.803  0.8507  0.1691  0.5389
  191MPD1     N 2913   4.343   4.231  12.060  0.2458  0.2051  0.2013
  191MPD1    H5 2914   4.348   4.296  12.138 -2.5869  2.5939 -1.5963
  191MPD1    N1 2915   3.867   4.251  12.122  0.0997 -0.0439 -0.0501
  191MPD1    H6 2916   3.782   4.194  12.119  0.1331 -0.1770  2.0188
  191MPD1    H7 2917   3.892   4.284  12.214 -2.0546  1.7233 -0.0915
  192MPD1     C 2918   0.096   4.490  12.849 -0.3474  0.1920 -0.4597
  192MPD1    C1 2919   0.072   4.360  12.807 -0.2649 -0.7778 -0.5873
  192MPD1    C2 2920   0.059   4.339  12.671  0.7939  0.3083  0.4517
  192MPD1    C3 2921   0.054   4.445  12.581 -0.2221 -0.1643  0.5499
  192MPD1    C4 2922   0.072   4.578  12.631 -0.1695 -0.0619  0.2841
  192MPD1    C5 2923   0.103   4.596  12.761 -0.4821 -0.4328 -0.5675
  192MPD1     H 2924   0.048   4.240  12.627 -1.5002  1.4770 -1.6049
  192MPD1    H1 2925   0.054   4.660  12.562  1.3528 -1.6369 -1.9943
  192MPD1    H2 2926   0.105   4.515  12.954 -0.9786  1.1306 -0.6160
  192MPD1    H3 2927   0.108   4.693  12.810 -0.2805 -0.8654  0.2793
  192MPD1     N 2928   0.013   4.423  12.449  0.0236 -0.6022  0.7112
  192MPD1    H5 2929   0.013   4.504  12.388 -0.6983 -0.4502  0.9188
  192MPD1    N1 2930   0.093   4.253  12.893  0.1303  0.4931 -0.4876
  192MPD1    H6 2931   0.049   4.165  12.864  1.4591 -0.8365  1.5002
  192MPD1    H7 2932   0.048   4.282  12.980 -0.7477 -1.6576 -0.1991
  193MPD1     C 2933   3.885   0.371  16.529  0.1444  0.0711  0.0537
  193MPD1    C1 2934   3.876   0.402  16.667  0.7498 -0.0984 -0.0709
  193MPD1    C2 2935   3.989   0.444  16.722  0.5101  0.6376 -0.1287
  193MPD1    C3 2936   4.105   0.476  16.655 -0.0324 -0.0803 -0.4290
  193MPD1    C4 2937   4.105   0.467  16.521  0.8580 -0.2545  0.2712
  193MPD1    C5 2938   3.999   0.404  16.463  0.8994 -0.4917  0.7867
  193MPD1     H 2939   3.996   0.441  16.830 -1.3956 -0.0572 -0.0141
  193MPD1    H1 2940   4.193   0.490  16.462  0.2721  1.6074  0.1159
  193MPD1    H2 2941   3.805   0.321  16.475 -1.4697  0.5399  2.0039
  193MPD1    H3 2942   4.009   0.384  16.357  0.8766  0.5789  0.5798
  193MPD1     N 2943   4.225   0.518  16.715  0.1980  0.1148  0.3484
  193MPD1    H5 2944   4.307   0.534  16.657 -0.7088 -0.7343 -1.1521
  193MPD1    N1 2945   3.777   0.358  16.754  0.5086 -0.6147 -0.3164
  193MPD1    H6 2946   3.770   0.417  16.836 -1.1772  0.1704 -1.0297
  193MPD1    H7 2947   3.685   0.349  16.711 -1.1244  1.8036  2.7155
  194MPD1     C 2948   1.988   3.081  16.362  0.3548 -0.1853  0.3108
  194MPD1    C1 2949   2.088   3.006  16.304 -0.0235 -0.3784  0.6703
  194MPD1    C2 2950   2.113   2.884  16.368  0.3114 -0.1961 -0.6651
  194MPD1    C3 2951   2.033   2.824  16.471  0.0782  0.5480  0.3417
  194MPD1    C4 2952   1.930   2.905  16.508 -0.7141  0.2371  0.7971
  194MPD1    C5 2953   1.907   3.027  16.453  0.2026 -0.2898 -0.5142
  194MPD1     H 2954   2.209   2.842  16.339 -1.3285 -2.1146 -3.3596
  194MPD1    H1 2955   1.866   2.882  16.593 -1.0608 -3.1174 -0.3690
  194MPD1    H2 2956   1.979   3.182  16.324  0.7196 -0.7354 -1.2182
  194MPD1    H3 2957   1.827   3.078  16.505  0.1813  0.6370 -1.4417
  194MPD1     N 2958   2.074   2.710  16.539  0.6657 -0.3283  0.0184
  194MPD1    H5 2959   2.015   2.688  16.618 -0.2103  1.4958 -0.1256
  194MPD1    N1 2960   2.183   3.074  16.221  0.6272  0.1860 -0.4754
  194MPD1    H6 2961   2.222   3.002  16.159 -0.2645  0.6499 -1.5599
  194MPD1    H7 2962   2.142   3.150  16.169 -0.0228  0.5878  0.6212
  195MPD1     C 2963   0.414   3.813   0.349 -0.6714  0.2755  0.2275
  195MPD1    C1 2964   0.451   3.718   0.258 -0.0703 -0.0637  0.6812
  195MPD1    C2 2965   0.387   3.598   0.260 -0.4862  0.0850  0.6081
  195MPD1    C3 2966   0.287   3.567   0.358  0.0942  0.1220  0.2729
  195MPD1    C4 2967   0.278   3.654   0.461 -0.4753 -0.0273 -0.5700
  195MPD1    C5 2968   0.330   3.785   0.451 -1.1187 -0.2834  0.0985
  195MPD1     H 2969   0.415   3.532   0.179  1.4654  1.2266  0.3498
  195MPD1    H1 2970   0.223   3.629   0.551  0.9094 -1.2319 -0.0483
  195MPD1    H2 2971   0.473   3.904   0.352 -0.1458 -0.0713  0.2602
  195MPD1    H3 2972   0.314   3.854   0.533  2.5089  1.3355 -0.5470
  195MPD1     N 2973   0.214   3.442   0.361 -0.1510 -0.2764 -0.1694
  195MPD1    H5 2974   0.150   3.425   0.439 -1.0391 -0.7604 -1.0013
  195MPD1    N1 2975   0.530   3.747   0.145  0.8217 -0.2174  0.7220
  195MPD1    H6 2976   0.592   3.824   0.168 -1.6142  1.5962  1.2237
  195MPD1    H7 2977   0.584   3.664   0.120  0.8540  0.7441 -2.3020
  196MPD1     C 2978   2.760   2.917   0.156  0.4729  0.5603 -0.1024
  196MPD1    C1 2979   2.669   2.866   0.238 -0.1288  0.0152 -1.2133
  196MPD1    C2 2980   2.653   2.927   0.362 -0.2436 -0.0382 -0.2953
  196MPD1    C3 2981   2.734   3.032   0.400  0.0331  0.2754 -0.4587
  196MPD1    C4 2982   2.813   3.086   0.306  0.5765 -0.6314  0.7867
  196MPD1    C5 2983   2.826   3.033   0.186  0.6429  0.8843  0.6935
  196MPD1     H 2984   2.599   2.872   0.439  0.4415 -1.9217 -1.1659
  196MPD1    H1 2985   2.867   3.179   0.320 -0.6882  0.4532 -1.4999
  196MPD1    H2 2986   2.783   2.883   0.055  0.0922 -2.0765  0.6924
  196MPD1    H3 2987   2.885   3.074   0.106  2.5403 -0.3870  1.4512
  196MPD1     N 2988   2.731   3.096   0.526 -0.9702 -0.0598 -0.2715
  196MPD1    H5 2989   2.761   3.192   0.528  0.8717 -0.6514  0.3279
  196MPD1    N1 2990   2.587   2.758   0.203  0.1878  0.5155 -0.2021
  196MPD1    H6 2991   2.585   2.696   0.283 -1.3511 -0.3290 -0.8855
  196MPD1    H7 2992   2.633   2.703   0.130  2.3142  1.6381  0.3205
  197MPD1     C 2993   2.730   1.015  17.066 -0.1652 -0.6375 -0.4771
  197MPD1    C1 2994   2.848   1.025  17.143  0.0970  1.0684 -0.4566
  197MPD1    C2 2995   2.953   1.094  17.081  0.0334  0.1595 -0.6740
  197MPD1    C3 2996   2.950   1.140  16.948  0.1624  0.0641 -0.2454
  197MPD1    C4 2997   2.832   1.125  16.874 -1.2836  1.4266  0.2345
  197MPD1    C5 2998   2.725   1.067  16.936 -0.0792 -1.0827 -0.0992
  197MPD1     H 2999   3.036   1.106  17.149 -0.2339 -2.4523  0.1107
  197MPD1    H1 3000   2.817   1.159  16.772  1.3125 -1.1608 -1.0259
  197MPD1    H2 3001   2.639   0.974  17.107 -0.5573  0.0093 -0.7030
  197MPD1    H3 3002   2.633   1.059  16.880 -1.1562  1.9755  1.1947
  197MPD1     N 3003   3.060   1.200  16.884 -0.3673 -0.3756  0.0707
  197MPD1    H5 3004   3.052   1.244  16.793  4.1446 -0.5697 -0.4059
  197MPD1    N1 3005   2.851   0.999  17.284 -0.3691  0.8329 -0.2594
  197MPD1    H6 3006   2.945   0.980  17.318 -0.8201 -1.9416 -0.5604
  197MPD1    H7 3007   2.796   0.919  17.314  0.0555  0.6150 -0.0492
  198MPD1     C 3008   0.483   3.681  15.795  0.1000 -0.6976  0.2178
  198MPD1    C1 3009   0.614   3.665  15.814  0.5263  0.2381 -0.0471
  198MPD1    C2 3010   0.677   3.751  15.906  0.1225 -0.4329  0.3165
  198MPD1    C3 3011   0.611   3.856  15.966  0.0661  0.1097 -0.4365
  198MPD1    C4 3012   0.470   3.854  15.954 -0.3503  0.9416 -0.4303
  198MPD1    C5 3013   0.408   3.773  15.861  0.9268  0.3410  0.3829
  198MPD1     H 3014   0.786   3.752  15.907  0.1058  1.7288 -0.0549
  198MPD1    H1 3015   0.409   3.930  16.001  0.4778  1.4157 -0.1146
  198MPD1    H2 3016   0.423   3.626  15.724 -0.9355  0.0594  0.5081
  198MPD1    H3 3017   0.301   3.786  15.847  0.9909  0.2666 -0.1714
  198MPD1     N 3018   0.688   3.947  16.041  0.7539  0.0050 -0.1676
  198MPD1    H5 3019   0.788   3.940  16.023  0.6564  1.0679 -1.1312
  198MPD1    N1 3020   0.692   3.579  15.732  0.2186 -0.5632 -0.1476
  198MPD1    H6 3021   0.633   3.499  15.707 -0.3108 -0.5498  1.0293
  198MPD1    H7 3022   0.768   3.531  15.780 -0.0458 -0.5786  0.2614
  199MPD1     C 3023   2.551   3.911  10.040  0.9676 -0.0856  0.0056
  199MPD1    C1 3024   2.579   3.953   9.907  0.5504  0.0618 -0.6995
  199MPD1    C2 3025   2.540   4.080   9.869  0.4386 -0.0057  0.3436
  199MPD1    C3 3026   2.449   4.155   9.943  0.0332 -0.2378 -0.1226
  199MPD1    C4 3027   2.419   4.107  10.074  0.0522  0.1261  1.1224
  199MPD1    C5 3028   2.470   3.990  10.113  0.3681 -0.2544  0.7187
  199MPD1     H 3029   2.578   4.118   9.774  2.2195  0.7947  1.3884
  199MPD1    H1 3030   2.352   4.169  10.132 -1.9086 -0.4214 -0.5342
  199MPD1    H2 3031   2.589   3.822  10.090 -2.5015 -1.9203 -0.6281
  199MPD1    H3 3032   2.438   3.959  10.212 -0.4943 -0.9932  0.2095
  199MPD1     N 3033   2.383   4.268   9.898  0.4527 -0.5444  0.2820
  199MPD1    H5 3034   2.299   4.297   9.947  0.7292  2.8815 -1.2363
  199MPD1    N1 3035   2.677   3.884   9.833 -0.2202  0.2356  0.2916
  199MPD1    H6 3036   2.659   3.787   9.857  2.8189 -1.0034 -2.4709
  199MPD1    H7 3037   2.665   3.897   9.732 -1.4724 -3.5079 -0.0306
  200MPD1     C 3038   1.235   0.505  15.273  0.4762  0.1174  0.3118
  200MPD1    C1 3039   1.221   0.498  15.137 -0.8413  0.0764 -0.3028
  200MPD1    C2 3040   1.317   0.546  15.060  0.6085  0.5757  0.0179
  200MPD1    C3 3041   1.437   0.590  15.113 -0.1682  0.4000  0.7230
  200MPD1    C4 3042   1.456   0.600  15.255  0.3787  0.2101 -0.5302
  200MPD1    C5 3043   1.351   0.558  15.334  0.4265 -0.0186  0.1872
  200MPD1     H 3044   1.298   0.544  14.954 -0.5412  1.7056  0.1997
  200MPD1    H1 3045   1.542   0.642  15.305 -1.0083  2.1095  0.2985
  200MPD1    H2 3046   1.160   0.471  15.343  1.8453 -1.4073  1.0466
  200MPD1    H3 3047   1.359   0.556  15.442  1.7601 -2.2568  0.0680
  200MPD1     N 3048   1.542   0.632  15.024 -0.4035 -0.4090  0.2526
  200MPD1    H5 3049   1.518   0.623  14.926  1.4851 -0.7374 -0.1764
  200MPD1    N1 3050   1.119   0.430  15.076 -0.1340  0.1671 -0.6279
  200MPD1    H6 3051   1.036   0.426  15.134  0.0968  0.8023 -0.2482
  200MPD1    H7 3052   1.101   0.482  14.990 -2.4999 -1.3147 -1.0256
  201MPD1     C 3053   3.557   4.471  13.643  0.0457  0.3974 -0.9490
  201MPD1    C1 3054   3.687   4.489  13.681 -0.6511 -0.3875 -0.3241
  201MPD1    C2 3055   3.788   4.419  13.616  0.5549  1.1180 -0.5060
  201MPD1    C3 3056   3.752   4.330  13.514  0.3537  0.1030 -0.6470
  201MPD1    C4 3057   3.624   4.311  13.480  0.1788 -0.2725 -0.5991
  201MPD1    C5 3058   3.528   4.384  13.541  0.2739 -0.4185  0.1337
  201MPD1     H 3059   3.895   4.430  13.629  0.5997 -0.2680  0.2661
  201MPD1    H1 3060   3.596   4.258  13.390  0.7851  1.6920 -1.9568
  201MPD1    H2 3061   3.479   4.529  13.691 -0.2209 -2.3305  1.9019
  201MPD1    H3 3062   3.428   4.367  13.504  0.5401  1.7667 -1.6171
  201MPD1     N 3063   3.853   4.264  13.441  0.1657  0.1153 -0.3019
  201MPD1    H5 3064   3.948   4.288  13.467 -0.2187  0.4952  0.7791
  201MPD1    N1 3065   3.723   4.597  13.765  0.2228 -0.0811 -0.0690
  201MPD1    H6 3066   3.659   4.616  13.842 -1.4187  0.0932 -1.4702
  201MPD1    H7 3067   3.811   4.573  13.810  0.1430 -2.0825 -0.9858
  202MPD1     C 3068   4.026   2.866   9.070  0.1679  0.6480  0.4895
  202MPD1    C1 3069   3.927   2.944   9.123  0.3080  0.0040  0.5705
  202MPD1    C2 3070   3.963   3.013   9.235 -0.7757  0.4284 -0.6245
  202MPD1    C3 3071   4.065   2.968   9.315  0.0225  0.3461  0.2134
  202MPD1    C4 3072   4.154   2.875   9.269 -0.4397  0.1613  1.1735
  202MPD1    C5 3073   4.140   2.831   9.140  0.2139  0.7105  0.2567
  202MPD1     H 3074   3.894   3.082   9.282 -0.3702  0.8133 -0.5852
  202MPD1    H1 3075   4.236   2.825   9.319 -1.0910 -1.1099  0.9621
  202MPD1    H2 3076   4.005   2.826   8.972  2.7471  0.3491  0.0626
  202MPD1    H3 3077   4.215   2.763   9.102  0.6095  0.0848  2.1646
  202MPD1     N 3078   4.086   3.010   9.444  0.7540 -0.9484  0.1507
  202MPD1    H5 3079   4.161   2.965   9.495 -0.8394  1.2609  4.4706
  202MPD1    N1 3080   3.832   3.002   9.038 -0.4020 -0.3572 -0.4849
  202MPD1    H6 3081   3.796   2.930   8.975 -0.4783 -0.3268 -0.4770
  202MPD1    H7 3082   3.759   3.053   9.088  0.6519  0.6548  0.0415
  203MPD1     C 3083   2.645   0.561  12.632  0.3031 -0.1738 -0.4134
  203MPD1    C1 3084   2.577   0.464  12.558  0.6797 -0.6619 -0.5675
  203MPD1    C2 3085   2.608   0.332  12.588 -0.1321 -0.6092 -0.3570
  203MPD1    C3 3086   2.702   0.299  12.685 -0.0299  0.0803 -0.1336
  203MPD1    C4 3087   2.769   0.399  12.743 -0.0285  0.3014 -0.0091
  203MPD1    C5 3088   2.750   0.527  12.711  0.6225 -0.4040  1.4099
  203MPD1     H 3089   2.545   0.258  12.540 -1.6302 -1.6301  3.1815
  203MPD1    H1 3090   2.857   0.387  12.804  0.3945  2.0746 -0.2678
  203MPD1    H2 3091   2.617   0.663  12.608  2.0030  0.2459 -0.6160
  203MPD1    H3 3092   2.822   0.598  12.750  0.5159  0.8389 -0.6594
  203MPD1     N 3093   2.725   0.159  12.710  0.5356  0.4057 -0.2711
  203MPD1    H5 3094   2.676   0.093  12.650  0.4299  1.1200 -0.9597
  203MPD1    N1 3095   2.458   0.507  12.493 -0.5341 -0.2392 -0.0383
  203MPD1    H6 3096   2.441   0.447  12.412 -2.0649 -0.5549  0.5263
  203MPD1    H7 3097   2.480   0.599  12.455  2.9207 -0.8145  0.5474
  204MPD1     C 3098   2.006   1.480  17.350 -0.8123  0.0184  0.0226
  204MPD1    C1 3099   2.025   1.478  17.211 -0.7982 -0.7821 -0.5146
  204MPD1    C2 3100   2.029   1.356  17.147  0.7581  0.4960 -0.0557
  204MPD1    C3 3101   1.994   1.235  17.218  0.3757 -0.3141  0.3300
  204MPD1    C4 3102   1.973   1.241  17.351 -0.0895  0.1567 -0.0680
  204MPD1    C5 3103   1.974   1.363  17.415  0.2765 -0.1482 -0.7005
  204MPD1     H 3104   2.046   1.355  17.040  0.8557  0.2834 -0.0385
  204MPD1    H1 3105   1.945   1.152  17.407  0.8066 -0.3617 -0.4498
  204MPD1    H2 3106   2.009   1.578  17.396  0.3231  0.1055 -0.2553
  204MPD1    H3 3107   1.956   1.377  17.521  0.5503  1.5673 -0.8824
  204MPD1     N 3108   1.993   1.113  17.144  0.4162  0.4105  0.7266
  204MPD1    H5 3109   2.011   1.130  17.046 -0.9192 -2.5117 -0.0177
  204MPD1    N1 3110   2.042   1.596  17.136  0.4277  0.1696 -0.1358
  204MPD1    H6 3111   2.073   1.675  17.193 -1.7793  1.7264 -1.0856
  204MPD1    H7 3112   2.120   1.584  17.072  0.3426 -1.4387  0.0531
  205MPD1     C 3113   2.698   4.187  16.928  0.6421  0.8744  0.7315
  205MPD1    C1 3114   2.632   4.269  16.842  0.6732 -0.4445  0.5685
  205MPD1    C2 3115   2.504   4.304  16.873 -0.3747 -0.3983  0.5518
  205MPD1    C3 3116   2.434   4.250  16.980 -0.6567  0.5281 -0.0592
  205MPD1    C4 3117   2.495   4.160  17.059  0.0242  0.0144 -0.2201
  205MPD1    C5 3118   2.627   4.133  17.033  0.2956  0.2676  0.1746
  205MPD1     H 3119   2.474   4.379  16.801 -1.3583 -1.3808 -0.0550
  205MPD1    H1 3120   2.445   4.110  17.141 -1.1695  1.9402  0.2256
  205MPD1    H2 3121   2.806   4.173  16.920  0.0804 -2.4267 -1.0092
  205MPD1    H3 3122   2.679   4.077  17.110  1.1696  0.3034 -0.3979
  205MPD1     N 3123   2.300   4.299  17.013 -0.0103  0.3498 -0.6696
  205MPD1    H5 3124   2.266   4.250  17.096  2.2805 -2.4747 -1.4054
  205MPD1    N1 3125   2.700   4.327  16.733  0.2968  0.6459  0.3891
  205MPD1    H6 3126   2.635   4.351  16.658  0.6553 -2.5915 -0.9274
  205MPD1    H7 3127   2.782   4.277  16.701  0.3562  1.9689 -1.5179
  206MPD1     C 3128   2.544   2.336  16.695 -0.6746  0.1911 -0.3837
  206MPD1    C1 3129   2.557   2.233  16.605 -0.8505  0.2668 -0.3184
  206MPD1    C2 3130   2.529   2.256  16.472  0.6106  0.2087  0.0897
  206MPD1    C3 3131   2.510   2.388  16.420  0.1012  0.2755 -0.6782
  206MPD1    C4 3132   2.518   2.490  16.509 -0.4281 -1.0332  0.0403
  206MPD1    C5 3133   2.528   2.463  16.640  0.1370 -0.3191 -0.1394
  206MPD1     H 3134   2.527   2.172  16.404 -0.9634  0.1716  0.1756
  206MPD1    H1 3135   2.500   2.596  16.490  0.1088 -0.5947  1.9724
  206MPD1    H2 3136   2.546   2.327  16.803 -0.5993  1.2824 -0.2904
  206MPD1    H3 3137   2.514   2.542  16.712 -0.2964 -2.3161  1.9581
  206MPD1     N 3138   2.486   2.424  16.286 -0.0425 -0.3071  0.5874
  206MPD1    H5 3139   2.476   2.522  16.261  3.9367 -0.3306 -1.0348
  206MPD1    N1 3140   2.576   2.102  16.656 -0.3921 -0.3025  0.6660
  206MPD1    H6 3141   2.611   2.034  16.589 -0.5213  1.5435 -1.2671
  206MPD1    H7 3142   2.638   2.097  16.736  1.3512 -1.6826 -0.7782
  207MPD1     C 3143   0.961   4.330   9.082  1.2468  0.0185 -0.2835
  207MPD1    C1 3144   0.884   4.259   9.172  0.3916 -0.0581  0.3299
  207MPD1    C2 3145   0.858   4.308   9.296  0.2514  0.3754 -0.4486
  207MPD1    C3 3146   0.928   4.423   9.338  0.2560  0.3824  0.1143
  207MPD1    C4 3147   1.013   4.492   9.258  0.0984 -0.2080  0.3809
  207MPD1    C5 3148   1.029   4.445   9.126  0.5365  0.1178 -0.3707
  207MPD1     H 3149   0.806   4.236   9.359  1.9942 -1.0144 -0.5955
  207MPD1    H1 3150   1.066   4.581   9.288  1.9112 -0.7516 -1.1803
  207MPD1    H2 3151   0.987   4.284   8.987  0.1507 -1.0713 -0.0581
  207MPD1    H3 3152   1.087   4.512   9.063  2.6096  0.2921  1.7263
  207MPD1     N 3153   0.920   4.470   9.469 -0.2042  0.4981  0.1051
  207MPD1    H5 3154   0.987   4.543   9.490  1.0686 -0.4616 -0.6557
  207MPD1    N1 3155   0.820   4.143   9.125  0.6603  0.3639 -0.4492
  207MPD1    H6 3156   0.872   4.096   9.051  0.3471  1.9767 -1.6946
  207MPD1    H7 3157   0.795   4.072   9.194  2.0381 -0.4744 -0.8283
  208MPD1     C 3158   2.692   3.580  17.000 -0.2115  0.6033  0.3056
  208MPD1    C1 3159   2.641   3.704  17.018 -0.3201 -0.2052 -0.6651
  208MPD1    C2 3160   2.580   3.727  17.138  0.8186  0.8783 -0.0125
  208MPD1    C3 3161   2.576   3.630  17.239 -0.1077  0.5703  0.5328
  208MPD1    C4 3162   2.659   3.521  17.226 -1.0002  0.5528 -0.0584
  208MPD1    C5 3163   2.709   3.491  17.099 -0.6462  0.0252  0.5212
  208MPD1     H 3164   2.511   3.809  17.151  1.2074  1.1766  0.1721
  208MPD1    H1 3165   2.657   3.440  17.298 -2.4945 -0.1782 -0.9281
  208MPD1    H2 3166   2.732   3.553  16.903  2.2408 -0.1603  1.5431
  208MPD1    H3 3167   2.750   3.393  17.077  0.5149  0.9819 -1.5078
  208MPD1     N 3168   2.496   3.660  17.351  0.5285 -0.4869 -0.6881
  208MPD1    H5 3169   2.426   3.734  17.347  0.3637 -0.5713  0.5653
  208MPD1    N1 3170   2.625   3.794  16.916  0.4819 -0.3397 -0.2364
  208MPD1    H6 3171   2.626   3.888  16.954 -1.3153  0.5743 -2.4524
  208MPD1    H7 3172   2.708   3.778  16.859  1.8837 -0.1380  1.7578
  209MPD1     C 3173   4.548   3.508  10.384 -0.5975  0.2462 -0.4580
  209MPD1    C1 3174   4.581   3.589  10.272 -0.0575  0.3469 -0.3715
  209MPD1    C2 3175   4.623   3.714  10.311  0.9546  0.2144  0.5003
  209MPD1    C3 3176   4.620   3.770  10.435 -0.4709 -0.7382 -0.5893
  209MPD1    C4 3177   4.569   3.695  10.536 -0.4040 -0.2932  0.0436
  209MPD1    C5 3178   4.539   3.566  10.514 -0.9605 -0.2596  0.9187
  209MPD1     H 3179   4.658   3.786  10.238  1.0643  0.2424  0.5808
  209MPD1    H1 3180   4.556   3.714  10.642 -1.1571 -0.7816  0.0399
  209MPD1    H2 3181   4.513   3.406  10.369  0.2843 -0.2192  0.6064
  209MPD1    H3 3182   4.498   3.505  10.593 -0.7035 -0.3378  0.9914
  209MPD1     N 3183   4.675   3.898  10.447  0.0115 -0.5932 -0.3683
  209MPD1    H5 3184   4.713   3.943  10.364  0.8119 -0.5125  0.0471
  209MPD1    N1 3185   4.617   3.530  10.151 -0.1553  0.3612  0.3020
  209MPD1    H6 3186   4.631   3.596  10.074 -0.4369 -1.2283 -1.0947
  209MPD1    H7 3187   4.565   3.448  10.123 -1.0899  0.7571  0.8939
  210MPD1     C 3188   0.138   0.119  11.004 -0.3092  0.3012  0.5670
  210MPD1    C1 3189   0.029   0.031  11.014  0.5062  0.5236 -1.1920
  210MPD1    C2 3190   0.032   4.638  10.941 -0.1115 -0.2114 -0.1085
  210MPD1    C3 3191   0.144   4.601  10.863 -0.2658 -0.3248  0.6101
  210MPD1    C4 3192   0.246   4.692  10.855  0.5179 -0.4883 -0.2952
  210MPD1    C5 3193   0.246   0.081  10.927 -0.2723 -0.6891 -0.8162
  210MPD1     H 3194   4.670   4.576  10.953  1.1548 -2.3372 -1.6886
  210MPD1    H1 3195   0.335   4.683  10.793  0.3655 -0.3893 -0.5264
  210MPD1    H2 3196   0.141   0.220  11.045 -1.9109  1.0084 -1.0466
  210MPD1    H3 3197   0.335   0.144  10.929  0.6344 -1.9097 -2.1318
  210MPD1     N 3198   0.153   4.487  10.782  0.6761  0.2563 -0.6945
  210MPD1    H5 3199   0.237   4.485  10.726  0.4078  3.7322 -1.1960
  210MPD1    N1 3200   4.649   0.056  11.103 -0.0859 -0.1503 -0.0194
  210MPD1    H6 3201   4.632   0.156  11.116  0.5206 -0.3538  2.3514
  210MPD1    H7 3202   4.557   0.023  11.078 -1.7063  3.3737  1.2357
  211MPD1     C 3203   2.163   4.233  15.907 -0.2067 -0.6181 -0.0280
  211MPD1    C1 3204   2.178   4.299  16.028  0.1327 -0.2070  0.3661
  211MPD1    C2 3205   2.063   4.349  16.089  0.1591  0.1273  0.0898
  211MPD1    C3 3206   1.930   4.325  16.047  0.0618  1.0935  0.4198
  211MPD1    C4 3207   1.920   4.248  15.934  0.3208  0.5711  0.2815
  211MPD1    C5 3208   2.033   4.207  15.865  0.0815  0.4749  0.2643
  211MPD1     H 3209   2.072   4.398  16.185 -0.4009 -0.2525  0.3372
  211MPD1    H1 3210   1.824   4.212  15.898  0.4897  0.1467  0.2550
  211MPD1    H2 3211   2.251   4.204  15.851 -0.7462 -0.4756 -0.9601
  211MPD1    H3 3212   2.015   4.141  15.781 -0.0018  2.5064 -1.3450
  211MPD1     N 3213   1.816   4.370  16.113 -0.0212 -0.3337  0.3246
  211MPD1    H5 3214   1.827   4.435  16.190  1.5622  1.9679 -1.8592
  211MPD1    N1 3215   2.305   4.341  16.068 -0.7618 -0.0109 -0.2080
  211MPD1    H6 3216   2.321   4.382  16.160  1.7650 -0.8027 -0.3128
  211MPD1    H7 3217   2.379   4.277  16.041 -2.1498 -0.6871 -2.3590
  212MPD1     C 3218   2.136   3.186  16.879 -0.2931 -0.8096  0.7456
  212MPD1    C1 3219   2.143   3.074  16.796  0.4489  0.3052 -0.2528
  212MPD1    C2 3220   2.072   2.959  16.833  0.3139  1.0093  0.0531
  212MPD1    C3 3221   1.986   2.952  16.944 -0.1231  0.0639  0.1257
  212MPD1    C4 3222   1.988   3.061  17.028  0.2726 -0.3156  0.2591
  212MPD1    C5 3223   2.067   3.169  16.998 -0.1868 -0.1076  0.3363
  212MPD1     H 3224   2.081   2.871  16.770 -0.5864  0.9439  0.0034
  212MPD1    H1 3225   1.929   3.075  17.118 -2.5973  1.1880 -1.8549
  212MPD1    H2 3226   2.195   3.276  16.864 -0.0222 -1.3788 -1.5371
  212MPD1    H3 3227   2.072   3.246  17.073  1.1415  1.2392 -1.1273
  212MPD1     N 3228   1.906   2.836  16.979 -0.2634  0.3047  0.4140
  212MPD1    H5 3229   1.847   2.857  17.059 -3.2705 -1.2815 -1.3826
  212MPD1    N1 3230   2.238   3.068  16.691 -0.4950 -1.0494  0.7244
  212MPD1    H6 3231   2.236   2.983  16.636  1.5705 -0.8280  0.3017
  212MPD1    H7 3232   2.245   3.151  16.632 -2.6671  0.8448  3.0739
  213MPD1     C 3233   0.165   3.669  15.410  0.6057 -0.0093  0.6588
  213MPD1    C1 3234   0.108   3.792  15.421 -0.2464 -0.3705 -0.0489
  213MPD1    C2 3235   0.175   3.881  15.498 -0.6994  0.1357  0.0382
  213MPD1    C3 3236   0.310   3.877  15.527  0.2455  0.1187 -0.9528
  213MPD1    C4 3237   0.370   3.764  15.496 -0.3089 -0.2299  0.2298
  213MPD1    C5 3238   0.295   3.656  15.447  0.3012  0.5130  0.9575
  213MPD1     H 3239   0.123   3.963  15.546  2.1644  1.1125  1.4416
  213MPD1    H1 3240   0.472   3.746  15.529  0.4880  2.7610 -0.5681
  213MPD1    H2 3241   0.110   3.583  15.375 -0.1742  1.0675 -0.7531
  213MPD1    H3 3242   0.340   3.558  15.437  1.2683  1.1480 -1.0977
  213MPD1     N 3243   0.371   3.978  15.612  0.3263 -0.1399 -0.5759
  213MPD1    H5 3244   0.315   4.057  15.640  0.1464 -0.1314 -0.9571
  213MPD1    N1 3245   4.693   3.796  15.407  0.9874 -0.4219 -0.3420
  213MPD1    H6 3246   4.643   3.884  15.418  0.5559 -0.4669 -1.9770
  213MPD1    H7 3247   4.654   3.750  15.325  2.3442 -1.7597 -0.2424
  214MPD1     C 3248   0.022   4.659  16.179  0.2588  0.5279 -0.4007
  214MPD1    C1 3249   0.022   4.524  16.179 -0.3869  0.3216 -0.5273
  214MPD1    C2 3250   0.118   4.455  16.104  0.0606 -0.3381  0.1760
  214MPD1    C3 3251   0.210   4.523  16.023  0.0447 -0.0316  0.9404
  214MPD1    C4 3252   0.201   4.663  16.027 -0.1187  0.0619  0.4890
  214MPD1    C5 3253   0.116   0.008  16.108  0.2277  0.2984  0.8475
  214MPD1     H 3254   0.106   4.347  16.113  0.1335 -0.6267 -3.0669
  214MPD1    H1 3255   0.270   4.722  15.967 -3.7489  3.7852 -0.1046
  214MPD1    H2 3256   4.666   4.714  16.223  2.2487  2.8975  0.3980
  214MPD1    H3 3257   0.099   0.115  16.106  0.0833  0.2687  0.5188
  214MPD1     N 3258   0.309   4.463  15.938  0.1323 -0.2552 -0.5069
  214MPD1    H5 3259   0.363   4.528  15.881 -0.7963  0.7423 -0.2381
  214MPD1    N1 3260   4.662   4.463  16.268 -0.2785  0.4566  0.2860
  214MPD1    H6 3261   4.664   4.368  16.233  0.9511  1.1608 -1.5463
  214MPD1    H7 3262   4.565   4.491  16.265 -0.5450 -0.7260 -1.9732
  215MPD1     C 3263   4.389   3.227   9.559 -0.0121 -0.5937  0.1964
  215MPD1    C1 3264   4.386   3.335   9.473  0.6232  0.4341  0.1372
  215MPD1    C2 3265   4.384   3.464   9.529 -0.9591 -0.2462  0.2876
  215MPD1    C3 3266   4.396   3.488   9.661 -0.2103  1.2001  0.3276
  215MPD1    C4 3267   4.417   3.381   9.742 -0.7139 -0.2838  0.2568
  215MPD1    C5 3268   4.420   3.252   9.690  0.3447 -0.2094 -0.4276
  215MPD1     H 3269   4.352   3.545   9.464  2.0195 -0.6586 -1.7116
  215MPD1    H1 3270   4.425   3.401   9.849 -0.6823  1.9963 -0.1757
  215MPD1    H2 3271   4.390   3.122   9.533 -1.0158 -0.6484  0.3732
  215MPD1    H3 3272   4.433   3.173   9.763 -2.3352  0.6762  0.9960
  215MPD1     N 3273   4.380   3.622   9.703  0.1157 -0.2333 -0.3282
  215MPD1    H5 3274   4.331   3.677   9.634 -0.9831  0.9212  1.3546
  215MPD1    N1 3275   4.356   3.310   9.338 -0.3402  0.2132  0.3097
  215MPD1    H6 3276   4.380   3.387   9.276  1.2429 -1.7666 -1.5519
  215MPD1    H7 3277   4.415   3.235   9.302 -1.3869 -2.5008  4.3399
  216MPD1     C 3278   1.982   1.496  16.571 -0.2999 -1.0493 -0.0884
  216MPD1    C1 3279   2.039   1.575  16.679  1.0671 -0.9717  0.1929
  216MPD1    C2 3280   1.976   1.562  16.805  0.2638 -0.3544  0.3516
  216MPD1    C3 3281   1.857   1.501  16.824 -0.4335 -0.0789  0.6285
  216MPD1    C4 3282   1.804   1.420  16.725 -0.0247 -0.0348  0.3306
  216MPD1    C5 3283   1.869   1.416  16.599  0.4267 -0.8105  0.1085
  216MPD1     H 3284   2.021   1.614  16.888  0.6920 -0.3007  0.0869
  216MPD1    H1 3285   1.712   1.364  16.739 -0.6316  0.7901 -0.3146
  216MPD1    H2 3286   2.025   1.499  16.472  0.0276  0.2054  0.0923
  216MPD1    H3 3287   1.832   1.348  16.523  0.2575  0.5025 -0.9890
  216MPD1     N 3288   1.797   1.510  16.953  0.1785  0.0896 -0.0956
  216MPD1    H5 3289   1.846   1.567  17.021  1.0417  0.4775 -1.0316
  216MPD1    N1 3290   2.161   1.641  16.668  0.1996 -0.0840 -0.5704
  216MPD1    H6 3291   2.167   1.688  16.578  0.6887 -0.5725 -0.7954
  216MPD1    H7 3292   2.148   1.726  16.722  0.7547  0.3236 -1.0823
  217MPD1     C 3293   3.065   2.582   8.607  0.6518 -0.5733 -0.1091
  217MPD1    C1 3294   2.959   2.527   8.676  0.0174 -0.6058 -0.0391
  217MPD1    C2 3295   2.898   2.605   8.770 -0.4328  0.1525  0.0169
  217MPD1    C3 3296   2.937   2.733   8.800 -0.5314  0.5697 -0.0237
  217MPD1    C4 3297   3.049   2.783   8.736 -0.6308  0.1394  0.1031
  217MPD1    C5 3298   3.101   2.709   8.636 -0.3139  0.3367  0.4565
  217MPD1     H 3299   2.817   2.557   8.824  0.7812 -2.0299 -0.1117
  217MPD1    H1 3300   3.073   2.887   8.752  0.6576 -0.4867  2.2307
  217MPD1    H2 3301   3.098   2.535   8.515  3.0471  1.2195 -0.1683
  217MPD1    H3 3302   3.168   2.762   8.569 -0.0964  1.6884  1.7508
  217MPD1     N 3303   2.877   2.813   8.903  0.0971 -0.2932 -0.5586
  217MPD1    H5 3304   2.927   2.900   8.923  1.7778 -1.4785  0.3613
  217MPD1    N1 3305   2.903   2.409   8.626  0.0566  0.1306  0.1619
  217MPD1    H6 3306   2.964   2.338   8.586 -0.8691  0.9753 -2.7688
  217MPD1    H7 3307   2.836   2.373   8.694  1.4105 -2.4697  0.1064
  218MPD1     C 3308   0.023   0.551  11.208  0.4564 -0.4530 -0.7340
  218MPD1    C1 3309   0.119   0.453  11.194  0.5256 -0.1113 -0.2263
  218MPD1    C2 3310   0.093   0.341  11.275 -0.3815  0.1140 -0.1951
  218MPD1    C3 3311   4.725   0.346  11.376  0.1922 -0.0420 -0.9488
  218MPD1    C4 3312   4.659   0.467  11.404 -0.8937  0.9289 -0.1780
  218MPD1    C5 3313   4.666   0.563  11.313  0.2563  0.8700  0.3130
  218MPD1     H 3314   0.149   0.249  11.263 -1.5334 -0.8395  1.9765
  218MPD1    H1 3315   4.586   0.481  11.482  0.8088  1.0278  1.3992
  218MPD1    H2 3316   0.015   0.626  11.130  0.1171  0.9951  0.7067
  218MPD1    H3 3317   4.599   0.648  11.304  0.0251  0.6316 -0.2237
  218MPD1     N 3318   4.698   0.233  11.454  0.3732  0.0924  0.0602
  218MPD1    H5 3319   4.725   0.139  11.428 -1.9652 -0.3481 -0.7862
  218MPD1    N1 3320   0.206   0.451  11.085  0.4916  0.4084 -0.9569
  218MPD1    H6 3321   0.292   0.401  11.110 -1.3222 -1.4328  1.5226
  218MPD1    H7 3322   0.226   0.543  11.047 -1.0961  0.0501 -2.6210
  219MPD1     C 3323   4.669   4.148  11.163 -0.7374 -0.9658  0.1383
  219MPD1    C1 3324   4.714   4.138  11.294  0.0795 -0.7333  0.1466
  219MPD1    C2 3325   4.685   4.241  11.378  0.0216  0.0378 -0.2480
  219MPD1    C3 3326   4.629   4.359  11.323 -0.1720  0.1022  0.6865
  219MPD1    C4 3327   4.597   4.372  11.187 -0.5539  0.1366 -0.4281
  219MPD1    C5 3328   4.613   4.259  11.107  0.5856  0.0642 -0.2686
  219MPD1     H 3329   4.718   4.235  11.481  2.5815  0.3664 -1.0422
  219MPD1    H1 3330   4.553   4.464  11.152  1.8921  2.1878  1.8378
  219MPD1    H2 3331   4.680   4.064  11.096  1.2836 -1.7448  1.4663
  219MPD1    H3 3332   4.590   4.255  11.001 -0.9819  1.3956  0.0199
  219MPD1     N 3333   4.612   4.477  11.403 -0.2780  0.1953  0.5703
  219MPD1    H5 3334   4.572   4.563  11.368 -0.3899  0.1696  0.6384
  219MPD1    N1 3335   0.018   4.013  11.352 -0.0743  0.3047 -0.2826
  219MPD1    H6 3336   0.077   3.950  11.299 -1.5031 -0.3243 -1.1183
  219MPD1    H7 3337   0.075   4.037  11.432 -1.9082 -0.1117  1.1534
  220MPD1     C 3338   3.204   0.719   9.702 -0.5573  0.0826 -0.7028
  220MPD1    C1 3339   3.128   0.611   9.740  0.8187 -0.0638  0.8903
  220MPD1    C2 3340   3.178   0.490   9.707  0.4084  0.2531  0.0791
  220MPD1    C3 3341   3.298   0.470   9.656  0.0167  0.3251 -0.2035
  220MPD1    C4 3342   3.378   0.581   9.620  0.6935  0.2107 -0.6404
  220MPD1    C5 3343   3.335   0.702   9.650  0.0548 -0.0677 -1.2061
  220MPD1     H 3344   3.117   0.406   9.737 -0.4374  1.3832  1.5484
  220MPD1    H1 3345   3.478   0.570   9.579  0.7885  1.1067 -0.6280
  220MPD1    H2 3346   3.173   0.819   9.731 -1.3501 -0.4627  0.3422
  220MPD1    H3 3347   3.394   0.791   9.632  0.7088 -0.3522 -0.4672
  220MPD1     N 3348   3.348   0.338   9.641  0.8626  0.5484  0.4401
  220MPD1    H5 3349   3.283   0.271   9.680 -0.1878  0.9127 -0.7079
  220MPD1    N1 3350   2.992   0.623   9.777  0.0419  0.1234 -0.9856
  220MPD1    H6 3351   2.973   0.707   9.831 -0.4528  1.2786 -2.9712
  220MPD1    H7 3352   2.965   0.540   9.830 -1.3615  0.2109 -1.5533
  221MPD1     C 3353   1.835   4.088  16.437  0.0746  0.0888 -0.4045
  221MPD1    C1 3354   1.900   3.980  16.405  0.0988  0.1539  0.1729
  221MPD1    C2 3355   2.030   3.995  16.372 -0.5392 -0.2478  0.7573
  221MPD1    C3 3356   2.092   4.119  16.379 -0.7302 -0.5967 -0.1284
  221MPD1    C4 3357   2.025   4.232  16.413 -0.6825  0.9900 -0.3322
  221MPD1    C5 3358   1.896   4.209  16.447  0.0823  0.5212 -0.0642
  221MPD1     H 3359   2.083   3.905  16.343  0.0721  0.1536  0.6423
  221MPD1    H1 3360   2.060   4.335  16.417 -1.0978  1.1782 -1.5634
  221MPD1    H2 3361   1.728   4.091  16.454  0.1727  1.2318  0.0487
  221MPD1    H3 3362   1.844   4.292  16.493 -0.4192  1.1156 -1.7037
  221MPD1     N 3363   2.228   4.135  16.343 -0.1109  0.1402 -0.8608
  221MPD1    H5 3364   2.276   4.225  16.348  1.2250 -0.6285  0.1636
  221MPD1    N1 3365   1.832   3.863  16.377  0.0616  0.0554  0.3253
  221MPD1    H6 3366   1.764   3.842  16.450 -0.4166  1.0479  0.1608
  221MPD1    H7 3367   1.894   3.783  16.364  1.3907  1.0549  0.4260
  222MPD1     C 3368   2.082   2.546  17.293 -0.3859  0.0744 -0.8717
  222MPD1    C1 3369   1.984   2.447  17.328 -0.5534 -0.5332  0.5839
  222MPD1    C2 3370   1.883   2.476  17.415 -0.4329 -0.1129 -0.1537
  222MPD1    C3 3371   1.849   2.614  17.444  0.0978 -0.1364  0.5866
  222MPD1    C4 3372   1.945   2.707  17.397 -0.4242  0.6840 -0.5603
  222MPD1    C5 3373   2.064   2.677  17.332 -0.0396  0.3445 -0.7075
  222MPD1     H 3374   1.808   2.400  17.437 -1.4195  0.9965  0.3204
  222MPD1    H1 3375   1.942   2.813  17.421 -1.0340  0.6893 -0.6731
  222MPD1    H2 3376   2.179   2.520  17.251  0.3324  1.7956 -0.2477
  222MPD1    H3 3377   2.128   2.760  17.306  0.3938  0.2905  0.1564
  222MPD1     N 3378   1.736   2.662  17.522 -0.3165  0.5670  0.2136
  222MPD1    H5 3379   1.742   2.761  17.545  1.9650  0.5510 -0.2738
  222MPD1    N1 3380   2.012   2.313  17.291 -0.3013 -0.1646  0.3378
  222MPD1    H6 3381   1.931   2.252  17.285 -1.4838  1.5030 -0.7586
  222MPD1    H7 3382   2.061   2.310  17.202  0.7369 -1.2735  0.9402
  223MPD1     C 3383   1.101   2.524   0.670  0.0387 -0.1255  0.1491
  223MPD1    C1 3384   1.104   2.658   0.649  0.7664 -0.7379 -0.3603
  223MPD1    C2 3385   1.148   2.705   0.525  0.0543  0.4599  0.0009
  223MPD1    C3 3386   1.190   2.614   0.431 -0.2397  0.2540  0.3375
  223MPD1    C4 3387   1.192   2.478   0.455 -0.2199  0.4480  0.2888
  223MPD1    C5 3388   1.145   2.433   0.578 -0.6874  0.6279 -0.1216
  223MPD1     H 3389   1.150   2.806   0.485  0.8363  0.3408 -0.2694
  223MPD1    H1 3390   1.222   2.398   0.388 -0.6218  1.2183 -0.7961
  223MPD1    H2 3391   1.075   2.491   0.770 -0.4651 -0.7068 -0.1741
  223MPD1    H3 3392   1.137   2.325   0.592  0.8301  0.5619  0.2361
  223MPD1     N 3393   1.238   2.669   0.303 -0.1715 -0.4378  0.0660
  223MPD1    H5 3394   1.245   2.770   0.299 -0.1373 -0.4692 -0.8009
  223MPD1    N1 3395   1.079   2.749   0.755 -0.1493 -0.0773 -0.0692
  223MPD1    H6 3396   1.005   2.714   0.814 -1.5202  1.5694 -0.8226
  223MPD1    H7 3397   1.052   2.840   0.718  3.0817  1.1039  0.4837
  224MPD1     C 3398   2.047   3.984   9.088 -0.5084 -0.1709  0.1581
  224MPD1    C1 3399   2.087   3.856   9.116 -0.4792  0.9682 -0.6533
  224MPD1    C2 3400   2.134   3.828   9.244 -0.4546  0.0079 -0.3525
  224MPD1    C3 3401   2.138   3.932   9.331  0.8296 -0.1969  0.2242
  224MPD1    C4 3402   2.096   4.058   9.308 -0.3664 -0.6084 -0.8588
  224MPD1    C5 3403   2.045   4.075   9.183  0.7082 -0.0083  0.6085
  224MPD1     H 3404   2.162   3.726   9.265 -0.6326  0.6836  3.1456
  224MPD1    H1 3405   2.098   4.131   9.388 -0.2735 -1.8766  0.2914
  224MPD1    H2 3406   2.006   4.001   8.989 -1.1604 -0.9284  0.2936
  224MPD1    H3 3407   2.008   4.173   9.154  2.7259  0.3768 -0.6016
  224MPD1     N 3408   2.190   3.903   9.464  0.1849 -0.1130  0.0082
  224MPD1    H5 3409   2.161   3.969   9.535  3.2240  0.7353  0.4548
  224MPD1    N1 3410   2.064   3.752   9.025  0.2287  0.0187  0.3952
  224MPD1    H6 3411   2.125   3.672   9.039  1.2315  0.2446 -2.7172
  224MPD1    H7 3412   2.079   3.774   8.927  0.5881 -0.7385  0.2796
  225MPD1     C 3413   4.611   1.049  12.443  0.0800 -0.5023 -0.5728
  225MPD1    C1 3414   4.594   0.961  12.337 -0.1960  0.1785 -0.0332
  225MPD1    C2 3415   4.466   0.920  12.311  0.0921 -0.0428 -0.4713
  225MPD1    C3 3416   4.355   0.972  12.367  0.8876  0.2298 -0.3239
  225MPD1    C4 3417   4.372   1.071  12.465  0.1149 -0.9110 -0.4952
  225MPD1    C5 3418   4.502   1.099  12.512 -0.6730  0.0137  0.6417
  225MPD1     H 3419   4.453   0.843  12.236 -0.3777  0.3037 -0.7505
  225MPD1    H1 3420   4.290   1.130  12.505  0.9934 -0.1463  0.1835
  225MPD1    H2 3421   4.712   1.084  12.462 -0.4745 -0.4800  2.3539
  225MPD1    H3 3422   4.515   1.174  12.589 -2.3568  0.4891  0.4656
  225MPD1     N 3423   4.227   0.944  12.325 -0.7095 -0.2755  0.1025
  225MPD1    H5 3424   4.150   0.995  12.367  1.6027  3.9775 -0.8334
  225MPD1    N1 3425   4.701   0.901  12.272  0.0895  0.6734  0.4018
  225MPD1    H6 3426   4.681   0.857  12.182  2.5844 -0.3909  0.3879
  225MPD1    H7 3427   0.042   0.967  12.234 -1.8415  1.9659 -0.7911
  226MPD1     C 3428   1.863   4.532   9.293 -0.5561  0.8475  0.6946
  226MPD1    C1 3429   1.908   4.573   9.174 -0.2775 -0.3504 -0.0465
  226MPD1    C2 3430   2.035   4.529   9.136 -0.4647 -0.3563  0.4833
  226MPD1    C3 3431   2.115   4.459   9.222  0.1376 -0.6024 -0.5348
  226MPD1    C4 3432   2.062   4.418   9.345 -0.7512 -0.4750  0.4326
  226MPD1    C5 3433   1.932   4.450   9.376 -0.1293 -0.3903 -0.4141
  226MPD1     H 3434   2.069   4.564   9.039 -1.9479  0.5115  0.2675
  226MPD1    H1 3435   2.120   4.353   9.410 -0.8585 -0.9767  0.0284
  226MPD1    H2 3436   1.777   4.578   9.341 -0.5204  0.3275  1.2572
  226MPD1    H3 3437   1.893   4.418   9.472 -2.0616  3.8868  0.1840
  226MPD1     N 3438   2.254   4.444   9.190  0.1062  0.2271  0.1245
  226MPD1    H5 3439   2.287   4.482   9.101  0.7839  0.6603  0.5572
  226MPD1    N1 3440   1.846   4.671   9.103  0.5977  0.9961  0.2132
  226MPD1    H6 3441   1.866   4.658   9.004 -0.6070  0.6970  0.0074
  226MPD1    H7 3442   1.748   4.670   9.131  1.0044 -0.0222  1.5835
  227MPD1     C 3443   3.082   0.205   8.958  0.8152 -0.0127 -0.1297
  227MPD1    C1 3444   3.132   0.076   8.980 -0.0356  0.0062 -0.0869
  227MPD1    C2 3445   3.057   4.718   9.048  0.5003  0.0624  0.3504
  227MPD1    C3 3446   2.923   0.018   9.081 -0.2226  0.6640 -0.3849
  227MPD1    C4 3447   2.875   0.139   9.043 -0.4070  0.1141 -0.4296
  227MPD1    C5 3448   2.955   0.232   8.987  0.2217 -0.6291 -0.2573
  227MPD1     H 3449   3.101   4.622   9.070  0.4386 -0.0636 -0.0789
  227MPD1    H1 3450   2.770   0.163   9.056 -0.3498 -0.2034  0.6437
  227MPD1    H2 3451   3.142   0.285   8.917  0.2483  0.6514  0.3196
  227MPD1    H3 3452   2.922   0.333   8.968  0.8612 -0.2304  0.7927
  227MPD1     N 3453   2.847   4.640   9.136  0.3353  0.2001  0.5094
  227MPD1    H5 3454   2.901   4.555   9.154  2.4823  1.5451  0.4018
  227MPD1    N1 3455   3.265   0.040   8.940 -0.1741  0.2337  0.1744
  227MPD1    H6 3456   3.323   0.040   9.023  1.0171  1.1108 -0.6608
  227MPD1    H7 3457   3.309   0.111   8.881 -0.3230  1.4723  1.5622
  228MPD1     C 3458   1.707   3.556  12.522 -0.1519  0.1094  0.5315
  228MPD1    C1 3459   1.638   3.508  12.412 -0.2587 -0.3990 -0.4507
  228MPD1    C2 3460   1.503   3.487  12.432  0.0691 -1.0485  0.3855
  228MPD1    C3 3461   1.428   3.522  12.548 -0.6457  0.1670  0.1396
  228MPD1    C4 3462   1.498   3.590  12.647  0.4202 -0.3795 -0.5801
  228MPD1    C5 3463   1.630   3.607  12.625  0.1058  0.1835  0.3807
  228MPD1     H 3464   1.450   3.429  12.357  0.3068 -1.1695  0.3107
  228MPD1    H1 3465   1.444   3.626  12.734  2.0010 -0.5308  0.4683
  228MPD1    H2 3466   1.815   3.566  12.520 -0.1563  0.5381  1.7969
  228MPD1    H3 3467   1.677   3.644  12.715  0.6706  2.0793 -0.7032
  228MPD1     N 3468   1.287   3.499  12.555 -0.3990 -0.1445  0.9987
  228MPD1    H5 3469   1.248   3.451  12.474  0.5088  0.6832  0.0763
  228MPD1    N1 3470   1.713   3.443  12.319  0.5046 -0.8057 -0.3687
  228MPD1    H6 3471   1.660   3.441  12.232 -0.5801 -1.6965  0.3160
  228MPD1    H7 3472   1.804   3.487  12.308 -0.2639  1.2998  1.7159
  229MPD1     C 3473   1.085   2.141  14.607  0.4138  0.1046  0.8885
  229MPD1    C1 3474   1.016   2.163  14.726  0.5736  0.7196  0.4059
  229MPD1    C2 3475   1.003   2.050  14.799 -0.7035  0.2612  0.6770
  229MPD1    C3 3476   1.073   1.929  14.768 -0.1428 -0.4980 -0.2836
  229MPD1    C4 3477   1.150   1.915  14.652 -0.3320  0.0059  0.1267
  229MPD1    C5 3478   1.148   2.023  14.568 -0.1860 -0.3305  0.0234
  229MPD1     H 3479   0.942   2.047  14.888 -0.4292  1.9602  0.9049
  229MPD1    H1 3480   1.210   1.833  14.614  0.9574  0.6819  0.6970
  229MPD1    H2 3481   1.068   2.220  14.535  1.5721 -0.0841  0.4212
  229MPD1    H3 3482   1.191   2.020  14.468 -0.5620 -0.3652 -0.1380
  229MPD1     N 3483   1.069   1.820  14.850 -0.0245  0.2204  0.3853
  229MPD1    H5 3484   1.129   1.744  14.818  0.6208  0.8188  0.1669
  229MPD1    N1 3485   0.934   2.274  14.743  0.1735  0.3728  0.2295
  229MPD1    H6 3486   0.893   2.291  14.834  1.2941 -0.8605  0.9545
  229MPD1    H7 3487   0.972   2.359  14.702  1.4438  0.3045  1.2919
  230MPD1     C 3488   0.950   1.225  15.740 -0.3809 -0.4747  0.0539
  230MPD1    C1 3489   1.082   1.243  15.726  0.0643  0.0504 -0.4914
  230MPD1    C2 3490   1.128   1.342  15.640  0.5339  0.5960 -0.5399
  230MPD1    C3 3491   1.038   1.400  15.553  0.1672 -0.3227  0.1447
  230MPD1    C4 3492   0.898   1.361  15.550  0.5920 -0.7552 -0.1245
  230MPD1    C5 3493   0.854   1.273  15.645 -0.4483 -0.3998  0.7212
  230MPD1     H 3494   1.234   1.363  15.633  0.7881 -0.5507 -0.1074
  230MPD1    H1 3495   0.825   1.392  15.476  0.8102 -1.1954 -0.5257
  230MPD1    H2 3496   0.915   1.161  15.820 -0.8009  1.0931  1.1268
  230MPD1    H3 3497   0.751   1.238  15.638 -1.2286  1.7260  1.8572
  230MPD1     N 3498   1.089   1.497  15.463  0.1991  0.3482 -0.3401
  230MPD1    H5 3499   1.187   1.524  15.457  0.1697  0.0040 -2.3245
  230MPD1    N1 3500   1.165   1.178  15.821 -0.8469  0.4864  0.6421
  230MPD1    H6 3501   1.116   1.095  15.855  1.4536 -1.6226 -1.1359
  230MPD1    H7 3502   1.259   1.160  15.785  0.0095  2.3313  1.9679
  231MPD1     C 3503   3.400   4.272  14.517  0.1207 -0.2416 -0.1280
  231MPD1    C1 3504   3.432   4.384  14.595  0.5185  0.0588 -0.7592
  231MPD1    C2 3505   3.555   4.389  14.647  0.6248  0.5378 -0.3267
  231MPD1    C3 3506   3.656   4.306  14.608  0.2791 -0.1217  0.2690
  231MPD1    C4 3507   3.629   4.199  14.523 -0.0225  0.3030 -0.0283
  231MPD1    C5 3508   3.496   4.181  14.484  0.1992  0.3165 -0.1189
  231MPD1     H 3509   3.580   4.472  14.712 -3.2031  2.5358 -1.3737
  231MPD1    H1 3510   3.705   4.129  14.491  1.4283  0.2014  3.5639
  231MPD1    H2 3511   3.300   4.248  14.484 -0.8125  1.2275  1.6390
  231MPD1    H3 3512   3.463   4.100  14.420  2.0193  0.0533 -0.7264
  231MPD1     N 3513   3.786   4.331  14.655 -0.1491  0.3743 -0.2844
  231MPD1    H5 3514   3.799   4.403  14.724  1.9055 -1.0867  0.8492
  231MPD1    N1 3515   3.334   4.472  14.637 -0.0508  0.4645  0.4266
  231MPD1    H6 3516   3.258   4.461  14.570  0.5358  1.9099 -0.4925
  231MPD1    H7 3517   3.365   4.569  14.635 -0.0227  0.4860  2.2058
  232MPD1     C 3518   0.754   1.546   0.427  0.1490  0.0374 -0.2168
  232MPD1    C1 3519   0.663   1.616   0.351 -0.6011 -0.5007  0.0305
  232MPD1    C2 3520   0.609   1.546   0.239  0.0675 -0.1561 -0.2119
  232MPD1    C3 3521   0.616   1.410   0.220 -0.1599  0.4459 -0.8252
  232MPD1    C4 3522   0.687   1.341   0.318 -0.1703 -0.5074  0.2175
  232MPD1    C5 3523   0.756   1.408   0.416 -0.2603 -0.0165 -0.0836
  232MPD1     H 3524   0.554   1.602   0.164 -0.3860  0.4524  0.5806
  232MPD1    H1 3525   0.705   1.235   0.306 -0.2309 -0.5299  0.3208
  232MPD1    H2 3526   0.808   1.594   0.508  0.1368  2.2997 -1.5668
  232MPD1    H3 3527   0.818   1.355   0.487  1.0465  0.5678 -0.7697
  232MPD1     N 3528   0.535   1.355   0.113 -0.4107 -0.3315 -0.0523
  232MPD1    H5 3529   0.460   1.413   0.077 -0.8469 -1.1011 -0.3933
  232MPD1    N1 3530   0.663   1.760   0.344  0.2748 -0.5356 -0.0647
  232MPD1    H6 3531   0.680   1.791   0.440 -2.6467 -1.4483  0.7525
  232MPD1    H7 3532   0.575   1.800   0.314 -0.1857 -2.2241 -0.9378
  233MPD1     C 3533   0.861   0.198   0.657  0.0520 -1.2168  0.6729
  233MPD1    C1 3534   0.850   0.205   0.796  0.5371 -0.2010  0.5514
  233MPD1    C2 3535   0.956   0.161   0.873  0.2896 -0.4966 -0.4404
  233MPD1    C3 3536   1.069   0.114   0.818  0.2829 -0.1854  0.4679
  233MPD1    C4 3537   1.074   0.103   0.679  0.0315  0.1589  0.0835
  233MPD1    C5 3538   0.973   0.142   0.602 -0.6088  1.4446  0.2149
  233MPD1     H 3539   0.957   0.178   0.980  0.2464 -0.3384 -0.4656
  233MPD1    H1 3540   1.153   0.039   0.640 -0.0067  0.5261 -0.5850
  233MPD1    H2 3541   0.782   0.214   0.585  0.9953 -0.2342 -0.1600
  233MPD1    H3 3542   0.978   0.124   0.495 -2.8490  0.8865  0.1996
  233MPD1     N 3543   1.186   0.072   0.894  0.1106  0.0865  0.1929
  233MPD1    H5 3544   1.270   0.040   0.848 -0.7399 -0.9590 -0.6249
  233MPD1    N1 3545   0.745   0.281   0.857  0.0152  0.1160 -0.6622
  233MPD1    H6 3546   0.720   0.244   0.948 -0.7699  0.8033 -0.5924
  233MPD1    H7 3547   0.667   0.291   0.792 -1.4629 -2.2571  0.7700
  234MPD1     C 3548   3.761   2.919  10.397  0.1821 -0.3288  0.0357
  234MPD1    C1 3549   3.772   3.057  10.403  1.0909 -0.0416  0.0902
  234MPD1    C2 3550   3.683   3.145  10.338  0.1028  0.2043 -0.2707
  234MPD1    C3 3551   3.583   3.093  10.256  0.7973 -0.5760  0.3301
  234MPD1    C4 3552   3.588   2.956  10.235 -0.5965  0.5347 -0.0214
  234MPD1    C5 3553   3.666   2.867  10.311  0.5736 -0.6041  0.6434
  234MPD1     H 3554   3.687   3.252  10.360  0.9055  0.4224 -1.4602
  234MPD1    H1 3555   3.524   2.912  10.160 -1.0002 -1.1433  1.3187
  234MPD1    H2 3556   3.827   2.842  10.434  0.4913 -0.9711 -1.8726
  234MPD1    H3 3557   3.660   2.760  10.298 -1.2167 -0.4494  0.2165
  234MPD1     N 3558   3.500   3.179  10.173  0.0192 -0.3414 -0.3517
  234MPD1    H5 3559   3.503   3.279  10.193 -1.6866 -0.4487  0.4823
  234MPD1    N1 3560   3.887   3.111  10.460  0.9778 -0.3690  0.2554
  234MPD1    H6 3561   3.921   3.064  10.544  1.9352 -2.6348 -1.4000
  234MPD1    H7 3562   3.874   3.207  10.494 -0.5286  0.3242 -2.2618
  235MPD1     C 3563   4.413   4.398   9.235  0.0097  0.3337 -0.1131
  235MPD1    C1 3564   4.457   4.503   9.153  0.0460  0.3152  0.3142
  235MPD1    C2 3565   4.540   4.590   9.213 -1.2925  0.3791 -0.8313
  235MPD1    C3 3566   4.582   4.581   9.347 -0.0122  0.3888 -0.0431
  235MPD1    C4 3567   4.541   4.477   9.417 -0.3016 -0.6718  0.4590
  235MPD1    C5 3568   4.467   4.376   9.357 -0.3862  0.0493 -0.0491
  235MPD1     H 3569   4.591   4.661   9.149  0.3025  0.1085  0.1587
  235MPD1    H1 3570   4.580   4.457   9.516 -2.4731 -2.1599  1.0278
  235MPD1    H2 3571   4.357   4.311   9.201 -0.7856  0.5078  0.7411
  235MPD1    H3 3572   4.429   4.289   9.410  0.7058 -1.2174 -1.3250
  235MPD1     N 3573   4.665   4.677   9.402 -0.1225 -0.7823 -1.0567
  235MPD1    H5 3574   4.705   0.020   9.340  3.0065 -1.2934  0.3737
  235MPD1    N1 3575   4.430   4.516   9.018 -0.4346 -0.1397 -0.3404
  235MPD1    H6 3576   4.416   4.613   8.992  1.5936  0.3390  0.3336
  235MPD1    H7 3577   4.358   4.454   8.984 -1.8349  0.6940  1.1129
  236MPD1     C 3578   0.743   0.317  10.416 -0.0681 -0.0065  0.5729
  236MPD1    C1 3579   0.615   0.373  10.378  0.2610 -0.5795  0.2234
  236MPD1    C2 3580   0.597   0.505  10.408  0.4088 -0.3145  0.4806
  236MPD1    C3 3581   0.710   0.586  10.443  0.0582  0.5262  0.8409
  236MPD1    C4 3582   0.833   0.530  10.451 -0.3999 -0.7667  0.8493
  236MPD1    C5 3583   0.853   0.394  10.452 -0.4844 -0.2046  0.2616
  236MPD1     H 3584   0.504   0.561  10.408 -0.5530 -1.8860  2.5703
  236MPD1    H1 3585   0.920   0.589  10.479 -0.5069  0.3656 -1.2495
  236MPD1    H2 3586   0.763   0.210  10.412 -0.5674  0.0017 -2.4427
  236MPD1    H3 3587   0.951   0.358  10.479 -0.1920 -0.4948 -1.1789
  236MPD1     N 3588   0.700   0.720  10.486  0.0426 -0.2645 -0.1890
  236MPD1    H5 3589   0.788   0.770  10.483 -0.6825  0.7272 -4.2448
  236MPD1    N1 3590   0.507   0.290  10.368  0.1402 -0.3660  0.0935
  236MPD1    H6 3591   0.528   0.206  10.313  2.0622  1.8081 -2.4648
  236MPD1    H7 3592   0.433   0.338  10.317 -0.2979  0.2214  1.2951
  237MPD1     C 3593   4.226   0.541  16.109  0.0114  0.0717 -0.8338
  237MPD1    C1 3594   4.183   0.636  16.020  0.2311 -0.3618  0.0259
  237MPD1    C2 3595   4.072   0.608  15.944  0.7654 -0.2200 -0.5045
  237MPD1    C3 3596   3.994   0.492  15.961  0.0722  0.7625 -0.5956
  237MPD1    C4 3597   4.041   0.407  16.057 -0.2642 -0.0316 -0.4658
  237MPD1    C5 3598   4.156   0.425  16.125 -0.9786  0.0136  0.2513
  237MPD1     H 3599   4.048   0.686  15.872 -2.5777  0.5081  1.4319
  237MPD1    H1 3600   3.976   0.323  16.081 -0.9720  0.2730 -1.3479
  237MPD1    H2 3601   4.315   0.555  16.169 -2.3013  0.1696  2.5758
  237MPD1    H3 3602   4.202   0.349  16.188 -0.2660 -0.2570 -0.5896
  237MPD1     N 3603   3.894   0.457  15.872 -0.1989 -0.2443  0.1563
  237MPD1    H5 3604   3.835   0.383  15.909 -0.4825  0.4594  1.1244
  237MPD1    N1 3605   4.268   0.745  15.991 -0.5388 -0.1889  0.1484
  237MPD1    H6 3606   4.341   0.761  16.061  2.0573  1.0440 -2.8627
  237MPD1    H7 3607   4.217   0.825  15.954  0.3899  1.3788  2.2097
  238MPD1     C 3608   1.341   3.747  14.763 -0.9163  0.9771 -0.2801
  238MPD1    C1 3609   1.331   3.757  14.627 -0.1603  0.1530 -0.3412
  238MPD1    C2 3610   1.224   3.826  14.571 -0.1088 -0.3568  0.0190
  238MPD1    C3 3611   1.118   3.866  14.651  0.1549  0.1451 -0.4922
  238MPD1    C4 3612   1.132   3.868  14.785 -0.4844 -0.1614  0.0815
  238MPD1    C5 3613   1.239   3.797  14.839  0.5468 -0.1824 -0.1167
  238MPD1     H 3614   1.199   3.828  14.466  0.0462  0.9814  0.0200
  238MPD1    H1 3615   1.055   3.888  14.857 -0.5885  0.7308 -0.2784
  238MPD1    H2 3616   1.417   3.681  14.803  0.1378  0.3572 -3.2801
  238MPD1    H3 3617   1.233   3.765  14.943  0.6540  0.2129  0.0091
  238MPD1     N 3618   0.993   3.916  14.594 -0.1366  0.4611  0.3114
  238MPD1    H5 3619   0.921   3.953  14.656  0.0776 -0.8247  1.3251
  238MPD1    N1 3620   1.442   3.718  14.552  0.1752  0.0864 -0.7723
  238MPD1    H6 3621   1.417   3.707  14.454  1.2810  0.5063 -1.1060
  238MPD1    H7 3622   1.472   3.623  14.576 -0.9544 -0.7685 -2.7755
  239MPD1     C 3623   1.195   4.454  14.856 -0.7594 -0.2316  0.2584
  239MPD1    C1 3624   1.233   4.405  14.735 -0.5521  0.6695  0.1931
  239MPD1    C2 3625   1.256   4.493  14.627 -0.5881 -0.2122 -0.1685
  239MPD1    C3 3626   1.226   4.630  14.641  0.6553  0.5111  0.4068
  239MPD1    C4 3627   1.182   4.670  14.766  0.1780  0.2838 -0.1030
  239MPD1    C5 3628   1.176   4.584  14.877 -0.1170  0.4461  0.2675
  239MPD1     H 3629   1.310   4.459  14.539  1.7452  1.6165  0.5452
  239MPD1    H1 3630   1.157   0.048  14.778 -0.8030  0.1912 -1.3581
  239MPD1    H2 3631   1.165   4.390  14.939  1.2682 -2.6258 -0.8607
  239MPD1    H3 3632   1.118   4.622  14.961 -2.6681 -0.6524 -0.9764
  239MPD1     N 3633   1.235   4.723  14.539 -0.3815  0.3848 -0.2901
  239MPD1    H5 3634   1.200   0.091  14.552  1.3809  0.8561  1.0155
  239MPD1    N1 3635   1.243   4.269  14.718  0.9735  0.2220 -0.2088
  239MPD1    H6 3636   1.316   4.243  14.653  0.3358  0.6317 -1.0870
  239MPD1    H7 3637   1.265   4.222  14.805 -2.3252 -2.2855 -0.7538
  240MPD1     C 3638   0.698   0.389  13.536  0.3579 -0.1247 -0.3395
  240MPD1    C1 3639   0.728   0.391  13.676 -0.0155 -0.5281 -0.2536
  240MPD1    C2 3640   0.668   0.309  13.763  0.3947  0.2218 -0.7631
  240MPD1    C3 3641   0.590   0.206  13.707  0.2902 -0.4969 -0.2686
  240MPD1    C4 3642   0.559   0.204  13.573  0.3368  0.7994  0.0773
  240MPD1    C5 3643   0.626   0.283  13.482 -0.0662  0.8044  0.5390
  240MPD1     H 3644   0.682   0.306  13.870  2.2880  0.4407 -1.0077
  240MPD1    H1 3645   0.483   0.135  13.539  0.3311  0.7078  0.2744
  240MPD1    H2 3646   0.741   0.455  13.462 -1.0415  1.2434  0.0781
  240MPD1    H3 3647   0.612   0.285  13.375 -2.5040 -1.5689  0.8314
  240MPD1     N 3648   0.554   0.094  13.793  0.2194 -0.2769  0.2543
  240MPD1    H5 3649   0.569   0.110  13.892 -1.9009  0.2565  0.4902
  240MPD1    N1 3650   0.827   0.475  13.726  0.0149 -0.2869  0.6103
  240MPD1    H6 3651   0.779   0.530  13.797 -0.9409 -0.0179 -0.2413
  240MPD1    H7 3652   0.834   0.553  13.661  2.6866 -0.8476  0.2342
  241MPD1     C 3653   0.842   0.003  14.582  0.7061 -0.8934  0.1326
  241MPD1    C1 3654   0.859   4.601  14.527  0.3575  0.1404 -0.5095
  241MPD1    C2 3655   0.785   4.560  14.418 -0.3834 -0.1197 -0.4746
  241MPD1    C3 3656   0.702   4.658  14.355  0.2225  1.0387 -0.0446
  241MPD1    C4 3657   0.693   0.060  14.401 -0.8121 -0.6033 -0.4447
  241MPD1    C5 3658   0.752   0.088  14.519 -0.3784 -0.4262 -0.2095
  241MPD1     H 3659   0.794   4.461  14.376 -0.1114 -1.6553  3.2751
  241MPD1    H1 3660   0.631   0.132  14.349 -1.3015 -0.6538  0.0763
  241MPD1    H2 3661   0.894   0.036  14.672  0.3163 -0.0374  0.0481
  241MPD1    H3 3662   0.739   0.189  14.554 -0.3693 -0.6404  0.4146
  241MPD1     N 3663   0.623   4.637  14.238  0.6890  0.5271 -0.0885
  241MPD1    H5 3664   0.593   4.719  14.186 -1.0934 -0.8274 -1.2268
  241MPD1    N1 3665   0.938   4.514  14.606 -0.1719 -0.2184  0.4690
  241MPD1    H6 3666   0.969   4.428  14.561 -0.6488  0.6523 -1.5217
  241MPD1    H7 3667   1.024   4.560  14.637  0.8453 -1.3670 -0.6665
  242MPD1     C 3668   0.310   2.924  15.876  0.5884 -0.3230  0.5869
  242MPD1    C1 3669   0.207   2.974  15.794  0.4631  0.9207  0.6753
  242MPD1    C2 3670   0.222   2.964  15.659  0.1095  0.2206 -0.5856
  242MPD1    C3 3671   0.347   2.935  15.605 -0.1940 -0.4101  0.0558
  242MPD1    C4 3672   0.452   2.905  15.686  0.7944 -0.2247 -0.0535
  242MPD1    C5 3673   0.435   2.898  15.822  0.3952  0.2634  0.3183
  242MPD1     H 3674   0.142   2.993  15.592 -0.6051 -0.5418 -0.0640
  242MPD1    H1 3675   0.552   2.883  15.650  0.7646 -1.8077  0.8146
  242MPD1    H2 3676   0.290   2.917  15.982  2.2122 -1.0012  0.8438
  242MPD1    H3 3677   0.512   2.866  15.890 -1.5600  0.3828  2.5999
  242MPD1     N 3678   0.367   2.901  15.468 -0.2303 -1.0778 -0.3639
  242MPD1    H5 3679   0.462   2.874  15.445  0.3870  0.2966  0.5370
  242MPD1    N1 3680   0.079   3.000  15.855  0.3651 -0.1051  0.2220
  242MPD1    H6 3681   0.018   3.064  15.804 -0.2670  0.8521  2.2011
  242MPD1    H7 3682   0.091   3.033  15.950  1.2095 -0.8053  0.3559
  243MPD1     C 3683   1.589   1.578   0.204 -0.0534 -0.5415  0.4931
  243MPD1    C1 3684   1.491   1.491   0.244 -0.4472  0.1027  0.7598
  243MPD1    C2 3685   1.507   1.364   0.193  0.1384 -0.0550  0.4649
  243MPD1    C3 3686   1.608   1.329   0.107 -0.4989  0.0299  0.2867
  243MPD1    C4 3687   1.707   1.421   0.078 -0.3028  0.3211 -0.5005
  243MPD1    C5 3688   1.696   1.544   0.134 -0.0301 -0.0044  0.3748
  243MPD1     H 3689   1.428   1.290   0.201  1.3788 -1.1851  2.0468
  243MPD1    H1 3690   1.790   1.406   0.010  0.3352  0.5819  0.2078
  243MPD1    H2 3691   1.587   1.684   0.226  1.3531 -0.5385  0.6344
  243MPD1    H3 3692   1.766   1.620   0.102  1.2167 -1.4472 -0.2898
  243MPD1     N 3693   1.608   1.200   0.053 -0.9723  0.5285 -0.0588
  243MPD1    H5 3694   1.532   1.143   0.089 -1.0215  0.7494  0.1820
  243MPD1    N1 3695   1.369   1.541   0.298 -0.2390 -0.4692 -0.5277
  243MPD1    H6 3696   1.383   1.622   0.358 -0.2876  0.5906 -1.9293
  243MPD1    H7 3697   1.321   1.467   0.349 -0.9462  0.0706 -0.4046
  244MPD1     C 3698   1.128   0.541   0.373 -0.0887 -0.5964  0.4314
  244MPD1    C1 3699   1.127   0.679   0.366  1.3564  0.4791 -0.8536
  244MPD1    C2 3700   1.221   0.737   0.291 -0.0898  0.1327  0.0459
  244MPD1    C3 3701   1.322   0.675   0.220  0.2013  0.0411 -1.7276
  244MPD1    C4 3702   1.313   0.532   0.218 -0.0216 -0.4476  0.1992
  244MPD1    C5 3703   1.218   0.467   0.293 -0.4708 -0.1485  0.5166
  244MPD1     H 3704   1.224   0.846   0.292 -1.8823  0.2054 -1.2993
  244MPD1    H1 3705   1.378   0.468   0.159  0.8244  0.0909  0.5480
  244MPD1    H2 3706   1.052   0.491   0.432 -0.9978  1.6372  1.1434
  244MPD1    H3 3707   1.212   0.360   0.276  1.1773 -0.1444 -0.0848
  244MPD1     N 3708   1.415   0.752   0.139  0.1498 -0.7324  0.0720
  244MPD1    H5 3709   1.412   0.853   0.140 -1.2380 -0.7651 -0.9067
  244MPD1    N1 3710   1.046   0.747   0.456  0.7078  0.8328 -0.6394
  244MPD1    H6 3711   0.959   0.702   0.484  1.5178 -0.7376 -0.6377
  244MPD1    H7 3712   1.039   0.847   0.438  4.4479  1.4969  1.4584
  245MPD1     C 3713   3.662   1.877  13.095 -0.4701  0.0717 -0.2070
  245MPD1    C1 3714   3.794   1.901  13.064  0.2174 -0.6637 -0.8960
  245MPD1    C2 3715   3.828   2.029  13.022 -0.1473  0.0682 -0.2580
  245MPD1    C3 3716   3.748   2.135  13.047  0.1812  0.5092 -0.3246
  245MPD1    C4 3717   3.623   2.113  13.104  0.0160 -0.7026 -0.2626
  245MPD1    C5 3718   3.594   1.985  13.137 -0.4068  0.4097  0.5611
  245MPD1     H 3719   3.929   2.045  12.987 -0.5609  2.3141 -0.4100
  245MPD1    H1 3720   3.548   2.190  13.117  1.9543  0.7171  2.3457
  245MPD1    H2 3721   3.625   1.776  13.110  0.3439 -0.3985 -1.4594
  245MPD1    H3 3722   3.498   1.980  13.185 -1.1209  1.4628 -0.7792
  245MPD1     N 3723   3.806   2.263  13.049 -0.1058  0.5741  0.1491
  245MPD1    H5 3724   3.906   2.260  13.031 -0.4502 -3.3896 -1.2212
  245MPD1    N1 3725   3.881   1.804  13.023 -0.1510 -0.0064 -0.2098
  245MPD1    H6 3726   3.978   1.832  13.039  0.3098 -2.6084  1.5020
  245MPD1    H7 3727   3.868   1.719  13.077 -3.0962 -0.0356 -0.9718
  246MPD1     C 3728   4.546   0.307   9.539  0.5703 -0.4277 -0.2251
  246MPD1    C1 3729   4.590   0.427   9.589 -0.2121 -0.1166  0.3954
  246MPD1    C2 3730   4.528   0.466   9.714 -0.0124  0.0528 -0.4315
  246MPD1    C3 3731   4.432   0.387   9.778  0.4699  0.9687 -0.0798
  246MPD1    C4 3732   4.396   0.271   9.723  0.1528 -0.5126 -0.3446
  246MPD1    C5 3733   4.460   0.227   9.605 -0.3312 -0.9554 -0.3079
  246MPD1     H 3734   4.535   0.568   9.748 -0.0872 -0.1892  0.3052
  246MPD1    H1 3735   4.349   0.195   9.785  0.1980  2.2888  3.1130
  246MPD1    H2 3736   4.597   0.272   9.450  2.0728  0.7483  0.1768
  246MPD1    H3 3737   4.425   0.129   9.574 -0.2685 -0.7731 -0.9535
  246MPD1     N 3738   4.374   0.434   9.898 -0.4332 -0.5204 -0.0114
  246MPD1    H5 3739   4.409   0.525   9.927 -0.0283  0.1278 -2.5140
  246MPD1    N1 3740   4.657   0.522   9.510 -0.2124  0.3307 -0.2435
  246MPD1    H6 3741   4.703   0.594   9.566  0.8124 -1.0447  0.6804
  246MPD1    H7 3742   4.724   0.483   9.443 -0.3032  0.2310 -0.2752
  247MPD1     C 3743   3.369   2.078  16.991  0.0658  0.5623 -0.0617
  247MPD1    C1 3744   3.298   2.195  16.979  0.4009 -0.2803 -0.3114
  247MPD1    C2 3745   3.283   2.268  16.864  0.3465  0.1899  0.1018
  247MPD1    C3 3746   3.337   2.222  16.745  0.5189 -0.2985 -0.3031
  247MPD1    C4 3747   3.409   2.102  16.751  0.2447  0.3940 -0.3354
  247MPD1    C5 3748   3.426   2.031  16.874 -0.4340  0.2904  0.2932
  247MPD1     H 3749   3.227   2.360  16.864 -1.3247 -0.8258  0.3144
  247MPD1    H1 3750   3.449   2.066  16.658  1.4666 -0.3649  0.4792
  247MPD1    H2 3751   3.378   2.017  17.080  2.4059  0.4889 -0.3594
  247MPD1    H3 3752   3.479   1.938  16.887 -0.5926  0.0512 -0.7422
  247MPD1     N 3753   3.329   2.291  16.620  0.1213 -0.2327  0.5097
  247MPD1    H5 3754   3.367   2.245  16.538 -0.1705  1.7708 -0.7346
  247MPD1    N1 3755   3.223   2.231  17.094  0.4602  0.1004 -0.6134
  247MPD1    H6 3756   3.201   2.329  17.105  0.2808  0.1507 -1.4583
  247MPD1    H7 3757   3.260   2.202  17.185  0.7280  1.6812 -0.2287
  248MPD1     C 3758   4.022   0.799  17.197  0.4469 -1.0418  0.2624
  248MPD1    C1 3759   4.123   0.853  17.274  0.3982  0.1563  0.3527
  248MPD1    C2 3760   4.091   0.933  17.384  0.3071  0.1808 -0.4357
  248MPD1    C3 3761   3.958   0.966  17.398 -0.2464 -0.0112 -0.4843
  248MPD1    C4 3762   3.862   0.932  17.311  0.1922 -1.0041 -0.5429
  248MPD1    C5 3763   3.896   0.840  17.215 -0.2853  0.1848  0.6458
  248MPD1     H 3764   4.164   0.960  17.459 -0.2208 -0.0407  0.1541
  248MPD1    H1 3765   3.762   0.972  17.322  0.5829 -0.5649  1.4001
  248MPD1    H2 3766   4.036   0.736  17.110  0.4252 -0.6840  0.0012
  248MPD1    H3 3767   3.813   0.811  17.152  0.7090  2.8751 -1.9046
  248MPD1     N 3768   3.938   1.047  17.509 -0.3283 -0.5381  0.2903
  248MPD1    H5 3769   4.023   1.062  17.562 -0.3285 -0.5797  0.3023
  248MPD1    N1 3770   4.262   0.813  17.259  0.4756  0.7627  0.6590
  248MPD1    H6 3771   4.331   0.880  17.295 -1.1379  1.4593  2.4861
  248MPD1    H7 3772   4.280   0.731  17.317 -1.7127 -0.9862 -1.1269
  249MPD1     C 3773   1.632   0.443   9.381 -0.5502  0.3172  0.9259
  249MPD1    C1 3774   1.514   0.379   9.370  0.3716  0.3693  0.1961
  249MPD1    C2 3775   1.464   0.313   9.481 -0.7017  0.3858  0.4855
  249MPD1    C3 3776   1.519   0.337   9.602  0.2098  0.0766 -0.3455
  249MPD1    C4 3777   1.636   0.413   9.615  0.0287  0.0099  0.2672
  249MPD1    C5 3778   1.686   0.470   9.503 -0.1482 -0.3834  0.1978
  249MPD1     H 3779   1.385   0.240   9.489 -2.3403  1.9640 -1.4659
  249MPD1    H1 3780   1.681   0.434   9.711  2.5159 -0.2004 -0.8466
  249MPD1    H2 3781   1.684   0.470   9.290 -2.4517  0.5073 -0.1163
  249MPD1    H3 3782   1.787   0.507   9.517 -0.2573 -1.1216  2.8213
  249MPD1     N 3783   1.452   0.270   9.707 -0.2384  0.2573 -0.3178
  249MPD1    H5 3784   1.375   0.205   9.690 -0.6615  0.7754 -0.4015
  249MPD1    N1 3785   1.468   0.334   9.243 -0.4344 -0.0250 -0.6509
  249MPD1    H6 3786   1.369   0.314   9.249 -0.5384  0.7764  0.2456
  249MPD1    H7 3787   1.477   0.408   9.173 -1.3091  0.7287  0.0484
  250MPD2     C 3788   1.534   0.573  12.869 -0.0378 -0.6268  0.3709
  250MPD2    C1 3789   1.552   0.631  12.750  0.6591 -0.3739 -0.0236
  250MPD2    C2 3790   1.591   0.556  12.641  0.1129  0.6845 -0.1263
  250MPD2    C3 3791   1.599   0.419  12.659 -0.1330  0.3638  0.1244
  250MPD2    C4 3792   1.578   0.361  12.782  0.1507 -0.2264  0.1796
  250MPD2    C5 3793   1.545   0.436  12.889  0.0762  0.1661 -0.2443
  250MPD2     H 3794   1.601   0.604  12.544 -0.3128  1.5335  0.2410
  250MPD2    H1 3795   1.597   0.256  12.800  0.1042 -0.4419 -1.0255
  250MPD2    H2 3796   1.510   0.636  12.954  0.7576  0.6696 -0.3616
  250MPD2    H3 3797   1.539   0.388  12.986 -2.4855  0.4259 -0.2606
  250MPD2     N 3798   1.645   0.328  12.558 -0.8404  0.6952  0.7563
  250MPD2    H5 3799   1.650   0.232  12.590  2.0897  0.0482 -1.5949
  250MPD2    N1 3800   1.544   0.770  12.752  0.1349  0.6879  0.0013
  250MPD2    H7 3801   1.492   0.800  12.834  0.0565 -0.0589  0.2286
  251TMC3    C1 3802   1.569   0.992  12.668 -0.4865 -0.4507 -0.3898
  251TMC3    C2 3803   1.458   1.027  12.742 -0.1823 -0.4484 -0.2534
  251TMC3    C3 3804   1.463   1.152  12.799 -0.1677  0.7883  0.4602
  251TMC3    C4 3805   1.683   1.066  12.665 -0.5514  0.4617 -0.8030
  251TMC3    C5 3806   1.679   1.185  12.741  0.1569 -0.3903 -0.1403
  251TMC3    C6 3807   1.570   1.233  12.800 -0.0513 -0.3593  0.5048
  251TMC3     C 3808   1.593   0.851  12.652  0.6926  0.7295 -0.5899
  251TMC3     O 3809   1.677   0.824  12.566 -0.4581  0.3729 -0.1141
  251TMC3     H 3810   1.368   0.967  12.752 -0.4521 -0.0820 -0.4850
  251TMC3    H1 3811   1.772   1.020  12.622 -0.6109  0.1605 -0.6035
  251TMC3    H2 3812   1.574   1.332  12.846 -0.5604  0.5357 -1.3670
  251TMC3    C7 3813   1.811   1.204  12.807  0.0452  0.1021  0.1184
  251TMC3    C8 3814   1.346   1.203  12.857 -0.1286  0.9308 -0.1899
  251TMC3    O1 3815   1.879   1.104  12.816  0.0831 -0.2335 -0.0270
  251TMC3    O2 3816   1.240   1.175  12.806  0.2002  0.6080 -0.2495
  252TMC3    C1 3817   3.145   0.365   9.316 -0.3058 -0.1420  0.4112
  252TMC3    C2 3818   3.217   0.479   9.313  0.0928  0.3065  0.2025
  252TMC3    C3 3819   3.128   0.595   9.312  0.2538  0.2008  0.4336
  252TMC3    C4 3820   3.009   0.358   9.326 -0.3486 -0.7174 -0.4475
  252TMC3    C5 3821   2.939   0.470   9.318  0.7817 -0.2865  0.3532
  252TMC3    C6 3822   2.996   0.597   9.303  0.0230 -0.1381 -0.0704
  252TMC3     C 3823   3.217   0.241   9.319  0.1038  0.1778 -0.4818
  252TMC3     O 3824   3.156   0.141   9.347 -0.3133  0.1580 -0.0726
  252TMC3     H 3825   3.325   0.486   9.321 -0.1179 -0.0410  3.3860
  252TMC3    H1 3826   2.962   0.263   9.305 -0.1303 -0.5241 -1.8741
  252TMC3    H2 3827   2.940   0.689   9.289  0.2175  0.0952  0.6476
  252TMC3    C7 3828   2.798   0.468   9.298 -1.0753  0.4977 -0.3537
  252TMC3    C8 3829   3.189   0.717   9.290 -0.0061  0.3196  0.0742
  252TMC3    O1 3830   2.745   0.579   9.278 -0.4317  0.6095 -0.3376
  252TMC3    O2 3831   3.290   0.722   9.218  0.6652 -0.7605  0.2556
  253MPD2     C 3832   3.403   0.666  15.743  0.5147  0.9369  0.3287
  253MPD2    C1 3833   3.340   0.567  15.672  0.5405  0.8009  0.2804
  253MPD2    C2 3834   3.305   0.450  15.740 -0.6172 -0.2151  0.2897
  253MPD2    C3 3835   3.327   0.436  15.878  0.0088  0.0290  0.0415
  253MPD2    C4 3836   3.403   0.535  15.940 -0.6045  0.0000  0.4021
  253MPD2    C5 3837   3.436   0.644  15.875 -0.2147  0.3337 -0.0727
  253MPD2     H 3838   3.264   0.367  15.683  0.0317  0.1602 -0.7161
  253MPD2    H1 3839   3.424   0.531  16.046 -0.6984  0.7896  0.4474
  253MPD2    H2 3840   3.427   0.765  15.704 -0.8928  0.8807 -0.6623
  253MPD2    H3 3841   3.473   0.722  15.941  0.2468 -0.1108  0.2012
  253MPD2     N 3842   3.269   0.325  15.956  0.3758 -0.2172 -0.2919
  253MPD2    H5 3843   3.285   0.331  16.056  0.7563 -2.5045 -0.2181
  253MPD2    N1 3844   3.299   0.580  15.537 -0.6591  0.0276  0.2241
  253MPD2    H7 3845   3.257   0.495  15.501 -1.3800  0.9574 -1.1099
  254TMC3    C1 3846   3.145   0.140  16.000 -0.6637 -0.2016  0.4235
  254TMC3    C2 3847   3.013   0.116  15.984 -0.0114  0.3715 -0.0106
  254TMC3    C3 3848   2.944   0.071  16.094 -0.3726 -0.5687  0.1636
  254TMC3    C4 3849   3.213   0.113  16.115  0.7363 -0.6881 -0.6891
  254TMC3    C5 3850   3.140   0.071  16.224 -0.1714  0.2075 -0.0202
  254TMC3    C6 3851   3.008   0.047  16.216  0.1081 -0.4610 -0.4676
  254TMC3     C 3852   3.191   0.228  15.904 -0.1701 -0.1219 -0.1584
  254TMC3     O 3853   3.149   0.209  15.788  0.0123 -0.1160  0.6391
  254TMC3     H 3854   2.953   0.137  15.896  1.8188  0.2916 -1.2641
  254TMC3    H1 3855   3.314   0.148  16.133 -0.2875  0.7980  2.1690
  254TMC3    H2 3856   2.954   0.023  16.307  0.5172 -2.0431 -0.6547
  254TMC3    C7 3857   3.197   0.060  16.356 -0.2815  0.0017 -0.1979
  254TMC3    C8 3858   2.801   0.068  16.091 -0.0685  0.0664 -0.1641
  254TMC3    O1 3859   3.121   0.068  16.451  0.2398 -0.0362  0.0081
  254TMC3    O2 3860   2.734   4.714  16.155 -0.6133  0.3651 -0.1811
  255MPD2     C 3861   1.940   2.401  10.718  0.9500 -0.2064 -0.1706
  255MPD2    C1 3862   1.875   2.484  10.628 -0.1476 -0.0739  0.5881
  255MPD2    C2 3863   1.950   2.538  10.526  0.4912  0.1013  0.2839
  255MPD2    C3 3864   2.085   2.501  10.506 -0.0366 -0.4350 -0.4257
  255MPD2    C4 3865   2.138   2.412  10.594 -0.0046  0.7600  0.1006
  255MPD2    C5 3866   2.064   2.355  10.700 -0.6824 -0.6002  0.4598
  255MPD2     H 3867   1.906   2.616  10.465 -1.9542 -2.1108 -0.7703
  255MPD2    H1 3868   2.238   2.369  10.586 -0.8856 -0.9560 -1.5936
  255MPD2    H2 3869   1.882   2.347  10.791 -0.4284 -0.5236 -1.4922
  255MPD2    H3 3870   2.098   2.278  10.767  2.6973 -0.3489 -0.9626
  255MPD2     N 3871   2.162   2.555  10.405 -0.0877  0.6388  0.5549
  255MPD2    H5 3872   2.106   2.615  10.345  0.3444 -0.5783 -1.0868
  255MPD2    N1 3873   1.741   2.507  10.644 -0.4966  0.1867  0.6427
  255MPD2    H7 3874   1.698   2.443  10.710 -0.9769  1.1052  1.2170
  256TMC3    C1 3875   1.524   2.581  10.600  0.0785  0.3672  0.3136
  256TMC3    C2 3876   1.440   2.691  10.588  0.1919  0.7361 -0.7119
  256TMC3    C3 3877   1.310   2.672  10.587  0.3443  0.2201  0.1500
  256TMC3    C4 3878   1.472   2.460  10.618 -0.9460 -0.3576 -0.3299
  256TMC3    C5 3879   1.336   2.447  10.634 -0.4369  0.5553 -0.0620
  256TMC3    C6 3880   1.251   2.552  10.612  0.6173  0.0360  0.0504
  256TMC3     C 3881   1.667   2.599  10.580  0.3851 -0.1918 -0.4794
  256TMC3     O 3882   1.702   2.686  10.505 -0.2566 -0.3287  0.7757
  256TMC3     H 3883   1.487   2.786  10.565  0.4321  0.9625  0.7073
  256TMC3    H1 3884   1.533   2.371  10.630  1.2007  1.1122 -0.4166
  256TMC3    H2 3885   1.150   2.545  10.574  1.4698 -0.4713 -2.1545
  256TMC3    C7 3886   1.292   2.309  10.608 -0.1900  0.1933 -0.0392
  256TMC3    C8 3887   1.247   2.737  10.477  0.8810 -0.1268 -0.1283
  256TMC3    O1 3888   1.177   2.291  10.636 -0.3310 -0.3180 -0.0215
  256TMC3    O2 3889   1.129   2.771  10.482 -0.2963 -0.6661 -0.2121
  257MPD2     C 3890   0.831   0.586  12.849 -0.2082  0.4929 -0.1577
  257MPD2    C1 3891   0.835   0.459  12.804  0.4033  0.1586 -0.9231
  257MPD2    C2 3892   0.869   0.352  12.894  0.4492 -0.0963 -0.2393
  257MPD2    C3 3893   0.897   0.379  13.025 -0.2874  0.1640  0.6878
  257MPD2    C4 3894   0.894   0.509  13.072  0.0193  0.0658 -0.6935
  257MPD2    C5 3895   0.858   0.610  12.980 -0.1285  0.2220  0.2646
  257MPD2     H 3896   0.876   0.247  12.868 -0.4727 -0.3989  0.7219
  257MPD2    H1 3897   0.905   0.538  13.176  0.6836  1.0820 -1.0411
  257MPD2    H2 3898   0.796   0.671  12.793 -0.4622 -0.6128 -1.6635
  257MPD2    H3 3899   0.861   0.712  13.016 -0.8195 -0.5809  2.6254
  257MPD2     N 3900   0.924   0.261  13.098  0.5607 -1.1948 -0.1423
  257MPD2    H5 3901   0.928   0.174  13.046 -0.0586 -1.9901  1.1385
  257MPD2    N1 3902   0.800   0.445  12.666  0.7761  0.7033  0.1062
  257MPD2    H7 3903   0.790   0.527  12.607 -0.2233  0.2315 -0.3784
  258TMC3    C1 3904   0.963   0.115  13.277  0.1385 -0.3806 -0.2790
  258TMC3    C2 3905   1.077   0.069  13.219 -0.4434 -1.0470 -0.0094
  258TMC3    C3 3906   1.143   4.694  13.283 -0.1715 -0.5056  0.8220
  258TMC3    C4 3907   0.928   0.080  13.405 -0.4830 -0.7979 -0.2286
  258TMC3    C5 3908   1.007   4.720  13.473  0.2586  0.6323  0.3601
  258TMC3    C6 3909   1.120   4.664  13.416  0.4662 -1.2931 -0.2049
  258TMC3     C 3910   0.923   0.253  13.238  0.1919 -0.1374  0.0180
  258TMC3     O 3911   0.901   0.342  13.322  0.3747 -0.0906 -0.4639
  258TMC3     H 3912   1.101   0.090  13.116 -1.1732  0.3198  0.1053
  258TMC3    H1 3913   0.848   0.130  13.459  1.4950 -0.2457  2.1661
  258TMC3    H2 3914   1.175   4.581  13.459  1.0052 -0.7789  0.0954
  258TMC3    C7 3915   0.959   4.693  13.605  0.0038 -0.4690  0.1014
  258TMC3    C8 3916   1.267   4.641  13.232  0.2111  0.6248 -0.7554
  258TMC3    O1 3917   0.846   4.721  13.643 -0.1794  0.2121  1.0714
  258TMC3    O2 3918   1.299   4.544  13.297  0.5140  0.2933 -0.0573
  259MPD2     C 3919   4.030   2.066   0.768  0.4354  0.1089 -0.2786
  259MPD2    C1 3920   4.148   2.002   0.795 -0.6834  0.1636  0.1493
  259MPD2    C2 3921   4.241   1.973   0.702  0.1150 -0.4785 -0.7111
  259MPD2    C3 3922   4.227   2.015   0.572 -0.1960  0.7556 -0.4311
  259MPD2    C4 3923   4.112   2.095   0.544  0.7775  0.1833  0.2989
  259MPD2    C5 3924   4.013   2.119   0.642  0.6812 -0.2726 -1.3858
  259MPD2     H 3925   4.335   1.922   0.723 -0.0587 -0.5959 -0.1970
  259MPD2    H1 3926   4.092   2.127   0.443 -0.4544  2.5021  1.2634
  259MPD2    H2 3927   3.948   2.077   0.838  1.0862 -1.3871  0.7104
  259MPD2    H3 3928   3.919   2.171   0.621  2.1870  2.7861 -0.5564
  259MPD2     N 3929   4.326   1.976   0.488  0.1802  0.0452 -0.6082
  259MPD2    H5 3930   4.395   1.912   0.525 -3.1495 -2.4109  1.2668
  259MPD2    N1 3931   4.163   1.957   0.930 -0.2055 -0.1384 -0.0850
  259MPD2    H7 3932   4.083   1.975   0.988  1.2906 -2.7814  2.7988
  260TMC3    C1 3933   4.470   1.981   0.302 -0.7207  0.4339 -0.9202
  260TMC3    C2 3934   4.492   2.004   0.172  0.0200  0.6896  0.0521
  260TMC3    C3 3935   4.604   1.969   0.112  0.1523  0.6636 -0.0669
  260TMC3    C4 3936   4.576   1.914   0.374  0.8354  0.8989 -0.7287
  260TMC3    C5 3937   4.696   1.886   0.309  0.6501  0.2040 -1.1770
  260TMC3    C6 3938   4.717   1.927   0.188 -0.0445 -0.3919  0.8050
  260TMC3     C 3939   4.334   2.013   0.361 -0.0036  0.7760  0.7524
  260TMC3     O 3940   4.253   2.066   0.288  0.8218  0.9792  0.0633
  260TMC3     H 3941   4.415   2.038   0.104 -0.7808 -0.2929  0.4816
  260TMC3    H1 3942   4.547   1.876   0.472  0.3676  0.8868 -0.8716
  260TMC3    H2 3943   0.088   1.916   0.141  0.4628  5.5418  0.3875
  260TMC3    C7 3944   0.007   1.748   0.313 -0.7139  0.2442 -1.0736
  260TMC3    C8 3945   4.588   1.909  17.686  0.1968 -0.3558  0.4899
  260TMC3    O1 3946   0.060   1.703   0.212  0.0307 -0.2817  0.6378
  260TMC3    O2 3947   4.493   1.931  17.611 -0.7944  0.2062 -0.4307
  261MPD2     C 3948   1.809   0.066  11.784 -0.4194 -0.8494 -0.4007
  261MPD2    C1 3949   1.819   0.192  11.831  0.9440  0.2033  0.4198
  261MPD2    C2 3950   1.799   0.303  11.746 -0.4726 -0.0489 -0.7154
  261MPD2    C3 3951   1.776   0.281  11.608  0.2130  0.0783 -0.4705
  261MPD2    C4 3952   1.773   0.152  11.567  0.1083  1.0301 -0.4649
  261MPD2    C5 3953   1.783   0.047  11.655  0.9519 -0.0731  0.3173
  261MPD2     H 3954   1.801   0.397  11.800  2.0601 -0.7979  0.4722
  261MPD2    H1 3955   1.766   0.126  11.462  2.8008 -1.7303  0.0126
  261MPD2    H2 3956   1.832   4.700  11.836  1.1656 -0.4330 -0.3517
  261MPD2    H3 3957   1.788   4.670  11.623 -0.8798 -0.2600  0.6660
  261MPD2     N 3958   1.761   0.395  11.524  0.3614  0.1938  0.3713
  261MPD2    H5 3959   1.744   0.485  11.569  0.7429  0.5784 -0.2605
  261MPD2    N1 3960   1.845   0.211  11.970 -0.0838  0.0899 -0.4094
  261MPD2    H7 3961   1.826   0.304  12.007 -1.1115  0.1505 -1.0801
  262TMC3    C1 3962   1.773   0.524  11.329  0.5146 -0.2667 -0.2993
  262TMC3    C2 3963   1.666   0.598  11.368 -0.4056  0.2083  0.7875
  262TMC3    C3 3964   1.672   0.734  11.336 -0.5438  0.6653  0.0358
  262TMC3    C4 3965   1.887   0.572  11.265  0.2098  0.0307  0.4599
  262TMC3    C5 3966   1.881   0.703  11.231 -0.1722  0.1944  1.0027
  262TMC3    C6 3967   1.780   0.780  11.269 -0.0072 -0.1229  0.2049
  262TMC3     C 3968   1.794   0.396  11.390 -0.4752  0.1124 -0.1376
  262TMC3     O 3969   1.859   0.313  11.333 -0.1887  0.3146 -0.4754
  262TMC3     H 3970   1.591   0.557  11.434 -1.8761  0.2644 -0.8316
  262TMC3    H1 3971   1.965   0.504  11.235 -0.6886 -0.8147  0.0267
  262TMC3    H2 3972   1.782   0.884  11.237  1.9375 -0.0184  0.7109
  262TMC3    C7 3973   2.005   0.777  11.196 -1.2468  0.9405  0.0122
  262TMC3    C8 3974   1.581   0.826  11.388  0.3492  0.2664  0.3087
  262TMC3    O1 3975   1.997   0.897  11.165  0.3435  0.0161 -0.4192
  262TMC3    O2 3976   1.631   0.938  11.408 -0.3980 -0.9832 -0.0307
  263MPD2     C 3977   2.435   4.135  11.667 -0.3566 -0.3060 -0.3068
  263MPD2    C1 3978   2.542   4.217  11.635  0.2522  0.4762 -0.6803
  263MPD2    C2 3979   2.539   4.297  11.522 -0.8617  0.3911 -0.3354
  263MPD2    C3 3980   2.429   4.294  11.443  0.8586  0.3714  0.2410
  263MPD2    C4 3981   2.326   4.213  11.474 -0.1906  0.5084 -0.1008
  263MPD2    C5 3982   2.330   4.129  11.577 -0.3111  0.3032  0.2221
  263MPD2     H 3983   2.622   4.359  11.488 -1.8851  1.3363 -1.1343
  263MPD2    H1 3984   2.231   4.210  11.422 -0.7962 -1.9738  1.1255
  263MPD2    H2 3985   2.437   4.062  11.747 -3.8125  0.9299  0.8788
  263MPD2    H3 3986   2.242   4.081  11.617  0.7767 -2.3409 -0.5710
  263MPD2     N 3987   2.417   4.379  11.332  0.4444 -0.2347  0.1388
  263MPD2    H5 3988   2.491   4.448  11.323  1.7007 -1.8952 -2.3654
  263MPD2    N1 3989   2.662   4.200  11.714  0.2902  0.9929  0.3426
  263MPD2    H7 3990   2.657   4.124  11.781 -2.8664 -1.0517 -2.2364
  264TMC3    C1 3991   2.318   4.494  11.153 -0.4877  0.6401 -0.4123
  264TMC3    C2 3992   2.357   4.617  11.200  0.3783  0.2862 -0.6501
  264TMC3    C3 3993   2.367   4.725  11.110  0.4454  0.2138 -0.4571
  264TMC3    C4 3994   2.278   4.481  11.025 -0.7460  0.0328 -0.0245
  264TMC3    C5 3995   2.281   4.587  10.940  0.4725 -0.5101 -0.1486
  264TMC3    C6 3996   2.322   4.712  10.982 -0.0508  0.5086  0.1516
  264TMC3     C 3997   2.322   4.372  11.235 -0.1739  0.0178  0.3951
  264TMC3     O 3998   2.257   4.275  11.200 -0.6618 -0.0553  0.1652
  264TMC3     H 3999   2.412   4.629  11.293  0.6257 -3.7056 -0.2872
  264TMC3    H1 4000   2.232   4.389  10.993  0.0078 -0.3278 -0.0697
  264TMC3    H2 4001   2.316   0.072  10.917  1.8057  0.9149  0.5354
  264TMC3    C7 4002   2.301   4.552  10.806 -0.3603 -0.5072 -0.6887
  264TMC3    C8 4003   2.473   0.092  11.141 -0.2665 -0.5336 -0.1488
  264TMC3    O1 4004   2.336   4.443  10.781  0.4875  0.1207 -0.0661
  264TMC3    O2 4005   2.570   0.053  11.209  0.1507  0.9006  0.2428
  265MPD2     C 4006   4.721   0.499  15.421  0.2252 -0.4928 -0.3824
  265MPD2    C1 4007   0.048   0.610  15.357  0.3673 -0.2189 -0.4416
  265MPD2    C2 4008   0.165   0.604  15.299  0.4815  0.1807 -0.4793
  265MPD2    C3 4009   0.224   0.479  15.288 -0.8724 -0.4068  0.5658
  265MPD2    C4 4010   0.178   0.375  15.366  0.2338 -0.1933  0.2312
  265MPD2    C5 4011   0.057   0.384  15.426 -0.3768 -0.5096 -0.0072
  265MPD2     H 4012   0.201   0.695  15.252  0.2184  0.3969 -0.2670
  265MPD2    H1 4013   0.231   0.281  15.371  1.8649  0.6864 -0.3932
  265MPD2    H2 4014   4.626   0.508  15.472  0.4285 -3.7384  0.5870
  265MPD2    H3 4015   0.007   0.302  15.476 -3.0182  0.1236 -1.5679
  265MPD2     N 4016   0.350   0.447  15.233  0.5413  0.2559  0.1378
  265MPD2    H5 4017   0.378   0.354  15.261  1.9499  0.5811 -0.2123
  265MPD2    N1 4018   4.710   0.734  15.363 -0.1962  0.5292  0.4224
  265MPD2    H7 4019   0.043   0.816  15.354 -0.7389  0.9219  0.3608
  266TMC3    C1 4020   4.533   0.874  15.439  0.3705  0.0928 -0.4250
  266TMC3    C2 4021   4.406   0.876  15.495  0.1548 -0.4008  0.2188
  266TMC3    C3 4022   4.362   0.983  15.573  1.2597 -0.0854 -0.4459
  266TMC3    C4 4023   4.616   0.978  15.449  0.0436  0.2116 -0.0528
  266TMC3    C5 4024   4.563   1.089  15.513 -0.0325  0.2930 -0.0238
  266TMC3    C6 4025   4.446   1.092  15.579 -0.3640 -0.2524  0.0632
  266TMC3     C 4026   4.574   0.743  15.392 -0.6314 -0.1103  0.1250
  266TMC3     O 4027   4.479   0.661  15.381  0.0119  0.4160 -0.1604
  266TMC3     H 4028   4.343   0.787  15.489  1.7248 -1.4254 -0.9124
  266TMC3    H1 4029   4.708   0.986  15.392 -0.2871 -1.7304 -0.8530
  266TMC3    H2 4030   4.410   1.177  15.635  0.6006 -0.8013  1.5430
  266TMC3    C7 4031   4.637   1.209  15.500  0.5477 -0.0265  0.6202
  266TMC3    C8 4032   4.247   0.966  15.653 -0.2399 -0.1811  0.1346
  266TMC3    O1 4033   0.023   1.186  15.467  0.0678  0.0433 -0.0656
  266TMC3    O2 4034   4.171   0.873  15.620 -0.0822  0.2224  0.7126
  267MPD2     C 4035   1.663   2.073   0.056 -0.7231  0.0812  0.2423
  267MPD2    C1 4036   1.776   2.033  17.693 -0.6970  0.6672  0.4728
  267MPD2    C2 4037   1.765   1.923  17.600  0.3132 -0.3170 -0.3492
  267MPD2    C3 4038   1.645   1.855  17.587  0.2164  1.2009 -0.5509
  267MPD2    C4 4039   1.534   1.899  17.653  0.5573 -0.5187 -0.3289
  267MPD2    C5 4040   1.545   2.003   0.038  0.2065  0.0005  0.6041
  267MPD2     H 4041   1.844   1.888  17.535 -0.2684 -5.0382  1.4507
  267MPD2    H1 4042   1.432   1.875  17.625 -0.2363  0.7524  1.5062
  267MPD2    H2 4043   1.664   2.156   0.126 -0.8612  2.2374 -2.2876
  267MPD2    H3 4044   1.453   2.035   0.087 -0.0595 -0.5604  0.4764
  267MPD2     N 4045   1.620   1.747  17.499  0.2550  0.5163 -0.1211
  267MPD2    H5 4046   1.533   1.698  17.517  0.5420  0.9320  2.2892
  267MPD2    N1 4047   1.892   2.113  17.695 -0.2971  0.5009 -0.7668
  267MPD2    H7 4048   1.891   2.198   0.042 -0.3077  0.8883 -1.3758
  268TMC3    C1 4049   2.111   2.196  17.662  0.1729 -0.4301  0.5076
  268TMC3    C2 4050   2.200   2.227  17.565  0.0392  0.1238  0.3074
  268TMC3    C3 4051   2.331   2.267  17.608 -0.0741 -0.1862  0.7324
  268TMC3    C4 4052   2.147   2.190   0.091 -0.1661  0.2613 -0.4802
  268TMC3    C5 4053   2.271   2.241   0.126  0.1587  1.0017  0.1445
  268TMC3    C6 4054   2.365   2.285   0.038 -0.0774 -0.0195  0.6111
  268TMC3     C 4055   2.010   2.096  17.626 -0.1318 -0.3346  0.0591
  268TMC3     O 4056   2.028   2.026  17.526  0.1893 -0.6468 -0.0843
  268TMC3     H 4057   2.181   2.199  17.462  0.2346  2.6960 -0.4341
  268TMC3    H1 4058   2.079   2.155   0.167  1.3585 -1.1585  0.2383
  268TMC3    H2 4059   2.461   2.315   0.077  0.2471  0.0017 -0.2063
  268TMC3    C7 4060   2.327   2.215   0.257  0.0428  0.0011  0.1658
  268TMC3    C8 4061   2.415   2.337  17.516 -0.3687 -0.1219 -0.6212
  268TMC3    O1 4062   2.318   2.104   0.302 -0.5656  0.1331 -0.4266
  268TMC3    O2 4063   2.518   2.385  17.561  0.3420 -0.0207 -0.2523
  269MPD2     C 4064   2.507   0.603  15.508  0.5027  1.2275 -0.1430
  269MPD2    C1 4065   2.380   0.597  15.552 -0.5284  0.3359  1.0171
  269MPD2    C2 4066   2.308   0.716  15.560 -0.3007 -0.1785 -0.2219
  269MPD2    C3 4067   2.356   0.820  15.485  0.4138  0.0993  0.6065
  269MPD2    C4 4068   2.486   0.814  15.433  0.3439 -0.5667 -0.3835
  269MPD2    C5 4069   2.567   0.708  15.453 -0.3371 -0.3611  0.4174
  269MPD2     H 4070   2.211   0.715  15.609  0.3906 -1.4353  1.1078
  269MPD2    H1 4071   2.525   0.900  15.379 -1.2142  0.4924  0.1616
  269MPD2    H2 4072   2.565   0.513  15.524  1.1263  1.5872 -0.3994
  269MPD2    H3 4073   2.672   0.717  15.428  0.2852 -1.4188  2.6664
  269MPD2     N 4074   2.278   0.939  15.480  0.7388  0.2561  0.5889
  269MPD2    H5 4075   2.183   0.940  15.517  0.6244  2.6832  0.2531
  269MPD2    N1 4076   2.331   0.465  15.588  0.1848 -0.2242  0.3895
  269MPD2    H7 4077   2.396   0.387  15.588 -1.4405 -1.5881 -0.0099
  270TMC3    C1 4078   2.184   0.292  15.613 -0.0603  0.0022 -0.1104
  270TMC3    C2 4079   2.058   0.246  15.587 -0.1594 -0.5175 -0.9839
  270TMC3    C3 4080   2.025   0.109  15.596  0.4287  0.6334 -0.1479
  270TMC3    C4 4081   2.293   0.207  15.639 -0.0652 -0.8637 -0.2085
  270TMC3    C5 4082   2.263   0.073  15.648  0.3707  0.0613 -0.8759
  270TMC3    C6 4083   2.129   0.024  15.635 -0.6404  0.0578  0.1673
  270TMC3     C 4084   2.200   0.436  15.607 -0.0648  0.0258 -0.5033
  270TMC3     O 4085   2.101   0.511  15.603 -0.1859  0.1957 -0.0537
  270TMC3     H 4086   1.974   0.311  15.565 -0.9667 -0.7868  1.3644
  270TMC3    H1 4087   2.398   0.230  15.641 -0.0736 -1.2350  3.3919
  270TMC3    H2 4088   2.095   4.648  15.626 -2.7214  0.8044 -0.6630
  270TMC3    C7 4089   2.360   4.703  15.610 -0.6721 -0.3766  0.0979
  270TMC3    C8 4090   1.930   0.074  15.496  0.4399 -0.2132 -0.1683
  270TMC3    O1 4091   2.469   0.013  15.573  0.5531  0.1321  0.4580
  270TMC3    O2 4092   1.886   0.167  15.423  0.2090  0.2196  0.7669
  271MPD2     C 4093   1.605   0.400  13.775  0.8534 -0.0477 -0.5386
  271MPD2    C1 4094   1.544   0.448  13.889  0.2887 -0.1246  0.0673
  271MPD2    C2 4095   1.435   0.533  13.875  0.5548 -0.3808  0.1612
  271MPD2    C3 4096   1.404   0.594  13.748 -0.2922 -1.0176  0.2864
  271MPD2    C4 4097   1.470   0.551  13.640  0.3095  0.2544  0.0454
  271MPD2    C5 4098   1.570   0.458  13.650 -0.6049 -0.8630 -0.0650
  271MPD2     H 4099   1.392   0.564  13.969 -1.5185 -1.4557 -0.4222
  271MPD2    H1 4100   1.448   0.585  13.539 -0.4796 -0.1574  0.0866
  271MPD2    H2 4101   1.686   0.329  13.762  0.8000  0.2477 -2.5995
  271MPD2    H3 4102   1.612   0.409  13.563  0.2374  0.6630 -0.5125
  271MPD2     N 4103   1.305   0.693  13.731  0.1066 -0.0160  0.1978
  271MPD2    H5 4104   1.283   0.731  13.639 -0.8747  1.3521  0.9946
  271MPD2    N1 4105   1.576   0.397  14.018 -0.2761 -0.0485  0.9543
  271MPD2    H7 4106   1.508   0.412  14.091 -1.5152  0.0365 -0.2120
  272TMC3    C1 4107   1.684   0.261  14.182  0.4794  0.8734 -0.1725
  272TMC3    C2 4108   1.769   0.151  14.202 -0.0892 -0.1006  0.4289
  272TMC3    C3 4109   1.756   0.075  14.312 -0.3161  0.3711  0.5384
  272TMC3    C4 4110   1.592   0.286  14.278  0.2442 -0.2016 -0.1913
  272TMC3    C5 4111   1.579   0.208  14.387 -0.3530  0.2126 -0.3837
  272TMC3    C6 4112   1.660   0.100  14.408  0.2365  0.4573 -0.7499
  272TMC3     C 4113   1.675   0.309  14.045 -0.3629  0.6291 -0.2382
  272TMC3     O 4114   1.767   0.276  13.969  0.6138  0.0928  0.0058
  272TMC3     H 4115   1.836   0.115  14.125 -0.2596  1.2694 -0.3652
  272TMC3    H1 4116   1.529   0.375  14.280  1.0317  0.2776  4.8313
  272TMC3    H2 4117   1.649   0.046  14.501  0.7736  0.4252 -0.7066
  272TMC3    C7 4118   1.508   0.256  14.501 -0.0566  1.0157 -0.5573
  272TMC3    C8 4119   1.864   0.002  14.369 -0.1056  0.2658 -0.2978
  272TMC3    O1 4120   1.389   0.302  14.500 -0.5823  0.6991  0.0608
  272TMC3    O2 4121   1.838   4.638  14.447 -0.4352  0.0660  0.0843
  273MPD2     C 4122   2.976   2.678  11.806 -0.1530 -0.3782  0.0080
  273MPD2    C1 4123   2.971   2.816  11.828  0.8372 -0.0277 -0.4495
  273MPD2    C2 4124   2.951   2.893  11.718  0.6459 -0.1148 -0.1206
  273MPD2    C3 4125   2.933   2.840  11.593  0.2809  0.3502 -0.0838
  273MPD2    C4 4126   2.923   2.701  11.584 -0.5082 -0.7600  0.3988
  273MPD2    C5 4127   2.947   2.619  11.689 -0.0098  0.2263 -0.1734
  273MPD2     H 4128   2.962   3.000  11.738 -0.2651  0.0962 -0.8012
  273MPD2    H1 4129   2.907   2.654  11.488 -3.4112 -1.3263  1.1814
  273MPD2    H2 4130   3.004   2.609  11.884  1.3873 -0.2554 -0.4434
  273MPD2    H3 4131   2.948   2.511  11.683 -1.3430  0.2490 -0.9453
  273MPD2     N 4132   2.909   2.929  11.476  0.0836  0.1531  0.1035
  273MPD2    H5 4133   2.861   2.898  11.392  1.9295 -0.2868 -0.7822
  273MPD2    N1 4134   2.985   2.862  11.960  0.5704 -0.4156  0.2909
  273MPD2    H7 4135   2.993   2.793  12.034 -0.4335  0.2689  1.0441
  274TMC3    C1 4136   2.883   3.145  11.365  0.1037  0.3966 -0.4312
  274TMC3    C2 4137   2.768   3.108  11.302 -0.2028 -0.0874 -0.0675
  274TMC3    C3 4138   2.675   3.211  11.270 -0.3361 -0.1216  0.0704
  274TMC3    C4 4139   2.935   3.268  11.353 -0.2201 -0.1475  0.3968
  274TMC3    C5 4140   2.850   3.365  11.303 -0.7727  0.5925  0.0951
  274TMC3    C6 4141   2.727   3.338  11.251  0.3346 -0.1520  0.5987
  274TMC3     C 4142   2.939   3.062  11.477  0.3573  0.4076  0.5535
  274TMC3     O 4143   3.009   3.124  11.556  0.3822  0.0669 -0.3350
  274TMC3     H 4144   2.732   3.006  11.299 -0.5299 -0.0696  2.8852
  274TMC3    H1 4145   3.017   3.306  11.413  0.3133 -0.4455 -0.1332
  274TMC3    H2 4146   2.654   3.417  11.235 -0.1318 -1.0833 -1.9510
  274TMC3    C7 4147   2.891   3.496  11.348 -0.3360 -0.2897 -0.0056
  274TMC3    C8 4148   2.552   3.181  11.205  0.4391 -0.3664 -0.0090
  274TMC3    O1 4149   2.834   3.545  11.443 -0.2699  0.9423  0.2753
  274TMC3    O2 4150   2.525   3.269  11.123  0.7966  0.7616  0.3163
  275MPD2     C 4151   3.132   1.281  14.618 -0.1112  0.1929 -0.0378
  275MPD2    C1 4152   3.018   1.338  14.668 -0.0054 -0.2691  0.0719
  275MPD2    C2 4153   2.894   1.271  14.661 -0.6864 -0.1528 -0.1562
  275MPD2    C3 4154   2.880   1.143  14.612  0.1168  0.4249 -0.4546
  275MPD2    C4 4155   2.995   1.085  14.555 -0.4081 -0.7792 -0.5180
  275MPD2    C5 4156   3.120   1.155  14.560  0.3748  0.2187  0.1637
  275MPD2     H 4157   2.804   1.327  14.687 -0.3047  1.0584 -1.4171
  275MPD2    H1 4158   2.995   0.989  14.505  0.0033 -1.4165  0.6975
  275MPD2    H2 4159   3.226   1.331  14.636 -0.5625  0.8263  0.5776
  275MPD2    H3 4160   3.207   1.105  14.518  0.2421  0.2781 -0.1806
  275MPD2     N 4161   2.766   1.062  14.615 -0.8642 -0.1662 -0.0607
  275MPD2    H5 4162   2.769   0.968  14.579  0.4608 -0.3936  0.6709
  275MPD2    N1 4163   3.017   1.470  14.728 -0.3729 -0.4707 -0.5528
  275MPD2    H7 4164   2.936   1.498  14.783  0.1114 -0.3685  0.0977
  276TMC3    C1 4165   3.107   1.655  14.847 -0.5163 -0.6211  0.4089
  276TMC3    C2 4166   2.999   1.644  14.931 -0.1515 -0.0422 -0.6328
  276TMC3    C3 4167   3.012   1.706  15.051 -0.2016  0.6987  0.6018
  276TMC3    C4 4168   3.228   1.720  14.876 -0.5141  0.5903 -0.0209
  276TMC3    C5 4169   3.224   1.789  14.998 -0.5214 -0.7657 -0.4906
  276TMC3    C6 4170   3.118   1.785  15.085  0.1069  0.8799 -0.1890
  276TMC3     C 4171   3.119   1.559  14.733 -0.2055 -0.0179  0.0407
  276TMC3     O 4172   3.229   1.551  14.676  0.4964 -0.0106  0.1058
  276TMC3     H 4173   2.907   1.593  14.906 -0.8359  0.2322  1.3201
  276TMC3    H1 4174   3.311   1.714  14.806  0.3295  1.4399  0.9159
  276TMC3    H2 4175   3.122   1.850  15.171  0.6590  0.3001  0.2293
  276TMC3    C7 4176   3.338   1.859  15.038  0.5339  0.1880  0.1151
  276TMC3    C8 4177   2.956   1.629  15.158 -0.3953  0.1966  0.5228
  276TMC3    O1 4178   3.323   1.932  15.136 -1.2322  0.3115  0.5577
  276TMC3    O2 4179   2.924   1.681  15.266 -0.3761  0.3210  0.0637
  277MPD2     C 4180   0.412   0.005  13.068 -0.8416 -0.3715 -0.5240
  277MPD2    C1 4181   0.392   0.115  13.143  0.3811  0.1344  0.5221
  277MPD2    C2 4182   0.327   0.112  13.266  0.2081  0.2424  0.3955
  277MPD2    C3 4183   0.276   4.714  13.313 -0.6060 -0.1968  0.1710
  277MPD2    C4 4184   0.301   4.602  13.248  0.3782 -0.0548  0.6131
  277MPD2    C5 4185   0.365   4.615  13.122 -0.4642  1.1666 -0.6443
  277MPD2     H 4186   0.307   0.203  13.321  0.1763 -0.5996  1.7761
  277MPD2    H1 4187   0.278   4.503  13.284 -2.0004  0.6271  0.9602
  277MPD2    H2 4188   0.460   0.002  12.972  0.4836 -0.1197  0.1338
  277MPD2    H3 4189   0.385   4.524  13.068  0.2331  0.7265  0.3469
  277MPD2     N 4190   0.201   4.696  13.429  0.3077 -0.4927 -0.0834
  277MPD2    H5 4191   0.160   4.604  13.440  1.2950 -0.9240 -0.0049
  277MPD2    N1 4192   0.449   0.237  13.089 -0.1251 -0.0791  0.1528
  277MPD2    H7 4193   0.499   0.233  13.001 -0.4594  1.5386 -0.1074
  278TMC3    C1 4194   0.073   0.029  13.628 -0.0011  0.0699 -0.4060
  278TMC3    C2 4195   0.021   4.636  13.652  0.5545 -0.2899 -0.3049
  278TMC3    C3 4196   4.629   4.624  13.717 -0.6910 -0.3159 -0.1672
  278TMC3    C4 4197   0.011   0.138  13.678  0.4824  0.9437  0.5653
  278TMC3    C5 4198   4.620   0.125  13.737  0.6274  0.5447 -0.1524
  278TMC3    C6 4199   4.560   0.002  13.757  0.0213 -0.2480 -0.4908
  278TMC3     C 4200   0.177   0.060  13.525 -0.4577  0.9576  0.7502
  278TMC3     O 4201   0.218   0.175  13.524 -0.2616  0.0829  0.5999
  278TMC3     H 4202   0.075   4.547  13.620  0.4324 -0.6866  0.5933
  278TMC3    H1 4203   0.057   0.236  13.665  3.7844 -0.9344 -1.9555
  278TMC3    H2 4204   4.458   4.710  13.791  0.4604  0.2740  1.1286
  278TMC3    C7 4205   4.553   0.244  13.777  0.9541  0.1010 -0.2516
  278TMC3    C8 4206   4.544   4.507  13.693  0.7050 -0.9079 -0.1035
  278TMC3    O1 4207   4.619   0.347  13.771 -0.5093 -0.6275  0.0017
  278TMC3    O2 4208   4.423   4.514  13.703  0.4373  0.1714 -0.5544
  279MPD2     C 4209   3.589   4.466   0.380 -0.3761  0.2531  0.3644
  279MPD2    C1 4210   3.527   4.587   0.394 -0.9352 -0.2533  0.0122
  279MPD2    C2 4211   3.610   4.700   0.394 -0.3204  0.3070  0.8852
  279MPD2    C3 4212   3.752   4.692   0.395 -0.8885  0.3163  1.0208
  279MPD2    C4 4213   3.805   4.569   0.402 -0.0373 -0.2022 -0.3163
  279MPD2    C5 4214   3.727   4.456   0.379  0.2684 -0.5180  0.2057
  279MPD2     H 4215   3.568   0.071   0.373  0.6164  0.6047  0.3821
  279MPD2    H1 4216   3.912   4.560   0.416 -0.3261 -1.5754  1.0051
  279MPD2    H2 4217   3.529   4.376   0.384 -1.2952  0.9639  2.5308
  279MPD2    H3 4218   3.769   4.357   0.375  0.4793 -0.4009 -0.5396
  279MPD2     N 4219   3.830   0.082   0.393 -0.2309  0.8216  0.1422
  279MPD2    H5 4220   3.925   0.070   0.360 -0.1508  1.8238  0.0124
  279MPD2    N1 4221   3.387   4.596   0.369 -0.1091 -0.9867  0.4052
  279MPD2    H7 4222   3.348   4.514   0.322 -0.8058 -0.2544 -0.3058
  280TMC3    C1 4223   3.200   0.002   0.304  0.6065 -0.4863  0.1520
  280TMC3    C2 4224   3.153   4.617   0.238  0.0762  0.3623 -0.2411
  280TMC3    C3 4225   3.094   4.632   0.117  0.2494 -0.3306  0.5837
  280TMC3    C4 4226   3.176   0.132   0.257 -0.3505 -0.0994 -0.4904
  280TMC3    C5 4227   3.111   0.141   0.128  0.3362 -0.3817 -0.3940
  280TMC3    C6 4228   3.068   0.030   0.062  0.3669 -0.1946  0.4973
  280TMC3     C 4229   3.319   4.716   0.382 -0.6492 -0.6807  0.3231
  280TMC3     O 4230   3.349   0.091   0.440 -0.3288 -0.1333 -0.2003
  280TMC3     H 4231   3.152   4.522   0.291  2.4646 -0.6059 -1.9281
  280TMC3    H1 4232   3.208   0.222   0.309 -2.7138  1.1876 -1.2640
  280TMC3    H2 4233   3.016   0.032  17.675 -0.9176 -1.5757  1.1740
  280TMC3    C7 4234   3.115   0.276   0.076 -0.2890 -1.1338  0.2334
  280TMC3    C8 4235   3.017   4.514   0.076 -0.4179  0.5914  0.4351
  280TMC3    O1 4236   3.184   0.359   0.136 -0.8592 -0.5560 -0.3894
  280TMC3    O2 4237   2.914   4.551   0.016  0.0218 -0.0732  0.2410
  281TMC3    C1 4238   2.124   0.995  13.615  0.2445  0.2974  0.8359
  281TMC3    C2 4239   2.110   1.068  13.501 -0.2738  0.0797  0.0036
  281TMC3    C3 4240   2.064   1.007  13.387  0.0863 -0.5966 -0.4385
  281TMC3    C4 4241   2.090   0.858  13.627 -0.3301  0.1233  0.3255
  281TMC3    C5 4242   2.043   0.804  13.511  0.3345 -0.5001 -0.1648
  281TMC3    C6 4243   2.036   0.872  13.393 -0.2325 -0.1228 -0.1948
  281TMC3     C 4244   2.218   1.040  13.713  0.5243 -0.1839 -0.3948
  281TMC3     O 4245   2.262   0.951  13.787 -0.2409  0.2949 -0.5144
  281TMC3     H 4246   2.163   1.163  13.492  0.1568 -0.2377 -0.8369
  281TMC3    H1 4247   2.081   0.810  13.724 -1.5324  0.2970  0.3075
  281TMC3    H2 4248   2.007   0.816  13.305 -0.0582  0.2546 -0.4915
  281TMC3    C7 4249   2.004   0.663  13.506  0.6397  0.0994  0.0527
  281TMC3    C8 4250   2.032   1.079  13.272 -0.4964  0.1890  0.0201
  281TMC3    O1 4251   1.934   0.621  13.411 -0.6966  0.0414  0.4231
  281TMC3    O2 4252   2.004   1.007  13.179  0.2643 -0.0183  0.1172
  282MPD2     C 4253   4.726   2.375  15.101  0.0377  0.1077  0.1433
  282MPD2    C1 4254   4.599   2.424  15.104  0.0158 -0.2769 -0.3226
  282MPD2    C2 4255   4.510   2.398  15.005 -0.2583  0.5202  0.1061
  282MPD2    C3 4256   4.539   2.316  14.904 -0.4387 -0.1620  0.3317
  282MPD2    C4 4257   4.664   2.253  14.905 -0.4388 -0.3781 -0.0177
  282MPD2    C5 4258   0.025   2.276  15.010 -0.7678 -0.0580  1.5148
  282MPD2     H 4259   4.416   2.452  15.005 -2.5735 -3.4758  2.5463
  282MPD2    H1 4260   4.690   2.179  14.831  0.1638 -2.5567  2.3539
  282MPD2    H2 4261   0.080   2.390  15.172 -0.0484  1.9284 -0.1448
  282MPD2    H3 4262   0.113   2.213  15.017  0.6637  1.7929  0.3342
  282MPD2     N 4263   4.434   2.296  14.809 -0.3626  0.0717 -0.1391
  282MPD2    H5 4264   4.346   2.344  14.821 -0.6260 -0.5695  0.5247
  282MPD2    N1 4265   4.554   2.512  15.205 -0.6017 -0.2608  0.0322
  282MPD2    H7 4266   4.459   2.545  15.196 -0.8144 -0.8463  0.1220
  283TMC3    C1 4267   4.552   2.628  15.403  0.5480 -0.2177  0.0530
  283TMC3    C2 4268   4.592   2.748  15.450 -0.0466  0.1689 -0.2084
  283TMC3    C3 4269   4.560   2.778  15.582  0.6526  0.6453  0.2108
  283TMC3    C4 4270   4.473   2.538  15.473  0.3544  0.0856  0.3430
  283TMC3    C5 4271   4.439   2.573  15.599 -0.9868 -0.5563 -0.5825
  283TMC3    C6 4272   4.489   2.686  15.661  0.2267  0.5882  0.0453
  283TMC3     C 4273   4.629   2.559  15.306  0.8016 -0.3244 -0.0815
  283TMC3     O 4274   0.024   2.544  15.319  0.1698 -0.6057 -0.0302
  283TMC3     H 4275   4.667   2.797  15.389  1.2210  0.0966  1.2825
  283TMC3    H1 4276   4.436   2.452  15.418 -0.4729  0.3219  0.5262
  283TMC3    H2 4277   4.464   2.708  15.764  0.4481  0.1839  0.1854
  283TMC3    C7 4278   4.388   2.465  15.689 -0.4649 -0.1647 -0.2646
  283TMC3    C8 4279   4.579   2.919  15.619 -0.1335  0.0399  0.1422
  283TMC3    O1 4280   4.327   2.496  15.787 -0.2963 -0.3909 -0.2293
  283TMC3    O2 4281   4.544   2.958  15.730 -0.4106 -0.7560 -0.0848
  284MPD2     C 4282   2.530   1.170  11.498 -0.2181  0.2565 -0.4278
  284MPD2    C1 4283   2.655   1.171  11.553 -0.2794 -0.2897 -0.6676
  284MPD2    C2 4284   2.672   1.094  11.669 -0.5444 -0.1116  0.0416
  284MPD2    C3 4285   2.576   1.010  11.718  0.3542  0.5429  0.2405
  284MPD2    C4 4286   2.449   1.016  11.660  0.1639  0.4531 -0.7076
  284MPD2    C5 4287   2.432   1.093  11.550 -0.5218 -0.5328 -0.4931
  284MPD2     H 4288   2.762   1.100  11.729  0.9355  0.1920 -2.1784
  284MPD2    H1 4289   2.369   0.948  11.687  0.1569  1.0805  0.8693
  284MPD2    H2 4290   2.506   1.235  11.415 -3.7636 -1.1288 -0.4942
  284MPD2    H3 4291   2.335   1.102  11.502 -0.7594 -1.4468 -0.1714
  284MPD2     N 4292   2.604   0.943  11.836 -0.2099 -0.0313  1.0672
  284MPD2    H5 4293   2.701   0.947  11.866  0.3639  0.9513 -0.9285
  284MPD2    N1 4294   2.771   1.241  11.508  0.1060 -0.5554 -0.2606
  284MPD2    H7 4295   2.855   1.237  11.564 -1.2084 -0.7980  1.6942
  285TMC3    C1 4296   2.923   1.358  11.371 -0.3357  0.1681  0.0570
  285TMC3    C2 4297   3.021   1.265  11.402  0.6437  0.0613  0.0392
  285TMC3    C3 4298   3.144   1.294  11.360 -0.4743  0.5365 -0.0847
  285TMC3    C4 4299   2.945   1.461  11.281  0.3064 -0.2694 -0.3517
  285TMC3    C5 4300   3.075   1.489  11.257  0.3797 -0.1028 -0.2362
  285TMC3    C6 4301   3.176   1.405  11.291  0.4564  0.4112  0.0283
  285TMC3     C 4302   2.783   1.317  11.394  0.5596 -0.0648  0.7592
  285TMC3     O 4303   2.693   1.357  11.317  0.1340  0.1652 -0.1727
  285TMC3     H 4304   2.996   1.175  11.458  2.8792 -0.3860  0.3279
  285TMC3    H1 4305   2.866   1.527  11.246  1.2131 -0.0402 -1.9515
  285TMC3    H2 4306   3.277   1.414  11.253 -0.0105 -1.1092 -1.5789
  285TMC3    C7 4307   3.107   1.618  11.193 -0.2741 -0.2241  0.2329
  285TMC3    C8 4308   3.225   1.171  11.339 -0.7204  0.5787 -0.0751
  285TMC3    O1 4309   3.218   1.660  11.224  0.1394  0.0086  0.4942
  285TMC3    O2 4310   3.172   1.068  11.367 -0.0503  0.2655  0.1965
  286MPD2     C 4311   2.025   0.258   1.629  0.1287  0.3641 -0.7549
  286MPD2    C1 4312   2.047   0.222   1.499  0.3454  0.9507 -0.1699
  286MPD2    C2 4313   2.130   0.113   1.471  0.0594 -0.6135  0.2966
  286MPD2    C3 4314   2.190   0.038   1.570 -0.4977  0.4535  0.0230
  286MPD2    C4 4315   2.174   0.079   1.696  0.2509  1.2029 -0.0325
  286MPD2    C5 4316   2.091   0.186   1.722  0.4160 -0.7487 -0.7422
  286MPD2     H 4317   2.140   0.075   1.370 -2.2522  0.0609 -0.1784
  286MPD2    H1 4318   2.208   0.029   1.786  4.1721 -0.0731 -2.2394
  286MPD2    H2 4319   1.953   0.334   1.656 -1.3494 -0.9561 -0.9220
  286MPD2    H3 4320   2.067   0.203   1.827  0.0341  1.0056 -1.1168
  286MPD2     N 4321   2.273   4.653   1.545 -0.4519  0.1105  0.2559
  286MPD2    H5 4322   2.322   4.621   1.628 -1.2746 -0.0313  0.6884
  286MPD2    N1 4323   1.986   0.287   1.400 -0.7095 -0.0230 -0.2311
  286MPD2    H7 4324   2.015   0.259   1.306 -1.1657  1.0617 -0.6879
  287TMC3    C1 4325   2.373   4.472   1.433 -0.0866 -0.0306  0.0245
  287TMC3    C2 4326   2.376   4.392   1.319  0.2166  0.0966  0.2758
  287TMC3    C3 4327   2.454   4.282   1.315 -0.3708 -0.3214 -0.6205
  287TMC3    C4 4328   2.461   4.452   1.537 -0.5371  0.0679 -0.1046
  287TMC3    C5 4329   2.554   4.350   1.528  0.7364 -0.3325  0.5404
  287TMC3    C6 4330   2.547   4.260   1.420  0.6759  0.4567 -0.6558
  287TMC3     C 4331   2.292   4.592   1.427  0.4270  0.1410 -0.1105
  287TMC3     O 4332   2.243   4.607   1.311 -0.2689 -0.5198 -0.2277
  287TMC3     H 4333   2.308   4.412   1.238  0.5995  0.2396 -0.0087
  287TMC3    H1 4334   2.476   4.527   1.614 -2.4124  0.1290  0.1945
  287TMC3    H2 4335   2.616   4.179   1.401  0.9956  0.3611  0.9211
  287TMC3    C7 4336   2.672   4.366   1.599  1.0765  0.5223  0.0610
  287TMC3    C8 4337   2.491   4.227   1.184 -0.1943  0.2075 -0.6328
  287TMC3    O1 4338   2.691   4.460   1.673 -0.1097  0.3903  0.3644
  287TMC3    O2 4339   2.548   4.122   1.185 -0.5259 -0.2248 -0.0677
  288TMC3    C1 4340   0.255   0.304  14.914 -0.7424 -0.0483 -0.4927
  288TMC3    C2 4341   0.137   0.318  14.975 -0.0996  0.1073 -0.1429
  288TMC3    C3 4342   0.046   0.412  14.933  1.1241  0.2809  0.5583
  288TMC3    C4 4343   0.282   0.379  14.811  0.2962  0.0204 -0.0397
  288TMC3    C5 4344   0.191   0.479  14.771  0.4266 -0.5099  0.2206
  288TMC3    C6 4345   0.069   0.498  14.835 -0.1888  0.3480 -1.1631
  288TMC3     C 4346   0.338   0.186  14.951  0.3945 -0.3631  0.6376
  288TMC3     O 4347   0.301   0.118  15.045 -0.3289 -0.1812  0.2726
  288TMC3     H 4348   0.112   0.255  15.059  0.2383 -1.1610 -0.9910
  288TMC3    H1 4349   0.385   0.381  14.775  0.3760  0.5115  0.2111
  288TMC3    H2 4350   0.006   0.580  14.802 -3.2769 -2.1169 -1.3849
  288TMC3    C7 4351   0.213   0.549  14.652  0.3622  0.4795 -0.1401
  288TMC3    C8 4352   4.640   0.413  14.981 -0.2436  0.3068 -0.1402
  288TMC3    O1 4353   0.174   0.667  14.639 -0.0719  0.4148  0.0133
  288TMC3    O2 4354   4.584   0.522  14.993 -0.2531 -0.1059 -0.3101
  289MPD2     C 4355   0.210   3.982  14.031 -0.2400  0.3227 -0.3191
  289MPD2    C1 4356   0.166   4.110  13.998  0.0043  0.7939  0.5617
  289MPD2    C2 4357   0.028   4.141  13.991  0.5990  0.1922  0.5791
  289MPD2    C3 4358   4.668   4.040  14.022 -0.2690  0.1580 -0.0066
  289MPD2    C4 4359   4.714   3.914  14.059  0.3229 -0.4032 -0.2903
  289MPD2    C5 4360   0.118   3.883  14.056 -0.4475  0.0919  0.0694
  289MPD2     H 4361   4.714   4.240  13.977  2.1240  0.7352  0.0032
  289MPD2    H1 4362   4.639   3.838  14.074  0.3213 -0.6852 -1.7664
  289MPD2    H2 4363   0.315   3.957  14.041  0.0601  1.0998 -1.4807
  289MPD2    H3 4364   0.155   3.784  14.081  3.1577  1.3364 -0.4398
  289MPD2     N 4365   4.528   4.062  14.006  0.1203 -0.6190 -0.1445
  289MPD2    H5 4366   4.472   3.977  14.008  2.3684 -2.0328  2.3305
  289MPD2    N1 4367   0.267   4.208  13.987  0.1802 -0.0707 -0.1353
  289MPD2    H7 4368   0.365   4.190  14.008  0.0187  0.3416  0.9888
  290TMC3    C1 4369   4.344   4.181  13.918 -0.3964  0.2341  0.3744
  290TMC3    C2 4370   4.276   4.294  13.938  0.4934 -0.1447 -0.1560
  290TMC3    C3 4371   4.151   4.306  13.880  0.4639  0.0249 -0.4157
  290TMC3    C4 4372   4.289   4.068  13.864  0.0764  0.0222 -0.8332
  290TMC3    C5 4373   4.153   4.071  13.825 -0.3701  0.1887  0.7038
  290TMC3    C6 4374   4.083   4.188  13.834  0.5084 -0.2678 -0.1908
  290TMC3     C 4375   4.470   4.183  13.986 -0.2107  0.1615 -0.3322
  290TMC3     O 4376   4.508   4.290  14.029 -0.6317  0.3366 -0.0509
  290TMC3     H 4377   4.309   4.375  14.002 -0.7627 -0.3085  0.7092
  290TMC3    H1 4378   4.351   3.980  13.852 -1.3745 -1.2919  1.4361
  290TMC3    H2 4379   3.978   4.201  13.810  0.1390 -1.1089  0.9612
  290TMC3    C7 4380   4.101   3.957  13.756  0.4355 -0.0145 -0.5861
  290TMC3    C8 4381   4.093   4.430  13.893  1.0644  0.1162 -0.2535
  290TMC3    O1 4382   3.992   3.977  13.699 -0.3924  0.4519  0.4384
  290TMC3    O2 4383   3.970   4.422  13.906  0.2937 -0.7749  0.5786
  291MPD2     C 4384   4.246   3.395   0.777  0.2547  0.6116 -0.0478
  291MPD2    C1 4385   4.221   3.278   0.711 -0.0688  0.4742 -0.7244
  291MPD2    C2 4386   4.324   3.216   0.640  0.0165  0.5410 -0.1164
  291MPD2    C3 4387   4.443   3.278   0.630 -0.3245 -0.1822 -0.1886
  291MPD2    C4 4388   4.473   3.385   0.710 -0.4913 -0.0752 -0.0664
  291MPD2    C5 4389   4.372   3.448   0.790 -0.1392  0.0012  0.2187
  291MPD2     H 4390   4.300   3.128   0.581  1.5249 -1.6707  2.5935
  291MPD2    H1 4391   4.569   3.435   0.701 -0.1354 -0.7092  0.2362
  291MPD2    H2 4392   4.162   3.432   0.834 -1.2778 -2.1572 -0.5100
  291MPD2    H3 4393   4.377   3.533   0.857 -1.8931 -0.8560  1.4619
  291MPD2     N 4394   4.548   3.230   0.547  0.4414  0.1545  0.0206
  291MPD2    H5 4395   4.641   3.267   0.566 -0.2707  1.3323  1.2072
  291MPD2    N1 4396   4.086   3.229   0.714 -0.2377 -0.4138  0.4795
  291MPD2    H7 4397   4.016   3.296   0.744 -2.0967 -1.9568 -0.3650
  292TMC3    C1 4398   3.910   3.083   0.671  0.4390  0.3120  0.4498
  292TMC3    C2 4399   3.819   3.174   0.720 -0.2003 -0.0405  0.1926
  292TMC3    C3 4400   3.695   3.159   0.673  0.3706 -0.1668 -0.0153
  292TMC3    C4 4401   3.880   2.999   0.571  0.3963  0.2448 -0.2794
  292TMC3    C5 4402   3.753   2.994   0.519 -0.4024  0.4582  0.0027
  292TMC3    C6 4403   3.657   3.083   0.570  0.2157 -0.3061  0.7383
  292TMC3     C 4404   4.055   3.101   0.681 -0.4965 -0.1397 -0.3414
  292TMC3     O 4405   4.124   3.004   0.656 -0.0716  0.5160 -0.2582
  292TMC3     H 4406   3.843   3.234   0.807 -0.7323  0.0238  0.2968
  292TMC3    H1 4407   3.962   2.933   0.542 -0.6221 -1.5433  0.9838
  292TMC3    H2 4408   3.557   3.080   0.526 -0.1228  0.5402  1.4590
  292TMC3    C7 4409   3.738   2.915   0.398  0.3120 -0.2283 -0.8058
  292TMC3    C8 4410   3.593   3.225   0.748 -0.3627 -0.4619  0.5101
  292TMC3    O1 4411   3.844   2.880   0.340 -0.1811  0.3453 -0.0079
  292TMC3    O2 4412   3.623   3.328   0.808 -0.9070  0.8512 -0.2104
  293MPD2     C 4413   1.173   0.448  12.438 -0.4567 -0.3912 -0.5819
  293MPD2    C1 4414   1.160   0.341  12.522 -0.0250  0.0948  0.7604
  293MPD2    C2 4415   1.175   0.360  12.658  0.3731 -0.1269 -0.2399
  293MPD2    C3 4416   1.200   0.490  12.702  0.7208 -0.0006  0.1752
  293MPD2    C4 4417   1.217   0.594  12.619  0.1878 -0.1334  0.7567
  293MPD2    C5 4418   1.203   0.571  12.485  0.0122  0.0978  0.8718
  293MPD2     H 4419   1.142   0.281  12.725  0.4211  1.0128  1.1321
  293MPD2    H1 4420   1.233   0.696  12.653 -0.5124  0.2405 -0.0438
  293MPD2    H2 4421   1.163   0.435  12.331 -1.9140 -0.9665 -0.3809
  293MPD2    H3 4422   1.201   0.658  12.420  4.6169 -2.6887 -3.0094
  293MPD2     N 4423   1.190   0.515  12.841 -0.6706 -0.1522 -0.0274
  293MPD2    H5 4424   1.195   0.436  12.905 -0.9952  1.1515  1.6152
  293MPD2    N1 4425   1.119   0.220  12.457  0.2226 -0.0476  0.0628
  293MPD2    H7 4426   1.121   0.208  12.356  2.6526  2.3307 -0.1715
  294TMC3    C1 4427   1.009   0.013  12.438 -0.2089  0.0910 -0.2093
  294TMC3    C2 4428   0.892   4.681  12.482  0.7908  0.6989 -0.2791
  294TMC3    C3 4429   0.838   4.578  12.402  0.5866 -0.5580 -0.1125
  294TMC3    C4 4430   1.074   4.699  12.326  0.7194 -0.3292  0.8318
  294TMC3    C5 4431   1.016   4.598  12.252  0.1269  0.1184 -0.0043
  294TMC3    C6 4432   0.893   4.540  12.286 -0.9980 -0.2079  0.5768
  294TMC3     C 4433   1.066   0.114  12.526  0.0718 -0.1939  0.6332
  294TMC3     O 4434   1.050   0.096  12.645  0.0651  0.1471  0.1131
  294TMC3     H 4435   0.846   4.720  12.573 -0.1942  2.5329 -1.5609
  294TMC3    H1 4436   1.171   0.014  12.302 -0.9034  1.5328 -2.5262
  294TMC3    H2 4437   0.842   4.462  12.230  1.0064 -1.2176  0.1623
  294TMC3    C7 4438   1.080   4.544  12.135 -0.4528  0.2540 -0.7697
  294TMC3    C8 4439   0.712   4.514  12.463  0.3213  0.1810  0.3788
  294TMC3    O1 4440   1.192   4.590  12.122 -0.5122 -0.1963 -0.7041
  294TMC3    O2 4441   0.695   4.533  12.583  0.3963 -0.0756 -0.0087
  295MPD2     C 4442   0.994   3.669   0.737  0.2452  0.2023  0.0029
  295MPD2    C1 4443   1.049   3.785   0.686  0.4785  0.1729  0.5297
  295MPD2    C2 4444   1.069   3.890   0.767  0.1046 -0.1339 -0.6535
  295MPD2    C3 4445   1.031   3.889   0.905  0.1042 -0.6822 -0.3327
  295MPD2    C4 4446   0.984   3.770   0.951  0.0172 -0.3336  0.1038
  295MPD2    C5 4447   0.970   3.658   0.868 -0.7963  0.0476  1.0519
  295MPD2     H 4448   1.122   3.973   0.723 -0.5946  0.7527  0.1749
  295MPD2    H1 4449   0.957   3.749   1.054  0.0479  0.2942  0.2408
  295MPD2    H2 4450   0.982   3.587   0.667 -1.7629  0.0042  0.5743
  295MPD2    H3 4451   0.926   3.564   0.896  3.2121 -1.3743  2.6074
  295MPD2     N 4452   1.047   4.000   0.990  0.3285  0.7421  0.2425
  295MPD2    H5 4453   1.004   3.990   1.081  1.4003  3.0396  1.0238
  295MPD2    N1 4454   1.101   3.800   0.556 -0.3197  0.6915  0.2750
  295MPD2    H7 4455   1.149   3.886   0.528 -0.5525  0.9562  0.6897
  296TMC3    C1 4456   1.154   4.178   1.088  0.2456 -0.3721 -0.2017
  296TMC3    C2 4457   1.046   4.241   1.148  0.1677  0.4523 -0.1966
  296TMC3    C3 4458   1.025   4.218   1.281  0.9711 -0.7445  0.4064
  296TMC3    C4 4459   1.239   4.097   1.156  0.0279 -0.4978  0.3826
  296TMC3    C5 4460   1.203   4.072   1.289  0.4893  0.1138 -0.7436
  296TMC3    C6 4461   1.098   4.130   1.354  0.7610 -0.4734  0.9392
  296TMC3     C 4462   1.116   4.115   0.961 -0.1977 -0.7637  0.0803
  296TMC3     O 4463   1.144   4.166   0.857  0.0389  0.0391 -0.0832
  296TMC3     H 4464   0.969   4.274   1.079 -1.1146 -1.1821  0.4486
  296TMC3    H1 4465   1.320   4.044   1.106 -0.4501 -1.3552  0.5215
  296TMC3    H2 4466   1.076   4.103   1.456 -1.0440 -1.1759  0.3472
  296TMC3    C7 4467   1.252   3.948   1.343 -0.4095 -0.9057 -0.0723
  296TMC3    C8 4468   0.908   4.290   1.350  0.2523  0.1228  0.5120
  296TMC3    O1 4469   1.373   3.934   1.324  0.0881 -0.3523 -0.1378
  296TMC3    O2 4470   0.879   4.246   1.458 -0.2268  0.1883  0.2394
  297MPD2     C 4471   3.599   1.101  16.177  0.8370 -0.4107 -0.0880
  297MPD2    C1 4472   3.605   1.148  16.045  0.3235  0.1687 -0.1614
  297MPD2    C2 4473   3.704   1.238  16.011 -0.3976  0.0136 -0.5781
  297MPD2    C3 4474   3.797   1.274  16.104  0.3572  0.3843 -0.2685
  297MPD2    C4 4475   3.786   1.231  16.234 -0.3715  0.4409  0.0975
  297MPD2    C5 4476   3.687   1.145  16.279  0.3523  0.4814 -0.0148
  297MPD2     H 4477   3.715   1.281  15.912 -1.5995  0.0937 -0.6692
  297MPD2    H1 4478   3.852   1.264  16.312 -0.9183 -1.1291  1.2141
  297MPD2    H2 4479   3.538   1.017  16.208 -1.8496  0.5948 -2.5777
  297MPD2    H3 4480   3.684   1.114  16.383  0.4859 -0.8852 -0.4216
  297MPD2     N 4481   3.907   1.363  16.080  0.4359 -0.0082 -0.4977
  297MPD2    H5 4482   3.944   1.402  16.166 -0.6981  0.7268 -0.3540
  297MPD2    N1 4483   3.515   1.114  15.946 -0.4727 -0.3139 -0.3336
  297MPD2    H7 4484   3.506   1.186  15.875 -0.3923 -1.5322 -1.5692
  298TMC3    C1 4485   3.314   1.015  15.857  0.1006  0.9210  0.4961
  298TMC3    C2 4486   3.335   1.088  15.742  0.2496  0.4418  0.1110
  298TMC3    C3 4487   3.226   1.112  15.664  0.2293  0.7499  0.1915
  298TMC3    C4 4488   3.188   0.970  15.887 -0.0676  0.1068  0.2580
  298TMC3    C5 4489   3.082   1.003  15.805  0.3284 -0.1714 -0.4017
  298TMC3    C6 4490   3.096   1.069  15.686  0.3669 -0.1058  0.8539
  298TMC3     C 4491   3.404   1.028  15.964 -0.4984  0.1121  0.3309
  298TMC3     O 4492   3.378   0.964  16.067 -0.6765 -0.1826 -0.0748
  298TMC3     H 4493   3.431   1.120  15.704  0.3954 -0.2297 -0.1009
  298TMC3    H1 4494   3.166   0.913  15.977  0.7302 -1.1951 -0.3653
  298TMC3    H2 4495   3.014   1.092  15.618  0.8896  1.6937  0.8190
  298TMC3    C7 4496   2.946   1.000  15.862 -0.1132 -0.3876  0.4202
  298TMC3    C8 4497   3.238   1.173  15.533  0.5325  1.0737 -0.0257
  298TMC3    O1 4498   2.936   0.992  15.985 -0.5171  0.4915 -0.8157
  298TMC3    O2 4499   3.175   1.121  15.445  0.5327 -0.0600 -0.1668
  299MPD2     C 4500   4.319   4.573   9.691 -0.2311 -0.6517  0.5631
  299MPD2    C1 4501   4.352   4.519   9.819 -0.2045 -0.0618  1.1024
  299MPD2    C2 4502   4.271   4.551   9.926  0.3448 -0.0068  0.1766
  299MPD2    C3 4503   4.155   4.624   9.911 -0.0206 -0.0533 -0.0729
  299MPD2    C4 4504   4.127   4.690   9.792  0.0063 -0.0729 -0.0731
  299MPD2    C5 4505   4.207   4.654   9.680 -0.4075 -0.2752  0.2665
  299MPD2     H 4506   4.296   4.507  10.022 -1.3577 -0.6329  0.3255
  299MPD2    H1 4507   4.037   0.021   9.772 -0.3063 -0.7532 -0.6366
  299MPD2    H2 4508   4.375   4.550   9.601  1.2879 -1.2055  1.6505
  299MPD2    H3 4509   4.183   4.697   9.584 -0.6915 -0.2980  0.3286
  299MPD2     N 4510   4.080   4.657  10.029  0.4262  0.3687  0.4354
  299MPD2    H5 4511   3.993   4.709  10.021  1.3397  1.7425 -0.4614
  299MPD2    N1 4512   4.480   4.459   9.830 -0.6421 -0.3507 -0.1534
  299MPD2    H7 4513   4.545   4.486   9.758 -1.1352 -0.5129 -0.6543
  300TMC3    C1 4514   4.029   4.665  10.258  0.3214  0.1962 -0.3202
  300TMC3    C2 4515   4.072   0.073  10.271  0.3125  0.1930 -0.9204
  300TMC3    C3 4516   4.012   0.149  10.381  0.3477  0.1444 -0.6254
  300TMC3    C4 4517   3.945   4.613  10.351 -0.1551  0.4871  0.5710
  300TMC3    C5 4518   3.884   4.690  10.448  0.3370  0.2724 -0.3687
  300TMC3    C6 4519   3.920   0.094  10.465  0.0484  0.0969 -0.7688
  300TMC3     C 4520   4.083   4.590  10.153 -0.5321 -0.0200 -0.6709
  300TMC3     O 4521   4.138   4.481  10.172  0.4167  0.8510  0.2048
  300TMC3     H 4522   4.132   0.123  10.196 -0.0430 -0.3890 -1.5876
  300TMC3    H1 4523   3.895   4.521  10.322  1.0339 -0.3137  1.0776
  300TMC3    H2 4524   3.872   0.157  10.539 -1.2283 -2.4659  0.5945
  300TMC3    C7 4525   3.747   4.652  10.459 -0.3169  0.0715  0.6664
  300TMC3    C8 4526   4.091   0.261  10.438  0.6046  0.5853 -0.1782
  300TMC3    O1 4527   3.689   4.587  10.376 -1.3006 -0.4417 -0.1057
  300TMC3    O2 4528   4.035   0.337  10.517 -0.0985  0.4262  0.8124
  301MPD2     C 4529   1.280   1.831   1.609  0.1605 -0.2079 -0.2863
  301MPD2    C1 4530   1.168   1.756   1.578  0.9383 -0.0521  0.2871
  301MPD2    C2 4531   1.183   1.628   1.527 -0.6960  0.2463 -0.6709
  301MPD2    C3 4532   1.304   1.570   1.495 -0.0781 -0.5615 -0.7806
  301MPD2    C4 4533   1.413   1.652   1.520  0.0163  0.2769 -0.3477
  301MPD2    C5 4534   1.398   1.770   1.584  0.4646 -0.1820  0.6106
  301MPD2     H 4535   1.089   1.583   1.497 -1.0128  0.2938  0.2512
  301MPD2    H1 4536   1.511   1.624   1.484  0.8711 -0.1815  2.3629
  301MPD2    H2 4537   1.274   1.928   1.655 -0.4849 -0.9325  1.1605
  301MPD2    H3 4538   1.487   1.832   1.590  0.0092  0.3704  1.6094
  301MPD2     N 4539   1.315   1.453   1.420  0.3936 -0.5424  0.6152
  301MPD2    H5 4540   1.407   1.419   1.393  0.1848 -1.3091  0.8617
  301MPD2    N1 4541   1.033   1.798   1.581  0.3415 -0.7993  0.1038
  301MPD2    H7 4542   0.971   1.731   1.536 -0.5717 -0.9634  1.5972
  302TMC3    C1 4543   1.240   1.259   1.304 -0.3061 -0.4589 -0.6348
  302TMC3    C2 4544   1.373   1.231   1.301 -0.0487  0.3637 -0.4925
  302TMC3    C3 4545   1.436   1.162   1.199  0.4897  0.5440 -0.7431
  302TMC3    C4 4546   1.163   1.233   1.194 -0.3605 -0.3039 -0.1825
  302TMC3    C5 4547   1.229   1.180   1.087  0.1928 -0.5995 -0.3613
  302TMC3    C6 4548   1.359   1.141   1.083 -0.1810 -0.6105 -0.3843
  302TMC3     C 4549   1.204   1.382   1.374 -0.4186 -0.5397 -0.6437
  302TMC3     O 4550   1.084   1.409   1.381  0.8429  0.6401 -0.1546
  302TMC3     H 4551   1.437   1.251   1.386 -1.4443  1.3060  0.3348
  302TMC3    H1 4552   1.058   1.259   1.192 -0.0052  1.0001 -1.6807
  302TMC3    H2 4553   1.413   1.106   0.995 -0.8934  0.0469 -1.0854
  302TMC3    C7 4554   1.150   1.134   0.964  0.3504 -0.2840  0.5715
  302TMC3    C8 4555   1.575   1.127   1.216  0.1338 -0.5873 -0.1517
  302TMC3    O1 4556   1.225   1.076   0.882  0.0231  0.1555  0.1129
  302TMC3    O2 4557   1.632   1.082   1.114  0.2027  0.3267 -0.2454
  303MPD2     C 4558   1.120   4.401  10.980 -0.9501 -0.2082  0.2032
  303MPD2    C1 4559   1.169   4.277  10.940  0.1812 -0.0246  0.2291
  303MPD2    C2 4560   1.211   4.274  10.804  0.7824  0.0086 -0.1001
  303MPD2    C3 4561   1.202   4.382  10.723  0.8510  0.5808  0.2984
  303MPD2    C4 4562   1.156   4.504  10.778 -0.1663 -0.0597  0.0924
  303MPD2    C5 4563   1.110   4.514  10.902  0.3961  0.0856  0.0653
  303MPD2     H 4564   1.231   4.180  10.753 -1.1933 -0.7356  0.5382
  303MPD2    H1 4565   1.166   4.592  10.716 -1.0555 -0.0849 -0.0799
  303MPD2    H2 4566   1.091   4.420  11.083 -0.4521 -2.5449  0.7616
  303MPD2    H3 4567   1.065   4.609  10.931 -1.0418 -0.4985 -0.2532
  303MPD2     N 4568   1.217   4.378  10.583 -0.2497 -0.4307 -0.1596
  303MPD2    H5 4569   1.202   4.465  10.534 -1.9991  0.3616  1.7782
  303MPD2    N1 4570   1.159   4.168  11.026  0.1305  0.1531  0.0259
  303MPD2    H7 4571   1.117   4.178  11.118  0.0300  1.4274 -0.1646
  304TMC3    C1 4572   1.174   3.939  11.091 -0.1140  0.3873 -0.2972
  304TMC3    C2 4573   1.040   3.926  11.111  0.6306  0.2547  0.6629
  304TMC3    C3 4574   1.002   3.797  11.145 -0.3970  0.2699  0.3173
  304TMC3    C4 4575   1.263   3.837  11.095  0.2358  0.5823 -0.1392
  304TMC3    C5 4576   1.225   3.708  11.118 -0.0152  0.1988 -0.7334
  304TMC3    C6 4577   1.097   3.693  11.155  0.1034 -0.8714 -0.1058
  304TMC3     C 4578   1.211   4.040  10.995  0.1353  0.1282 -0.0772
  304TMC3     O 4579   1.281   4.006  10.901  0.7899 -0.0972 -0.3523
  304TMC3     H 4580   0.969   4.007  11.095  1.9826  1.4871  0.8357
  304TMC3    H1 4581   1.364   3.846  11.055  1.1700 -1.5524  1.7825
  304TMC3    H2 4582   1.061   3.594  11.179  2.1016 -1.0811  1.9453
  304TMC3    C7 4583   1.252   3.610  11.009  0.2964  0.3258  0.5553
  304TMC3    C8 4584   0.866   3.761  11.100 -0.7882  0.4076  0.2827
  304TMC3    O1 4585   1.179   3.619  10.909  0.8694 -0.4422 -0.6961
  304TMC3    O2 4586   0.758   3.796  11.143 -0.1762  0.3781  0.0454
  305MPD2     C 4587   4.130   2.246  14.012  0.4281 -0.3485  0.1896
  305MPD2    C1 4588   4.265   2.255  13.981 -0.8862  0.3022 -0.0986
  305MPD2    C2 4589   4.313   2.187  13.871 -0.0278 -0.2320  0.0729
  305MPD2    C3 4590   4.229   2.117  13.789 -0.0717  0.0943  0.2591
  305MPD2    C4 4591   4.095   2.119  13.821  0.5847  0.1225  0.1782
  305MPD2    C5 4592   4.042   2.175  13.934  0.1260 -0.4344 -0.3939
  305MPD2     H 4593   4.419   2.172  13.858 -0.0791  0.3582 -1.0129
  305MPD2    H1 4594   4.023   2.082  13.748 -0.3281  1.6202  0.3265
  305MPD2    H2 4595   4.083   2.302  14.092 -1.4024 -0.6828 -0.6356
  305MPD2    H3 4596   3.936   2.191  13.949 -0.4469 -1.8649 -2.9341
  305MPD2     N 4597   4.276   2.051  13.672  0.5296 -0.4823 -0.9797
  305MPD2    H5 4598   4.207   2.016  13.607 -1.4817  1.1441  0.3089
  305MPD2    N1 4599   4.347   2.319  14.078 -0.3234 -0.1298  0.6123
  305MPD2    H7 4600   4.298   2.357  14.158 -0.7092  1.5508 -0.4118
  306TMC3    C1 4601   4.557   2.398  14.180 -0.2921  0.0490 -0.0248
  306TMC3    C2 4602   4.688   2.405  14.174 -0.3834  0.0913  0.1864
  306TMC3    C3 4603   0.026   2.493  14.251 -0.0133  0.1985 -0.5701
  306TMC3    C4 4604   4.478   2.470  14.264  0.1248  0.3202  0.5069
  306TMC3    C5 4605   4.544   2.565  14.339 -0.0330  0.0178 -0.0152
  306TMC3    C6 4606   4.684   2.574  14.337 -0.2172  0.0377 -0.5089
  306TMC3     C 4607   4.485   2.342  14.060 -1.0773  0.9287  0.1156
  306TMC3     O 4608   4.561   2.317  13.968 -0.0896  0.0071 -0.1084
  306TMC3     H 4609   0.019   2.334  14.115 -0.1715 -1.2252  1.9605
  306TMC3    H1 4610   4.379   2.435  14.289 -0.7902  0.2563 -3.0933
  306TMC3    H2 4611   0.002   2.660  14.386 -0.3423 -0.4293  0.4155
  306TMC3    C7 4612   4.485   2.595  14.470  0.6848 -0.0263 -0.1748
  306TMC3    C8 4613   0.161   2.462  14.286 -0.8880 -0.2911  0.9930
  306TMC3    O1 4614   4.363   2.599  14.483 -0.1107 -0.2590  0.3595
  306TMC3    O2 4615   0.192   2.345  14.269 -0.0274 -0.7113  0.5804
  307MPD2     C 4616   2.195   4.400   0.413  0.2637  0.1849  0.5291
  307MPD2    C1 4617   2.136   4.490   0.322  0.2078  0.0498  0.1561
  307MPD2    C2 4618   2.097   4.606   0.373 -1.1044  0.4108 -0.5465
  307MPD2    C3 4619   2.097   4.640   0.511  0.0771 -0.0031  0.6658
  307MPD2    C4 4620   2.155   4.552   0.597 -0.8670 -0.1724 -0.1199
  307MPD2    C5 4621   2.208   4.437   0.542 -0.7328 -0.6572 -0.4692
  307MPD2     H 4622   2.054   4.681   0.307 -0.1173  1.5706  0.1296
  307MPD2    H1 4623   2.181   4.572   0.700 -1.7765 -1.1225  0.3024
  307MPD2    H2 4624   2.247   4.312   0.377  0.4778  0.6931 -0.4019
  307MPD2    H3 4625   2.258   4.370   0.610  0.4929  2.2731  1.4941
  307MPD2     N 4626   2.054   0.034   0.568 -0.5526  0.1902  0.2567
  307MPD2    H5 4627   2.056   0.038   0.669  1.2278  0.0798  0.2297
  307MPD2    N1 4628   2.131   4.461   0.182  0.0870 -0.4409  0.4533
  307MPD2    H7 4629   2.094   4.534   0.122  0.0947 -0.4875  0.3926
  308TMC3    C1 4630   1.843   0.354   0.738 -0.2340 -0.5973  0.0102
  308TMC3    C2 4631   1.860   0.481   0.675 -0.7147 -0.3445  0.5350
  308TMC3    C3 4632   1.954   0.495   0.571 -0.8370 -0.4758 -0.8618
  308TMC3    C4 4633   1.902   0.242   0.684  0.6013  0.0535 -0.1168
  308TMC3    C5 4634   1.979   0.258   0.575  0.0551  0.4380 -1.0410
  308TMC3    C6 4635   2.005   0.381   0.515 -0.3811  0.6315 -0.0638
  308TMC3     C 4636   1.756   0.330   0.850  0.3568  0.4737 -0.6360
  308TMC3     O 4637   1.800   0.246   0.930 -0.2012  0.4832 -0.2212
  308TMC3     H 4638   1.821   0.568   0.726 -0.0560  0.7075 -0.7545
  308TMC3    H1 4639   1.885   0.142   0.724 -0.0596  0.7767  1.3882
  308TMC3    H2 4640   2.082   0.389   0.439  0.4672 -0.8281  0.6411
  308TMC3    C7 4641   2.020   0.147   0.498 -0.0591  0.1413  0.0736
  308TMC3    C8 4642   2.005   0.625   0.542  0.8936  1.0684 -0.2196
  308TMC3    O1 4643   2.029   0.164   0.378 -0.1442  0.0675  0.0144
  308TMC3    O2 4644   1.959   0.710   0.621 -0.8214 -0.8350  0.5846
  309MPD2     C 4645   1.291   0.557  17.487  0.5149 -0.8660 -1.4953
  309MPD2    C1 4646   1.255   0.662  17.406 -0.7604  0.2480 -0.3178
  309MPD2    C2 4647   1.148   0.745  17.451 -0.3058  0.1987  0.1093
  309MPD2    C3 4648   1.066   0.710  17.556  0.5232  0.6632  0.2641
  309MPD2    C4 4649   1.103   0.601  17.629  0.2402 -0.2499 -0.2747
  309MPD2    C5 4650   1.223   0.538  17.600  0.1090  0.9994 -0.6290
  309MPD2     H 4651   1.119   0.827  17.385  0.6448  0.1043 -0.4231
  309MPD2    H1 4652   1.044   0.582   0.010  1.6561 -0.2167  0.6752
  309MPD2    H2 4653   1.368   0.485  17.463 -0.4274 -1.9323 -1.3361
  309MPD2    H3 4654   1.257   0.456  17.661  1.0074  0.5805 -1.6819
  309MPD2     N 4655   0.952   0.776  17.598  0.0035 -0.1682 -0.3304
  309MPD2    H5 4656   0.902   0.736  17.677  2.7321  1.2729  2.1275
  309MPD2    N1 4657   1.325   0.689  17.284  0.2050  0.2156  0.1215
  309MPD2    H7 4658   1.308   0.781  17.245  0.3460  0.3553  0.3892
  310TMC3    C1 4659   1.417   0.615  17.067  0.3752 -0.5970 -0.1261
  310TMC3    C2 4660   1.341   0.709  17.000 -0.8195  0.5219 -0.3300
  310TMC3    C3 4661   1.345   0.710  16.865  0.1308  0.4665 -0.3138
  310TMC3    C4 4662   1.496   0.518  17.004 -0.1670 -0.0333  0.1278
  310TMC3    C5 4663   1.494   0.518  16.868  0.2792  0.4061 -0.5099
  310TMC3    C6 4664   1.425   0.616  16.803 -0.2346 -0.1725  0.5293
  310TMC3     C 4665   1.398   0.598  17.211  0.6257 -0.4217  0.3908
  310TMC3     O 4666   1.428   0.486  17.247  0.0207 -0.3341  0.2143
  310TMC3     H 4667   1.276   0.772  17.059 -0.5355  1.0663 -0.5993
  310TMC3    H1 4668   1.555   0.439  17.047 -0.5660 -0.2235  0.3292
  310TMC3    H2 4669   1.409   0.596  16.698 -1.0334  4.3546 -0.2266
  310TMC3    C7 4670   1.513   0.398  16.794 -0.1878  0.2368 -0.1810
  310TMC3    C8 4671   1.279   0.810  16.787  0.4450 -0.1235 -0.0732
  310TMC3    O1 4672   1.525   0.396  16.670 -0.3053 -0.4578  0.0078
  310TMC3    O2 4673   1.208   0.888  16.849  0.0226  0.2778 -0.4985
  311MPD2     C 4674   3.629   1.481  12.753 -0.2465 -0.1690 -0.2269
  311MPD2    C1 4675   3.629   1.603  12.810  0.1012 -0.2454  0.0751
  311MPD2    C2 4676   3.516   1.662  12.863 -0.4318 -0.1645 -0.7218
  311MPD2    C3 4677   3.401   1.590  12.859 -0.1196  0.4887 -0.5380
  311MPD2    C4 4678   3.400   1.458  12.808 -0.4557  0.6757 -0.2535
  311MPD2    C5 4679   3.515   1.404  12.769  0.4953  0.5934 -0.0685
  311MPD2     H 4680   3.517   1.766  12.893 -0.1413 -0.1825 -0.6738
  311MPD2    H1 4681   3.308   1.403  12.793  0.9827 -1.7629 -0.1248
  311MPD2    H2 4682   3.714   1.427  12.714  1.4298  2.1971  0.1820
  311MPD2    H3 4683   3.515   1.304  12.727  2.0237  1.2403 -1.5774
  311MPD2     N 4684   3.284   1.659  12.900 -0.0372 -0.4428  0.3024
  311MPD2    H5 4685   3.296   1.759  12.916 -2.9792  0.1979 -1.3726
  311MPD2    N1 4686   3.751   1.677  12.808 -0.1826 -0.2100 -0.4439
  311MPD2    H7 4687   3.765   1.754  12.872  2.7908  1.1470 -2.7119
  312TMC3    C1 4688   3.059   1.714  12.937 -0.0333 -0.2904 -0.1363
  312TMC3    C2 4689   2.924   1.677  12.935  0.3675  0.3251  0.4516
  312TMC3    C3 4690   2.836   1.781  12.960 -0.8251  0.0701  0.3494
  312TMC3    C4 4691   3.099   1.847  12.939  0.0138  0.4987 -0.6176
  312TMC3    C5 4692   3.006   1.942  12.956 -0.3231  0.1426 -0.7075
  312TMC3    C6 4693   2.875   1.912  12.985 -0.7709 -0.4188  0.5113
  312TMC3     C 4694   3.158   1.611  12.919  0.3270 -0.4165  0.6326
  312TMC3     O 4695   3.110   1.499  12.906  0.4099 -0.4758 -0.4539
  312TMC3     H 4696   2.893   1.573  12.933  0.9431  0.1331  1.3676
  312TMC3    H1 4697   3.201   1.880  12.923  0.6215  0.9964  4.3903
  312TMC3    H2 4698   2.808   1.996  12.999  0.7244  0.9177 -0.3517
  312TMC3    C7 4699   3.063   2.058  13.029  0.8996 -0.1183 -0.7602
  312TMC3    C8 4700   2.695   1.739  12.948 -0.1838 -0.1283 -0.2983
  312TMC3    O1 4701   3.015   2.174  13.011  0.5160  0.0978 -0.3459
  312TMC3    O2 4702   2.679   1.623  12.919 -0.0400  0.2453  0.4930
  313MPD2     C 4703   3.587   0.443  10.492 -0.1297  0.4224 -0.4232
  313MPD2    C1 4704   3.450   0.431  10.517 -0.2489  0.3905  0.0461
  313MPD2    C2 4705   3.383   0.339  10.443 -0.3769  0.4226  0.4484
  313MPD2    C3 4706   3.444   0.256  10.351  0.7131 -1.1080  0.0567
  313MPD2    C4 4707   3.575   0.263  10.327 -0.0280  0.3467  0.0969
  313MPD2    C5 4708   3.648   0.353  10.403 -0.1335  0.2966 -0.0846
  313MPD2     H 4709   3.278   0.317  10.460 -0.3924  0.2396  0.1206
  313MPD2    H1 4710   3.618   0.204  10.248  0.5717  0.2653  0.4826
  313MPD2    H2 4711   3.648   0.521  10.536  1.0532 -1.1708  0.7438
  313MPD2    H3 4712   3.749   0.361  10.365  0.8758  0.7654  2.7031
  313MPD2     N 4713   3.359   0.175  10.273 -0.0684 -0.7858 -0.5465
  313MPD2    H5 4714   3.268   0.157  10.313  1.0945 -0.7037  2.1193
  313MPD2    N1 4715   3.376   0.527  10.592  0.1124  0.0195 -0.1326
  313MPD2    H7 4716   3.275   0.515  10.593  0.1550 -0.3625 -0.8964
  314TMC3    C1 4717   3.313   0.724  10.681  0.2256  0.4247 -0.3618
  314TMC3    C2 4718   3.346   0.836  10.757  0.4225  0.2416  0.0915
  314TMC3    C3 4719   3.255   0.941  10.753  0.3470  0.0354 -1.0578
  314TMC3    C4 4720   3.194   0.709  10.610 -0.1345 -0.1966  0.0966
  314TMC3    C5 4721   3.104   0.808  10.626 -0.3034  0.1337  0.3091
  314TMC3    C6 4722   3.136   0.928  10.684  0.2476 -0.0717 -0.7542
  314TMC3     C 4723   3.420   0.633  10.656  0.5863 -1.4935 -0.4273
  314TMC3     O 4724   3.538   0.662  10.689  0.5731 -0.4321 -0.0059
  314TMC3     H 4725   3.438   0.831  10.814  0.6996  0.1205 -0.3665
  314TMC3    H1 4726   3.179   0.642  10.526  0.6868 -1.6704  1.1267
  314TMC3    H2 4727   3.068   1.012  10.677  1.3083  0.7695 -0.9766
  314TMC3    C7 4728   3.007   0.807  10.527 -0.4908 -0.4144 -0.7214
  314TMC3    C8 4729   3.285   1.073  10.801  0.5376  0.1864  0.3863
  314TMC3    O1 4730   2.932   0.713  10.515 -0.7526 -0.1834  0.5807
  314TMC3    O2 4731   3.193   1.156  10.807 -0.2779 -0.5646  0.1033
  315MPD2     C 4732   2.612   4.670  16.842  0.3340 -0.0303 -0.2583
  315MPD2    C1 4733   2.567   4.690  16.971  0.0427 -0.2203  0.0904
  315MPD2    C2 4734   2.543   0.085  17.026 -0.1891  0.4122 -1.3229
  315MPD2    C3 4735   2.561   0.198  16.945  0.2480 -0.3367 -0.6039
  315MPD2    C4 4736   2.596   0.175  16.805  0.1721 -0.1091  0.1175
  315MPD2    C5 4737   2.620   0.048  16.762  0.3908  0.6166  0.0034
  315MPD2     H 4738   2.505   0.092  17.127  0.6521  1.4242 -1.0693
  315MPD2    H1 4739   2.606   0.261  16.740  1.9874 -0.2274  0.2403
  315MPD2    H2 4740   2.644   4.577  16.796 -1.1033  0.3473 -1.9916
  315MPD2    H3 4741   2.641   0.031  16.657  1.8485 -0.7135  0.5144
  315MPD2     N 4742   2.546   0.326  16.992  0.4598 -0.5027 -0.0545
  315MPD2    H5 4743   2.552   0.337  17.093 -0.8518  0.1479 -0.0541
  315MPD2    N1 4744   2.554   4.573  17.044 -0.5288  0.3436  0.6228
  315MPD2    H7 4745   2.574   4.487  16.993 -0.8376  0.5274  0.1875
  316TMC3    C1 4746   2.539   0.559  17.006 -0.4974 -0.6089 -0.0024
  316TMC3    C2 4747   2.602   0.541  17.130  0.4957  0.5729  0.3616
  316TMC3    C3 4748   2.595   0.641  17.225 -0.0080 -0.1998 -0.9100
  316TMC3    C4 4749   2.456   0.665  16.987 -0.6997  0.5915 -0.6620
  316TMC3    C5 4750   2.443   0.753  17.093 -0.1222 -0.5123 -0.1678
  316TMC3    C6 4751   2.510   0.748  17.213 -0.3857  0.0325 -0.3039
  316TMC3     C 4752   2.543   0.444  16.916 -0.1132  0.3458 -0.5714
  316TMC3     O 4753   2.489   0.455  16.801  0.5139 -0.1102  0.2026
  316TMC3     H 4754   2.679   0.465  17.132  0.4463  0.5260  0.5268
  316TMC3    H1 4755   2.423   0.694  16.888  0.6150 -0.4424 -1.4010
  316TMC3    H2 4756   2.490   0.815  17.296  1.1812  0.1053  0.0043
  316TMC3    C7 4757   2.384   0.881  17.070 -0.5360  0.2426 -0.5246
  316TMC3    C8 4758   2.697   0.650  17.329  0.1422  0.9524  0.4209
  316TMC3    O1 4759   2.319   0.918  17.164 -0.1569 -0.2486  0.7433
  316TMC3    O2 4760   2.698   0.758  17.381  0.7556 -0.5056 -0.6097
  317MPD2     C 4761   0.011   3.568  11.955 -0.9656 -0.4003  0.1843
  317MPD2    C1 4762   0.145   3.539  11.976  1.1215 -0.3677 -0.3737
  317MPD2    C2 4763   0.187   3.533  12.110  0.1934  0.4699  0.2656
  317MPD2    C3 4764   0.099   3.557  12.213  0.0891 -0.3842  0.2383
  317MPD2    C4 4765   4.696   3.578  12.188 -0.2388  0.0451  0.0400
  317MPD2    C5 4766   4.651   3.570  12.063  0.1403 -0.2073 -0.8956
  317MPD2     H 4767   0.284   3.492  12.136 -0.3577 -0.5147  0.7346
  317MPD2    H1 4768   4.616   3.588  12.262  1.6490  0.3664  2.0310
  317MPD2    H2 4769   4.697   3.537  11.859 -1.5269  0.6016  0.1039
  317MPD2    H3 4770   4.544   3.565  12.050 -0.1691  1.6103  1.0070
  317MPD2     N 4771   0.160   3.541  12.340  0.1923  0.0322 -0.3017
  317MPD2    H5 4772   0.256   3.507  12.346  0.0210 -0.6716 -1.5518
  317MPD2    N1 4773   0.245   3.520  11.872 -0.1489  0.1075 -0.8069
  317MPD2    H7 4774   0.336   3.526  11.916 -0.2357  0.5971 -0.6920
  318TMC3    C1 4775   0.177   3.503  12.582  1.2194 -0.0530  0.5919
  318TMC3    C2 4776   0.141   3.401  12.665 -0.0878  0.6125  0.0869
  318TMC3    C3 4777   0.211   3.375  12.785 -0.1738 -0.4004  0.1765
  318TMC3    C4 4778   0.292   3.579  12.603 -0.4979  0.3879 -0.1933
  318TMC3    C5 4779   0.362   3.549  12.716 -0.1019  0.2997  0.3289
  318TMC3    C6 4780   0.324   3.445  12.804 -0.0696  0.5697 -0.1600
  318TMC3     C 4781   0.089   3.533  12.460 -0.3717 -0.0856  0.2049
  318TMC3     O 4782   4.694   3.532  12.476  0.1209 -0.7415 -0.2513
  318TMC3     H 4783   0.058   3.343  12.629 -0.4162  0.3962  1.1832
  318TMC3    H1 4784   0.322   3.648  12.525 -0.7685  0.6892 -0.0339
  318TMC3    H2 4785   0.380   3.417  12.892  1.8653  1.4399 -1.0987
  318TMC3    C7 4786   0.489   3.611  12.728 -0.3613 -0.5661  0.2204
  318TMC3    C8 4787   0.182   3.255  12.859 -0.9112 -0.3963  0.1619
  318TMC3    O1 4788   0.530   3.654  12.623  0.3628 -0.3920 -0.0964
  318TMC3    O2 4789   0.262   3.206  12.940 -0.0689 -0.4436 -0.3082
  319MPD2     C 4790   0.500   0.711  16.439  0.3071 -0.1595  0.0453
  319MPD2    C1 4791   0.472   0.580  16.473  0.3689  0.2402  0.4170
  319MPD2    C2 4792   0.527   0.478  16.395 -0.0847  0.0035  0.0841
  319MPD2    C3 4793   0.610   0.518  16.290 -0.4938 -0.0077 -0.2556
  319MPD2    C4 4794   0.641   0.648  16.260 -0.0593 -0.0906 -0.1718
  319MPD2    C5 4795   0.572   0.745  16.329 -0.0396  0.4330  0.3126
  319MPD2     H 4796   0.505   0.374  16.415 -1.7750  0.3033 -0.2263
  319MPD2    H1 4797   0.713   0.677  16.184  0.3548  2.5263  1.2346
  319MPD2    H2 4798   0.453   0.799  16.483  1.8259  0.3606  0.6048
  319MPD2    H3 4799   0.579   0.851  16.304 -1.6326  0.9903  2.2552
  319MPD2     N 4800   0.679   0.420  16.211  0.2233 -0.3891  0.0862
  319MPD2    H5 4801   0.744   0.457  16.143 -0.9650  2.1860  0.3474
  319MPD2    N1 4802   0.411   0.542  16.604 -0.7382 -0.6596  0.5662
  319MPD2    H7 4803   0.396   0.442  16.613  2.3969 -1.2819 -1.0856
  320TMC3    C1 4804   0.763   0.216  16.135 -0.2177 -0.1109 -0.4401
  320TMC3    C2 4805   0.775   0.257  16.011 -0.1402 -0.1303  0.5618
  320TMC3    C3 4806   0.775   0.164  15.908  0.2723 -0.0293  0.4123
  320TMC3    C4 4807   0.754   0.079  16.164 -0.7132 -0.1870 -0.0382
  320TMC3    C5 4808   0.736   4.719  16.063  0.6003  0.3074  0.0241
  320TMC3    C6 4809   0.757   0.029  15.935 -0.1851  0.1105  0.2129
  320TMC3     C 4810   0.665   0.287  16.215 -0.4262  0.2319  0.2272
  320TMC3     O 4811   0.582   0.215  16.270 -0.1457  0.0849 -0.0210
  320TMC3     H 4812   0.776   0.361  15.982  0.2539 -0.2922 -0.0186
  320TMC3    H1 4813   0.752   0.033  16.262 -2.2999  0.7852  0.3940
  320TMC3    H2 4814   0.728   4.691  15.854 -0.1344  0.8819 -0.4196
  320TMC3    C7 4815   0.642   4.612  16.087 -0.0691 -0.7241  1.1439
  320TMC3    C8 4816   0.693   0.202  15.797  0.1309 -0.2821  0.0752
  320TMC3    O1 4817   0.681   4.505  16.036 -0.4402 -0.4067 -0.1413
  320TMC3    O2 4818   0.577   0.166  15.814  0.6442  0.1975 -0.0804
  321TMC3    C1 4819   0.360   0.569  16.838 -0.5204  0.3830  0.5774
  321TMC3    C2 4820   0.276   0.460  16.843 -0.1041  0.2746 -0.8772
  321TMC3    C3 4821   0.244   0.413  16.961 -0.4663  0.0392  0.0768
  321TMC3    C4 4822   0.409   0.637  16.948  0.0818 -0.1354  0.7242
  321TMC3    C5 4823   0.379   0.579  17.070  0.8919 -0.1929 -0.3260
  321TMC3    C6 4824   0.294   0.474  17.073  0.1131 -0.6232  0.1862
  321TMC3     C 4825   0.400   0.625  16.714  0.1040 -0.5195 -0.2947
  321TMC3     O 4826   0.436   0.740  16.717 -0.1167  0.2760  0.0851
  321TMC3     H 4827   0.259   0.401  16.753 -0.6100  0.6023 -0.9993
  321TMC3    H1 4828   0.486   0.713  16.937 -1.0620  0.8433 -0.5026
  321TMC3    H2 4829   0.260   0.438  17.170  1.8903  1.0634  1.4399
  321TMC3    C7 4830   0.494   0.547  17.158 -1.0309 -0.0809 -0.0139
  321TMC3    C8 4831   0.237   0.274  16.967  0.1704 -0.2125  0.6612
  321TMC3    O1 4832   0.462   0.461  17.238  0.1417  0.2822 -0.4078
  321TMC3    O2 4833   0.190   0.209  16.874  0.1494  0.3791  0.2023
  322MPD2     C 4834   4.307   1.681  13.782 -1.0733 -0.8037  0.2019
  322MPD2    C1 4835   4.373   1.710  13.900  0.5460 -0.3365  0.8885
  322MPD2    C2 4836   4.474   1.627  13.931  0.1381 -0.4694 -0.3724
  322MPD2    C3 4837   4.492   1.504  13.866  0.1079 -0.2538  0.3571
  322MPD2    C4 4838   4.403   1.469  13.765  1.1657  0.4621  0.1642
  322MPD2    C5 4839   4.312   1.560  13.717 -0.6604 -0.4754  0.3156
  322MPD2     H 4840   4.536   1.647  14.017  0.5921 -1.7082 -0.4078
  322MPD2    H1 4841   4.421   1.377  13.712  2.4820  0.5088  0.5437
  322MPD2    H2 4842   4.235   1.750  13.738 -0.0412  0.8145  1.0533
  322MPD2    H3 4843   4.248   1.543  13.631 -0.6426  1.5101 -0.0817
  322MPD2     N 4844   4.593   1.422  13.920  0.0933 -0.0160 -0.1443
  322MPD2    H5 4845   4.650   1.467  13.990 -2.8432 -1.1352  2.9650
  322MPD2    N1 4846   4.369   1.838  13.962  0.0017  0.6581  0.2287
  322MPD2    H7 4847   4.343   1.916  13.902  1.0569  2.3208  1.9019
  323TMC3    C1 4848   4.489   1.978  14.112 -0.7277  0.1728 -0.1612
  323TMC3    C2 4849   4.589   1.999  14.023 -0.0969  1.0978 -0.2356
  323TMC3    C3 4850   4.702   2.042  14.089 -0.1405 -0.5099 -0.0406
  323TMC3    C4 4851   4.508   1.986  14.248  0.3850 -0.3094  0.1157
  323TMC3    C5 4852   4.620   2.026  14.302 -0.8573 -0.5605  0.4176
  323TMC3    C6 4853   4.722   2.069  14.225 -0.0130  0.5802  0.4080
  323TMC3     C 4854   4.420   1.853  14.088 -0.2548  0.1691  0.5731
  323TMC3     O 4855   4.423   1.775  14.183  0.7276 -0.5861  0.7622
  323TMC3     H 4856   4.571   1.975  13.919  0.3952  1.0811 -0.3171
  323TMC3    H1 4857   4.432   1.947  14.315 -1.8578  2.1968 -0.9816
  323TMC3    H2 4858   0.088   2.094  14.274  0.4930  0.6248 -0.5632
  323TMC3    C7 4859   4.659   1.955  14.426  0.6347  0.6039  0.0686
  323TMC3    C8 4860   0.086   2.073  14.009  0.6160 -0.5386  0.2681
  323TMC3    O1 4861   4.601   1.850  14.442  0.4648  0.2542  0.0938
  323TMC3    O2 4862   0.184   2.128  14.059 -0.8354  0.3068  0.8724
  324MPD2     C 4863   1.786   3.198  14.077 -0.2089  0.0115 -0.4598
  324MPD2    C1 4864   1.809   3.169  14.212  0.4065 -0.6358  0.0208
  324MPD2    C2 4865   1.700   3.129  14.294  0.5716  0.0106  0.5845
  324MPD2    C3 4866   1.572   3.131  14.241  0.0386  0.2332  0.4904
  324MPD2    C4 4867   1.550   3.160  14.105  0.8059  0.0823 -0.2087
  324MPD2    C5 4868   1.655   3.196  14.024  0.2705 -0.2142 -0.3555
  324MPD2     H 4869   1.715   3.101  14.398  0.4642 -0.3879  0.4928
  324MPD2    H1 4870   1.451   3.166  14.061  0.6674 -3.7946 -0.4383
  324MPD2    H2 4871   1.865   3.229  14.010  0.4088  0.0351  0.2823
  324MPD2    H3 4872   1.633   3.225  13.922 -1.6469  0.9919  0.3991
  324MPD2     N 4873   1.455   3.087  14.311  0.3057  0.5094  1.2109
  324MPD2    H5 4874   1.369   3.086  14.257  1.3103 -2.0210 -0.3561
  324MPD2    N1 4875   1.942   3.176  14.253 -0.0406 -0.1278 -0.5351
  324MPD2    H7 4876   2.010   3.227  14.198  1.1552 -1.6764 -0.5152
  325TMC3    C1 4877   1.304   3.031  14.487 -0.3753  0.0880 -0.4171
  325TMC3    C2 4878   1.252   2.925  14.408 -0.4148  0.8302 -0.1357
  325TMC3    C3 4879   1.142   2.857  14.455 -0.6756  0.3976 -0.5325
  325TMC3    C4 4880   1.246   3.065  14.612  0.0238 -0.4962 -0.7684
  325TMC3    C5 4881   1.135   2.992  14.654  0.4571  0.0957  0.3932
  325TMC3    C6 4882   1.085   2.881  14.581 -0.1145  1.2530  0.1724
  325TMC3     C 4883   1.437   3.079  14.452  0.3113  0.7866 -0.2158
  325TMC3     O 4884   1.515   3.123  14.540  1.1072 -0.1749 -0.7502
  325TMC3     H 4885   1.296   2.892  14.315  2.0744 -0.8160  1.6036
  325TMC3    H1 4886   1.283   3.149  14.670  1.0722 -1.2949 -0.2798
  325TMC3    H2 4887   1.004   2.823  14.623  0.5874  2.5034  3.2658
  325TMC3    C7 4888   1.041   3.053  14.746 -0.2989 -0.6867 -0.8729
  325TMC3    C8 4889   1.065   2.773  14.372 -0.0831 -0.3121 -0.0663
  325TMC3    O1 4890   1.083   3.105  14.849 -0.1915  0.4168  0.2645
  325TMC3    O2 4891   1.083   2.788  14.252 -0.3640 -0.1932 -0.3140
  326MPD2     C 4892   1.983   3.819  11.208 -0.2659 -0.4403  0.6655
  326MPD2    C1 4893   2.052   3.710  11.145  0.2491 -0.3181 -0.7395
  326MPD2    C2 4894   2.188   3.713  11.122 -0.5062 -0.0160 -0.1321
  326MPD2    C3 4895   2.260   3.830  11.166 -0.6633 -0.4568  0.0210
  326MPD2    C4 4896   2.193   3.934  11.236 -0.2319 -0.1926  0.1185
  326MPD2    C5 4897   2.056   3.927  11.258  0.3273 -0.1361 -0.8977
  326MPD2     H 4898   2.243   3.635  11.071  1.0314  0.6912  0.4378
  326MPD2    H1 4899   2.251   4.011  11.284  2.0013 -0.0698 -2.7516
  326MPD2    H2 4900   1.877   3.815  11.233 -0.4006 -2.6316 -0.2139
  326MPD2    H3 4901   2.000   4.011  11.298 -0.7381 -0.6607 -1.2863
  326MPD2     N 4902   2.399   3.837  11.159 -0.3995 -0.7735  0.0685
  326MPD2    H5 4903   2.443   3.917  11.203 -2.0959  1.1372 -1.7153
  326MPD2    N1 4904   1.983   3.599  11.093  0.0321  0.4438 -0.3628
  326MPD2    H7 4905   2.033   3.520  11.053 -0.0198 -0.0965  0.6491
  327TMC3    C1 4906   1.815   3.465  11.004 -0.0080 -0.3287  0.3662
  327TMC3    C2 4907   1.712   3.473  10.916 -0.1418 -0.3099 -0.1191
  327TMC3    C3 4908   1.691   3.371  10.828  0.1504 -0.7672  0.6209
  327TMC3    C4 4909   1.889   3.357  11.013 -0.6658 -0.7476 -0.9431
  327TMC3    C5 4910   1.874   3.257  10.923  0.6389 -0.4316 -0.5987
  327TMC3    C6 4911   1.777   3.267  10.827 -0.7786 -0.7927  0.2479
  327TMC3     C 4912   1.847   3.586  11.078 -0.2296  0.1914  0.0500
  327TMC3     O 4913   1.760   3.670  11.099 -0.0126  0.6006  0.0074
  327TMC3     H 4914   1.660   3.568  10.916 -0.5546 -0.5392  0.3932
  327TMC3    H1 4915   1.963   3.357  11.092 -0.7496 -2.7566 -0.8667
  327TMC3    H2 4916   1.774   3.190  10.750  0.7890  0.2475 -0.8369
  327TMC3    C7 4917   1.942   3.132  10.951  0.2129  0.2671 -0.4458
  327TMC3    C8 4918   1.636   3.421  10.699 -0.2502 -0.2187 -0.1952
  327TMC3    O1 4919   1.885   3.022  10.933 -0.2068  0.1138  0.0758
  327TMC3    O2 4920   1.584   3.531  10.700  0.4689 -0.6167  0.2887
  328MPD2     C 4921   0.450   3.386  17.154 -0.2799  0.0693  0.3340
  328MPD2    C1 4922   0.341   3.341  17.084  0.0670 -0.0571  0.2607
  328MPD2    C2 4923   0.239   3.427  17.044  0.9696 -0.1796  0.3139
  328MPD2    C3 4924   0.251   3.559  17.083  0.5182 -0.9638  0.2439
  328MPD2    C4 4925   0.361   3.607  17.150 -0.1648  0.3261  0.2389
  328MPD2    C5 4926   0.458   3.520  17.178  0.2640 -0.2702 -0.7749
  328MPD2     H 4927   0.157   3.394  16.981 -0.8048  2.2407  1.3862
  328MPD2    H1 4928   0.363   3.711  17.184  0.9848  0.4794 -0.3257
  328MPD2    H2 4929   0.510   3.314  17.209 -1.1528 -0.5232  0.5142
  328MPD2    H3 4930   0.540   3.563  17.233 -1.5608  0.3767  1.4368
  328MPD2     N 4931   0.148   3.658  17.054 -0.8415  0.0282  0.1876
  328MPD2    H5 4932   0.168   3.748  17.095 -0.4643  0.9153 -1.9274
  328MPD2    N1 4933   0.332   3.205  17.052  0.0597  0.1761  0.9107
  328MPD2    H7 4934   0.382   3.138  17.110  1.3994  0.9275  0.6297
  329TMC3    C1 4935   0.246   3.005  16.963  1.0100 -0.0635 -0.4942
  329TMC3    C2 4936   0.232   2.932  17.082  0.0456 -0.6593 -0.0626
  329TMC3    C3 4937   0.275   2.802  17.089 -0.2712 -0.1528 -0.0582
  329TMC3    C4 4938   0.292   2.939  16.853  0.6937  0.2970 -0.4600
  329TMC3    C5 4939   0.344   2.814  16.865 -0.3041 -0.4335 -0.0697
  329TMC3    C6 4940   0.336   2.742  16.982  0.4064 -0.2188 -0.6189
  329TMC3     C 4941   0.249   3.153  16.960  0.0026  0.2904 -0.0861
  329TMC3     O 4942   0.218   3.214  16.860  0.0465  0.1866  0.8364
  329TMC3     H 4943   0.181   2.979  17.166 -2.1295 -1.2454 -1.0334
  329TMC3    H1 4944   0.301   3.008  16.770  0.9537  0.7957 -0.0155
  329TMC3    H2 4945   0.367   2.638  16.987  0.3614 -0.0581  2.4918
  329TMC3    C7 4946   0.439   2.771  16.764  0.6690  0.6454 -1.0424
  329TMC3    C8 4947   0.277   2.736  17.221 -0.1901 -0.4459  0.0206
  329TMC3    O1 4948   0.525   2.689  16.787 -0.6479 -0.6945  0.1060
  329TMC3    O2 4949   0.299   2.616  17.212 -0.5145  0.3198  0.5927
  330TMC3    C1 4950   3.481   2.198  10.123  0.6857  0.1573 -0.6783
  330TMC3    C2 4951   3.358   2.148  10.100  0.3149  0.2971  0.7110
  330TMC3    C3 4952   3.317   2.039  10.176 -0.3748  0.0628 -0.3650
  330TMC3    C4 4953   3.570   2.156  10.223 -0.9122 -0.0023  0.7930
  330TMC3    C5 4954   3.528   2.046  10.289 -0.1405  0.3023  0.6242
  330TMC3    C6 4955   3.401   1.989  10.267 -0.2687  0.3247 -0.0034
  330TMC3     C 4956   3.524   2.312  10.038  0.3342 -0.5323  0.0898
  330TMC3     O 4957   3.633   2.366  10.068 -0.5036  0.6408 -0.5274
  330TMC3     H 4958   3.284   2.200  10.040  0.3898  0.2494  0.5781
  330TMC3    H1 4959   3.673   2.188  10.216 -0.4410 -1.3495  1.6246
  330TMC3    H2 4960   3.368   1.911  10.335  1.1864  0.3346  0.7259
  330TMC3    C7 4961   3.621   1.981  10.377 -0.6238  0.2341 -0.6912
  330TMC3    C8 4962   3.189   1.967  10.145 -0.5177 -0.7590  0.8103
  330TMC3    O1 4963   3.723   2.043  10.401 -0.4816  0.0936 -0.0298
  330TMC3    O2 4964   3.127   1.926  10.241 -0.1754 -0.0824 -0.0808
  331MPD2     C 4965   1.285   2.278  12.855  0.3499  0.1317 -0.1821
  331MPD2    C1 4966   1.205   2.254  12.741  0.1788  0.1644  0.1689
  331MPD2    C2 4967   1.151   2.127  12.717 -0.2142 -0.4175 -0.4602
  331MPD2    C3 4968   1.182   2.019  12.799  0.2607  0.1283 -0.4838
  331MPD2    C4 4969   1.272   2.036  12.906 -0.2984 -0.4775 -0.4917
  331MPD2    C5 4970   1.327   2.163  12.929  0.4639  0.0251 -0.4129
  331MPD2     H 4971   1.080   2.110  12.637 -1.2780 -0.1431  0.4280
  331MPD2    H1 4972   1.302   1.950  12.965 -0.8624 -0.7524 -0.6053
  331MPD2    H2 4973   1.342   2.370  12.867  2.6056 -1.2922 -0.0634
  331MPD2    H3 4974   1.401   2.168  13.008  0.9184 -2.6438 -0.6798
  331MPD2     N 4975   1.125   1.889  12.787  0.3633  0.0382 -0.6664
  331MPD2    H5 4976   1.161   1.809  12.839  2.5845  1.8997  0.6107
  331MPD2    N1 4977   1.192   2.363  12.656 -0.7194  0.2803 -0.6129
  331MPD2    H7 4978   1.224   2.450  12.697 -0.7920 -0.7296  1.5654
  332TMC3    C1 4979   0.984   1.728  12.692  0.1487 -0.2731  0.3079
  332TMC3    C2 4980   0.852   1.690  12.703  0.0259 -0.4551  0.9561
  332TMC3    C3 4981   0.821   1.560  12.664  0.1315  0.1877 -0.4521
  332TMC3    C4 4982   1.085   1.636  12.659  0.6297 -0.9353 -0.3817
  332TMC3    C5 4983   1.044   1.503  12.637 -0.3105 -0.0935  0.0494
  332TMC3    C6 4984   0.922   1.461  12.645 -0.3688 -0.0952  0.3477
  332TMC3     C 4985   1.007   1.867  12.714  0.6376  0.0674  0.0761
  332TMC3     O 4986   0.929   1.943  12.657  0.2247  0.3746  0.7434
  332TMC3     H 4987   0.772   1.761  12.716  0.5030 -0.0326  1.6043
  332TMC3    H1 4988   1.188   1.668  12.660 -0.2880  2.0302 -0.3025
  332TMC3    H2 4989   0.901   1.357  12.623  1.3460 -0.0974 -1.2559
  332TMC3    C7 4990   1.125   1.416  12.554  0.1807  0.1303  0.0421
  332TMC3    C8 4991   0.707   1.536  12.587 -0.6344  0.2157  0.0271
  332TMC3    O1 4992   1.072   1.329  12.487  0.3638 -0.2156  0.6388
  332TMC3    O2 4993   0.723   1.448  12.502  0.4923 -0.2908  0.1019
  333MPD2     C 4994   1.017   1.852  11.036  0.2077 -0.7513  0.3550
  333MPD2    C1 4995   1.133   1.783  11.003  0.4357  0.0367 -0.6840
  333MPD2    C2 4996   1.147   1.655  11.050 -0.1195  0.1567 -0.7563
  333MPD2    C3 4997   1.046   1.592  11.114  0.0914  0.4747  0.5327
  333MPD2    C4 4998   0.925   1.660  11.125  0.3407  0.7591  0.5700
  333MPD2    C5 4999   0.910   1.790  11.097 -0.2104 -0.0344 -0.0072
  333MPD2     H 5000   1.243   1.606  11.043 -0.0317  0.1344  0.5442
  333MPD2    H1 5001   0.830   1.622  11.160 -0.2182  2.2329  0.6703
  333MPD2    H2 5002   1.017   1.956  11.006  1.4142 -0.2618  2.0235
  333MPD2    H3 5003   0.819   1.847  11.116 -0.8210 -1.0959  0.2434
  333MPD2     N 5004   1.072   1.468  11.167 -0.4726 -0.1194  0.3770
  333MPD2    H5 5005   1.167   1.433  11.174  0.8239  3.2120 -0.7692
  333MPD2    N1 5006   1.239   1.854  10.935  0.5845  0.3133 -0.1163
  333MPD2    H7 5007   1.228   1.954  10.923 -0.4574 -0.2032 -3.4747
  334TMC3    C1 5008   1.434   1.897  10.829  0.7370 -0.3290 -1.3564
  334TMC3    C2 5009   1.516   1.862  10.736 -0.4111 -0.2375  0.5690
  334TMC3    C3 5010   1.607   1.951  10.688 -0.7414 -0.1768 -0.2970
  334TMC3    C4 5011   1.435   2.024  10.886 -0.5498 -1.1174  0.9656
  334TMC3    C5 5012   1.525   2.114  10.840 -0.0640 -0.1657 -0.0040
  334TMC3    C6 5013   1.609   2.083  10.737 -0.1672 -0.5170  0.4009
  334TMC3     C 5014   1.356   1.794  10.896 -0.5264  0.3414  0.2997
  334TMC3     O 5015   1.392   1.677  10.892 -0.8353 -0.0157  0.3437
  334TMC3     H 5016   1.511   1.758  10.705  1.3471 -0.0030 -0.4711
  334TMC3    H1 5017   1.369   2.050  10.968 -1.5942 -1.5168  0.2523
  334TMC3    H2 5018   1.689   2.146  10.698 -2.2442  2.2209  0.5294
  334TMC3    C7 5019   1.550   2.245  10.897  0.4134  0.4999  0.0611
  334TMC3    C8 5020   1.708   1.899  10.603  0.2226  0.6677  0.5358
  334TMC3    O1 5021   1.664   2.291  10.880 -0.1896  0.1420 -0.4055
  334TMC3    O2 5022   1.681   1.794  10.550 -0.0376 -0.5315 -0.0743
  335TMC3    C1 5023   1.022   3.896  17.359 -0.2466  0.5614 -0.1525
  335TMC3    C2 5024   0.975   3.769  17.312  0.3685 -1.0842 -0.8522
  335TMC3    C3 5025   1.056   3.709  17.218  0.3871 -0.3291  0.5511
  335TMC3    C4 5026   1.142   3.954  17.325  0.1385 -0.0697 -0.0625
  335TMC3    C5 5027   1.210   3.884  17.232  0.4941 -0.3013 -0.2264
  335TMC3    C6 5028   1.177   3.762  17.181  0.1610 -0.0618 -0.4386
  335TMC3     C 5029   0.973   3.941  17.485 -0.5418  0.2853 -0.5529
  335TMC3     O 5030   0.959   4.058  17.504 -0.0002  0.3725  0.1170
  335TMC3     H 5031   0.872   3.740  17.328  0.1871 -0.1435 -0.3241
  335TMC3    H1 5032   1.178   4.047  17.368  0.8797 -0.6997  0.6949
  335TMC3    H2 5033   1.225   3.715  17.096  0.9967 -1.3142  0.7322
  335TMC3    C7 5034   1.339   3.929  17.186  0.4310 -0.0800  0.1952
  335TMC3    C8 5035   0.992   3.609  17.147 -0.1917 -0.3338  0.3833
  335TMC3    O1 5036   1.414   3.836  17.147 -0.0728  0.1460 -0.5098
  335TMC3    O2 5037   1.015   3.606  17.025  0.9408  0.1581 -0.6295
  336MPD2     C 5038   0.248   1.405  16.292  0.0660 -0.0854  0.0110
  336MPD2    C1 5039   0.314   1.393  16.172 -0.2073  0.1608 -0.3088
  336MPD2    C2 5040   0.318   1.268  16.118  0.0912  0.7837 -0.9157
  336MPD2    C3 5041   0.267   1.155  16.185  0.3168 -0.4255 -0.1846
  336MPD2    C4 5042   0.193   1.176  16.300  0.2305  0.3892 -0.7322
  336MPD2    C5 5043   0.181   1.305  16.346  1.3377 -0.5985 -0.3970
  336MPD2     H 5044   0.358   1.258  16.017 -1.5369  0.8451 -1.5581
  336MPD2    H1 5045   0.147   1.095  16.356  0.0303  1.5318  0.7459
  336MPD2    H2 5046   0.235   1.501  16.340 -0.4796  0.6126 -1.5477
  336MPD2    H3 5047   0.120   1.319  16.434  0.8476 -0.4771 -0.7540
  336MPD2     N 5048   0.280   1.018  16.145  0.1580 -0.1255  0.6941
  336MPD2    H5 5049   0.230   0.948  16.199 -0.3291  0.0436  0.4613
  336MPD2    N1 5050   0.373   1.503  16.103  0.0934  0.2027  0.3915
  336MPD2    H7 5051   0.396   1.506  16.005 -0.8851  1.5307  0.2012
  337TMC3    C1 5052   0.458   1.719  16.087 -0.0547  0.1079  0.2114
  337TMC3    C2 5053   0.396   1.730  15.966 -0.4311  0.3062  0.4274
  337TMC3    C3 5054   0.413   1.849  15.901  0.3379 -1.1324 -0.3969
  337TMC3    C4 5055   0.541   1.807  16.145 -0.1964 -0.2490 -0.3763
  337TMC3    C5 5056   0.564   1.920  16.083  0.2239  0.7213 -0.0095
  337TMC3    C6 5057   0.499   1.940  15.957  0.2655  0.3547 -0.2132
  337TMC3     C 5058   0.406   1.613  16.172  1.1427  0.6403 -0.5379
  337TMC3     O 5059   0.438   1.620  16.291 -0.2523  0.4821  0.3266
  337TMC3     H 5060   0.302   1.679  15.951 -0.9481  1.5131 -0.4293
  337TMC3    H1 5061   0.589   1.780  16.239 -0.0741  1.7493  0.1570
  337TMC3    H2 5062   0.523   2.041  15.924  1.2864  0.4753  0.9156
  337TMC3    C7 5063   0.628   2.021  16.168  0.1732 -0.5470 -0.1556
  337TMC3    C8 5064   0.325   1.900  15.801  0.2110  0.3518  0.3515
  337TMC3    O1 5065   0.629   1.994  16.287  0.8954  0.2574  0.1738
  337TMC3    O2 5066   0.264   1.825  15.727 -0.3315  0.6403 -0.2907
  338MPD2     C 5067   0.556   1.065   1.235  0.2082  0.4599 -0.4163
  338MPD2    C1 5068   0.517   0.974   1.138  0.4743 -0.1595 -0.5247
  338MPD2    C2 5069   0.394   0.994   1.088  0.2478 -0.2757  0.3716
  338MPD2    C3 5070   0.309   1.095   1.129 -0.0256  0.1202 -0.0111
  338MPD2    C4 5071   0.354   1.184   1.220 -0.1268  0.2723 -0.0619
  338MPD2    C5 5072   0.476   1.171   1.274 -0.1029 -0.2575  0.2978
  338MPD2     H 5073   0.364   0.929   1.007  2.6268 -2.5328  1.2958
  338MPD2    H1 5074   0.295   1.273   1.240 -0.9622  0.0471 -1.5200
  338MPD2    H2 5075   0.656   1.046   1.273 -1.0283 -0.9735  2.0908
  338MPD2    H3 5076   0.516   1.240   1.348  0.5691  0.8813 -1.1249
  338MPD2     N 5077   0.185   1.100   1.062 -0.3801 -0.4184 -0.0253
  338MPD2    H5 5078   0.174   1.025   0.995 -1.5488  1.8870 -2.4152
  338MPD2    N1 5079   0.600   0.877   1.074 -0.6479  0.0506  0.1489
  338MPD2    H7 5080   0.561   0.823   0.998 -2.8668 -1.5456  2.3995
  339TMC3    C1 5081   4.713   1.172   0.971 -0.0809 -0.0470 -0.4971
  339TMC3    C2 5082   4.579   1.161   1.016  0.0376 -0.6991 -0.5185
  339TMC3    C3 5083   4.500   1.090   0.927 -0.4183  0.1409  0.0330
  339TMC3    C4 5084   0.040   1.125   0.854  0.2851  0.1060 -0.2094
  339TMC3    C5 5085   4.680   1.057   0.780  0.1627 -0.2092  0.3677
  339TMC3    C6 5086   4.544   1.033   0.813 -0.2126 -0.4864 -0.2942
  339TMC3     C 5087   0.082   1.191   1.079  0.0387  0.0812  0.1473
  339TMC3     O 5088   0.076   1.282   1.159  0.4732 -0.6230  0.6657
  339TMC3     H 5089   4.554   1.196   1.115  1.4344 -1.7958  0.2216
  339TMC3    H1 5090   0.137   1.156   0.818  0.1503  0.2374 -0.4641
  339TMC3    H2 5091   4.472   0.995   0.742  0.0687 -2.4551  0.4687
  339TMC3    C7 5092   0.012   1.021   0.646  0.3115 -0.3267 -0.3182
  339TMC3    C8 5093   4.375   1.041   0.975 -0.0901  0.2206 -0.4965
  339TMC3    O1 5094   0.126   1.061   0.618 -0.0359 -0.2258 -0.4066
  339TMC3    O2 5095   4.310   1.108   1.056 -0.2969 -0.3511 -0.4313
  340MPD2     C 5096   1.319   1.839  10.412  0.2464  0.0078 -0.2987
  340MPD2    C1 5097   1.417   1.913  10.357  0.8762  0.2234 -0.0873
  340MPD2    C2 5098   1.434   2.044  10.395  0.0674 -0.2593  0.0159
  340MPD2    C3 5099   1.354   2.107  10.490  0.2767 -0.7311  0.2216
  340MPD2    C4 5100   1.247   2.032  10.534 -0.7850  0.0355  0.6471
  340MPD2    C5 5101   1.238   1.902  10.501 -0.1688  0.1688  0.2737
  340MPD2     H 5102   1.512   2.104  10.349 -0.2879  1.3202  1.4535
  340MPD2    H1 5103   1.170   2.063  10.604  0.9647  0.0495  2.5521
  340MPD2    H2 5104   1.303   1.733  10.399  1.2246 -0.1277 -0.4004
  340MPD2    H3 5105   1.154   1.854  10.548  0.7587 -0.8642  0.8691
  340MPD2     N 5106   1.380   2.237  10.532 -0.2894 -0.4977 -0.2501
  340MPD2    H5 5107   1.463   2.278  10.490 -2.1461  2.3027 -1.2161
  340MPD2    N1 5108   1.468   1.859  10.246 -0.4002  0.4168 -0.7875
  340MPD2    H7 5109   1.425   1.770  10.221  0.5373 -0.4772  0.7989
  341TMC3    C1 5110   1.550   1.839  10.028 -0.3149 -0.5456 -0.3466
  341TMC3    C2 5111   1.437   1.763  10.004  0.2605  0.5753 -0.0799
  341TMC3    C3 5112   1.403   1.757   9.875  0.1283 -0.1425 -0.7921
  341TMC3    C4 5113   1.634   1.900   9.931 -0.4314  0.1286 -0.4137
  341TMC3    C5 5114   1.584   1.892   9.805 -0.0392  0.1242  0.4189
  341TMC3    C6 5115   1.470   1.826   9.778  0.3838 -0.4563 -0.2837
  341TMC3     C 5116   1.567   1.903  10.164  0.3945  0.1537 -0.4408
  341TMC3     O 5117   1.634   2.006  10.172  0.2510  0.4002 -0.7780
  341TMC3     H 5118   1.394   1.691  10.073 -0.1138  2.6322  1.8465
  341TMC3    H1 5119   1.713   1.967   9.962 -0.8746  0.7171 -0.5507
  341TMC3    H2 5120   1.447   1.811   9.673 -2.0071 -1.9097  0.4480
  341TMC3    C7 5121   1.675   1.942   9.703 -0.2067  0.5966  0.1924
  341TMC3    C8 5122   1.294   1.674   9.834 -0.6320  0.5668 -0.6916
  341TMC3    O1 5123   1.793   1.953   9.735  0.0869 -0.2168 -0.1543
  341TMC3    O2 5124   1.187   1.676   9.891  0.2836  0.3834  0.3822
  342MPD2     C 5125   3.588   1.757   0.017  0.8872 -0.5670  0.0110
  342MPD2    C1 5126   3.670   1.759  17.612 -0.0552  0.7012 -0.1703
  342MPD2    C2 5127   3.729   1.884  17.581  0.4299 -0.0046 -0.1776
  342MPD2    C3 5128   3.695   2.003  17.646 -0.0017 -0.4503 -0.4690
  342MPD2    C4 5129   3.610   1.996   0.052  0.7100 -0.3478  0.2936
  342MPD2    C5 5130   3.565   1.874   0.085 -0.3729 -0.2833  0.2850
  342MPD2     H 5131   3.787   1.887  17.489  1.0776 -0.0517  0.2250
  342MPD2    H1 5132   3.582   2.079   0.117  1.4391  0.8516 -0.9193
  342MPD2    H2 5133   3.549   1.662   0.051 -0.0402 -0.0841  0.2748
  342MPD2    H3 5134   3.494   1.865   0.166 -0.5492  1.2421  0.2891
  342MPD2     N 5135   3.749   2.125  17.604 -0.2873  0.2865 -0.0229
  342MPD2    H5 5136   3.713   2.204  17.657 -0.8129 -1.8087  2.7489
  342MPD2    N1 5137   3.714   1.651  17.539 -0.3719 -0.2845  0.5600
  342MPD2    H7 5138   3.774   1.674  17.460 -1.9675  1.3194 -0.1681
  343TMC3    C1 5139   3.722   1.433  17.451  0.0268 -0.1175  0.2602
  343TMC3    C2 5140   3.853   1.455  17.425  0.1245  0.3916  0.0147
  343TMC3    C3 5141   3.907   1.375  17.327 -1.0570 -0.2163 -0.6225
  343TMC3    C4 5142   3.636   1.350  17.386 -0.0082  0.1524 -0.5162
  343TMC3    C5 5143   3.693   1.278  17.278 -1.2332  0.1926  0.0117
  343TMC3    C6 5144   3.825   1.288  17.254  0.3746  0.3316 -0.4560
  343TMC3     C 5145   3.662   1.530  17.540 -0.2363  0.4564  0.2466
  343TMC3     O 5146   3.561   1.484  17.590  0.6201 -0.1453 -0.1957
  343TMC3     H 5147   3.922   1.518  17.479  1.3458  0.1283 -1.2360
  343TMC3    H1 5148   3.530   1.336  17.405  0.5789 -0.5098  2.1754
  343TMC3    H2 5149   3.870   1.216  17.187  0.1265 -0.8552  0.6512
  343TMC3    C7 5150   3.607   1.207  17.194  0.1642  0.5588 -0.3091
  343TMC3    C8 5151   4.049   1.390  17.305 -0.8423  0.2915  0.4091
  343TMC3    O1 5152   3.489   1.191  17.226  0.0637  0.5156 -0.4876
  343TMC3    O2 5153   4.103   1.496  17.336  0.0684 -0.3251 -0.3165
  344MPD2     C 5154   0.469   0.002   9.762  0.5069 -0.0180  0.4001
  344MPD2    C1 5155   0.391   0.055   9.867 -0.4618 -0.2851  0.6287
  344MPD2    C2 5156   0.419   0.176   9.930 -0.0819  1.0658 -0.0464
  344MPD2    C3 5157   0.523   0.254   9.873  0.3262 -0.3440  0.1735
  344MPD2    C4 5158   0.584   0.206   9.761  0.0814  0.5431 -0.4916
  344MPD2    C5 5159   0.562   0.090   9.706  0.8115  0.1915 -0.0669
  344MPD2     H 5160   0.363   0.209  10.017 -0.8262  0.0209 -0.1238
  344MPD2    H1 5161   0.661   0.266   9.714  2.3983 -0.9398  1.3498
  344MPD2    H2 5162   0.442   4.635   9.714 -0.8907  0.5383  0.0963
  344MPD2    H3 5163   0.622   0.061   9.620  2.3747  3.5899 -0.1004
  344MPD2     N 5164   0.560   0.383   9.922 -0.2708 -0.0626  0.3468
  344MPD2    H5 5165   0.616   0.440   9.860  0.0980 -1.0694 -0.2447
  344MPD2    N1 5166   0.294   4.708   9.930 -0.3065  0.5558  0.3677
  344MPD2    H7 5167   0.247   0.027  10.008  1.1421 -0.8372  2.0585
  345TMC3    C1 5168   0.550   0.579  10.056 -0.5126  0.1602 -0.5053
  345TMC3    C2 5169   0.684   0.605  10.038 -0.3315 -0.1705 -0.0043
  345TMC3    C3 5170   0.741   0.720  10.094  1.1096 -0.1917  0.0266
  345TMC3    C4 5171   0.474   0.664  10.140 -0.0365 -0.4251  0.6133
  345TMC3    C5 5172   0.528   0.778  10.187 -0.2144 -0.3149  0.3497
  345TMC3    C6 5173   0.663   0.806  10.164  1.5161  0.0127 -0.1067
  345TMC3     C 5174   0.496   0.446  10.033  0.3990 -0.2911 -0.2320
  345TMC3     O 5175   0.401   0.414  10.105 -0.6306  0.7173  0.1499
  345TMC3     H 5176   0.756   0.539   9.992 -1.5900 -1.2478 -0.4142
  345TMC3    H1 5177   0.368   0.643  10.150 -0.1928 -0.8793 -2.0200
  345TMC3    H2 5178   0.704   0.904  10.185  0.8267  0.3015 -0.1261
  345TMC3    C7 5179   0.445   0.897  10.203  0.2418  0.0433 -0.3490
  345TMC3    C8 5180   0.863   0.764  10.031  0.5216  0.8606 -0.0587
  345TMC3    O1 5181   0.504   1.003  10.228 -0.1913 -0.3194 -0.2038
  345TMC3    O2 5182   0.929   0.845  10.103  0.6596 -0.3686  0.2378
  346MPD2     C 5183   0.060   2.734  13.801 -0.4127 -0.2628  0.1304
  346MPD2    C1 5184   0.112   2.855  13.777 -0.5906 -0.8285 -0.7732
  346MPD2    C2 5185   0.139   2.935  13.893 -0.2462 -0.5062  0.6791
  346MPD2    C3 5186   0.113   2.889  14.020 -0.5104  1.3631 -0.0139
  346MPD2    C4 5187   0.041   2.773  14.037  0.7783  0.3048  0.4593
  346MPD2    C5 5188   0.025   2.697  13.930  0.1844  0.9831 -0.2448
  346MPD2     H 5189   0.184   3.032  13.877  0.7181 -0.6912  2.2903
  346MPD2    H1 5190   4.723   2.736  14.129  0.4913  0.7142  0.4839
  346MPD2    H2 5191   0.045   2.661  13.723  0.7723  1.3177 -1.5550
  346MPD2    H3 5192   4.702   2.601  13.940  0.5274  0.7743 -0.5172
  346MPD2     N 5193   0.135   2.977  14.121  0.3430  0.5722  0.0421
  346MPD2    H5 5194   0.177   3.068  14.103  0.0129  1.0564  1.7018
  346MPD2    N1 5195   0.156   2.904  13.651 -0.1496 -0.1229  0.0088
  346MPD2    H7 5196   0.216   2.985  13.638  0.1377 -0.3401 -0.0215
  347TMC3    C1 5197   0.162   3.048  14.352  0.3220 -0.8991  0.0530
  347TMC3    C2 5198   0.232   3.020  14.468 -0.2501  0.3785 -0.2001
  347TMC3    C3 5199   0.285   3.126  14.531 -0.4525 -0.7051  0.1926
  347TMC3    C4 5200   0.141   3.175  14.310  0.3961  0.3053  0.1900
  347TMC3    C5 5201   0.183   3.273  14.393  0.0067  0.1354 -0.2995
  347TMC3    C6 5202   0.252   3.255  14.509  1.0163 -0.2987  0.5306
  347TMC3     C 5203   0.149   2.935  14.255 -0.5708  0.1752  0.1228
  347TMC3     O 5204   0.161   2.824  14.304  0.0639  0.2574  0.7080
  347TMC3     H 5205   0.273   2.921  14.484  0.6114  0.5089 -1.5989
  347TMC3    H1 5206   0.097   3.199  14.214  0.3600  0.3873  0.2262
  347TMC3    H2 5207   0.327   3.329  14.536  2.0202 -0.3057 -2.2253
  347TMC3    C7 5208   0.205   3.401  14.327 -0.5704  0.0083  0.0668
  347TMC3    C8 5209   0.423   3.095  14.575  0.1653  0.3037 -0.3412
  347TMC3    O1 5210   0.264   3.397  14.220 -0.2741  0.2944  0.2316
  347TMC3    O2 5211   0.486   3.004  14.518  0.0157  0.0096  0.1464
  348MPD2     C 5212   3.398   2.405  12.282 -0.2289  0.4761 -0.2995
  348MPD2    C1 5213   3.415   2.347  12.161  0.0470 -0.2387 -0.1872
  348MPD2    C2 5214   3.396   2.422  12.042  1.3866 -0.3496  0.3541
  348MPD2    C3 5215   3.368   2.553  12.046 -0.5673 -0.2578  0.5682
  348MPD2    C4 5216   3.351   2.605  12.170  0.3226 -0.0894  0.3934
  348MPD2    C5 5217   3.370   2.544  12.285 -0.2312  0.3950 -0.8414
  348MPD2     H 5218   3.407   2.379  11.943 -1.1724 -0.0528 -0.0471
  348MPD2    H1 5219   3.322   2.709  12.170  1.3987  0.2084  0.1662
  348MPD2    H2 5220   3.414   2.350  12.375  0.7968  1.2900  0.0071
  348MPD2    H3 5221   3.362   2.595  12.380 -1.9816 -0.2576 -0.6454
  348MPD2     N 5222   3.355   2.621  11.927  0.2392  0.6035 -0.1686
  348MPD2    H5 5223   3.356   2.566  11.842 -0.3069 -0.7833  0.7312
  348MPD2    N1 5224   3.440   2.210  12.140  0.4295  0.0669 -0.4086
  348MPD2    H7 5225   3.438   2.170  12.047 -0.6012  0.7465 -0.6741
  349TMC3    C1 5226   3.493   1.989  12.196 -0.1142  0.5277  0.4909
  349TMC3    C2 5227   3.610   1.939  12.248  0.1884  0.2645 -0.0794
  349TMC3    C3 5228   3.694   1.861  12.179 -0.1390  0.2025 -0.6641
  349TMC3    C4 5229   3.465   1.966  12.064  0.6379 -0.0265  0.0401
  349TMC3    C5 5230   3.548   1.890  11.987  0.0490 -0.0005  0.3339
  349TMC3    C6 5231   3.663   1.840  12.046  0.3126 -0.0000 -0.1068
  349TMC3     C 5232   3.462   2.120  12.243 -0.9976 -0.4097  0.3016
  349TMC3     O 5233   3.477   2.126  12.363  0.1036  0.1856  0.4730
  349TMC3     H 5234   3.608   1.938  12.356 -3.4332  3.9240 -0.1066
  349TMC3    H1 5235   3.372   2.002  12.022  1.5638  1.3577 -0.8119
  349TMC3    H2 5236   3.737   1.793  11.981 -0.0468 -0.7922  0.0589
  349TMC3    C7 5237   3.571   1.972  11.870  0.6229  0.1708 -1.0034
  349TMC3    C8 5238   3.784   1.770  12.246  0.0472 -0.4519  0.5861
  349TMC3    O1 5239   3.536   1.937  11.764  0.0007  0.4602  0.0869
  349TMC3    O2 5240   3.773   1.756  12.367  0.5832 -0.0015  0.0314
  350MPD2     C 5241   2.546   0.191   9.754 -0.7661  0.4208 -0.5012
  350MPD2    C1 5242   2.563   0.103   9.863 -0.5401  0.1969  0.0184
  350MPD2    C2 5243   2.691   0.064   9.901  0.3355  1.0339  0.6879
  350MPD2    C3 5244   2.797   0.097   9.824 -0.3076 -0.0975  0.5223
  350MPD2    C4 5245   2.782   0.185   9.719 -0.2664 -0.1926 -0.5613
  350MPD2    C5 5246   2.655   0.230   9.689 -0.0498  0.1532  0.1375
  350MPD2     H 5247   2.703   4.726   9.988 -2.0574 -0.1196  0.1565
  350MPD2    H1 5248   2.869   0.216   9.663  0.0137 -0.5606 -0.3272
  350MPD2    H2 5249   2.447   0.222   9.726 -1.0489 -0.5676 -0.6019
  350MPD2    H3 5250   2.640   0.296   9.604 -1.5621 -1.8620 -1.1296
  350MPD2     N 5251   2.918   0.046   9.872  0.1652 -0.3678 -0.6724
  350MPD2    H5 5252   2.919   4.722   9.960 -0.4477  0.9450  0.0886
  350MPD2    N1 5253   2.448   0.055   9.939  0.2251 -0.5399  0.2628
  350MPD2    H7 5254   2.472   4.719  10.015 -1.5996 -0.4586  0.9116
  351TMC3    C1 5255   2.230   0.031  10.027  0.4269 -0.6486 -0.2047
  351TMC3    C2 5256   2.254   4.626  10.077  0.1593 -0.2304 -0.7102
  351TMC3    C3 5257   2.158   4.574  10.167  0.0153  0.4121  0.4390
  351TMC3    C4 5258   2.141   0.116  10.087 -0.3786  0.3456 -0.4548
  351TMC3    C5 5259   2.057   0.058  10.179 -0.5322  0.3684  0.2044
  351TMC3    C6 5260   2.060   4.652  10.221  0.4254  0.8228 -0.1917
  351TMC3     C 5261   2.319   0.086   9.925  0.1606  0.3153 -0.3273
  351TMC3     O 5262   2.274   0.178   9.854  0.3704  0.6471  0.1981
  351TMC3     H 5263   2.335   4.577  10.025  0.2332 -0.3300 -0.4984
  351TMC3    H1 5264   2.124   0.214  10.044 -1.8876  1.2073  2.0886
  351TMC3    H2 5265   1.991   4.601  10.287  0.1098  1.6491  0.1135
  351TMC3    C7 5266   1.980   0.142  10.277 -0.1907  0.3765 -0.4127
  351TMC3    C8 5267   2.152   4.431  10.167 -0.0216  0.2930  0.0320
  351TMC3    O1 5268   1.875   0.105  10.331  0.0718 -0.0379  0.3060
  351TMC3    O2 5269   2.210   4.376  10.077 -0.5014  0.0505 -0.4074
  352MPD2     C 5270   0.142   2.419   1.386 -0.0592  0.3662 -0.4304
  352MPD2    C1 5271   0.273   2.438   1.338  0.4188  0.3077  0.9387
  352MPD2    C2 5272   0.372   2.369   1.397  0.1239 -0.0713 -0.0140
  352MPD2    C3 5273   0.346   2.289   1.504 -0.0120  0.1476 -0.1742
  352MPD2    C4 5274   0.213   2.259   1.550 -0.0271  0.3017 -0.0913
  352MPD2    C5 5275   0.124   2.333   1.491  0.3310 -0.1938  0.6751
  352MPD2     H 5276   0.473   2.381   1.359  1.0715 -1.8605  1.9187
  352MPD2    H1 5277   0.197   2.197   1.638 -0.1025  1.3222  0.6138
  352MPD2    H2 5278   0.059   2.478   1.350 -0.5040  0.2205  0.3571
  352MPD2    H3 5279   0.024   2.329   1.534 -0.6364  0.2449 -1.5294
  352MPD2     N 5280   0.442   2.197   1.570 -0.0999  0.2902  0.0305
  352MPD2    H5 5281   0.402   2.137   1.641 -0.3481 -0.1092 -0.4459
  352MPD2    N1 5282   0.293   2.522   1.227  0.0644 -0.1843 -0.1532
  352MPD2    H7 5283   0.215   2.581   1.201  0.9731  0.9886 -0.2543
  353TMC3    C1 5284   0.639   2.063   1.597 -0.4883 -0.4044 -0.6782
  353TMC3    C2 5285   0.778   2.059   1.603  0.4092  0.2746 -0.3287
  353TMC3    C3 5286   0.840   1.940   1.586 -0.3514 -0.3958  0.5074
  353TMC3    C4 5287   0.566   1.948   1.564  0.1992  0.0066 -0.9142
  353TMC3    C5 5288   0.633   1.836   1.543  0.6485  0.1675  0.2574
  353TMC3    C6 5289   0.772   1.832   1.547  0.3776  0.8084  0.0686
  353TMC3     C 5290   0.576   2.188   1.550 -0.5465  0.5027 -0.0691
  353TMC3     O 5291   0.653   2.260   1.490 -0.6278 -0.6072  0.3906
  353TMC3     H 5292   0.832   2.153   1.597 -0.6788  0.8075 -1.8234
  353TMC3    H1 5293   0.459   1.962   1.560  0.2121 -0.2309 -1.8811
  353TMC3    H2 5294   0.825   1.741   1.522 -1.1878  0.1432 -0.8120
  353TMC3    C7 5295   0.565   1.733   1.464  0.9373 -0.2733 -0.7737
  353TMC3    C8 5296   0.981   1.923   1.610  0.6855  0.7507 -0.0004
  353TMC3    O1 5297   0.632   1.670   1.385  0.6135 -0.0432 -0.4498
  353TMC3    O2 5298   1.036   2.024   1.655  0.5261 -0.1523  0.1020
  354TMC3    C1 5299   2.717   3.865  13.866 -0.5630 -0.5619 -0.0146
  354TMC3    C2 5300   2.751   3.997  13.845  0.0859 -0.3607  0.6310
  354TMC3    C3 5301   2.819   4.025  13.735 -0.5176 -0.0655 -0.0809
  354TMC3    C4 5302   2.775   3.772  13.789 -0.0593 -0.1286  0.4009
  354TMC3    C5 5303   2.837   3.809  13.671 -0.1363  0.3564  0.6750
  354TMC3    C6 5304   2.871   3.942  13.641  0.4110 -0.1713 -0.3843
  354TMC3     C 5305   2.610   3.819  13.960  0.0628 -0.3405 -0.3545
  354TMC3     O 5306   2.517   3.899  13.963 -0.2742 -0.0096  0.1608
  354TMC3     H 5307   2.711   4.063  13.920 -0.0056  0.2470  0.0453
  354TMC3    H1 5308   2.740   3.670  13.794  1.7086 -0.8392 -1.5414
  354TMC3    H2 5309   2.959   3.968  13.583  1.0810  3.8429  2.3804
  354TMC3    C7 5310   2.875   3.704  13.585  0.6755  0.4790 -0.0617
  354TMC3    C8 5311   2.842   4.174  13.719  0.0729  0.0544 -0.8509
  354TMC3    O1 5312   2.897   3.594  13.636  0.0550  0.5568 -0.2984
  354TMC3    O2 5313   2.817   4.242  13.821 -0.3128 -0.3545 -0.0082
  355MPD2     C 5314   2.579   4.450  11.912  0.0276 -0.4615 -0.7317
  355MPD2    C1 5315   2.614   4.561  11.833  0.1304  0.3220 -0.8920
  355MPD2    C2 5316   2.727   4.642  11.874  0.0064  0.2096  0.1690
  355MPD2    C3 5317   2.799   4.597  11.983  0.7309  0.7883  0.3143
  355MPD2    C4 5318   2.761   4.490  12.065  0.2975  0.0021  0.3560
  355MPD2    C5 5319   2.645   4.421  12.026 -0.3569 -0.2020 -0.0958
  355MPD2     H 5320   2.761   0.003  11.821  0.0048  0.3133  0.3387
  355MPD2    H1 5321   2.806   4.472  12.162  1.5587  1.4386  0.0322
  355MPD2    H2 5322   2.495   4.387  11.887  0.1791 -1.1203  0.4275
  355MPD2    H3 5323   2.600   4.342  12.084 -0.0526 -0.8853 -0.7973
  355MPD2     N 5324   2.917   4.672  12.018 -0.7493 -0.2673  0.3679
  355MPD2    H5 5325   2.930   0.030  11.964 -1.4101 -0.4639 -0.0953
  355MPD2    N1 5326   2.522   4.589  11.731  0.5819  0.1832  0.3109
  355MPD2    H7 5327   2.443   4.525  11.730  0.0724  0.8284 -0.7668
  356TMC3    C1 5328   3.130   0.006  12.086  0.7732 -0.5804 -0.0169
  356TMC3    C2 5329   3.169   0.030  11.955 -0.1794 -0.4714 -0.0220
  356TMC3    C3 5330   3.296   0.060  11.932  0.2273  0.8944  0.0718
  356TMC3    C4 5331   3.223   0.006  12.182  0.0126 -0.6372  0.3369
  356TMC3    C5 5332   3.352   0.046  12.159 -0.2060  0.5394  0.3665
  356TMC3    C6 5333   3.385   0.087  12.033 -0.4764  0.5505  0.4507
  356TMC3     C 5334   3.017   4.646  12.112 -0.5959 -0.3056 -0.7067
  356TMC3     O 5335   3.038   4.548  12.183 -0.1899 -0.4002  0.0243
  356TMC3     H 5336   3.094   0.018  11.877 -0.2659  3.0558 -0.4851
  356TMC3    H1 5337   3.205   4.694  12.282  1.9290  1.7199  1.5780
  356TMC3    H2 5338   3.487   0.116  12.014  0.8727 -3.0406  2.0718
  356TMC3    C7 5339   3.417   0.097  12.283 -0.4793 -0.5250  1.2335
  356TMC3    C8 5340   3.327   0.088  11.793  0.2229 -1.0590 -0.0271
  356TMC3    O1 5341   3.391   0.041  12.386 -0.0518  0.1081 -0.3077
  356TMC3    O2 5342   3.245   0.053  11.709 -0.1438  0.8471  0.0470
  357MPD2     C 5343   1.779   4.395   0.506 -0.4591 -0.0710  0.0541
  357MPD2    C1 5344   1.839   4.400   0.633 -0.0013 -0.5398 -0.0350
  357MPD2    C2 5345   1.780   4.480   0.730 -0.6331 -0.4516  0.5282
  357MPD2    C3 5346   1.672   4.564   0.705  0.1006  0.0863  0.4844
  357MPD2    C4 5347   1.618   4.565   0.575  0.6541  0.4155  0.2493
  357MPD2    C5 5348   1.662   4.472   0.480 -0.5597  0.2090  0.1140
  357MPD2     H 5349   1.827   4.489   0.827  2.8024 -1.3314 -1.0608
  357MPD2    H1 5350   1.532   4.626   0.551  1.1209 -0.2139 -3.0475
  357MPD2    H2 5351   1.826   4.336   0.428 -2.3467  1.1158 -2.0071
  357MPD2    H3 5352   1.616   4.457   0.383  1.0592 -1.1850 -0.4329
  357MPD2     N 5353   1.606   4.647   0.797 -0.0070  0.1462  0.0830
  357MPD2    H5 5354   1.519   4.691   0.770  0.5915  0.2223 -1.7302
  357MPD2    N1 5355   1.944   4.303   0.654  0.2339  0.1708 -0.5656
  357MPD2    H7 5356   1.977   4.248   0.575  1.1557 -1.0592  0.6764
  358TMC3    C1 5357   2.108   4.179   0.782  0.6564  0.0658  0.5006
  358TMC3    C2 5358   2.107   4.077   0.696 -0.4670 -0.7132  0.6933
  358TMC3    C3 5359   2.150   3.951   0.727  0.4205  0.3460 -0.5379
  358TMC3    C4 5360   2.142   4.155   0.915 -0.0843 -0.0123  1.1010
  358TMC3    C5 5361   2.192   4.027   0.943  0.5231  0.2156  0.6012
  358TMC3    C6 5362   2.185   3.925   0.853  0.3817 -0.2129 -0.1035
  358TMC3     C 5363   2.019   4.294   0.767  0.2273 -1.0819 -0.2308
  358TMC3     O 5364   2.020   4.374   0.862  0.2183  0.1605  0.0315
  358TMC3     H 5365   2.081   4.099   0.593 -1.5647  0.0721  1.1341
  358TMC3    H1 5366   2.152   4.235   0.986  2.0090  0.7875 -0.0974
  358TMC3    H2 5367   2.233   3.832   0.882  0.6305 -0.8657 -2.5613
  358TMC3    C7 5368   2.247   4.008   1.075 -0.8648  0.6894 -0.5698
  358TMC3    C8 5369   2.169   3.854   0.616 -0.4065 -0.2168  0.0740
  358TMC3    O1 5370   2.291   3.898   1.092  0.1509  0.0887  0.5496
  358TMC3    O2 5371   2.200   3.905   0.505 -0.0810 -0.1775 -0.1362
  359MPD2     C 5372   2.703   2.679  12.578  0.3443  0.3211  0.3704
  359MPD2    C1 5373   2.821   2.744  12.622  0.0113  0.6599  1.3160
  359MPD2    C2 5374   2.865   2.710  12.743  0.2247  0.2704 -0.1601
  359MPD2    C3 5375   2.805   2.618  12.826 -0.1905 -0.1660  0.0773
  359MPD2    C4 5376   2.689   2.551  12.783  0.5646  0.1614  0.3205
  359MPD2    C5 5377   2.641   2.587  12.660  0.9167 -0.3066 -0.3972
  359MPD2     H 5378   2.957   2.758  12.776  1.6808 -3.3442  1.1661
  359MPD2    H1 5379   2.646   2.470  12.841  0.7721 -2.0611 -2.6397
  359MPD2    H2 5380   2.666   2.692  12.477  2.0278  0.9528 -0.1546
  359MPD2    H3 5381   2.557   2.528  12.623  0.2460  0.7091 -0.4938
  359MPD2     N 5382   2.849   2.592  12.953  0.0516  0.7719  0.7267
  359MPD2    H5 5383   2.789   2.533  13.009  1.4465  0.1742  1.5827
  359MPD2    N1 5384   2.899   2.840  12.560 -0.3094  0.3020 -0.0929
  359MPD2    H7 5385   2.981   2.878  12.606 -0.7134 -0.2914  1.0933
  360TMC3    C1 5386   2.961   2.954  12.355  0.4994  0.0522 -0.4610
  360TMC3    C2 5387   3.089   2.951  12.401  0.5436 -0.3604 -0.5259
  360TMC3    C3 5388   3.190   2.981  12.315 -0.3595 -0.5300 -0.5560
  360TMC3    C4 5389   2.939   2.960  12.221  0.0683 -0.0888  0.7278
  360TMC3    C5 5390   3.038   3.001  12.141  0.8807 -0.1718 -0.2228
  360TMC3    C6 5391   3.166   3.017  12.186 -0.2629 -0.5953 -0.0218
  360TMC3     C 5392   2.862   2.880  12.428 -0.4214 -0.0797  0.6305
  360TMC3     O 5393   2.762   2.849  12.368  0.0182 -0.2199  0.3087
  360TMC3     H 5394   3.123   2.944  12.503  1.4775 -1.7601 -0.9421
  360TMC3    H1 5395   2.842   2.930  12.184  1.7163 -0.3999 -3.3586
  360TMC3    H2 5396   3.241   3.050  12.115  0.5695 -0.3145  0.9716
  360TMC3    C7 5397   3.025   2.983  11.998 -0.5668  0.4664 -0.2535
  360TMC3    C8 5398   3.324   2.967  12.361 -0.2294 -1.4299 -0.5316
  360TMC3    O1 5399   3.072   3.068  11.924 -0.2763  0.2539  0.0503
  360TMC3    O2 5400   3.344   2.972  12.481 -0.4764 -0.0361 -0.2984
  361MPD2     C 5401   0.156   2.181  16.462  0.5402 -0.5979  0.6388
  361MPD2    C1 5402   0.104   2.179  16.588 -0.0530 -0.0195 -0.4107
  361MPD2    C2 5403   0.175   2.137  16.698  0.1105 -0.1978 -0.0783
  361MPD2    C3 5404   0.300   2.087  16.678  0.1950 -0.0687  0.3428
  361MPD2    C4 5405   0.353   2.091  16.549  0.1097  0.2003  0.2497
  361MPD2    C5 5406   0.287   2.156  16.445 -0.1920  0.5652  1.0199
  361MPD2     H 5407   0.123   2.139  16.793  0.3023 -0.9218  0.0467
  361MPD2    H1 5408   0.450   2.051  16.521 -0.5657 -0.0813 -1.6878
  361MPD2    H2 5409   0.100   2.195  16.370  2.8919 -0.2920 -0.7299
  361MPD2    H3 5410   0.320   2.139  16.343  0.4661 -1.5048  1.5733
  361MPD2     N 5411   0.368   2.016  16.769 -0.3314  0.1996 -0.0917
  361MPD2    H5 5412   0.444   1.958  16.735 -2.1277  0.2351 -4.1475
  361MPD2    N1 5413   4.694   2.221  16.605  0.1256  0.2188  0.5674
  361MPD2    H7 5414   4.653   2.212  16.698 -1.9269  0.9920 -0.2739
  362TMC3    C1 5415   4.497   2.346  16.567  0.5654  0.6379 -0.8360
  362TMC3    C2 5416   4.419   2.280  16.659  0.1681  0.1098  0.0779
  362TMC3    C3 5417   4.299   2.334  16.695  0.4237 -0.4353  1.1326
  362TMC3    C4 5418   4.464   2.471  16.518  0.1788  0.0427 -0.5463
  362TMC3    C5 5419   4.337   2.511  16.554  0.5985 -0.5604  0.1852
  362TMC3    C6 5420   4.255   2.451  16.650  0.0220  0.0922  0.0885
  362TMC3     C 5421   4.620   2.287  16.511 -0.2461  0.2703 -0.2292
  362TMC3     O 5422   4.646   2.331  16.397 -0.3981 -0.4904 -0.5167
  362TMC3     H 5423   4.445   2.183  16.700  2.7851  0.6512 -0.3110
  362TMC3    H1 5424   4.531   2.525  16.451 -0.8806 -0.7750 -2.2681
  362TMC3    H2 5425   4.159   2.500  16.662 -0.4006 -0.2792 -1.7356
  362TMC3    C7 5426   4.298   2.638  16.501  0.4635  0.8636 -0.0873
  362TMC3    C8 5427   4.242   2.289  16.824 -0.5935  0.1988 -0.1008
  362TMC3    O1 5428   4.384   2.724  16.474 -0.3952 -0.0140 -0.5207
  362TMC3    O2 5429   4.270   2.172  16.852 -0.4547  0.7166  0.6675
  363TMC3    C1 5430   3.767   4.203   9.343 -0.8230 -0.1916  1.0181
  363TMC3    C2 5431   3.821   4.134   9.444  0.2050 -0.2742 -0.4528
  363TMC3    C3 5432   3.749   4.135   9.558  0.4506  0.3854 -0.2440
  363TMC3    C4 5433   3.640   4.248   9.337  0.0828 -0.0590  0.4872
  363TMC3    C5 5434   3.570   4.234   9.452 -0.0120  0.0252  0.6312
  363TMC3    C6 5435   3.624   4.186   9.567 -0.0908 -0.3805  0.1365
  363TMC3     C 5436   3.851   4.233   9.227 -0.6668 -0.3692 -0.3176
  363TMC3     O 5437   3.800   4.310   9.147  0.2073  0.7165 -0.1079
  363TMC3     H 5438   3.928   4.112   9.448  0.3670  0.6110 -0.0181
  363TMC3    H1 5439   3.598   4.273   9.240  2.6339 -0.7379 -0.8051
  363TMC3    H2 5440   3.570   4.177   9.661 -2.3694  0.5303 -1.0726
  363TMC3    C7 5441   3.426   4.244   9.437 -0.0693 -0.1228 -0.1815
  363TMC3    C8 5442   3.808   4.077   9.680 -0.2072 -0.0076 -0.0279
  363TMC3    O1 5443   3.388   4.336   9.366  0.2562 -0.2596  0.0682
  363TMC3    O2 5444   3.777   4.136   9.779  0.0421 -0.0138 -0.6296
  364MPD2     C 5445   1.540   3.400  10.197 -0.4902 -0.0652  0.4252
  364MPD2    C1 5446   1.553   3.501  10.291 -0.0535 -0.0751  0.1401
  364MPD2    C2 5447   1.591   3.479  10.420  0.4892 -0.3914 -0.3196
  364MPD2    C3 5448   1.605   3.355  10.467 -0.0560  0.2028 -0.0917
  364MPD2    C4 5449   1.594   3.250  10.376 -0.3436  0.2827  0.2243
  364MPD2    C5 5450   1.562   3.272  10.245  0.0565 -0.0313  0.0303
  364MPD2     H 5451   1.640   3.562  10.470  1.5159 -1.0453 -0.2334
  364MPD2    H1 5452   1.603   3.146  10.405  1.3438  0.3420 -0.1316
  364MPD2    H2 5453   1.520   3.420  10.093 -2.1708 -0.1866  0.7350
  364MPD2    H3 5454   1.550   3.183  10.185  2.0581 -1.2103  1.3423
  364MPD2     N 5455   1.638   3.322  10.598  1.1683  0.4475  0.5024
  364MPD2    H5 5456   1.661   3.229  10.632 -1.0235 -0.1190  0.4507
  364MPD2    N1 5457   1.542   3.634  10.240 -0.4130 -0.0412  0.1879
  364MPD2    H7 5458   1.528   3.638  10.139  0.3090  1.0706  0.1225
  365TMC3    C1 5459   1.582   3.871  10.271  0.0487 -0.3157 -0.3693
  365TMC3    C2 5460   1.640   3.873  10.149  0.1300 -1.1062 -0.5911
  365TMC3    C3 5461   1.697   3.995  10.112  1.1329 -0.0867  0.2372
  365TMC3    C4 5462   1.583   3.970  10.361 -0.3941 -0.2974 -0.0440
  365TMC3    C5 5463   1.654   4.085  10.322  0.2448 -0.4692 -0.5108
  365TMC3    C6 5464   1.716   4.098  10.204  0.8589 -0.0053 -0.4433
  365TMC3     C 5465   1.529   3.745  10.325 -0.1598  1.0523  0.1518
  365TMC3     O 5466   1.504   3.743  10.446 -0.2249  0.2299 -0.3823
  365TMC3     H 5467   1.639   3.785  10.086  1.2624  0.1177 -2.2980
  365TMC3    H1 5468   1.530   3.973  10.455 -1.6104 -0.8095 -0.7108
  365TMC3    H2 5469   1.776   4.186  10.183  1.1976  0.0240  0.6504
  365TMC3    C7 5470   1.660   4.203  10.408  0.0898 -0.1166  0.1762
  365TMC3    C8 5471   1.704   4.037   9.974 -0.2427 -0.5308  0.4908
  365TMC3    O1 5472   1.675   4.307  10.346 -0.1045  0.2333 -0.0137
  365TMC3    O2 5473   1.730   4.154   9.949 -0.1502 -0.5575 -0.0015
  366MPD2     C 5474   0.680   0.802  14.975  0.0101  0.2648  0.1354
  366MPD2    C1 5475   0.687   0.846  15.107  0.3151 -0.5478  0.0933
  366MPD2    C2 5476   0.811   0.846  15.166  0.3579 -0.0128 -0.1911
  366MPD2    C3 5477   0.925   0.814  15.100 -0.1617 -0.6176 -0.0036
  366MPD2    C4 5478   0.918   0.785  14.963 -0.4809  0.1382 -0.0814
  366MPD2    C5 5479   0.794   0.777  14.905 -1.1215  0.6919  0.6211
  366MPD2     H 5480   0.816   0.886  15.267  0.2357  3.6563 -1.6194
  366MPD2    H1 5481   1.003   0.751  14.905  0.0500  2.3024 -0.6045
  366MPD2    H2 5482   0.589   0.804  14.915  0.3683 -1.7704 -0.4756
  366MPD2    H3 5483   0.783   0.756  14.799  1.0534  0.9105  0.3611
  366MPD2     N 5484   1.048   0.825  15.167  0.5864 -0.0321  0.3241
  366MPD2    H5 5485   1.045   0.850  15.265 -0.6614 -0.6753  0.4510
  366MPD2    N1 5486   0.580   0.905  15.170 -0.0868  0.1943  0.2514
  366MPD2    H7 5487   0.591   0.936  15.266 -0.7997  1.9749 -0.2393
  367TMC3    C1 5488   0.363   1.010  15.203  0.1626  0.1650 -0.1036
  367TMC3    C2 5489   0.395   1.031  15.332 -0.2741  0.4302 -0.5718
  367TMC3    C3 5490   0.353   1.144  15.394  0.8385 -0.2699  0.3562
  367TMC3    C4 5491   0.280   1.099  15.133  0.1831  0.2132  0.2673
  367TMC3    C5 5492   0.227   1.203  15.204 -0.2589 -0.2301  0.4836
  367TMC3    C6 5493   0.271   1.232  15.336  0.4559  0.5995 -0.4411
  367TMC3     C 5494   0.457   0.936  15.117 -0.2280  0.2951  0.0219
  367TMC3     O 5495   0.424   0.922  15.001 -0.0981 -0.2471  0.0841
  367TMC3     H 5496   0.448   0.950  15.380  1.6266  2.0773  0.0950
  367TMC3    H1 5497   0.253   1.098  15.028 -1.8259  1.2191  0.7781
  367TMC3    H2 5498   0.231   1.318  15.389  2.3791  0.8535  0.5979
  367TMC3    C7 5499   0.160   1.311  15.141  1.1150  0.0807 -0.1342
  367TMC3    C8 5500   0.391   1.168  15.532 -0.5018 -0.1193  0.8457
  367TMC3    O1 5501   0.169   1.420  15.196  0.1735  1.0000  0.6482
  367TMC3    O2 5502   0.400   1.079  15.616  0.0158  0.3536 -0.6712
  368MPD2     C 5503   1.263   2.321  13.535  0.3083 -0.2963 -0.0219
  368MPD2    C1 5504   1.328   2.380  13.429  0.5291 -0.4949  0.2890
  368MPD2    C2 5505   1.466   2.381  13.409 -0.9685 -0.6632  0.0598
  368MPD2    C3 5506   1.543   2.345  13.513 -0.5216  0.4215 -0.3732
  368MPD2    C4 5507   1.484   2.317  13.630  0.2735  0.6659  0.2043
  368MPD2    C5 5508   1.348   2.294  13.637  0.0153 -0.2152 -0.8119
  368MPD2     H 5509   1.512   2.423  13.320 -2.2223  0.2219 -0.1687
  368MPD2    H1 5510   1.550   2.289  13.711  1.8167 -2.5625 -2.1736
  368MPD2    H2 5511   1.156   2.316  13.555  0.3660 -0.1406  0.3287
  368MPD2    H3 5512   1.302   2.257  13.728 -0.5128 -2.0120 -1.8250
  368MPD2     N 5513   1.685   2.350  13.501  0.5842  1.0506 -0.2822
  368MPD2    H5 5514   1.736   2.352  13.589  1.1899 -1.3254 -0.5691
  368MPD2    N1 5515   1.243   2.449  13.339 -0.3989  0.3146  0.1439
  368MPD2    H7 5516   1.145   2.466  13.360 -0.8967 -0.2669 -1.6921
  369TMC3    C1 5517   1.168   2.589  13.167 -0.0814  0.2729  0.5048
  369TMC3    C2 5518   1.178   2.616  13.032  0.0248  0.0216 -0.3069
  369TMC3    C3 5519   1.122   2.729  12.990  0.1133  0.8346  0.3459
  369TMC3    C4 5520   1.102   2.683  13.248  0.6332  0.4671 -0.1973
  369TMC3    C5 5521   1.039   2.789  13.197 -0.0642  0.0970 -0.1140
  369TMC3    C6 5522   1.039   2.810  13.063  0.5324  0.6863  0.3863
  369TMC3     C 5523   1.274   2.512  13.222 -0.1988 -0.4583 -0.3568
  369TMC3     O 5524   1.379   2.495  13.157 -0.3900  0.0551  0.0176
  369TMC3     H 5525   1.246   2.563  12.967  0.7258  1.2191 -0.5493
  369TMC3    H1 5526   1.092   2.671  13.355  1.2702  1.8539  0.0220
  369TMC3    H2 5527   0.998   2.900  13.020  1.1851  0.3951 -0.8498
  369TMC3    C7 5528   0.911   2.813  13.260  0.4865 -0.4989  0.4197
  369TMC3    C8 5529   1.188   2.786  12.872  0.4905  0.8657  0.3182
  369TMC3    O1 5530   0.915   2.839  13.377 -0.1444  0.8060  0.7790
  369TMC3    O2 5531   1.230   2.707  12.785 -0.2478 -0.2576 -0.1353
  370TMC3    C1 5532   1.287   3.136  16.340 -0.7551 -0.4774  0.1772
  370TMC3    C2 5533   1.201   3.090  16.431 -0.0685  0.1960 -0.4749
  370TMC3    C3 5534   1.134   2.970  16.401 -0.3792  1.0359  0.0334
  370TMC3    C4 5535   1.311   3.066  16.224  0.3501  0.1752 -1.0430
  370TMC3    C5 5536   1.252   2.947  16.205  0.1365 -0.1426  0.5167
  370TMC3    C6 5537   1.156   2.894  16.290  0.3951  0.0716 -0.0673
  370TMC3     C 5538   1.393   3.212  16.392 -1.1567 -0.0614 -0.5222
  370TMC3     O 5539   1.418   3.203  16.511 -0.1817  0.3587 -0.3233
  370TMC3     H 5540   1.176   3.149  16.518  0.0961  0.5309 -0.6544
  370TMC3    H1 5541   1.397   3.095  16.164 -0.4727  0.1996 -2.2164
  370TMC3    H2 5542   1.114   2.795  16.273 -0.6079  0.2708  1.1924
  370TMC3    C7 5543   1.312   2.852  16.111 -0.0444 -0.3384 -1.1420
  370TMC3    C8 5544   1.074   2.901  16.508 -0.3710  0.0092 -0.0902
  370TMC3    O1 5545   1.423   2.870  16.063  0.1119 -0.2933 -0.2172
  370TMC3    O2 5546   1.057   2.778  16.500  0.2282 -0.2851 -0.3360
  371TMC3    C1 5547   2.219   1.164  15.424 -0.1776 -0.4979  0.0795
  371TMC3    C2 5548   2.170   1.188  15.545  0.8082  0.1902  0.1865
  371TMC3    C3 5549   2.138   1.314  15.587  0.1421  0.3739  0.0561
  371TMC3    C4 5550   2.262   1.268  15.340 -0.2644  0.4914  0.3571
  371TMC3    C5 5551   2.228   1.392  15.381  0.1965 -0.9713 -0.0612
  371TMC3    C6 5552   2.171   1.416  15.506 -0.0925 -0.3670 -0.3972
  371TMC3     C 5553   2.300   1.041  15.395  0.0421 -0.5649 -0.7769
  371TMC3     O 5554   2.381   1.057  15.306 -0.2998 -0.3829  0.2184
  371TMC3     H 5555   2.149   1.105  15.611  0.7838 -0.3222 -0.4683
  371TMC3    H1 5556   2.291   1.248  15.238  0.6926  1.2125  0.4902
  371TMC3    H2 5557   2.155   1.521  15.528  1.4859 -0.2165  0.0309
  371TMC3    C7 5558   2.298   1.506  15.322  0.1126  0.4350  0.1911
  371TMC3    C8 5559   2.083   1.324  15.725  0.0636 -0.3655  0.0135
  371TMC3    O1 5560   2.243   1.618  15.329 -0.2664 -0.7720  0.7314
  371TMC3    O2 5561   2.072   1.215  15.789  0.7357  0.1759 -0.4235
  372MPD2     C 5562   1.261   2.856  13.478  0.0986 -0.4273  0.1918
  372MPD2    C1 5563   1.361   2.768  13.489  0.0362 -0.4291 -0.1131
  372MPD2    C2 5564   1.372   2.691  13.606  0.8114  0.5014  0.0190
  372MPD2    C3 5565   1.265   2.695  13.700 -0.3418 -0.2046  0.2133
  372MPD2    C4 5566   1.154   2.764  13.675  0.2200  0.1167 -0.1667
  372MPD2    C5 5567   1.155   2.849  13.566 -0.2990 -0.0195  0.8585
  372MPD2     H 5568   1.449   2.616  13.617  0.1474 -0.0922  0.5835
  372MPD2    H1 5569   1.067   2.769  13.739  2.2390  0.3456  2.5709
  372MPD2    H2 5570   1.261   2.931  13.400  1.2863 -1.8257 -1.1588
  372MPD2    H3 5571   1.070   2.914  13.550 -0.0628  0.2882  0.8635
  372MPD2     N 5572   1.283   2.608  13.819  0.0160 -0.2164 -0.3593
  372MPD2    H5 5573   1.366   2.550  13.814  0.6811  0.8671 -2.0068
  372MPD2    N1 5574   1.466   2.757  13.393  0.0771 -1.0487 -0.0218
  372MPD2    H7 5575   1.551   2.704  13.410 -0.9827 -2.8821 -0.4519
  373TMC3    C1 5576   1.236   2.499  14.029 -0.5116  0.4588  0.3212
  373TMC3    C2 5577   1.178   2.502  14.152 -0.2348  0.3281  0.1494
  373TMC3    C3 5578   1.207   2.404  14.252  0.2308 -0.2543 -0.1937
  373TMC3    C4 5579   1.336   2.408  14.004 -0.2901  0.5813  0.4803
  373TMC3    C5 5580   1.371   2.324  14.103  0.6162 -0.1351  0.5373
  373TMC3    C6 5581   1.303   2.317  14.220 -0.0182  1.1835 -0.2615
  373TMC3     C 5582   1.200   2.597  13.929  0.5318  0.3128 -0.2982
  373TMC3     O 5583   1.108   2.672  13.950 -0.3270 -0.4914 -0.2934
  373TMC3     H 5584   1.093   2.566  14.170 -0.5090 -0.1567  0.6006
  373TMC3    H1 5585   1.399   2.403  13.916 -0.9600  1.6966 -0.0683
  373TMC3    H2 5586   1.344   2.242  14.287 -2.4548 -2.0920 -2.4238
  373TMC3    C7 5587   1.499   2.268  14.103 -0.4749 -0.0293 -0.5701
  373TMC3    C8 5588   1.244   2.475  14.378  0.1511  0.2831 -0.2304
  373TMC3    O1 5589   1.543   2.228  13.999  0.6737  0.5531 -0.0119
  373TMC3    O2 5590   1.240   2.415  14.485  0.3053 -0.4431 -0.7190
  374TMC3    C1 5591   2.653   2.135   9.935 -0.3221 -0.5465  0.6519
  374TMC3    C2 5592   2.771   2.171   9.986 -0.0691  0.0886  0.3623
  374TMC3    C3 5593   2.876   2.171   9.902 -0.6522  0.3362  0.3030
  374TMC3    C4 5594   2.634   2.095   9.804 -0.0654 -0.0801 -0.2032
  374TMC3    C5 5595   2.741   2.088   9.726  0.1108  0.3774 -0.0580
  374TMC3    C6 5596   2.863   2.132   9.774 -0.5463 -0.0847  0.3824
  374TMC3     C 5597   2.537   2.136  10.026  0.5268 -0.1717 -0.4296
  374TMC3     O 5598   2.551   2.203  10.126  0.5191  0.3586 -0.7142
  374TMC3     H 5599   2.772   2.194  10.092 -0.2556 -0.6144  0.5208
  374TMC3    H1 5600   2.531   2.074   9.780  0.0532 -1.2997  0.3667
  374TMC3    H2 5601   2.947   2.126   9.705 -2.3158  0.7727 -1.8405
  374TMC3    C7 5602   2.726   2.045   9.587 -0.0442 -0.2901  0.8840
  374TMC3    C8 5603   2.992   2.263   9.912 -0.3637  0.3447 -0.5182
  374TMC3    O1 5604   2.824   2.051   9.516  0.5981  0.3347  0.5497
  374TMC3    O2 5605   3.078   2.260   9.824 -0.5714  0.2478 -0.6469
  375MPD2     C 5606   2.586   4.000  16.588 -0.3377  0.1621  0.2286
  375MPD2    C1 5607   2.511   3.888  16.565  0.1197  0.6506 -0.5113
  375MPD2    C2 5608   2.566   3.779  16.499 -0.2436 -0.2188 -0.0597
  375MPD2    C3 5609   2.699   3.789  16.453  0.5187 -0.2189 -0.1541
  375MPD2    C4 5610   2.775   3.899  16.483  0.1899  0.1554  0.1274
  375MPD2    C5 5611   2.716   4.001  16.554 -0.6725  0.4156  0.4149
  375MPD2     H 5612   2.513   3.689  16.472 -0.4158 -0.4858  1.1979
  375MPD2    H1 5613   2.877   3.910  16.447  0.0089 -0.0062 -0.4231
  375MPD2    H2 5614   2.543   4.086  16.637 -1.6833 -1.4517  1.8913
  375MPD2    H3 5615   2.765   4.097  16.569 -2.1740  1.1695  0.4431
  375MPD2     N 5616   2.768   3.698  16.370  0.0934  0.2091 -0.0206
  375MPD2    H5 5617   2.866   3.713  16.346  0.4520  1.8064  2.4394
  375MPD2    N1 5618   2.380   3.879  16.608  0.5588 -0.7486  0.3913
  375MPD2    H7 5619   2.329   3.792  16.598 -1.4499  0.4075  0.6041
  376TMC3    C1 5620   2.800   3.522  16.215 -0.8392 -0.1802 -0.5163
  376TMC3    C2 5621   2.938   3.527  16.232 -0.4923  0.7525 -0.2264
  376TMC3    C3 5622   3.012   3.447  16.148  0.1402  0.0551 -0.1879
  376TMC3    C4 5623   2.740   3.446  16.114  0.1938 -0.1773 -0.5878
  376TMC3    C5 5624   2.818   3.376  16.026  0.3140  0.5954  0.0113
  376TMC3    C6 5625   2.958   3.376  16.041  0.2639  0.7616  0.3358
  376TMC3     C 5626   2.707   3.595  16.300 -0.3025  0.7919 -0.3636
  376TMC3     O 5627   2.588   3.572  16.279  0.4055  0.0671  0.3811
  376TMC3     H 5628   2.979   3.580  16.317 -0.8653  0.1048  0.3554
  376TMC3    H1 5629   2.636   3.463  16.090 -0.7923 -1.2297  2.9853
  376TMC3    H2 5630   3.026   3.312  15.986  0.2856  0.8355  0.2775
  376TMC3    C7 5631   2.765   3.295  15.922 -0.1925 -0.1805 -0.1716
  376TMC3    C8 5632   3.158   3.453  16.163  0.4863 -0.2317  0.2400
  376TMC3    O1 5633   2.839   3.278  15.824  0.1629 -0.0977 -0.1868
  376TMC3    O2 5634   3.232   3.461  16.064  0.1635  0.4762 -0.1581
  377MPD2     C 5635   0.638   2.958  12.767  0.1056  0.2447 -0.6675
  377MPD2    C1 5636   0.592   2.949  12.640 -0.2356 -0.0276 -0.5209
  377MPD2    C2 5637   0.463   2.898  12.636  0.2397  0.2987 -0.0136
  377MPD2    C3 5638   0.388   2.860  12.742 -1.6756  0.2721 -0.1022
  377MPD2    C4 5639   0.444   2.855  12.865  0.5875  0.5856 -0.6307
  377MPD2    C5 5640   0.575   2.906  12.872 -0.2709 -0.6958 -0.5448
  377MPD2     H 5641   0.418   2.887  12.538 -0.3901 -2.6785  0.5949
  377MPD2    H1 5642   0.392   2.819  12.954  0.5858  0.8762 -0.5153
  377MPD2    H2 5643   0.740   2.989  12.788  0.1001 -0.2116  0.0479
  377MPD2    H3 5644   0.633   2.913  12.963 -1.7241 -1.6022  0.4400
  377MPD2     N 5645   0.255   2.819  12.727 -0.0128  0.0838  0.3961
  377MPD2    H5 5646   0.219   2.768  12.807 -0.3091 -2.0210 -1.0684
  377MPD2    N1 5647   0.668   2.977  12.523  0.2420 -0.0591  0.4108
  377MPD2    H7 5648   0.624   2.954  12.435 -0.5885 -1.3368  1.1621
  378TMC3    C1 5649   0.814   3.063  12.172  0.1953  0.1440 -0.2623
  378TMC3    C2 5650   0.774   3.078  12.299 -0.4080  0.5317 -0.6655
  378TMC3    C3 5651   0.855   3.018  12.391 -0.4331  0.7521 -0.3265
  378TMC3    C4 5652   0.926   2.987  12.133  0.2585  0.2061  0.3566
  378TMC3    C5 5653   1.008   2.936  12.227  0.2150  0.2560  0.3915
  378TMC3    C6 5654   0.971   2.949  12.357  0.2742 -1.0917 -0.0354
  378TMC3     C 5655   0.725   3.106  12.072  0.0595 -0.8323 -0.2272
  378TMC3     O 5656   0.619   3.163  12.100 -0.3839  0.5457  0.2775
  378TMC3     H 5657   0.692   3.143  12.327  0.4913  0.7903  1.3577
  378TMC3    H1 5658   0.943   2.949  12.033  0.4375  0.0984  0.4270
  378TMC3    H2 5659   1.041   2.915  12.433 -0.8736 -0.8956  1.1041
  378TMC3    C7 5660   1.120   2.858  12.188 -0.2155  0.5351  0.2622
  378TMC3    C8 5661   0.805   3.010  12.524 -0.2272 -0.3174 -0.6974
  378TMC3    O1 5662   1.232   2.904  12.213  0.2217  0.4985 -0.2928
  378TMC3    O2 5663   0.887   3.019  12.619 -0.0498  0.1934  0.1022
  379MPD2     C 5664   1.242   1.080  16.355  0.0294  0.0575  0.2987
  379MPD2    C1 5665   1.142   1.040  16.445 -0.5889 -0.0668 -0.4811
  379MPD2    C2 5666   1.170   0.968  16.554  0.5255  0.4294 -0.7711
  379MPD2    C3 5667   1.299   0.917  16.565 -0.1969 -0.0798 -0.1421
  379MPD2    C4 5668   1.395   0.937  16.467 -0.1992 -0.1140  0.2073
  379MPD2    C5 5669   1.367   1.028  16.367  0.3867  0.3023  0.2679
  379MPD2     H 5670   1.096   0.937  16.627 -0.4141  0.5829 -1.6626
  379MPD2    H1 5671   1.494   0.894  16.470  0.8763  2.2146 -2.2751
  379MPD2    H2 5672   1.228   1.153  16.276  1.6465  0.8913  0.7939
  379MPD2    H3 5673   1.446   1.072  16.308 -0.3148 -1.9719 -2.3470
  379MPD2     N 5674   1.338   0.835  16.670  0.4140 -0.1571  0.9548
  379MPD2    H5 5675   1.412   0.774  16.638  1.9347  1.5245  1.2664
  379MPD2    N1 5676   1.009   1.096  16.426  0.3741  0.4299 -0.3767
  379MPD2    H7 5677   1.004   1.161  16.348 -0.6030  1.5370  0.5860
  380TMC3    C1 5678   0.801   1.033  16.370  0.5489 -0.4233  0.2360
  380TMC3    C2 5679   0.848   0.931  16.288  0.4450 -0.3437 -0.2175
  380TMC3    C3 5680   0.842   0.949  16.154  0.0944 -0.3211  0.8026
  380TMC3    C4 5681   0.747   1.150  16.312 -0.0856 -0.9364  0.5376
  380TMC3    C5 5682   0.714   1.144  16.179  0.6803 -0.5363  0.0293
  380TMC3    C6 5683   0.762   1.045  16.096  0.2559 -0.2658  0.5465
  380TMC3     C 5684   0.887   1.057  16.484  0.3414  0.6000 -0.2426
  380TMC3     O 5685   0.875   0.968  16.567  0.2180 -0.2522  0.2137
  380TMC3     H 5686   0.897   0.843  16.328  1.1402 -0.4608 -1.3482
  380TMC3    H1 5687   0.724   1.242  16.363  1.5862 -0.5139  0.5355
  380TMC3    H2 5688   0.777   1.049  15.989 -0.6223 -2.3489  0.3504
  380TMC3    C7 5689   0.685   1.271  16.114  0.0952 -0.1705 -0.1791
  380TMC3    C8 5690   0.976   0.932  16.089  0.4300  0.0378 -0.2678
  380TMC3    O1 5691   0.693   1.373  16.179 -0.2178  0.0842  0.0732
  380TMC3    O2 5692   1.005   1.019  16.006  0.4029 -0.2128 -0.9829
  381TMC3    C1 5693   1.116   2.173  16.304  0.2898  0.6531  0.6018
  381TMC3    C2 5694   1.186   2.292  16.273 -0.1298 -0.1012 -0.0352
  381TMC3    C3 5695   1.195   2.387  16.366 -0.5166  0.6700  0.0378
  381TMC3    C4 5696   1.069   2.144  16.429  0.0097 -0.2033  0.1237
  381TMC3    C5 5697   1.093   2.241  16.515  0.2804  0.0083 -0.6434
  381TMC3    C6 5698   1.149   2.362  16.495 -0.2366 -0.1207  0.0243
  381TMC3     C 5699   1.117   2.065  16.206 -0.0958  0.3262 -0.5560
  381TMC3     O 5700   1.219   2.058  16.139  0.1292 -0.0472 -0.6459
  381TMC3     H 5701   1.220   2.302  16.170 -1.0620 -0.9870 -0.4369
  381TMC3    H1 5702   1.019   2.051  16.454 -0.4785 -0.4766 -1.8499
  381TMC3    H2 5703   1.156   2.439  16.570  0.0288  0.0315 -0.1530
  381TMC3    C7 5704   1.088   2.197  16.653 -0.2279 -0.7740  0.6500
  381TMC3    C8 5705   1.317   2.462  16.345 -0.3899  0.5583 -0.1296
  381TMC3    O1 5706   1.121   2.087  16.681  0.2241  0.8891 -0.4839
  381TMC3    O2 5707   1.403   2.412  16.279 -0.4558  0.1176 -0.2870
  382MPD2     C 5708   4.710   4.624  17.646 -0.1343  0.1029 -0.9286
  382MPD2    C1 5709   4.581   4.671  17.639  0.2529  0.0872  0.0469
  382MPD2    C2 5710   4.482   4.613   0.005  0.3363  1.1534  0.2276
  382MPD2    C3 5711   4.503   4.501   0.080 -0.3898 -0.6845 -0.3733
  382MPD2    C4 5712   4.631   4.454   0.087  0.2027  0.8206  0.2481
  382MPD2    C5 5713   0.007   4.511   0.014  0.0852 -0.9079  0.4916
  382MPD2     H 5714   4.379   4.642  17.698 -0.1240 -0.0195  1.0720
  382MPD2    H1 5715   4.655   4.367   0.148 -1.3065 -1.0700 -1.8508
  382MPD2    H2 5716   0.068   4.673  17.600 -0.2363  0.5352 -0.6633
  382MPD2    H3 5717   0.106   4.467   0.021  0.3804 -0.4757 -0.9709
  382MPD2     N 5718   4.406   4.417   0.141  0.8293 -0.4946  0.2922
  382MPD2    H5 5719   4.432   4.330   0.187  1.3424  0.0625  1.0654
  382MPD2    N1 5720   4.549   0.060  17.562  0.4374 -0.2783 -0.0239
  382MPD2    H7 5721   4.452   0.091  17.567  0.3751 -0.6756  1.2349
  383TMC3    C1 5722   4.185   4.325   0.174 -0.0554  0.1582  0.6111
  383TMC3    C2 5723   4.240   4.205   0.154 -0.4455  0.7601  0.2348
  383TMC3    C3 5724   4.166   4.109   0.084 -0.4348 -0.2085  0.5774
  383TMC3    C4 5725   4.052   4.345   0.146 -0.5016  0.1866  0.4595
  383TMC3    C5 5726   3.978   4.243   0.088  0.8935 -0.3312  0.5054
  383TMC3    C6 5727   4.033   4.120   0.051 -0.2289  0.3369 -0.0839
  383TMC3     C 5728   4.269   4.443   0.140  0.0625  0.2925 -0.6032
  383TMC3     O 5729   4.220   4.551   0.116  0.0895 -0.1270  0.4184
  383TMC3     H 5730   4.346   4.181   0.164 -0.8654 -2.0035 -1.9863
  383TMC3    H1 5731   4.021   4.447   0.165  0.9324  0.7967 -0.4860
  383TMC3    H2 5732   3.984   4.028   0.019  1.0889  0.0691 -1.3122
  383TMC3    C7 5733   3.839   4.257   0.069 -0.7171 -0.0680 -0.1023
  383TMC3    C8 5734   4.238   4.003   0.024 -0.3406 -0.5152 -0.0623
  383TMC3    O1 5735   3.773   4.154   0.050  0.3787  0.4655  0.3870
  383TMC3    O2 5736   4.345   3.977   0.078  0.7792 -0.0428  0.2853
  384MPD2     C 5737   1.885   0.914  11.705 -0.6905 -0.0000  0.3488
  384MPD2    C1 5738   1.919   0.879  11.834  0.8923  0.1435 -0.3038
  384MPD2    C2 5739   2.004   0.768  11.836 -0.0848  0.8044 -0.3393
  384MPD2    C3 5740   2.041   0.693  11.727 -0.2271  0.1073  0.1862
  384MPD2    C4 5741   1.986   0.719  11.607  0.0780 -0.2664  0.0182
  384MPD2    C5 5742   1.915   0.834  11.602  0.3794  0.9730  0.2898
  384MPD2     H 5743   2.038   0.738  11.934 -0.5774 -0.6747 -0.6288
  384MPD2    H1 5744   1.999   0.652  11.523  0.8697  0.1020 -0.1500
  384MPD2    H2 5745   1.833   1.008  11.686 -1.1268 -0.1703  0.6814
  384MPD2    H3 5746   1.861   0.856  11.511 -1.8378 -2.2735  0.8308
  384MPD2     N 5747   2.103   0.566  11.751  0.1840  0.6398  0.0345
  384MPD2    H5 5748   2.140   0.562  11.845  2.8134  0.1178 -1.0137
  384MPD2    N1 5749   1.877   0.944  11.949 -0.0306  0.3434 -0.2354
  384MPD2    H7 5750   1.902   0.919  12.044 -0.8105  1.0758  0.1668
  385TMC3    C1 5751   2.209   0.358  11.747  0.0379 -0.3630 -0.1740
  385TMC3    C2 5752   2.178   0.228  11.738  0.1546 -0.2514 -0.1412
  385TMC3    C3 5753   2.178   0.156  11.860 -0.5793 -0.4040 -0.0699
  385TMC3    C4 5754   2.267   0.409  11.859  0.4314 -0.1373  0.9254
  385TMC3    C5 5755   2.260   0.342  11.973 -0.4736 -0.1503  0.5200
  385TMC3    C6 5756   2.222   0.211  11.975 -1.1917  0.0978 -0.5883
  385TMC3     C 5757   2.132   0.459  11.673 -0.4893  0.1487  0.2014
  385TMC3     O 5758   2.089   0.440  11.559  0.1179  0.1705 -0.1910
  385TMC3     H 5759   2.129   0.191  11.649 -0.1781 -1.3183  0.4898
  385TMC3    H1 5760   2.318   0.504  11.847  0.9057 -0.7661 -2.1377
  385TMC3    H2 5761   2.202   0.162  12.070 -0.7101 -0.9191 -1.0106
  385TMC3    C7 5762   2.190   0.431  12.063 -0.0515  0.3414  0.1491
  385TMC3    C8 5763   2.180   0.010  11.855  0.1742  0.5801  0.6953
  385TMC3    O1 5764   2.134   0.532  12.015 -0.3513 -0.3759 -0.6260
  385TMC3    O2 5765   2.234   4.691  11.955  0.2415 -0.3067  0.5546
  386TMC3    C1 5766   1.887   1.874  11.830  0.2149 -0.4794  0.9537
  386TMC3    C2 5767   1.962   1.939  11.730  0.0987  0.2782  0.2969
  386TMC3    C3 5768   1.889   1.997  11.634  0.4045  0.7876 -0.8125
  386TMC3    C4 5769   1.751   1.880  11.836  0.0893 -0.6143 -0.4788
  386TMC3    C5 5770   1.679   1.951  11.739 -0.2391 -0.2963  0.4432
  386TMC3    C6 5771   1.752   1.998  11.635 -0.4869 -0.4637 -0.3239
  386TMC3     C 5772   1.948   1.875  11.960 -0.0936 -0.1694 -0.4086
  386TMC3     O 5773   1.884   1.903  12.056 -0.1440  0.3391 -0.4066
  386TMC3     H 5774   2.071   1.940  11.730  0.0915  1.2416  0.5766
  386TMC3    H1 5775   1.705   1.835  11.923  1.1587  1.4196  1.1569
  386TMC3    H2 5776   1.692   2.049  11.561  0.2093  2.0706  0.8561
  386TMC3    C7 5777   1.586   2.040  11.798  0.3359  0.7231  0.6015
  386TMC3    C8 5778   1.954   2.111  11.566 -0.1013 -0.5784  0.4325
  386TMC3    O1 5779   1.597   2.155  11.760  0.1216 -0.1113 -0.2262
  386TMC3    O2 5780   1.881   2.174  11.496 -0.0762 -0.3495  0.5029
  387MPD2     C 5781   0.125   2.460   9.982 -0.2523 -0.1534 -0.0772
  387MPD2    C1 5782   0.233   2.392   9.930  0.0499  0.0565  0.5329
  387MPD2    C2 5783   0.263   2.266   9.985  0.0565  0.8389  0.0854
  387MPD2    C3 5784   0.186   2.202  10.073  0.1911  0.5491 -0.5858
  387MPD2    C4 5785   0.081   2.270  10.131 -0.0683  0.1261 -0.2093
  387MPD2    C5 5786   0.052   2.394  10.082 -0.6591 -0.0124  0.5958
  387MPD2     H 5787   0.349   2.217   9.940 -1.4096 -0.6462 -1.1023
  387MPD2    H1 5788   0.032   2.223  10.216 -0.6366 -0.8347 -1.0622
  387MPD2    H2 5789   0.094   2.560   9.956 -1.0510 -0.4253 -0.1781
  387MPD2    H3 5790   4.698   2.457  10.118 -0.0821  0.5648  0.8708
  387MPD2     N 5791   0.217   2.069  10.112 -0.2677 -0.1683  0.0642
  387MPD2    H5 5792   0.304   2.032  10.074  1.9367  2.9823  2.1321
  387MPD2    N1 5793   0.317   2.442   9.823  0.6585  0.0196  0.0794
  387MPD2    H7 5794   0.402   2.386   9.816 -2.3417 -4.3275 -1.5276
  388TMC3    C1 5795   0.399   2.543   9.631  0.0119  0.0525 -0.1700
  388TMC3    C2 5796   0.446   2.646   9.570  0.3264  0.4870  0.5376
  388TMC3    C3 5797   0.525   2.628   9.462  0.7615 -0.1691 -0.0708
  388TMC3    C4 5798   0.423   2.410   9.595  0.0065  0.1441  0.3167
  388TMC3    C5 5799   0.500   2.396   9.486  0.0064  0.0055 -0.5678
  388TMC3    C6 5800   0.546   2.497   9.408 -0.9726 -0.4341  0.7555
  388TMC3     C 5801   0.309   2.555   9.744  0.0707 -0.2165 -0.0629
  388TMC3     O 5802   0.232   2.647   9.756 -0.4946 -0.1991  0.4801
  388TMC3     H 5803   0.432   2.746   9.610 -0.8493  1.3608 -2.1155
  388TMC3    H1 5804   0.365   2.325   9.628 -1.1255  1.0348  0.6073
  388TMC3    H2 5805   0.600   2.482   9.315  0.5434 -0.9087  1.7247
  388TMC3    C7 5806   0.546   2.263   9.454 -0.4621  0.7943  0.4811
  388TMC3    C8 5807   0.566   2.732   9.370  0.1939 -0.4063 -0.6541
  388TMC3    O1 5808   0.591   2.236   9.341 -0.1169  0.1358  0.1935
  388TMC3    O2 5809   0.642   2.706   9.279 -0.5394  0.1797  0.5049
  389MPD2     C 5810   4.200   1.049  11.415 -0.3274  0.5103 -0.6859
  389MPD2    C1 5811   4.101   1.003  11.323 -0.2920 -0.1757  0.0844
  389MPD2    C2 5812   3.994   0.939  11.377  1.2941 -0.4926 -0.4437
  389MPD2    C3 5813   3.962   0.955  11.514  0.0062 -0.7971  0.3286
  389MPD2    C4 5814   4.051   1.019  11.600 -0.3972  0.4022 -1.0520
  389MPD2    C5 5815   4.176   1.061  11.552  0.8763 -0.4661 -0.3994
  389MPD2     H 5816   3.926   0.889  11.308  2.2284 -0.0427 -1.6923
  389MPD2    H1 5817   4.036   1.015  11.707  2.1497  2.2085 -0.6388
  389MPD2    H2 5818   4.294   1.082  11.372 -1.2188  2.1372 -1.4079
  389MPD2    H3 5819   4.264   1.077  11.613 -2.1124  1.1727  3.4584
  389MPD2     N 5820   3.840   0.913  11.574  0.1066  0.2388 -0.8172
  389MPD2    H5 5821   3.823   0.946  11.669  1.2981 -4.6806  1.1112
  389MPD2    N1 5822   4.142   0.997  11.187 -0.2772 -0.1208 -0.1239
  389MPD2    H7 5823   4.236   1.032  11.169  0.4125 -2.4095 -0.9690
  390TMC3    C1 5824   3.618   0.849  11.570 -0.5158  1.3799  0.1996
  390TMC3    C2 5825   3.523   0.779  11.508  0.4950  0.5701  0.1838
  390TMC3    C3 5826   3.397   0.817  11.518  0.9798  0.4374  0.0402
  390TMC3    C4 5827   3.590   0.963  11.651  0.5449  0.0397  0.6839
  390TMC3    C5 5828   3.463   1.006  11.654  0.0739  0.4231  0.1972
  390TMC3    C6 5829   3.366   0.935  11.585 -0.5232  0.4746 -0.0481
  390TMC3     C 5830   3.752   0.822  11.521  0.7913  0.2096  0.1509
  390TMC3     O 5831   3.768   0.740  11.429 -0.1161 -0.5355 -0.4188
  390TMC3     H 5832   3.542   0.681  11.464  2.0298  0.7764  0.3961
  390TMC3    H1 5833   3.662   1.013  11.715  0.5501  2.2559 -1.0458
  390TMC3    H2 5834   3.265   0.974  11.578 -0.3082  1.2454  1.2967
  390TMC3    C7 5835   3.428   1.099  11.766 -0.0432  0.2172 -0.3184
  390TMC3    C8 5836   3.296   0.724  11.486 -0.1245  0.1736  0.0646
  390TMC3    O1 5837   3.512   1.125  11.846  0.1596 -0.0750 -0.3669
  390TMC3    O2 5838   3.325   0.606  11.479 -0.7887  0.4736  0.6994
  391MPD2     C 5839   3.017   2.422  11.375 -0.7643  0.6078 -0.3155
  391MPD2    C1 5840   3.112   2.520  11.342 -0.2785 -0.1247 -1.0104
  391MPD2    C2 5841   3.102   2.580  11.219 -0.3221  0.0412 -0.2679
  391MPD2    C3 5842   3.001   2.553  11.125 -0.3996  0.5877 -0.5557
  391MPD2    C4 5843   2.917   2.446  11.154 -0.0188 -0.3186  0.3602
  391MPD2    C5 5844   2.923   2.390  11.282 -0.1439  0.0702  0.1343
  391MPD2     H 5845   3.170   2.661  11.196  0.7680 -0.1973  2.1342
  391MPD2    H1 5846   2.842   2.422  11.079  0.8419  0.2277 -0.6756
  391MPD2    H2 5847   3.011   2.364  11.467 -0.7902 -0.2486 -0.8563
  391MPD2    H3 5848   2.855   2.310  11.308 -0.3008  0.9658  2.4732
  391MPD2     N 5849   3.019   2.632  11.009  0.0801  0.2543 -0.8892
  391MPD2    H5 5850   3.101   2.692  11.011  0.1588  0.1233  0.1415
  391MPD2    N1 5851   3.199   2.565  11.454  0.3944 -0.8840 -0.6553
  391MPD2    H7 5852   3.184   2.517  11.542  0.1390 -1.6459 -1.1161
  392TMC3    C1 5853   2.997   2.698  10.788  0.5651  0.3000  0.2920
  392TMC3    C2 5854   2.954   2.669  10.669  0.7165 -0.0789 -0.3375
  392TMC3    C3 5855   3.010   2.732  10.561 -0.4270  0.0695  0.2265
  392TMC3    C4 5856   3.083   2.801  10.816  0.7128  0.1467  0.0421
  392TMC3    C5 5857   3.121   2.877  10.704  0.1626  0.1940  0.6664
  392TMC3    C6 5858   3.084   2.843  10.579 -0.2837 -0.0185  0.5486
  392TMC3     C 5859   2.950   2.618  10.896 -0.8876 -0.1217  0.1122
  392TMC3     O 5860   2.848   2.550  10.887 -0.3002 -0.1799 -0.2850
  392TMC3     H 5861   2.872   2.599  10.658 -0.8215  1.7501 -0.5247
  392TMC3    H1 5862   3.115   2.822  10.918 -0.2681 -2.3533  0.8703
  392TMC3    H2 5863   3.106   2.911  10.497 -0.4596 -0.9856 -0.3082
  392TMC3    C7 5864   3.231   2.972  10.719 -0.9829 -0.1174 -0.0729
  392TMC3    C8 5865   2.999   2.654  10.439  0.2188 -0.2092 -0.3568
  392TMC3    O1 5866   3.293   2.962  10.827 -0.2618 -0.6191 -0.5901
  392TMC3    O2 5867   2.935   2.549  10.449 -0.3014 -0.1365 -0.3444
  393TMC3    C1 5868   2.576   0.420  10.497 -0.0503  0.0874  0.1573
  393TMC3    C2 5869   2.483   0.463  10.596 -1.0128  0.0280  0.6413
  393TMC3    C3 5870   2.463   0.388  10.711 -0.7258  0.1172 -0.2455
  393TMC3    C4 5871   2.637   0.300  10.511  0.9135  0.1467 -0.0485
  393TMC3    C5 5872   2.601   0.222  10.622 -0.0333 -0.4518  1.2079
  393TMC3    C6 5873   2.524   0.268  10.717  0.0251 -0.1397  0.3247
  393TMC3     C 5874   2.587   0.505  10.385 -0.4013  0.2113 -0.6079
  393TMC3     O 5875   2.512   0.606  10.397 -0.7420  0.4676  0.4897
  393TMC3     H 5876   2.406   0.533  10.567 -1.9591 -0.4787  1.9415
  393TMC3    H1 5877   2.708   0.260  10.440  1.9278  0.2909  0.8832
  393TMC3    H2 5878   2.508   0.211  10.808  0.6970 -0.0931  0.4744
  393TMC3    C7 5879   2.668   0.091  10.643  0.4475 -1.1968 -0.6567
  393TMC3    C8 5880   2.342   0.408  10.781  0.5994 -0.1701  0.6053
  393TMC3    O1 5881   2.656   0.046  10.758 -0.4445 -0.8315  0.3281
  393TMC3    O2 5882   2.283   0.303  10.811 -0.1407  0.3641  0.1452
  394TMC3    C1 5883   4.161   0.934  10.967 -0.4322 -0.0533  0.0682
  394TMC3    C2 5884   4.155   0.821  10.896 -0.8334 -0.2601 -0.5358
  394TMC3    C3 5885   4.250   0.807  10.798  0.4220 -0.3263 -0.1934
  394TMC3    C4 5886   4.249   1.036  10.940  0.1430 -0.1428 -0.3650
  394TMC3    C5 5887   4.340   1.023  10.832  0.1566 -0.1593 -0.1614
  394TMC3    C6 5888   4.346   0.902  10.770 -0.6864 -0.3266 -0.3504
  394TMC3     C 5889   4.079   0.933  11.082 -0.5803  0.1056  0.2739
  394TMC3     O 5890   3.979   0.860  11.075  0.6830 -0.2024  0.2723
  394TMC3     H 5891   4.087   0.738  10.909  1.2774 -1.8431  0.4535
  394TMC3    H1 5892   4.231   1.130  10.991  0.0452  0.3354 -1.2835
  394TMC3    H2 5893   4.421   0.892  10.692 -1.5139  1.0722 -1.3376
  394TMC3    C7 5894   4.432   1.137  10.805 -0.0672 -0.1959 -0.1789
  394TMC3    C8 5895   4.250   0.684  10.716  0.0525 -0.5075 -0.1928
  394TMC3    O1 5896   4.391   1.252  10.835  0.4802  0.6334 -0.4065
  394TMC3    O2 5897   4.142   0.627  10.705  0.4210  0.7514 -0.5563
  395TMC3    C1 5898   4.155   3.198  14.687  0.0512  0.3707  0.2021
  395TMC3    C2 5899   4.149   3.174  14.551  0.4595  0.3533 -0.2065
  395TMC3    C3 5900   4.185   3.280  14.468 -0.2661 -0.9884  0.1521
  395TMC3    C4 5901   4.227   3.314  14.734 -0.7251  0.3605 -0.0985
  395TMC3    C5 5902   4.268   3.412  14.650 -0.6110 -0.7888 -0.3764
  395TMC3    C6 5903   4.234   3.397  14.519 -0.2788  0.1050  0.2836
  395TMC3     C 5904   4.038   3.160  14.769 -0.4681  0.1821 -0.0483
  395TMC3     O 5905   3.930   3.179  14.718  0.1270  0.1848  0.0317
  395TMC3     H 5906   4.096   3.088  14.512 -1.8522  2.5334 -1.8438
  395TMC3    H1 5907   4.236   3.333  14.841  2.8009 -1.7875  0.0015
  395TMC3    H2 5908   4.231   3.470  14.439  3.7225  0.8393  0.8073
  395TMC3    C7 5909   4.295   3.550  14.690 -0.3788  0.6589 -1.0527
  395TMC3    C8 5910   4.085   3.308  14.375 -0.1987  0.3463  0.3395
  395TMC3    O1 5911   4.288   3.634  14.604  0.1457  0.4531  0.0451
  395TMC3    O2 5912   4.115   3.369  14.272  0.5795 -0.2747  0.2849
  396MPD2     C 5913   2.850   4.105  17.443 -0.5249 -0.2440 -0.0228
  396MPD2    C1 5914   2.904   4.071  17.319 -0.1146 -0.0405 -0.5542
  396MPD2    C2 5915   2.988   4.155  17.249 -0.5105 -0.3047  0.2670
  396MPD2    C3 5916   3.026   4.276  17.309 -0.1122  0.0403 -0.3847
  396MPD2    C4 5917   2.967   4.312  17.432  0.0033  0.4407  0.3397
  396MPD2    C5 5918   2.875   4.232  17.498 -0.1099  0.2023  0.6886
  396MPD2     H 5919   3.019   4.130  17.149  0.4751 -0.5488  0.6261
  396MPD2    H1 5920   2.981   4.408  17.479  1.4956  1.0372 -1.3608
  396MPD2    H2 5921   2.782   4.038  17.495  1.5130 -1.6437  0.8229
  396MPD2    H3 5922   2.818   4.275  17.579  0.3615  1.0438  0.5812
  396MPD2     N 5923   3.120   4.360  17.253  0.2503  0.8244 -0.4085
  396MPD2    H5 5924   3.150   4.330  17.161 -0.9353 -3.3414  0.5804
  396MPD2    N1 5925   2.881   3.936  17.275  0.3398  0.2381  0.4509
  396MPD2    H7 5926   2.846   3.874  17.347 -2.4781  0.7371 -0.4857
  397TMC3    C1 5927   2.944   3.748  17.148 -0.0033 -0.0512 -0.3833
  397TMC3    C2 5928   3.060   3.732  17.073 -0.1848  0.1957 -0.3372
  397TMC3    C3 5929   3.177   3.722  17.137 -0.4733 -0.0927 -0.3826
  397TMC3    C4 5930   2.940   3.690  17.273 -0.1319  0.3254 -0.1814
  397TMC3    C5 5931   3.063   3.663  17.329 -0.7018  0.6156 -0.0945
  397TMC3    C6 5932   3.181   3.682  17.263  0.5005  0.3397 -0.1614
  397TMC3     C 5933   2.912   3.890  17.147  0.1664  0.3521  0.0389
  397TMC3     O 5934   2.923   3.947  17.039 -0.5355 -0.6314  0.2957
  397TMC3     H 5935   3.067   3.774  16.973  2.5770 -1.5947 -0.8858
  397TMC3    H1 5936   2.840   3.681  17.314 -0.5517  1.6250 -0.9122
  397TMC3    H2 5937   3.270   3.692  17.324  1.3513  0.7440 -1.4651
  397TMC3    C7 5938   3.069   3.599  17.461 -0.2922 -0.9938 -0.3808
  397TMC3    C8 5939   3.280   3.814  17.093 -0.5410  0.8760  0.1492
  397TMC3    O1 5940   3.164   3.526  17.471  0.1059  0.2409  0.2426
  397TMC3    O2 5941   3.241   3.922  17.044 -0.4251 -0.7049  0.2715
  398MPD2     C 5942   1.715   0.416   0.355 -0.7870  0.5722  0.4814
  398MPD2    C1 5943   1.763   0.334   0.260 -0.1318  0.7400  0.1664
  398MPD2    C2 5944   1.846   0.387   0.156  0.1744  0.4640 -0.0725
  398MPD2    C3 5945   1.859   0.524   0.132 -0.8909 -0.3682  0.0098
  398MPD2    C4 5946   1.791   0.604   0.218 -0.2629 -0.1340  0.0240
  398MPD2    C5 5947   1.733   0.553   0.338 -0.8468 -0.3419  0.5958
  398MPD2     H 5948   1.883   0.316   0.083  1.7955  0.5849  0.6405
  398MPD2    H1 5949   1.781   0.711   0.211  0.3055 -0.1037 -0.2628
  398MPD2    H2 5950   1.663   0.372   0.439  0.2091  2.3827  2.0442
  398MPD2    H3 5951   1.677   0.618   0.404  0.1905  2.1679 -0.9756
  398MPD2     N 5952   1.923   0.582   0.017 -0.6142  0.3066  0.3530
  398MPD2    H5 5953   1.970   0.519  17.661 -1.4743 -0.8638  0.8830
  398MPD2    N1 5954   1.732   0.201   0.247  0.1292 -0.0127  0.0191
  398MPD2    H7 5955   1.773   0.147   0.172 -0.8372 -0.9455  0.1659
  399TMC3    C1 5956   1.579   0.013   0.264 -0.2309  0.0821 -0.2045
  399TMC3    C2 5957   1.652   4.659   0.184 -0.2300  0.0284  0.0429
  399TMC3    C3 5958   1.587   4.558   0.117  0.3416  0.0956 -0.1025
  399TMC3    C4 5959   1.441   4.719   0.281 -0.1855 -0.3072  0.1281
  399TMC3    C5 5960   1.383   4.620   0.203 -0.7681  0.1417  0.8922
  399TMC3    C6 5961   1.454   4.530   0.128 -0.4183  0.2602  0.1998
  399TMC3     C 5962   1.623   0.143   0.316  0.1544 -0.0786 -0.5306
  399TMC3     O 5963   1.563   0.185   0.416 -0.4555  0.0017 -0.2816
  399TMC3     H 5964   1.759   4.665   0.168 -0.4536  0.7468 -1.1663
  399TMC3    H1 5965   1.384   0.070   0.331 -1.8156 -1.2151 -0.3245
  399TMC3    H2 5966   1.404   4.461   0.062 -1.0405  2.3952 -1.5546
  399TMC3    C7 5967   1.241   4.628   0.197  0.4799 -0.2988 -0.5377
  399TMC3    C8 5968   1.672   4.462   0.047  0.1677  0.7856 -0.4339
  399TMC3    O1 5969   1.182   4.525   0.235 -0.3407  0.0738 -1.0977
  399TMC3    O2 5970   1.766   4.497  17.683 -0.2783 -0.0371  0.6063
  400TMC3    C1 5971   4.666   3.743  16.992  0.5236  0.8107 -0.3691
  400TMC3    C2 5972   4.588   3.759  16.879 -0.2088  0.9274  0.2872
  400TMC3    C3 5973   4.487   3.853  16.894  0.1766 -0.4643 -0.2431
  400TMC3    C4 5974   4.650   3.815  17.114 -0.2419  0.0357  1.0111
  400TMC3    C5 5975   4.543   3.900  17.123 -0.6278  0.0801 -0.0462
  400TMC3    C6 5976   4.461   3.922  17.015 -0.4421  0.2685 -0.2382
  400TMC3     C 5977   0.037   3.635  16.982 -0.3766  0.4938 -0.3027
  400TMC3     O 5978   0.004   3.544  16.906  0.2183  0.4382  0.0723
  400TMC3     H 5979   4.606   3.706  16.786 -0.0699 -0.5692  1.1719
  400TMC3    H1 5980   4.713   3.785  17.198  1.9370  0.4512 -0.4736
  400TMC3    H2 5981   4.378   3.991  17.018  1.8900  3.0682 -0.7360
  400TMC3    C7 5982   4.547   3.992  17.238  0.7927  0.5249 -0.3070
  400TMC3    C8 5983   4.402   3.882  16.781  0.7050  0.0868  0.7968
  400TMC3    O1 5984   4.649   3.996  17.304  0.0980 -0.0271  0.2728
  400TMC3    O2 5985   4.346   3.990  16.779  0.2798  0.1735  0.1219
  401MPD2     C 5986   2.776   2.400   0.209  0.1030 -0.0618 -0.5527
  401MPD2    C1 5987   2.773   2.357   0.339 -0.1175  0.6275 -0.3770
  401MPD2    C2 5988   2.745   2.224   0.364 -0.1568  0.3220 -0.0240
  401MPD2    C3 5989   2.710   2.137   0.257  0.0270  0.1089 -0.2094
  401MPD2    C4 5990   2.718   2.185   0.131 -0.3384  0.3455  0.1886
  401MPD2    C5 5991   2.750   2.312   0.105  0.1208  0.0553 -0.3128
  401MPD2     H 5992   2.751   2.185   0.465 -0.2757 -0.4045 -0.3042
  401MPD2    H1 5993   2.699   2.132   0.038  0.7695  0.4013 -0.0724
  401MPD2    H2 5994   2.799   2.500   0.174  0.0275 -0.0044 -0.4392
  401MPD2    H3 5995   2.746   2.347   0.002 -0.0660  0.3118 -0.2182
  401MPD2     N 5996   2.700   1.998   0.290 -0.0960 -0.1597 -0.5746
  401MPD2    H5 5997   2.728   1.977   0.385 -2.2313 -0.3528  0.0068
  401MPD2    N1 5998   2.807   2.433   0.455  0.1785 -0.1922  0.2385
  401MPD2    H7 5999   2.785   2.383   0.541 -3.4260  0.3244 -0.3861
  402TMC3    C1 6000   2.709   1.760   0.250 -0.2055  0.0819 -0.2697
  402TMC3    C2 6001   2.755   1.741   0.381 -0.6080 -0.0645 -0.0499
  402TMC3    C3 6002   2.810   1.619   0.403 -0.6016  0.5132  0.0094
  402TMC3    C4 6003   2.733   1.665   0.152  0.9621  0.6575 -0.0187
  402TMC3    C5 6004   2.813   1.559   0.178 -0.3602  0.7763 -0.3431
  402TMC3    C6 6005   2.847   1.533   0.308 -0.2412  0.1348  0.5966
  402TMC3     C 6006   2.698   1.899   0.197 -0.0020  0.1578  0.5914
  402TMC3     O 6007   2.665   1.912   0.079  0.1268  0.0211 -0.0528
  402TMC3     H 6008   2.721   1.801   0.465  1.2794  2.2092 -0.8955
  402TMC3    H1 6009   2.726   1.687   0.047  1.0335  1.3016  0.1144
  402TMC3    H2 6010   2.907   1.446   0.333 -0.7245 -0.1501  0.7656
  402TMC3    C7 6011   2.875   1.487   0.066 -0.2477  0.1644 -0.0660
  402TMC3    C8 6012   2.875   1.592   0.535  0.3628 -0.0861  0.0469
  402TMC3    O1 6013   2.811   1.495  17.670  0.1690 -0.0418  0.2396
  402TMC3    O2 6014   2.898   1.475   0.555  0.1529 -0.1542  0.4346
  403MPD2     C 6015   1.031   1.111  13.331 -0.4163  0.1981 -0.8289
  403MPD2    C1 6016   1.133   1.028  13.364  0.1642  0.1445 -0.4087
  403MPD2    C2 6017   1.224   1.064  13.459  0.2449  0.0264  0.6486
  403MPD2    C3 6018   1.211   1.186  13.530  0.1903  0.1127  0.0472
  403MPD2    C4 6019   1.107   1.268  13.501  0.2206  0.1880  0.4988
  403MPD2    C5 6020   1.022   1.224  13.403 -0.2824 -0.0607  0.2145
  403MPD2     H 6021   1.302   0.992  13.480  0.5113 -0.2648 -1.2694
  403MPD2    H1 6022   1.075   1.350  13.565 -0.2678  1.0412 -0.8326
  403MPD2    H2 6023   0.968   1.092  13.246 -0.0100  0.2722 -1.1471
  403MPD2    H3 6024   0.944   1.294  13.375 -0.3706  0.1074  0.8979
  403MPD2     N 6025   1.292   1.207  13.640  0.0670 -0.8261 -0.2152
  403MPD2    H5 6026   1.378   1.152  13.644  0.3005 -0.4118  0.4744
  403MPD2    N1 6027   1.132   0.912  13.297  0.2227 -0.2622 -0.0531
  403MPD2    H7 6028   1.063   0.909  13.222 -0.7940  3.9515  0.7156
  404TMC3    C1 6029   1.168   0.689  13.263 -0.0291  0.4561 -0.1082
  404TMC3    C2 6030   1.208   0.571  13.313  0.5604  0.5748  0.0758
  404TMC3    C3 6031   1.238   0.467  13.226  0.2252  0.1767  0.4788
  404TMC3    C4 6032   1.165   0.710  13.124 -0.2695  0.1676 -0.2966
  404TMC3    C5 6033   1.221   0.615  13.048  0.2319 -1.0175  0.9252
  404TMC3    C6 6034   1.261   0.495  13.093  0.6875  0.1869 -0.5673
  404TMC3     C 6035   1.186   0.801  13.350  0.5675 -0.0398 -0.4208
  404TMC3     O 6036   1.251   0.777  13.452  0.0818  0.5202 -0.1258
  404TMC3     H 6037   1.233   0.563  13.419  1.0028  0.7962 -0.0135
  404TMC3    H1 6038   1.131   0.802  13.078  0.3496  1.0708  1.0766
  404TMC3    H2 6039   1.320   0.427  13.033  0.0337 -1.9124  1.1665
  404TMC3    C7 6040   1.209   0.633  12.903 -0.7949 -0.3192 -0.3353
  404TMC3    C8 6041   1.296   0.341  13.277 -0.2171 -0.5524 -0.8022
  404TMC3    O1 6042   1.188   0.748  12.861 -0.4163  0.1696 -0.1714
  404TMC3    O2 6043   1.335   0.262  13.190 -0.1664 -0.3826  0.3791
  405MPD2     C 6044   1.772   1.332  14.945 -0.9112  0.2130 -0.1300
  405MPD2    C1 6045   1.760   1.230  14.858  0.3105 -0.2990  0.3153
  405MPD2    C2 6046   1.665   1.243  14.754  0.0147  0.0377  0.0380
  405MPD2    C3 6047   1.601   1.361  14.732  0.0546 -0.2146  0.0696
  405MPD2    C4 6048   1.611   1.464  14.824 -0.8835 -0.5804 -0.1063
  405MPD2    C5 6049   1.698   1.450  14.929  0.2339 -0.1560 -0.1511
  405MPD2     H 6050   1.653   1.167  14.678  0.6582  0.1382 -0.1637
  405MPD2    H1 6051   1.558   1.556  14.801  1.6075  1.2700  1.5208
  405MPD2    H2 6052   1.833   1.318  15.034  0.7407 -0.4122 -1.3676
  405MPD2    H3 6053   1.715   1.531  15.000  0.0453 -0.2395 -0.0121
  405MPD2     N 6054   1.530   1.373  14.609 -0.2083  0.0659  0.8184
  405MPD2    H5 6055   1.546   1.294  14.547 -1.5856 -0.1635  0.7452
  405MPD2    N1 6056   1.835   1.118  14.868  0.1839 -0.5426 -0.0204
  405MPD2    H7 6057   1.882   1.108  14.958  1.3609  1.5967 -0.3948
  406TMC3    C1 6058   1.251   1.501  14.255 -0.6111  0.6332 -0.0325
  406TMC3    C2 6059   1.267   1.377  14.201 -0.8960 -0.0605  0.1331
  406TMC3    C3 6060   1.337   1.284  14.272  0.2752  0.6959  0.2412
  406TMC3    C4 6061   1.309   1.537  14.378 -0.7150 -0.1827  0.2762
  406TMC3    C5 6062   1.383   1.438  14.443  0.2883 -0.6198 -0.2478
  406TMC3    C6 6063   1.394   1.307  14.399  0.4131 -0.3863  0.0144
  406TMC3     C 6064   1.163   1.594  14.188 -0.2614 -0.2923 -0.4920
  406TMC3     O 6065   1.139   1.576  14.068  0.0017 -0.3388 -0.2243
  406TMC3     H 6066   1.218   1.341  14.111 -0.7016 -3.1067  1.2500
  406TMC3    H1 6067   1.292   1.627  14.435 -3.1933  0.9819 -2.2801
  406TMC3    H2 6068   1.445   1.227  14.451  0.6322 -0.0366  0.3385
  406TMC3    C7 6069   1.447   1.472  14.569  0.8859 -0.1534 -0.4061
  406TMC3    C8 6070   1.369   1.156  14.209  0.2962  0.4202  0.1145
  406TMC3    O1 6071   1.409   1.575  14.625  0.1240  0.0022  1.0387
  406TMC3    O2 6072   1.292   1.109  14.129  0.2294  0.2359 -0.0307
  407MPD2     C 6073   0.141   1.870   9.670  0.1850 -0.4786  0.2028
  407MPD2    C1 6074   0.044   1.824   9.753  0.8855 -0.1826  0.1072
  407MPD2    C2 6075   4.699   1.915   9.830 -0.1599 -0.5679  0.0998
  407MPD2    C3 6076   4.720   2.048   9.825 -0.1279 -0.5643  0.4960
  407MPD2    C4 6077   0.095   2.096   9.744  0.4939  0.0973 -0.0879
  407MPD2    C5 6078   0.163   2.005   9.666 -0.5612 -1.1737  0.1582
  407MPD2     H 6079   4.634   1.872   9.906  0.6809 -0.9325  0.6129
  407MPD2    H1 6080   0.114   2.203   9.741 -1.1334  0.3536 -1.0053
  407MPD2    H2 6081   0.198   1.808   9.602  0.5685  0.6769 -0.5147
  407MPD2    H3 6082   0.239   2.033   9.595 -0.7313  0.8827  0.7971
  407MPD2     N 6083   4.642   2.131   9.905 -0.1099  0.1756 -0.1689
  407MPD2    H5 6084   4.683   2.222   9.923  2.3037 -0.6081 -1.5994
  407MPD2    N1 6085   0.044   1.680   9.763  0.1011 -0.6446  0.1524
  407MPD2    H7 6086   0.116   1.637   9.705  1.1059  2.4112 -0.8762
  408TMC3    C1 6087   4.695   1.464   9.815  0.5172 -0.5556  0.1738
  408TMC3    C2 6088   0.076   1.413   9.741 -0.4092  0.4930 -0.3048
  408TMC3    C3 6089   0.099   1.281   9.743  0.3755  0.4083  0.3671
  408TMC3    C4 6090   4.620   1.394   9.902  0.2932 -0.5494 -0.1598
  408TMC3    C5 6091   4.662   1.263   9.915 -0.1779  0.1029 -0.1355
  408TMC3    C6 6092   0.027   1.208   9.832 -0.0956  0.2871 -0.1393
  408TMC3     C 6093   4.676   1.610   9.826 -0.0598 -0.1993  0.7153
  408TMC3     O 6094   4.572   1.649   9.875 -0.1367 -0.1801  0.0529
  408TMC3     H 6095   0.125   1.484   9.676 -1.0685  0.4184 -0.8738
  408TMC3    H1 6096   4.531   1.433   9.950  0.1534  0.6532 -1.3879
  408TMC3    H2 6097   0.047   1.102   9.835  0.8736  0.5092  1.0327
  408TMC3    C7 6098   4.589   1.175  10.003 -0.2949 -0.0697 -0.4788
  408TMC3    C8 6099   0.230   1.223   9.695  0.3037 -0.7727 -0.0072
  408TMC3    O1 6100   4.588   1.062   9.958  0.1069  0.5396 -0.6311
  408TMC3    O2 6101   0.242   1.104   9.673 -0.0650 -0.4198  0.2027
  409MPD2     C 6102   3.355   3.383  16.890 -0.0131 -0.2112 -0.1431
  409MPD2    C1 6103   3.479   3.322  16.910  0.3146  0.5977  0.3014
  409MPD2    C2 6104   3.596   3.390  16.893  0.6982  0.2332  0.1784
  409MPD2    C3 6105   3.591   3.527  16.874  0.1161 -0.1349 -0.3754
  409MPD2    C4 6106   3.479   3.589  16.862 -0.2139 -0.1390 -0.0956
  409MPD2    C5 6107   3.358   3.518  16.864  0.0623 -0.3121  0.2644
  409MPD2     H 6108   3.692   3.339  16.896  0.5237 -0.1428 -0.7819
  409MPD2    H1 6109   3.483   3.697  16.853  1.4587 -0.0153  2.1903
  409MPD2    H2 6110   3.268   3.319  16.893 -0.5992  0.6119  0.2945
  409MPD2    H3 6111   3.261   3.566  16.860 -0.5293 -1.4985  0.3672
  409MPD2     N 6112   3.709   3.603  16.854 -0.2359 -0.5022 -0.4582
  409MPD2    H5 6113   3.696   3.702  16.832  0.8859 -0.1126  0.6249
  409MPD2    N1 6114   3.479   3.182  16.947  0.0752 -0.1828 -0.0789
  409MPD2    H7 6115   3.387   3.147  16.972  0.0466 -1.0348 -1.3603
  410TMC3    C1 6116   3.921   3.678  16.870  0.0652  0.4388 -0.3304
  410TMC3    C2 6117   4.013   3.690  16.967  0.7223  0.4095  0.6709
  410TMC3    C3 6118   4.086   3.803  16.976  0.1710  0.4971 -0.4136
  410TMC3    C4 6119   3.896   3.779  16.778  0.4430 -1.0560 -0.1859
  410TMC3    C5 6120   3.975   3.890  16.789  0.1375  0.6689 -0.2282
  410TMC3    C6 6121   4.063   3.908  16.892  0.1189  0.2034 -0.9673
  410TMC3     C 6122   3.835   3.565  16.888  0.2186  0.5716  0.1061
  410TMC3     O 6123   3.873   3.461  16.941 -0.0107 -0.2377 -0.0197
  410TMC3     H 6124   4.021   3.607  17.036 -0.7317  0.2092  0.5966
  410TMC3    H1 6125   3.847   3.759  16.684 -1.6861  3.7414 -0.0808
  410TMC3    H2 6126   4.121   3.999  16.900 -1.0656  0.9745 -1.1586
  410TMC3    C7 6127   3.957   3.986  16.680 -0.3317 -0.4633  0.2007
  410TMC3    C8 6128   4.141   3.844  17.098 -0.0765  0.1040  0.6790
  410TMC3    O1 6129   3.844   3.992  16.632 -0.2575  0.2575 -0.0133
  410TMC3    O2 6130   4.136   3.962  17.126  0.4470  0.2861  0.0713
  411MPD2     C 6131   4.369   0.108  14.551 -0.1786 -0.1918 -0.2649
  411MPD2    C1 6132   4.233   0.094  14.528 -0.0424 -0.7561  0.5159
  411MPD2    C2 6133   4.195   4.697  14.476  0.8306  0.5775 -0.0123
  411MPD2    C3 6134   4.285   4.593  14.465 -0.3125 -0.0002 -0.7270
  411MPD2    C4 6135   4.417   4.611  14.499 -0.3720  1.0081  0.1756
  411MPD2    C5 6136   4.462   0.005  14.529 -0.0383 -0.3929  0.1453
  411MPD2     H 6137   4.093   4.687  14.441  0.5791  0.5915  0.7221
  411MPD2    H1 6138   4.487   4.534  14.469  0.5193  1.2300  1.6838
  411MPD2    H2 6139   4.411   0.202  14.584 -0.0893 -0.6258  0.8461
  411MPD2    H3 6140   4.564   0.025  14.561  0.8683 -3.3609 -0.8835
  411MPD2     N 6141   4.247   4.467  14.404 -0.1648  0.4649  0.1822
  411MPD2    H5 6142   4.324   4.401  14.402  0.1281  0.8202 -0.2777
  411MPD2    N1 6143   4.139   0.202  14.546  0.2981 -0.1572 -0.2683
  411MPD2    H7 6144   4.166   0.276  14.610 -0.7908 -1.1697  1.3554
  412TMC3    C1 6145   4.120   4.289  14.323 -1.0268 -0.7737  0.5214
  412TMC3    C2 6146   4.188   4.184  14.381 -0.0824  0.0131 -0.2690
  412TMC3    C3 6147   4.165   4.060  14.335 -0.0281 -0.3661  0.0685
  412TMC3    C4 6148   4.039   4.278  14.216  0.5248  0.1453 -0.2147
  412TMC3    C5 6149   4.023   4.150  14.170 -0.4241 -0.3095  0.5909
  412TMC3    C6 6150   4.091   4.052  14.226  0.0987 -0.7962  1.2063
  412TMC3     C 6151   4.118   4.428  14.378  0.5190 -0.1293 -0.2318
  412TMC3     O 6152   4.016   4.496  14.396 -0.3305  0.1212 -0.2277
  412TMC3     H 6153   4.245   4.185  14.474 -1.8150 -0.5844  0.8031
  412TMC3    H1 6154   3.986   4.368  14.185  0.0495  0.5329  1.7216
  412TMC3    H2 6155   4.087   3.954  14.181  2.7042 -1.2703  2.0118
  412TMC3    C7 6156   3.885   4.115  14.142  0.2321 -0.3554  0.2234
  412TMC3    C8 6157   4.123   3.968  14.447 -0.6431  0.1727  0.0452
  412TMC3    O1 6158   3.863   3.998  14.173  0.1840  0.0922 -0.6846
  412TMC3    O2 6159   4.192   3.960  14.550 -0.4655  0.1683 -0.2995
  413MPD2     C 6160   0.837   2.601  15.447  0.3008 -0.1462 -0.2073
  413MPD2    C1 6161   0.756   2.523  15.365 -0.4649  0.1444  0.8212
  413MPD2    C2 6162   0.789   2.389  15.351  0.9487 -0.3310  0.0214
  413MPD2    C3 6163   0.886   2.333  15.439 -0.3977 -0.1012  0.4628
  413MPD2    C4 6164   0.955   2.414  15.522 -0.0724 -0.4108  0.1099
  413MPD2    C5 6165   0.925   2.543  15.531 -0.7024 -0.7180  0.6032
  413MPD2     H 6166   0.739   2.320  15.285  0.6456 -0.0391 -0.0517
  413MPD2    H1 6167   1.019   2.375  15.600  1.0859 -0.0274 -0.6504
  413MPD2    H2 6168   0.824   2.708  15.455  2.5588  0.1011  0.2023
  413MPD2    H3 6169   0.986   2.597  15.602 -0.2196 -1.3526  0.6658
  413MPD2     N 6170   0.917   2.193  15.418  0.3819 -0.2873  0.1997
  413MPD2    H5 6171   0.891   2.156  15.327  0.8432  0.9682 -0.4365
  413MPD2    N1 6172   0.657   2.588  15.290 -0.3655  0.5596 -0.9309
  413MPD2    H7 6173   0.656   2.688  15.303 -0.5838  0.3730  0.4589
  414TMC3    C1 6174   1.067   2.019  15.437 -0.0028 -0.4775 -0.8215
  414TMC3    C2 6175   1.114   1.920  15.517 -0.2227 -0.6219  0.3880
  414TMC3    C3 6176   1.216   1.844  15.469 -0.3422  0.0523 -0.1276
  414TMC3    C4 6177   1.111   2.041  15.303  0.0912  0.7513  0.5444
  414TMC3    C5 6178   1.211   1.961  15.255  0.7687 -0.2830  0.5373
  414TMC3    C6 6179   1.264   1.864  15.339 -0.0239  0.4429  0.0501
  414TMC3     C 6180   0.995   2.118  15.504  0.0074  0.2961 -0.3224
  414TMC3     O 6181   1.028   2.141  15.618 -0.6505  0.1606  0.2668
  414TMC3     H 6182   1.068   1.903  15.613 -2.8221  0.8823 -0.5772
  414TMC3    H1 6183   1.068   2.128  15.255 -0.7050 -0.0339 -0.1617
  414TMC3    H2 6184   1.347   1.801  15.307 -1.5796 -1.2469 -0.6509
  414TMC3    C7 6185   1.294   2.003  15.141  0.4462  0.3070 -0.1671
  414TMC3    C8 6186   1.287   1.749  15.546  0.0894 -0.3207 -0.3510
  414TMC3    O1 6187   1.387   1.925  15.124 -0.0336 -0.6132  0.0132
  414TMC3    O2 6188   1.343   1.658  15.489  0.4412  1.0209  0.3365
  415TMC3    C1 6189   1.254   4.286  10.376  0.6083  0.2191  0.4373
  415TMC3    C2 6190   1.347   4.389  10.351 -0.9707 -0.1381 -0.1086
  415TMC3    C3 6191   1.417   4.383  10.234  0.0008 -0.6455  0.2699
  415TMC3    C4 6192   1.234   4.179  10.292 -0.6553 -0.6161 -0.5467
  415TMC3    C5 6193   1.311   4.183  10.177  0.2322  0.0355  0.1283
  415TMC3    C6 6194   1.396   4.285  10.142  0.1521 -0.3585  0.6264
  415TMC3     C 6195   1.221   4.260  10.514  0.6749 -0.1254 -0.0812
  415TMC3     O 6196   1.192   4.142  10.546 -0.2747 -0.2299 -0.0640
  415TMC3     H 6197   1.369   4.464  10.426  1.1352 -0.4620 -0.3954
  415TMC3    H1 6198   1.175   4.097  10.332  0.9637 -1.2788  0.4837
  415TMC3    H2 6199   1.459   4.283  10.054  0.2368  0.6472  0.6663
  415TMC3    C7 6200   1.319   4.068  10.096 -1.2309  0.1603 -0.2452
  415TMC3    C8 6201   1.503   4.497  10.213 -0.7151 -0.4568 -0.1686
  415TMC3    O1 6202   1.386   4.075   9.993 -0.2855 -0.4112  0.1543
  415TMC3    O2 6203   1.471   4.599  10.278  0.9211  0.0667 -0.3472
  416MPD2     C 6204   3.227   3.876  11.337 -0.2926 -0.8478  0.2830
  416MPD2    C1 6205   3.136   3.838  11.438  0.2218  0.0648  0.1392
  416MPD2    C2 6206   3.073   3.713  11.432  0.0105 -0.1614 -0.0707
  416MPD2    C3 6207   3.101   3.625  11.324 -0.4008 -0.1740  0.2999
  416MPD2    C4 6208   3.197   3.656  11.234 -0.1555 -0.7128 -0.7139
  416MPD2    C5 6209   3.246   3.785  11.241 -0.4869 -0.2428  0.9703
  416MPD2     H 6210   3.006   3.690  11.515 -1.4877  0.2256 -1.1577
  416MPD2    H1 6211   3.208   3.602  11.141  2.9341  0.1318 -0.8659
  416MPD2    H2 6212   3.286   3.967  11.338 -0.0467 -1.0186  1.7203
  416MPD2    H3 6213   3.315   3.813  11.161  0.1941 -1.4366  1.1219
  416MPD2     N 6214   3.010   3.522  11.285 -0.6377 -0.0163  0.2552
  416MPD2    H5 6215   3.027   3.466  11.202  2.8388 -0.6001  1.3552
  416MPD2    N1 6216   3.120   3.928  11.549  0.5050 -0.3335  0.0267
  416MPD2    H7 6217   3.163   4.020  11.538  0.4029 -0.3029 -0.1190
  417TMC3    C1 6218   3.044   4.013  11.752 -0.0077 -0.0921  0.2929
  417TMC3    C2 6219   3.038   3.995  11.885  0.0073 -0.1817 -0.5052
  417TMC3    C3 6220   2.931   4.054  11.950  0.2665  1.1399 -0.5081
  417TMC3    C4 6221   2.979   4.117  11.697  0.2643 -0.2535 -0.3267
  417TMC3    C5 6222   2.890   4.195  11.769 -0.6312  0.1550 -0.3168
  417TMC3    C6 6223   2.855   4.157  11.897  0.3323 -0.3074  0.5788
  417TMC3     C 6224   3.050   3.900  11.663  0.0727  0.4132  0.1038
  417TMC3     O 6225   2.999   3.796  11.700  0.0678 -0.1380 -0.0420
  417TMC3     H 6226   3.089   3.907  11.922 -0.9899  0.2815  1.9457
  417TMC3    H1 6227   2.974   4.117  11.589  1.0124  3.0355 -0.3403
  417TMC3    H2 6228   2.793   4.218  11.963 -0.4026 -1.7572  1.2129
  417TMC3    C7 6229   2.782   4.257  11.688  0.1942 -0.4840 -0.2818
  417TMC3    C8 6230   2.907   3.999  12.081  0.2777 -0.0171 -0.7324
  417TMC3    O1 6231   2.832   4.339  11.612  0.4094  0.1127 -0.2477
  417TMC3    O2 6232   2.952   3.883  12.096 -0.5119 -0.4332  0.1033
  418TMC3    C1 6233   2.178   0.622  17.456  0.1139  0.4486 -0.7250
  418TMC3    C2 6234   2.045   0.626  17.505  0.2282  0.4733 -0.1670
  418TMC3    C3 6235   2.010   0.733  17.584  0.0768 -0.4270  0.0532
  418TMC3    C4 6236   2.271   0.710  17.497 -0.1683  0.4570 -0.1150
  418TMC3    C5 6237   2.232   0.812  17.580 -0.2920  0.8056 -0.3466
  418TMC3    C6 6238   2.095   0.837  17.601 -0.4658 -0.4220  0.1277
  418TMC3     C 6239   2.195   0.543  17.343  0.9384 -0.2105  0.2223
  418TMC3     O 6240   2.269   0.580  17.257 -0.1654 -0.3889 -0.1370
  418TMC3     H 6241   1.966   0.561  17.467 -0.4456  2.0994 -1.5568
  418TMC3    H1 6242   2.374   0.697  17.467 -0.2763 -1.0188  0.1595
  418TMC3    H2 6243   2.070   0.914  17.673  2.2912 -1.0288  1.7244
  418TMC3    C7 6244   2.290   0.800   0.008 -0.4730  1.2482 -0.2063
  418TMC3    C8 6245   1.913   0.716  17.689 -0.4739 -0.5636  0.4760
  418TMC3    O1 6246   2.326   0.685   0.030  0.1724 -0.6010  0.3268
  418TMC3    O2 6247   1.881   0.819   0.041  0.3538 -0.2118  0.1215
  419MPD2     C 6248   4.370   3.837  12.102 -0.1606  0.6382  0.0803
  419MPD2    C1 6249   4.476   3.892  12.173 -0.2132  0.1633  0.5671
  419MPD2    C2 6250   4.453   3.945  12.301 -0.7865 -0.5087  0.2310
  419MPD2    C3 6251   4.322   3.945  12.346 -0.0547  0.7671  0.1724
  419MPD2    C4 6252   4.225   3.894  12.272  0.4792 -0.0127 -0.1647
  419MPD2    C5 6253   4.249   3.845  12.148  0.3653 -0.1237 -0.2203
  419MPD2     H 6254   4.535   3.986  12.360 -1.5019  1.8667 -0.4184
  419MPD2    H1 6255   4.123   3.888  12.306  0.9706 -1.0548  1.1489
  419MPD2    H2 6256   4.387   3.784  12.009 -0.3318  1.1498 -0.2438
  419MPD2    H3 6257   4.167   3.805  12.088  0.6071 -0.8514 -0.0726
  419MPD2     N 6258   4.288   4.021  12.457  0.5854 -0.0257  0.1669
  419MPD2    H5 6259   4.358   4.087  12.490 -0.7248  0.7312  1.4426
  419MPD2    N1 6260   4.606   3.893  12.127  0.4015 -0.1891  0.0368
  419MPD2    H7 6261   4.677   3.911  12.197  1.1888 -0.5656 -0.6697
  420TMC3    C1 6262   4.180   4.159  12.584  0.0958  0.1758  0.0521
  420TMC3    C2 6263   4.210   4.258  12.492  0.2122 -0.0783  0.7656
  420TMC3    C3 6264   4.292   4.362  12.528  0.1942  0.4353 -0.4960
  420TMC3    C4 6265   4.240   4.154  12.704  0.1029 -0.3586  0.0440
  420TMC3    C5 6266   4.325   4.262  12.743 -0.2106  0.3747  0.2138
  420TMC3    C6 6267   4.353   4.366  12.652 -0.1239 -0.2668 -0.7087
  420TMC3     C 6268   4.173   4.023  12.529  0.5051 -0.3266 -0.2073
  420TMC3     O 6269   4.071   3.957  12.526 -0.3538 -0.0649  0.0792
  420TMC3     H 6270   4.168   4.240  12.393  0.1007  0.5835  0.6885
  420TMC3    H1 6271   4.224   4.070  12.770  2.6088 -0.6506  0.2829
  420TMC3    H2 6272   4.436   4.433  12.665 -1.6686  0.5692  4.9553
  420TMC3    C7 6273   4.385   4.258  12.879 -1.0386 -0.3258 -0.4269
  420TMC3    C8 6274   4.329   4.448  12.421 -0.5078  1.0360 -0.3605
  420TMC3    O1 6275   4.412   4.150  12.930  0.5789 -0.5294 -0.7134
  420TMC3    O2 6276   4.315   4.405  12.305 -0.3357 -0.4995  0.5969
  421TMC3    C1 6277   1.390   1.307  13.835 -0.4116  0.7337  0.0396
  421TMC3    C2 6278   1.414   1.424  13.899  0.3987 -0.2706 -0.1942
  421TMC3    C3 6279   1.510   1.433  13.990  0.1927 -0.7344 -0.4016
  421TMC3    C4 6280   1.472   1.202  13.842  0.0739 -0.3895  0.3474
  421TMC3    C5 6281   1.579   1.212  13.936 -0.6268  0.5377  0.4318
  421TMC3    C6 6282   1.602   1.330  14.003  0.7698 -0.2178 -0.0770
  421TMC3     C 6283   1.285   1.310  13.736  0.1837  0.7230 -0.5159
  421TMC3     O 6284   1.210   1.407  13.739 -0.2976  0.1910  0.1149
  421TMC3     H 6285   1.339   1.502  13.895  0.6754  0.0584  1.0939
  421TMC3    H1 6286   1.436   1.103  13.814 -0.0981 -0.0056 -0.7874
  421TMC3    H2 6287   1.670   1.331  14.088  2.6091 -1.1159 -1.5545
  421TMC3    C7 6288   1.696   1.120  13.939 -0.3377  0.6238  0.3325
  421TMC3    C8 6289   1.527   1.562  14.051 -0.0240 -0.0046  0.3288
  421TMC3    O1 6290   1.788   1.148  14.016  0.0588  0.8073  0.1215
  421TMC3    O2 6291   1.436   1.648  14.038 -0.1749 -0.0344  0.6620
  422TMC3    C1 6292   4.131   1.814  12.565 -0.2187  0.0426 -0.2621
  422TMC3    C2 6293   4.088   1.949  12.570  0.2275  0.1210  0.2372
  422TMC3    C3 6294   3.977   1.985  12.644  0.4895  0.3813 -0.0883
  422TMC3    C4 6295   4.061   1.723  12.637  0.2097  0.7877 -0.5441
  422TMC3    C5 6296   3.944   1.757  12.702  0.2922  0.0598 -0.1026
  422TMC3    C6 6297   3.904   1.888  12.708 -0.5958  0.5098  0.8425
  422TMC3     C 6298   4.239   1.776  12.472  0.5125  0.2715 -0.7465
  422TMC3     O 6299   4.303   1.873  12.432  0.4210 -0.5008 -0.0027
  422TMC3     H 6300   4.148   2.021  12.515 -1.2605 -0.3936 -2.1083
  422TMC3    H1 6301   4.082   1.618  12.616  0.3811  0.9291 -1.0749
  422TMC3    H2 6302   3.803   1.912  12.738 -0.2161  1.9902  0.9272
  422TMC3    C7 6303   3.858   1.643  12.727  0.1136 -0.2982 -0.2043
  422TMC3    C8 6304   3.950   2.129  12.655  0.1941  0.1599  0.3636
  422TMC3    O1 6305   3.888   1.547  12.662 -0.4986  0.1927  0.3198
  422TMC3    O2 6306   4.047   2.204  12.651 -0.3819 -0.2692  0.3586
  423MPD2     C 6307   0.714   3.041   0.594 -0.8605 -0.5979 -0.0211
  423MPD2    C1 6308   0.688   2.907   0.602 -0.2350 -0.1338 -0.2252
  423MPD2    C2 6309   0.741   2.820   0.510  0.4306  0.8139  0.2956
  423MPD2    C3 6310   0.820   2.874   0.402  0.5490  0.7559  0.2010
  423MPD2    C4 6311   0.857   3.009   0.416 -0.1524  0.7958  0.7539
  423MPD2    C5 6312   0.796   3.095   0.506  0.1491 -0.3330 -0.8581
  423MPD2     H 6313   0.697   2.722   0.498  0.1130  0.9598  0.2646
  423MPD2    H1 6314   0.924   3.058   0.346  1.9842 -1.2493  1.3593
  423MPD2    H2 6315   0.676   3.099   0.677  0.3521  1.6877 -1.0695
  423MPD2    H3 6316   0.809   3.203   0.505  2.2304 -0.5679  1.6854
  423MPD2     N 6317   0.869   2.796   0.293 -0.4925  0.6732 -0.3504
  423MPD2    H5 6318   0.936   2.839   0.230  1.3971 -0.1209  1.1075
  423MPD2    N1 6319   0.603   2.865   0.708  0.1453  0.7695  0.0423
  423MPD2    H7 6320   0.561   2.941   0.762 -4.2919 -1.0105 -0.9349
  424TMC3    C1 6321   0.497   2.725   0.862  0.1933 -0.1531  0.1396
  424TMC3    C2 6322   0.500   2.625   0.955  0.1019 -0.3556  0.4223
  424TMC3    C3 6323   0.391   2.621   1.042 -0.0692 -0.3832  0.5224
  424TMC3    C4 6324   0.391   2.813   0.852  0.2267  0.3788 -0.0865
  424TMC3    C5 6325   0.284   2.798   0.934  0.2271  0.2420 -0.0383
  424TMC3    C6 6326   0.281   2.704   1.034 -0.0257 -0.7236  0.2350
  424TMC3     C 6327   0.601   2.735   0.760 -0.2989 -0.4188  0.5347
  424TMC3     O 6328   0.677   2.642   0.733  0.2101  0.0844  0.0561
  424TMC3     H 6329   0.579   2.551   0.964 -0.5119 -0.7652  2.3037
  424TMC3    H1 6330   0.383   2.877   0.765 -0.4436  3.6865  2.3879
  424TMC3    H2 6331   0.193   2.695   1.097  0.3231 -0.4197  0.7668
  424TMC3    C7 6332   0.158   2.853   0.895  0.5657 -0.0603  0.5980
  424TMC3    C8 6333   0.407   2.529   1.154 -0.7815  0.0389  0.0317
  424TMC3    O1 6334   0.142   2.886   0.779 -0.0144  0.8174  0.0654
  424TMC3    O2 6335   0.513   2.471   1.164  0.2430 -0.3921  0.4018
  425MPD2     C 6336   4.463   2.459  17.019  0.4007 -0.1432  0.4688
  425MPD2    C1 6337   4.450   2.350  17.099 -0.2348 -0.4331  0.1603
  425MPD2    C2 6338   4.352   2.347  17.198 -0.3274 -0.4498 -0.1164
  425MPD2    C3 6339   4.271   2.452  17.219 -0.5123 -0.4543 -0.0772
  425MPD2    C4 6340   4.273   2.552  17.121  0.0941 -0.3876  0.2322
  425MPD2    C5 6341   4.366   2.559  17.029  0.5170  0.0274 -0.4116
  425MPD2     H 6342   4.339   2.265  17.267  0.4068  0.0016  0.5564
  425MPD2    H1 6343   4.197   2.629  17.115 -0.3035 -0.8350 -0.4511
  425MPD2    H2 6344   4.538   2.476  16.943  0.1139 -0.7295  0.0611
  425MPD2    H3 6345   4.370   2.642  16.959 -0.9390 -0.6553 -1.2950
  425MPD2     N 6346   4.181   2.439  17.325 -0.7463 -0.4645 -0.1828
  425MPD2    H5 6347   4.189   2.352  17.377 -1.6711 -0.8251 -0.6342
  425MPD2    N1 6348   4.537   2.235  17.099  0.2364 -0.0293  0.4490
  425MPD2    H7 6349   4.529   2.176  17.181  0.9465  0.3356  0.7838
  426TMC3    C1 6350   4.692   2.082  17.026  0.1345 -0.0378 -0.0737
  426TMC3    C2 6351   4.694   1.974  16.944 -0.4286 -0.2679 -0.2654
  426TMC3    C3 6352   0.007   1.856  17.005 -0.7779 -0.7101  0.2284
  426TMC3    C4 6353   0.010   2.086  17.153 -0.4321  0.4074  0.0312
  426TMC3    C5 6354   0.034   1.964  17.205  0.3338  0.9974 -0.0010
  426TMC3    C6 6355   0.039   1.844  17.141  0.2191 -0.2773 -0.3219
  426TMC3     C 6356   4.602   2.189  16.987 -0.1704  0.0394 -0.2683
  426TMC3     O 6357   4.619   2.240  16.877  0.4348  0.2100 -0.4973
  426TMC3     H 6358   4.655   1.970  16.843 -2.4761 -0.9357  0.5491
  426TMC3    H1 6359   0.013   2.178  17.211  1.6857  0.7885 -0.6879
  426TMC3    H2 6360   0.069   1.757  17.197  1.3998  0.8442  0.7962
  426TMC3    C7 6361   0.102   1.966  17.334 -0.3670  0.4039  0.0396
  426TMC3    C8 6362   4.723   1.737  16.920 -0.2790  0.0967 -0.7720
  426TMC3    O1 6363   0.204   1.899  17.337 -0.4177 -0.7300 -0.4038
  426TMC3    O2 6364   4.647   1.740  16.824  0.5984 -0.1678 -0.5709
  427MPD2     C 6365   3.043   4.364  14.917 -0.4250  0.2413 -0.8988
  427MPD2    C1 6366   3.057   4.263  14.828  0.3486 -0.5465 -0.1699
  427MPD2    C2 6367   2.949   4.238  14.748  0.1785  0.2133  0.1142
  427MPD2    C3 6368   2.835   4.320  14.749 -0.4461 -0.5985 -0.5576
  427MPD2    C4 6369   2.825   4.426  14.833 -0.1495  0.0342  0.0918
  427MPD2    C5 6370   2.929   4.442  14.922 -0.2006 -0.7270 -0.0305
  427MPD2     H 6371   2.941   4.161  14.673  0.1416 -1.6113  1.9868
  427MPD2    H1 6372   2.740   4.492  14.845  1.0659  1.2128  2.2351
  427MPD2    H2 6373   3.111   4.387  14.999 -1.4336  0.5195 -0.1401
  427MPD2    H3 6374   2.919   4.511  15.005  1.6437 -0.3837 -0.0896
  427MPD2     N 6375   2.710   4.288  14.686  0.2544 -0.0429  1.0590
  427MPD2    H5 6376   2.637   4.357  14.702  0.4048  1.0276 -2.6810
  427MPD2    N1 6377   3.168   4.172  14.820  0.3578 -0.6756 -0.5718
  427MPD2    H7 6378   3.155   4.100  14.750  0.8341 -1.3270  0.0147
  428TMC3    C1 6379   3.387   4.096  14.867  0.5719  0.5392 -0.6490
  428TMC3    C2 6380   3.364   3.965  14.837 -0.3008 -0.1001 -0.3407
  428TMC3    C3 6381   3.468   3.879  14.825 -0.1143  0.1953  0.4993
  428TMC3    C4 6382   3.506   4.144  14.908  0.3118 -0.3711 -0.2780
  428TMC3    C5 6383   3.609   4.057  14.893  0.2948  0.4220 -0.4895
  428TMC3    C6 6384   3.595   3.927  14.854 -0.8224  0.3838  0.0726
  428TMC3     C 6385   3.276   4.179  14.907 -0.3138 -0.0414 -0.4501
  428TMC3     O 6386   3.296   4.261  14.997  0.2089 -0.0261  0.7865
  428TMC3     H 6387   3.261   3.939  14.816 -0.3559  0.5287 -0.8809
  428TMC3    H1 6388   3.517   4.248  14.936 -0.9450 -0.1685 -0.5659
  428TMC3    H2 6389   3.672   3.851  14.853 -0.3536  0.8618 -0.2043
  428TMC3    C7 6390   3.726   4.105  14.950  0.2967  0.3592 -0.1561
  428TMC3    C8 6391   3.441   3.736  14.815 -0.4154 -0.0720  0.4698
  428TMC3    O1 6392   3.747   4.228  14.936 -0.0045 -0.1483 -0.4834
  428TMC3    O2 6393   3.529   3.654  14.833  0.3098 -0.4622 -0.6966
  429MPD2     C 6394   3.219   3.925  17.590 -0.0293  0.2052 -0.0800
  429MPD2    C1 6395   3.337   3.856  17.590 -0.1512 -0.0384 -0.5359
  429MPD2    C2 6396   3.434   3.898  17.496  0.2217 -0.5906  0.1524
  429MPD2    C3 6397   3.426   4.022  17.432 -0.4447  0.4511  0.2169
  429MPD2    C4 6398   3.304   4.093  17.437  0.1280 -0.3114  0.5718
  429MPD2    C5 6399   3.205   4.045  17.520 -0.3729  0.3684  0.1264
  429MPD2     H 6400   3.529   3.847  17.509  1.2810  1.4390  0.3379
  429MPD2    H1 6401   3.286   4.188  17.388  0.6125  0.3646  1.7008
  429MPD2    H2 6402   3.134   3.887  17.646 -1.2170  2.4106 -0.3942
  429MPD2    H3 6403   3.107   4.090  17.519 -1.0036 -1.0618 -2.0339
  429MPD2     N 6404   3.537   4.069  17.363  0.2148  0.5206 -0.3332
  429MPD2    H5 6405   3.627   4.030  17.390  0.2721  0.4526 -0.6220
  429MPD2    N1 6406   3.367   3.749  17.676  0.2031  0.4385  0.3486
  429MPD2    H7 6407   3.445   3.688  17.654 -0.3701 -0.9756  2.2739
  430TMC3    C1 6408   3.677   4.265  17.312 -0.5098 -0.0231 -0.0608
  430TMC3    C2 6409   3.684   4.379  17.236  1.0462  0.1834 -0.0045
  430TMC3    C3 6410   3.797   4.452  17.259  0.4062  0.4089  0.4491
  430TMC3    C4 6411   3.772   4.229  17.409 -0.3088 -0.1553 -0.7224
  430TMC3    C5 6412   3.869   4.314  17.440  0.1365  0.6493  0.2978
  430TMC3    C6 6413   3.884   4.434  17.371  0.3611  0.3552  0.1026
  430TMC3     C 6414   3.551   4.192  17.300  0.1242 -0.7147  0.0765
  430TMC3     O 6415   3.465   4.243  17.230 -0.5698  0.5395  0.8526
  430TMC3     H 6416   3.637   4.378  17.138  1.9560 -0.7931 -0.4348
  430TMC3    H1 6417   3.766   4.143  17.476  0.5705  0.9762  0.8196
  430TMC3    H2 6418   3.972   4.493  17.391 -0.7061  1.7839  0.5600
  430TMC3    C7 6419   3.990   4.232  17.458  0.5132  0.5032  0.7292
  430TMC3    C8 6420   3.832   4.559  17.172 -0.0727 -0.2767 -0.2121
  430TMC3    O1 6421   3.993   4.111  17.438 -0.2052 -0.4565 -0.2285
  430TMC3    O2 6422   3.812   4.550  17.051 -0.4519  0.3433 -0.3763
  431MPD2     C 6423   0.470   4.351  12.523 -0.2035  0.1480  0.0670
  431MPD2    C1 6424   0.520   4.375  12.393 -0.0052  0.4675 -0.5403
  431MPD2    C2 6425   0.460   4.309  12.290  0.1446  0.3976 -0.2407
  431MPD2    C3 6426   0.357   4.212  12.308 -0.7077 -0.5696 -0.1323
  431MPD2    C4 6427   0.311   4.190  12.437  0.4993  0.3949  0.2098
  431MPD2    C5 6428   0.366   4.265  12.539 -0.0653  0.0744  0.2503
  431MPD2     H 6429   0.505   4.323  12.192 -2.5196 -0.6483 -1.6076
  431MPD2    H1 6430   0.230   4.120  12.452  1.1179 -0.4702 -0.4325
  431MPD2    H2 6431   0.507   4.402  12.611  0.9425  1.3416 -1.1017
  431MPD2    H3 6432   0.320   4.239  12.633 -4.7467  1.4599 -1.6607
  431MPD2     N 6433   0.294   4.145  12.202  0.2240 -0.9352  0.9362
  431MPD2    H5 6434   0.220   4.080  12.228 -0.0745 -0.9105  0.1503
  431MPD2    N1 6435   0.636   4.444  12.364  0.2708 -0.3878 -0.7325
  431MPD2    H7 6436   0.666   4.451  12.267 -0.2836  1.8431 -0.7495
  432TMC3    C1 6437   0.238   4.063  11.989 -0.0932  0.2569  0.0960
  432TMC3    C2 6438   0.282   4.040  11.861  0.1683 -0.7500  0.3715
  432TMC3    C3 6439   0.213   3.937  11.794 -0.0518  0.7547 -0.4803
  432TMC3    C4 6440   0.119   4.009  12.046  0.3632  0.1209 -0.5463
  432TMC3    C5 6441   0.062   3.912  11.971 -0.5523 -0.7255  0.1764
  432TMC3    C6 6442   0.111   3.873  11.851 -0.1041  0.0157 -0.1712
  432TMC3     C 6443   0.319   4.156  12.067  0.0070 -0.7572 -0.8533
  432TMC3     O 6444   0.402   4.219  12.007 -0.5985  0.4548 -0.0206
  432TMC3     H 6445   0.382   4.068  11.828 -0.3559 -0.1769 -0.6946
  432TMC3    H1 6446   0.070   4.045  12.136  0.7215  1.0786 -0.7378
  432TMC3    H2 6447   0.055   3.792  11.804  0.4558 -0.1025 -0.6313
  432TMC3    C7 6448   4.643   3.877  11.994  0.3284  0.7279  0.7217
  432TMC3    C8 6449   0.294   3.860  11.703 -0.8344 -0.4851  0.2061
  432TMC3    O1 6450   4.578   3.862  11.896  0.2187 -0.0302 -0.4595
  432TMC3    O2 6451   0.242   3.796  11.613  0.1820 -0.0431  0.9797
  433MPD2     C 6452   4.128   2.959  11.008 -0.1375  0.8381 -0.0373
  433MPD2    C1 6453   4.076   2.841  11.054 -0.1548  0.4388 -0.1706
  433MPD2    C2 6454   4.043   2.824  11.190 -0.6968 -0.3332 -0.7704
  433MPD2    C3 6455   4.062   2.924  11.277 -0.7182 -0.3331 -0.3255
  433MPD2    C4 6456   4.116   3.042  11.238 -0.1048 -0.3429 -0.5898
  433MPD2    C5 6457   4.143   3.057  11.100  0.0374 -0.5112  0.2521
  433MPD2     H 6458   4.004   2.727  11.218 -1.1722  0.2040  0.3883
  433MPD2    H1 6459   4.116   3.128  11.305 -1.6273  0.0291 -1.0635
  433MPD2    H2 6460   4.165   2.969  10.906  1.0481 -0.2606  0.2905
  433MPD2    H3 6461   4.178   3.157  11.076 -2.5797  0.6470  1.1618
  433MPD2     N 6462   4.010   2.899  11.404 -0.3943  0.1819  0.2636
  433MPD2    H5 6463   3.954   2.814  11.411 -0.2593  0.1492  0.9629
  433MPD2    N1 6464   4.048   2.733  10.973 -1.3688  0.3543 -0.0395
  433MPD2    H7 6465   4.022   2.646  11.018  4.2819 -1.7542 -0.9004
  434TMC3    C1 6466   4.048   2.587  10.791 -0.2645 -0.3482 -0.2277
  434TMC3    C2 6467   4.051   2.479  10.881  0.2243 -0.1798 -0.1294
  434TMC3    C3 6468   4.055   2.352  10.828 -0.4152 -0.9255 -0.1818
  434TMC3    C4 6469   4.044   2.558  10.662 -0.0272 -0.2458 -0.0280
  434TMC3    C5 6470   4.051   2.433  10.607 -0.8254 -0.0176 -0.7437
  434TMC3    C6 6471   4.053   2.321  10.693  0.7182 -0.1682  0.2344
  434TMC3     C 6472   4.074   2.723  10.835  0.1501 -0.8942  0.0879
  434TMC3     O 6473   4.108   2.805  10.749 -0.3822  0.2650 -0.3353
  434TMC3     H 6474   4.061   2.490  10.988  0.7972  1.4497 -0.3610
  434TMC3    H1 6475   4.049   2.647  10.600 -2.3266  0.5733  0.9588
  434TMC3    H2 6476   4.074   2.220  10.659 -1.2578  0.0915 -1.7887
  434TMC3    C7 6477   4.041   2.419  10.462  0.1641  0.0751  0.8761
  434TMC3    C8 6478   4.040   2.242  10.922  0.2582  1.3833  0.3847
  434TMC3    O1 6479   4.060   2.518  10.393 -0.0831 -0.3394  0.0730
  434TMC3    O2 6480   4.084   2.265  11.034  0.1640  0.5070 -0.7890
  435MPD2     C 6481   1.082   2.906  15.572  0.0546 -0.2132  0.4423
  435MPD2    C1 6482   1.118   2.950  15.692  0.0850  0.2682  0.5450
  435MPD2    C2 6483   1.241   2.913  15.746  0.1988  0.3056  0.5453
  435MPD2    C3 6484   1.323   2.829  15.671 -0.3154 -0.5520 -0.3025
  435MPD2    C4 6485   1.281   2.778  15.553  0.0978  0.2307  0.0073
  435MPD2    C5 6486   1.162   2.823  15.504  0.7546  0.6510 -0.6150
  435MPD2     H 6487   1.254   2.946  15.848  0.1093  0.5350  0.4817
  435MPD2    H1 6488   1.347   2.722  15.487  0.0504  0.2346 -0.0431
  435MPD2    H2 6489   0.993   2.938  15.519  0.4156 -1.2533 -0.7942
  435MPD2    H3 6490   1.131   2.801  15.403  0.1693  0.3932 -0.3736
  435MPD2     N 6491   1.451   2.800  15.733 -0.1826 -0.1360  0.0948
  435MPD2    H5 6492   1.474   2.843  15.822 -1.7566  1.4581 -0.2678
  435MPD2    N1 6493   1.037   3.049  15.757 -0.2097 -0.1687  0.1298
  435MPD2    H7 6494   1.079   3.109  15.827 -2.8572  0.6014  1.0581
  436TMC3    C1 6495   0.755   3.186  16.032 -0.5653 -0.4392 -0.2184
  436TMC3    C2 6496   0.859   3.147  15.950 -0.0868  0.6177  0.2898
  436TMC3    C3 6497   0.843   3.160  15.818  0.7989 -0.3595 -0.6168
  436TMC3    C4 6498   0.633   3.240  15.981  1.3432 -1.0574  0.2701
  436TMC3    C5 6499   0.621   3.252  15.843 -0.7526  0.5560  0.0926
  436TMC3    C6 6500   0.729   3.217  15.768 -1.2201  0.1193  0.1923
  436TMC3     C 6501   0.762   3.139  16.172 -0.1377 -0.6034  0.7624
  436TMC3     O 6502   0.859   3.080  16.210 -0.1678 -0.0821  0.0811
  436TMC3     H 6503   0.948   3.100  15.991 -0.5793  2.6665  3.7384
  436TMC3    H1 6504   0.553   3.278  16.043  0.8904 -1.3532 -0.1421
  436TMC3    H2 6505   0.710   3.229  15.662  2.5842  3.3882 -0.1118
  436TMC3    C7 6506   0.500   3.314  15.787  0.6626  0.5347 -0.3232
  436TMC3    C8 6507   0.909   3.073  15.723  0.5720 -0.4907 -0.1297
  436TMC3    O1 6508   0.509   3.379  15.684 -0.1267 -0.0726  0.3132
  436TMC3    O2 6509   0.826   3.021  15.648  0.2183  0.0116 -0.0025
  437TMC3    C1 6510   4.565   4.274  12.051 -0.7130 -0.1812 -0.7898
  437TMC3    C2 6511   4.568   4.259  12.183 -0.1002  0.3909 -0.0820
  437TMC3    C3 6512   4.671   4.316  12.252  0.5078 -0.0110 -0.0837
  437TMC3    C4 6513   4.667   4.328  11.982  0.6968  0.6702 -0.1007
  437TMC3    C5 6514   0.047   4.381  12.052  0.2605  0.5865  0.0774
  437TMC3    C6 6515   0.047   4.394  12.187  0.4714  0.2784 -0.8724
  437TMC3     C 6516   4.455   4.223  11.983  0.4807  0.1985 -0.2130
  437TMC3     O 6517   4.469   4.203  11.863 -0.0160  0.0585  0.1898
  437TMC3     H 6518   4.496   4.199  12.236 -0.7706  1.0415 -0.2559
  437TMC3    H1 6519   4.654   4.346  11.876  3.7616 -2.6627 -1.0164
  437TMC3    H2 6520   0.136   4.424  12.239 -0.5053 -0.0022  0.9563
  437TMC3    C7 6521   0.156   4.441  11.971  0.5253  0.4940 -0.2111
  437TMC3    C8 6522   4.690   4.305  12.398  0.1471 -0.4901  0.3757
  437TMC3    O1 6523   0.149   4.409  11.853  0.5477  0.5725  0.0377
  437TMC3    O2 6524   4.656   4.197  12.448  0.3611 -0.4020  0.0212
  438MPD2     C 6525   2.109   1.069  16.281 -0.2710  0.0917 -0.5679
  438MPD2    C1 6526   2.187   0.971  16.331  0.1912 -0.4287 -0.0028
  438MPD2    C2 6527   2.177   0.930  16.458 -0.8440 -0.4223  0.4813
  438MPD2    C3 6528   2.092   0.988  16.556 -0.1220 -0.1120  0.2553
  438MPD2    C4 6529   2.011   1.092  16.512 -0.3577 -0.4757  0.2059
  438MPD2    C5 6530   2.036   1.142  16.380 -0.1014 -0.0514 -0.0328
  438MPD2     H 6531   2.250   0.853  16.479  2.8924  2.7331 -1.0249
  438MPD2    H1 6532   1.960   1.161  16.578 -1.1390 -0.2474 -0.6439
  438MPD2    H2 6533   2.118   1.099  16.177 -2.3538 -0.4378 -0.9015
  438MPD2    H3 6534   1.977   1.228  16.352 -0.9960 -1.1816 -1.6236
  438MPD2     N 6535   2.091   0.955  16.690 -0.2986 -0.2575  0.3969
  438MPD2    H5 6536   2.029   1.018  16.740  0.9237  2.7306 -1.8509
  438MPD2    N1 6537   2.302   0.927  16.255 -0.3033  0.3402 -0.8218
  438MPD2    H7 6538   2.366   0.860  16.297  1.9666  0.7586 -3.6450
  439TMC3    C1 6539   2.438   0.881  16.066 -0.2035 -1.1132 -0.6586
  439TMC3    C2 6540   2.438   0.807  15.955  0.0625 -0.0421  0.1162
  439TMC3    C3 6541   2.554   0.746  15.925 -0.3338 -0.1941  0.5673
  439TMC3    C4 6542   2.548   0.910  16.149  0.1973  0.1880 -0.7333
  439TMC3    C5 6543   2.666   0.836  16.111 -0.1377 -0.2950  0.0993
  439TMC3    C6 6544   2.671   0.762  15.995  0.9719  0.0200  0.0528
  439TMC3     C 6545   2.301   0.917  16.120  0.0104 -0.7295  0.0685
  439TMC3     O 6546   2.202   0.897  16.053 -0.1741 -0.5725 -0.3428
  439TMC3     H 6547   2.359   0.798  15.881  0.1182  2.4046 -0.2391
  439TMC3    H1 6548   2.557   0.980  16.230 -0.0241  2.0238 -2.2956
  439TMC3    H2 6549   2.752   0.697  15.966  1.8255  0.3690  1.6795
  439TMC3    C7 6550   2.732   0.780  16.229  0.2829  0.4003  0.1743
  439TMC3    C8 6551   2.528   0.616  15.861 -0.2547 -0.0110  0.2875
  439TMC3    O1 6552   2.736   0.853  16.328 -0.3397 -0.2026  0.1687
  439TMC3    O2 6553   2.623   0.568  15.800  0.3334  0.0617  0.2502
  440MPD2     C 6554   1.482   1.201  15.056  0.8559 -0.4243 -0.0720
  440MPD2    C1 6555   1.485   1.292  15.155  0.4863 -1.0039 -0.4234
  440MPD2    C2 6556   1.550   1.268  15.272  1.4717  0.6642 -0.1868
  440MPD2    C3 6557   1.612   1.154  15.305  0.7992 -0.0379  0.3899
  440MPD2    C4 6558   1.607   1.055  15.213  0.3124  0.2462  0.3016
  440MPD2    C5 6559   1.545   1.082  15.088 -0.1351 -0.4058 -0.6115
  440MPD2     H 6560   1.536   1.346  15.346 -1.8771  2.1349 -2.3850
  440MPD2    H1 6561   1.659   0.962  15.232 -0.4578 -0.3733 -0.6481
  440MPD2    H2 6562   1.440   1.215  14.957  0.2700 -0.9249  0.1105
  440MPD2    H3 6563   1.547   1.012  15.006  0.2586 -0.8146 -0.2497
  440MPD2     N 6564   1.670   1.127  15.433  0.3098 -0.7828 -0.2626
  440MPD2    H5 6565   1.684   1.028  15.449  0.1103 -0.3164  2.8165
  440MPD2    N1 6566   1.424   1.417  15.142  0.1530 -0.6439 -0.0312
  440MPD2    H7 6567   1.456   1.481  15.214  0.1161  0.3039 -0.8579
  441TMC3    C1 6568   1.715   1.171  15.656 -0.7088  0.1964  0.2559
  441TMC3    C2 6569   1.754   1.267  15.743  0.2706 -0.3069 -0.7543
  441TMC3    C3 6570   1.706   1.264  15.873 -0.1814  0.4948  0.0039
  441TMC3    C4 6571   1.620   1.087  15.698  0.4907 -0.3774 -0.9214
  441TMC3    C5 6572   1.575   1.091  15.825  0.7135  0.4511 -0.5094
  441TMC3    C6 6573   1.631   1.166  15.926  0.1583  0.8029  0.0712
  441TMC3     C 6574   1.701   1.222  15.524  0.7582  0.4545 -0.3711
  441TMC3     O 6575   1.680   1.346  15.515  0.2859 -0.0765 -0.3721
  441TMC3     H 6576   1.812   1.350  15.703  0.9852 -0.0790  0.7580
  441TMC3    H1 6577   1.566   1.019  15.633  0.3808 -0.7934 -0.3994
  441TMC3    H2 6578   1.595   1.158  16.027  1.3108 -1.5573  0.3134
  441TMC3    C7 6579   1.472   1.004  15.866  0.5621  0.1675  0.5635
  441TMC3    C8 6580   1.680   1.387  15.935  0.4767 -0.6766 -0.2581
  441TMC3    O1 6581   1.376   0.991  15.791  0.2186  0.2094  0.3277
  441TMC3    O2 6582   1.649   1.383  16.053  0.2325  0.4416 -0.2161
  442MPD2     C 6583   4.243   2.210  16.357  0.1238  1.0186 -0.9806
  442MPD2    C1 6584   4.153   2.115  16.391  0.2065  0.2558  0.3501
  442MPD2    C2 6585   4.155   1.989  16.331  0.7120  0.1369  0.2485
  442MPD2    C3 6586   4.250   1.956  16.238  0.0222 -0.4720 -0.6088
  442MPD2    C4 6587   4.338   2.055  16.204  0.2990 -0.2339 -0.2749
  442MPD2    C5 6588   4.331   2.179  16.262 -0.0638  0.2671  0.2098
  442MPD2     H 6589   4.091   1.913  16.373  1.1612 -0.8601 -0.8749
  442MPD2    H1 6590   4.408   2.022  16.128  0.0158  1.4044 -1.2335
  442MPD2    H2 6591   4.253   2.305  16.409  0.2836  0.8139 -0.6341
  442MPD2    H3 6592   4.404   2.257  16.241  0.3222 -0.2352 -0.3102
  442MPD2     N 6593   4.269   1.831  16.171  0.6831  0.8506 -0.2184
  442MPD2    H5 6594   4.329   1.826  16.089  1.7860 -0.4017  0.6798
  442MPD2    N1 6595   4.043   2.142  16.480 -0.4172 -0.0293  0.1579
  442MPD2    H7 6596   3.981   2.065  16.502 -0.1141  0.6842  3.5468
  443TMC3    C1 6597   3.894   2.253  16.614  0.2572 -0.3917 -0.1089
  443TMC3    C2 6598   3.823   2.362  16.663 -0.3278 -0.3274  0.2588
  443TMC3    C3 6599   3.719   2.337  16.749  0.3273 -0.0971  0.4866
  443TMC3    C4 6600   3.860   2.121  16.653 -0.2884  0.3051 -0.3184
  443TMC3    C5 6601   3.769   2.113  16.754 -0.2861 -0.8507 -0.4215
  443TMC3    C6 6602   3.692   2.215  16.801  0.2935 -0.2306  0.0473
  443TMC3     C 6603   4.000   2.273  16.518  0.1700  0.2075  0.1076
  443TMC3     O 6604   4.041   2.378  16.479  0.3486 -0.1805 -0.6752
  443TMC3     H 6605   3.842   2.467  16.649 -0.1474 -0.3089  0.6307
  443TMC3    H1 6606   3.914   2.032  16.622 -2.4374 -0.8920 -0.6107
  443TMC3    H2 6607   3.624   2.204  16.884  0.2545  0.0873  0.0566
  443TMC3    C7 6608   3.774   1.985  16.819 -0.0394  0.4596  0.0487
  443TMC3    C8 6609   3.623   2.443  16.782  0.7241  0.1800 -0.1736
  443TMC3    O1 6610   3.781   1.888  16.745  0.0648 -0.1993  0.6506
  443TMC3    O2 6611   3.576   2.426  16.893 -0.0174  0.1793 -0.0032
  444MPD2     C 6612   4.332   1.367  17.198  0.7145  0.6099 -0.3311
  444MPD2    C1 6613   4.239   1.266  17.204  0.6260 -0.1099 -0.2695
  444MPD2    C2 6614   4.273   1.144  17.147 -1.0234  0.9759  0.3060
  444MPD2    C3 6615   4.395   1.116  17.090  0.4042  0.4874  0.4687
  444MPD2    C4 6616   4.492   1.214  17.084 -0.4831 -0.0559 -0.6787
  444MPD2    C5 6617   4.462   1.336  17.149 -0.1669 -0.6768 -0.2893
  444MPD2     H 6618   4.193   1.073  17.129  0.5862 -1.1591  1.5514
  444MPD2    H1 6619   4.585   1.192  17.033  0.3571  1.9154  0.0179
  444MPD2    H2 6620   4.303   1.465  17.236 -0.4887 -1.1291  3.2405
  444MPD2    H3 6621   4.530   1.419  17.133  0.3003 -0.9696  0.1691
  444MPD2     N 6622   4.417   0.989  17.039  0.2009 -0.2795  0.2826
  444MPD2    H5 6623   4.338   0.928  17.058 -0.4862  1.0465  1.6560
  444MPD2    N1 6624   4.101   1.277  17.248  0.1682  0.2156 -0.3328
  444MPD2    H7 6625   4.047   1.191  17.245  0.5776  0.0104 -1.9258
  445TMC3    C1 6626   4.492   0.819  16.900 -0.0118 -0.2000 -0.4752
  445TMC3    C2 6627   4.382   0.735  16.930 -0.1344  0.8818  0.4681
  445TMC3    C3 6628   4.370   0.619  16.862  0.2664  0.4854  0.2923
  445TMC3    C4 6629   4.585   0.769  16.808 -0.5742 -0.1664 -0.0799
  445TMC3    C5 6630   4.580   0.642  16.762 -0.2518 -0.7409  0.1571
  445TMC3    C6 6631   4.466   0.573  16.778  0.1219  0.0433 -0.9943
  445TMC3     C 6632   4.521   0.943  16.967 -0.0429  0.2067  0.0275
  445TMC3     O 6633   4.614   1.004  16.922  0.3477 -0.2027 -0.5315
  445TMC3     H 6634   4.299   0.764  16.993  0.2398  2.0916  0.4167
  445TMC3    H1 6635   4.686   0.808  16.812 -1.0878  1.0267  1.2382
  445TMC3    H2 6636   4.456   0.474  16.737  1.1578 -0.7922  0.7686
  445TMC3    C7 6637   4.690   0.607  16.679  0.1299  0.1946  0.3831
  445TMC3    C8 6638   4.242   0.552  16.847 -0.8221 -0.2887  0.4459
  445TMC3    O1 6639   0.038   0.697  16.643 -0.4357  0.2819  0.4678
  445TMC3    O2 6640   4.149   0.560  16.932 -0.0994 -0.0654 -0.2095
  446MPD2     C 6641   3.699   2.084  11.408 -0.2977  0.3807 -0.0832
  446MPD2    C1 6642   3.739   2.115  11.285 -0.3385  0.9822  0.3249
  446MPD2    C2 6643   3.851   2.190  11.260  0.0683  0.0636 -0.1341
  446MPD2    C3 6644   3.947   2.201  11.361 -0.1469  0.7182  0.2938
  446MPD2    C4 6645   3.909   2.163  11.488 -0.1268 -0.4276  0.2112
  446MPD2    C5 6646   3.789   2.100  11.512  0.1703 -0.7791 -0.4493
  446MPD2     H 6647   3.866   2.229  11.160  1.1852  0.2158  0.0914
  446MPD2    H1 6648   3.963   2.178  11.580 -0.3329 -1.6424  0.5346
  446MPD2    H2 6649   3.601   2.049  11.438 -1.0142  2.2542 -0.2253
  446MPD2    H3 6650   3.754   2.082  11.613  1.5738 -1.2002 -0.0390
  446MPD2     N 6651   4.084   2.238  11.327  0.3212 -0.0748 -0.5072
  446MPD2    H5 6652   4.096   2.271  11.232  1.3538  2.7055  0.6060
  446MPD2    N1 6653   3.659   2.074  11.174  0.0719  0.1790  0.1365
  446MPD2    H7 6654   3.685   2.112  11.084 -1.1700  0.9796  0.1099
  447TMC3    C1 6655   4.323   2.276  11.353  1.0976  0.8330 -0.2063
  447TMC3    C2 6656   4.347   2.276  11.217  0.4057 -0.8531 -0.2318
  447TMC3    C3 6657   4.468   2.307  11.156 -0.1531  0.3206 -0.0386
  447TMC3    C4 6658   4.428   2.303  11.432 -0.0830  0.8430  0.1051
  447TMC3    C5 6659   4.545   2.337  11.374  0.8038 -0.3988 -0.4747
  447TMC3    C6 6660   4.570   2.339  11.238 -0.0811 -0.6261  0.5100
  447TMC3     C 6661   4.191   2.243  11.417  0.7636 -0.5414  0.3301
  447TMC3     O 6662   4.182   2.231  11.539 -0.1406  0.7052 -0.0397
  447TMC3     H 6663   4.271   2.244  11.147  0.4983  0.7418 -1.0599
  447TMC3    H1 6664   4.419   2.278  11.537 -0.9728 -2.8734 -0.8526
  447TMC3    H2 6665   4.670   2.338  11.195 -1.8037 -0.1072 -3.5658
  447TMC3    C7 6666   4.647   2.395  11.452  0.0145 -0.3738  0.9368
  447TMC3    C8 6667   4.499   2.253  11.024  0.8803 -0.1603 -0.2313
  447TMC3    O1 6668   0.018   2.440  11.401  0.5447 -0.0964  0.0875
  447TMC3    O2 6669   4.553   2.323  10.939  0.1494 -0.1171 -0.2364
  448TMC3    C1 6670   2.165   2.504  16.580  0.0068 -0.8831  0.1449
  448TMC3    C2 6671   2.164   2.395  16.503 -0.2740 -0.6110 -0.9860
  448TMC3    C3 6672   2.151   2.277  16.570  0.3034 -0.4946  0.6231
  448TMC3    C4 6673   2.168   2.506  16.718 -0.5578  0.1128  0.1889
  448TMC3    C5 6674   2.177   2.385  16.773 -0.0260  0.1160  0.0167
  448TMC3    C6 6675   2.163   2.262  16.704 -0.6299 -0.4964 -0.2417
  448TMC3     C 6676   2.182   2.629  16.504 -0.1871 -0.0988 -0.6947
  448TMC3     O 6677   2.253   2.630  16.403  0.2023  0.2536  0.2896
  448TMC3     H 6678   2.187   2.401  16.398  1.3951  0.5693 -0.5486
  448TMC3    H1 6679   2.181   2.602  16.766  0.1679  0.2868 -0.3749
  448TMC3    H2 6680   2.174   2.168  16.756 -0.3343 -1.0635 -1.3420
  448TMC3    C7 6681   2.217   2.378  16.905  0.3680 -0.5634  0.4054
  448TMC3    C8 6682   2.122   2.158  16.486  0.2332  0.3228 -0.0998
  448TMC3    O1 6683   2.167   2.290  16.977 -0.0417  0.0597 -0.2343
  448TMC3    O2 6684   2.105   2.057  16.552 -0.3498  0.0663  0.2160
  449MPD2     C 6685   4.107   1.227  13.332 -0.1069 -0.2195 -0.7271
  449MPD2    C1 6686   4.213   1.228  13.244 -0.0997 -0.6192 -0.1999
  449MPD2    C2 6687   4.218   1.128  13.149 -0.3814  0.0525  0.8539
  449MPD2    C3 6688   4.125   1.028  13.144  0.1961  0.3875  0.7001
  449MPD2    C4 6689   4.016   1.033  13.231  0.0866 -0.0795  0.8712
  449MPD2    C5 6690   4.007   1.136  13.322 -0.6542 -0.6992  0.4995
  449MPD2     H 6691   4.308   1.119  13.089 -0.5977 -1.1125  0.7006
  449MPD2    H1 6692   3.945   0.951  13.231 -4.2795  3.6712 -0.3504
  449MPD2    H2 6693   4.096   1.299  13.412  0.5851 -1.3367  0.3789
  449MPD2    H3 6694   3.932   1.132  13.400 -0.3686  2.0211  0.9138
  449MPD2     N 6695   4.150   0.921  13.049  0.5942  0.3268 -0.2889
  449MPD2    H5 6696   4.233   0.923  12.991  1.1029  0.1788  0.4280
  449MPD2    N1 6697   4.323   1.319  13.242 -0.5267  0.0902  0.1187
  449MPD2    H7 6698   4.368   1.325  13.151 -0.0548 -2.7511  0.1584
  450TMC3    C1 6699   4.503   1.452  13.309  0.7379  0.6523  0.1956
  450TMC3    C2 6700   4.610   1.426  13.389  0.2324 -0.2238  0.1082
  450TMC3    C3 6701   0.007   1.396  13.334 -0.1057 -1.2377 -0.2312
  450TMC3    C4 6702   4.527   1.437  13.172  0.4647 -0.3131  0.6736
  450TMC3    C5 6703   4.647   1.408  13.118 -1.1839 -0.5450 -0.3222
  450TMC3    C6 6704   0.029   1.392  13.198 -0.3300 -0.1018 -0.0782
  450TMC3     C 6705   4.380   1.393  13.347 -0.2839  0.3760 -0.9136
  450TMC3     O 6706   4.358   1.388  13.468  0.1106  0.1582  0.7143
  450TMC3     H 6707   4.607   1.405  13.496 -1.4700 -0.2423  0.0671
  450TMC3    H1 6708   4.445   1.471  13.110  1.0068  0.9137  0.6379
  450TMC3    H2 6709   0.127   1.359  13.165  0.3380  0.1092  1.6801
  450TMC3    C7 6710   4.627   1.303  13.022  0.0604 -0.6799  0.0566
  450TMC3    C8 6711   0.090   1.299  13.412  0.1095 -0.5142 -0.6355
  450TMC3    O1 6712   4.516   1.278  12.983 -0.0422  0.0396  0.0050
  450TMC3    O2 6713   0.095   1.321  13.533  0.4389  0.4202  0.0955
  451MPD2     C 6714   4.295   3.869   1.580 -0.5899 -0.2082 -0.2026
  451MPD2    C1 6715   4.320   3.909   1.454 -0.5055  0.2877 -0.2372
  451MPD2    C2 6716   4.438   3.875   1.392  0.0809 -0.2092 -0.2159
  451MPD2    C3 6717   4.530   3.801   1.460 -0.2439  0.4485  0.8693
  451MPD2    C4 6718   4.507   3.772   1.597 -0.6629 -0.2607  0.0594
  451MPD2    C5 6719   4.382   3.798   1.650  1.1639  0.1007 -0.0489
  451MPD2     H 6720   4.458   3.906   1.290 -1.8841  0.6070 -0.3366
  451MPD2    H1 6721   4.575   3.712   1.657  0.8665  0.4571 -0.9497
  451MPD2    H2 6722   4.201   3.889   1.630 -0.3650  0.5704 -0.0952
  451MPD2    H3 6723   4.365   3.779   1.755 -0.9281  1.4733 -0.1517
  451MPD2     N 6724   4.664   3.766   1.407 -0.6217  0.4117  0.0558
  451MPD2    H5 6725   4.727   3.730   1.478  1.7205 -0.0061 -2.2492
  451MPD2    N1 6726   4.210   3.970   1.384 -0.1841 -0.0765 -0.5948
  451MPD2    H7 6727   4.119   3.964   1.430 -0.4201  0.9300 -0.9309
  452TMC3    C1 6728   0.110   3.756   1.249 -0.0549  0.6935 -0.4244
  452TMC3    C2 6729   0.185   3.682   1.331 -0.0961 -0.5273 -0.0183
  452TMC3    C3 6730   0.317   3.669   1.294  0.7437  0.4243 -0.6510
  452TMC3    C4 6731   0.151   3.812   1.131  0.0088 -1.0546  0.0623
  452TMC3    C5 6732   0.283   3.793   1.100  0.4649  0.5706 -0.1639
  452TMC3    C6 6733   0.370   3.729   1.185 -0.2175 -0.3419 -0.4409
  452TMC3     C 6734   4.695   3.784   1.276 -0.1994 -0.2082 -0.5926
  452TMC3     O 6735   4.615   3.808   1.180  0.1518  0.6708  0.5893
  452TMC3     H 6736   0.140   3.612   1.401  0.8200  0.2727  1.3613
  452TMC3    H1 6737   0.077   3.859   1.067  1.7845  1.3536 -0.2148
  452TMC3    H2 6738   0.475   3.716   1.164  0.2638  2.0737  0.5526
  452TMC3    C7 6739   0.335   3.872   1.001  0.5071 -0.3702 -0.0538
  452TMC3    C8 6740   0.395   3.582   1.370  0.7013  0.3586  0.0036
  452TMC3    O1 6741   0.265   3.960   0.957  0.4953 -0.7381 -0.3893
  452TMC3    O2 6742   0.336   3.486   1.422 -0.4285 -0.3707 -0.4933
  453TMC3    C1 6743   1.304   1.596  11.805  0.3159  0.1525  0.3125
  453TMC3    C2 6744   1.262   1.465  11.817 -0.7798  0.8583  0.5462
  453TMC3    C3 6745   1.250   1.390  11.708  0.6762  0.2829 -0.3637
  453TMC3    C4 6746   1.330   1.659  11.687 -0.5574  0.1397  0.1587
  453TMC3    C5 6747   1.298   1.581  11.574 -0.4346 -0.8529 -0.0454
  453TMC3    C6 6748   1.268   1.446  11.584  0.5044 -0.7956 -0.6940
  453TMC3     C 6749   1.387   1.649  11.908 -1.0913  0.1601 -0.6032
  453TMC3     O 6750   1.484   1.713  11.869  0.2086 -0.2096  0.5717
  453TMC3     H 6751   1.260   1.420  11.916 -0.3250  0.8455  0.5516
  453TMC3    H1 6752   1.344   1.766  11.681 -2.3381  0.3418 -0.5515
  453TMC3    H2 6753   1.253   1.383  11.497 -3.3443 -1.9711  0.8312
  453TMC3    C7 6754   1.347   1.628  11.443  0.2833  0.3484  0.2466
  453TMC3    C8 6755   1.224   1.251  11.727 -0.3697  1.2573 -0.3142
  453TMC3    O1 6756   1.366   1.540  11.361 -0.3069  0.2208 -0.6773
  453TMC3    O2 6757   1.163   1.219  11.825  0.1977 -0.3665  0.3699
  454MPD2     C 6758   4.579   0.502  16.194 -0.6333 -0.0153 -0.1758
  454MPD2    C1 6759   4.607   0.624  16.156  0.4970 -0.5812 -1.3831
  454MPD2    C2 6760   4.594   0.726  16.237  0.2463 -0.0653 -0.6350
  454MPD2    C3 6761   4.526   0.714  16.359 -0.3479 -0.2262  0.1036
  454MPD2    C4 6762   4.491   0.586  16.401  0.1581  0.4264 -0.9370
  454MPD2    C5 6763   4.525   0.481  16.318 -0.5451  0.0851  0.1861
  454MPD2     H 6764   4.627   0.824  16.203  1.2599 -1.0299 -2.4126
  454MPD2    H1 6765   4.452   0.552  16.497 -0.3954  3.1419 -0.2111
  454MPD2    H2 6766   4.597   0.413  16.133 -1.3782 -0.3959  0.1599
  454MPD2    H3 6767   4.507   0.381  16.356 -0.7980 -0.1421 -0.5297
  454MPD2     N 6768   4.491   0.834  16.426  0.0869 -0.0006  0.6168
  454MPD2    H5 6769   4.531   0.923  16.397  1.4835 -1.3288 -1.5004
  454MPD2    N1 6770   4.650   0.656  16.026 -0.0193 -0.6147 -0.3330
  454MPD2    H7 6771   4.641   0.755  16.004  0.0233 -0.8099 -1.2502
  455TMC3    C1 6772   4.371   0.992  16.547 -0.4978  0.1147  0.4102
  455TMC3    C2 6773   4.469   1.070  16.605  0.2574  0.4130 -0.2253
  455TMC3    C3 6774   4.486   1.197  16.550  1.0084  0.6639  0.0738
  455TMC3    C4 6775   4.285   1.032  16.455  0.1620 -0.5183  0.4035
  455TMC3    C5 6776   4.303   1.155  16.404 -0.0026 -0.2304 -0.4290
  455TMC3    C6 6777   4.404   1.235  16.449 -0.3572  0.1172  0.1696
  455TMC3     C 6778   4.402   0.854  16.524 -0.0910 -0.2088 -0.5119
  455TMC3     O 6779   4.320   0.771  16.564 -0.1508  0.3280 -0.1217
  455TMC3     H 6780   4.529   1.009  16.671  0.8083  2.6043  1.2956
  455TMC3    H1 6781   4.224   0.947  16.425 -0.9857  0.8127 -1.0272
  455TMC3    H2 6782   4.420   1.324  16.390  0.7396 -1.0550 -1.2879
  455TMC3    C7 6783   4.257   1.169  16.266  0.3771  0.1712 -0.6958
  455TMC3    C8 6784   4.570   1.297  16.616  0.3472 -0.3804  0.6839
  455TMC3    O1 6785   4.300   1.261  16.198 -0.1812  0.0503  0.1121
  455TMC3    O2 6786   4.568   1.413  16.579 -0.1563 -0.1580 -0.4124
  456MPD2     C 6787   2.653   1.057  15.640 -0.2830  0.0200 -0.6199
  456MPD2    C1 6788   2.719   1.040  15.764  0.4595 -0.0681  0.5059
  456MPD2    C2 6789   2.667   1.093  15.881 -0.1832 -0.6837  1.1559
  456MPD2    C3 6790   2.551   1.166  15.878  0.0728 -0.8891  0.5845
  456MPD2    C4 6791   2.481   1.172  15.759  0.2607  0.4695  0.6098
  456MPD2    C5 6792   2.534   1.125  15.637 -0.1581 -0.2750  0.3266
  456MPD2     H 6793   2.728   1.075  15.969  0.9423  1.2034  0.7491
  456MPD2    H1 6794   2.378   1.208  15.757  0.4756  1.0131 -0.3702
  456MPD2    H2 6795   2.694   1.013  15.550  1.4543  1.1406 -0.3821
  456MPD2    H3 6796   2.484   1.148  15.544 -0.8502 -1.9425  0.2898
  456MPD2     N 6797   2.505   1.226  15.997  0.4293  0.0724 -0.9258
  456MPD2    H5 6798   2.560   1.217  16.082  1.5718 -0.8419 -1.7661
  456MPD2    N1 6799   2.852   1.002  15.759 -0.2467  0.2302  0.2311
  456MPD2    H7 6800   2.888   0.961  15.674  1.1035 -1.1323  1.4405
  457TMC3    C1 6801   2.386   1.368  16.140  1.6143  0.0996 -0.0397
  457TMC3    C2 6802   2.326   1.484  16.155 -0.2922  0.1599 -0.0987
  457TMC3    C3 6803   2.276   1.524  16.277  0.2600  0.5983 -0.5802
  457TMC3    C4 6804   2.403   1.289  16.252  0.0658 -0.0003  0.4148
  457TMC3    C5 6805   2.363   1.330  16.377 -0.4590  0.7981 -0.3814
  457TMC3    C6 6806   2.289   1.449  16.390 -0.7065  0.4808 -0.1623
  457TMC3     C 6807   2.401   1.321  16.001  0.6923  0.6431 -0.4606
  457TMC3     O 6808   2.343   1.384  15.911 -0.2235 -0.0659  0.0740
  457TMC3     H 6809   2.317   1.544  16.065 -1.0002  1.1433  0.6385
  457TMC3    H1 6810   2.441   1.188  16.248  0.9980  0.3952 -0.7977
  457TMC3    H2 6811   2.259   1.491  16.485  1.0636  0.2627  0.5065
  457TMC3    C7 6812   2.392   1.244  16.494 -0.1640 -0.2501 -0.4534
  457TMC3    C8 6813   2.236   1.663  16.281  0.9105  0.0663  0.4584
  457TMC3    O1 6814   2.453   1.142  16.474  0.1275  0.5678  0.1368
  457TMC3    O2 6815   2.213   1.702  16.396  0.2725 -0.4590  0.4359
  458MPD2     C 6816   0.599   4.681  11.896  0.6446  0.4163  0.0667
  458MPD2    C1 6817   0.560   4.695  12.021  0.0233  0.1433 -0.6193
  458MPD2    C2 6818   0.444   4.641  12.067  0.3211  0.0416  0.0890
  458MPD2    C3 6819   0.361   4.572  11.983  0.3306  0.4658  0.4318
  458MPD2    C4 6820   0.415   4.533  11.859  0.6521 -0.8779  0.0608
  458MPD2    C5 6821   0.524   4.602  11.818 -0.0982  0.7445  0.9227
  458MPD2     H 6822   0.408   4.666  12.167  1.7023 -0.3141  0.6742
  458MPD2    H1 6823   0.366   4.468  11.787  1.5969  1.6220 -2.8223
  458MPD2    H2 6824   0.696   4.710  11.858  0.7175 -1.5325 -1.2321
  458MPD2    H3 6825   0.557   4.575  11.718 -0.1321 -1.8538  1.6254
  458MPD2     N 6826   0.239   4.525  12.036 -0.5786  0.2300 -0.3984
  458MPD2    H5 6827   0.224   4.547  12.134 -2.1246  0.6065 -0.7195
  458MPD2    N1 6828   0.632   0.067  12.096  0.7959  0.4463  0.4313
  458MPD2    H7 6829   0.704   0.117  12.044 -1.1004  1.2592 -1.3830
  459TMC3    C1 6830   0.696   0.204  12.282 -0.2628 -0.2447  0.1481
  459TMC3    C2 6831   0.735   0.303  12.198  0.1478  0.1040 -0.2983
  459TMC3    C3 6832   0.807   0.409  12.250 -0.4288  0.2628 -0.3987
  459TMC3    C4 6833   0.708   0.207  12.416 -0.0925 -0.0616 -0.4129
  459TMC3    C5 6834   0.764   0.324  12.469  0.1670 -0.8256  0.1497
  459TMC3    C6 6835   0.825   0.416  12.385 -0.1910 -0.1612 -0.1472
  459TMC3     C 6836   0.617   0.095  12.229  0.3404  0.0492 -0.2644
  459TMC3     O 6837   0.550   0.033  12.310  0.6994 -0.2488 -0.2485
  459TMC3     H 6838   0.708   0.297  12.093 -0.1349  0.5483 -0.2531
  459TMC3    H1 6839   0.660   0.136  12.483 -1.4470 -1.4416 -2.8240
  459TMC3    H2 6840   0.874   0.501  12.431 -2.1294  1.1752 -0.5614
  459TMC3    C7 6841   0.784   0.317  12.612 -0.1371 -0.1000 -0.2051
  459TMC3    C8 6842   0.844   0.514  12.152 -0.1624 -0.4687 -0.2557
  459TMC3    O1 6843   0.766   0.209  12.670  0.3149  0.3360  0.1959
  459TMC3    O2 6844   0.768   0.539  12.058 -0.0333 -0.0624 -0.3146
  460MPD2     C 6845   4.309   1.969  10.886 -0.1846  0.4896  0.1800
  460MPD2    C1 6846   4.370   2.094  10.878  0.9550  0.3108  0.2646
  460MPD2    C2 6847   4.395   2.148  10.753 -0.7113  0.1584  0.7858
  460MPD2    C3 6848   4.351   2.091  10.640 -0.4741  0.0420 -0.4640
  460MPD2    C4 6849   4.282   1.974  10.649  0.2651 -0.7229  0.7249
  460MPD2    C5 6850   4.264   1.913  10.769 -0.4505 -0.2692  0.3579
  460MPD2     H 6851   4.459   2.234  10.739 -0.3924 -0.2278 -0.0908
  460MPD2    H1 6852   4.244   1.913  10.568 -1.2307  0.4740  0.5312
  460MPD2    H2 6853   4.290   1.920  10.981  0.6284  0.0599  0.1208
  460MPD2    H3 6854   4.221   1.814  10.782 -1.2027 -0.0097 -0.1316
  460MPD2     N 6855   4.376   2.159  10.522  0.3603  0.3705  0.0597
  460MPD2    H5 6856   4.399   2.257  10.531  1.7757  0.0423  0.0007
  460MPD2    N1 6857   4.420   2.145  11.003 -0.2194 -0.7074 -0.3548
  460MPD2    H7 6858   4.406   2.079  11.080 -0.7395  0.5383  0.6137
  461TMC3    C1 6859   4.398   2.174  10.292  0.1431 -0.3099  0.5293
  461TMC3    C2 6860   4.460   2.102  10.192  0.3252 -0.1674 -0.9961
  461TMC3    C3 6861   4.505   2.168  10.082  0.2155  0.1830  0.0737
  461TMC3    C4 6862   4.374   2.312  10.293  1.0836 -0.4478  0.2465
  461TMC3    C5 6863   4.424   2.371  10.183  0.4115  0.3232 -0.1996
  461TMC3    C6 6864   4.479   2.302  10.075  0.6273 -0.2256  0.0021
  461TMC3     C 6865   4.355   2.097  10.401 -0.0526  0.5090 -0.4455
  461TMC3     O 6866   4.330   1.980  10.376 -0.3781  0.3987 -0.2474
  461TMC3     H 6867   4.493   2.000  10.209 -0.2647  0.0398  1.4645
  461TMC3    H1 6868   4.324   2.362  10.376  2.8239  3.1216 -0.8484
  461TMC3    H2 6869   4.509   2.362   9.989 -0.4717 -0.4166 -0.5131
  461TMC3    C7 6870   4.415   2.514  10.172  0.2678 -0.6128 -0.2288
  461TMC3    C8 6871   4.520   2.093   9.966  0.1035 -0.3551  0.1843
  461TMC3    O1 6872   4.445   2.563  10.063 -0.1972  0.0745  0.1332
  461TMC3    O2 6873   4.448   1.995   9.961 -0.1282  0.1041 -0.1388
  462TMC3    C1 6874   0.134   3.240   0.295  0.9304 -0.2337 -0.0643
  462TMC3    C2 6875   0.173   3.118   0.243 -0.4761 -0.0701 -0.2906
  462TMC3    C3 6876   0.088   3.012   0.255 -0.0759  0.1038 -0.2709
  462TMC3    C4 6877   0.014   3.257   0.365  0.1218  0.4450 -0.4331
  462TMC3    C5 6878   4.659   3.138   0.377  0.0401  0.1102  0.5161
  462TMC3    C6 6879   4.696   3.014   0.327  0.3491  0.1855 -0.1467
  462TMC3     C 6880   0.226   3.347   0.262 -0.3306 -0.2404  0.5776
  462TMC3     O 6881   0.290   3.342   0.155 -0.2634  0.1549 -0.3090
  462TMC3     H 6882   0.274   3.111   0.205 -0.5759 -1.8684 -0.2513
  462TMC3    H1 6883   4.704   3.350   0.406  1.4304  1.8962 -2.5097
  462TMC3    H2 6884   4.640   2.927   0.357  0.6634  0.8747  2.3975
  462TMC3    C7 6885   4.535   3.152   0.442  0.1708  1.4944  0.5140
  462TMC3    C8 6886   0.136   2.886   0.200  0.3035  0.8980  0.0278
  462TMC3    O1 6887   4.453   3.072   0.404 -0.0334 -0.4956 -0.1128
  462TMC3    O2 6888   0.083   2.781   0.244 -0.0975  0.5118  1.0191
  463MPD2     C 6889   0.549   2.620   1.538 -0.1358  0.0115 -0.1508
  463MPD2    C1 6890   0.443   2.707   1.548  0.7994 -0.6888 -0.6991
  463MPD2    C2 6891   0.445   2.822   1.473  0.1605 -0.6844  1.0957
  463MPD2    C3 6892   0.556   2.839   1.395 -0.7400  0.0046  0.2354
  463MPD2    C4 6893   0.653   2.746   1.380 -1.2548 -0.2119  0.0820
  463MPD2    C5 6894   0.656   2.633   1.459  0.1974  0.4546  0.6852
  463MPD2     H 6895   0.360   2.889   1.481  1.1419  0.3964  2.5197
  463MPD2    H1 6896   0.739   2.761   1.315 -0.6630 -1.0113  0.6795
  463MPD2    H2 6897   0.541   2.528   1.595 -0.5257 -1.6114 -2.8533
  463MPD2    H3 6898   0.733   2.558   1.450 -0.2943  0.0281  0.0782
  463MPD2     N 6899   0.579   2.953   1.315  0.2174 -0.0065  0.2069
  463MPD2    H5 6900   0.660   2.951   1.254 -2.2816  0.4661 -3.1079
  463MPD2    N1 6901   0.327   2.685   1.628  0.4695  0.0255 -0.4520
  463MPD2    H7 6902   0.251   2.746   1.600  1.0197  1.0339  0.2763
  464TMC3    C1 6903   0.173   2.569   1.766  0.3154 -0.3530 -0.2384
  464TMC3    C2 6904   0.070   2.606   1.682  0.2002  0.1902  0.3669
  464TMC3    C3 6905   4.676   2.547   1.696 -0.4204  0.0082 -1.4084
  464TMC3    C4 6906   0.157   2.457   1.847  0.1127  0.2885  0.0322
  464TMC3    C5 6907   0.031   2.392   1.851 -0.1692 -0.0363 -0.7442
  464TMC3    C6 6908   4.648   2.444   1.786  0.3055 -0.6588  0.4409
  464TMC3     C 6909   0.306   2.572   1.708 -0.0444 -0.2401 -0.1511
  464TMC3     O 6910   0.387   2.489   1.752 -0.7928 -0.5964 -0.3149
  464TMC3     H 6911   0.057   2.694   1.620 -2.5161 -0.3401  0.1846
  464TMC3    H1 6912   0.242   2.438   1.912  0.6121 -2.7639 -1.5224
  464TMC3    H2 6913   4.550   2.398   1.793 -0.4635  0.7638 -1.1635
  464TMC3    C7 6914   0.036   2.244   1.875  0.1821  0.1650  0.0260
  464TMC3    C8 6915   4.562   2.609   1.627 -0.2141 -0.2490 -0.1354
  464TMC3    O1 6916   0.115   2.203   1.957  0.2654  0.8651  0.6753
  464TMC3    O2 6917   4.573   2.657   1.515 -0.0579  0.3558  0.0131
  465MPD2     C 6918   1.681   0.798  17.018 -0.8705  0.1769 -0.1371
  465MPD2    C1 6919   1.627   0.898  17.095  0.0097  0.0522  0.0179
  465MPD2    C2 6920   1.561   0.996  17.022  0.5664  0.2650 -0.3659
  465MPD2    C3 6921   1.574   1.012  16.883 -0.3883  0.0541  0.2913
  465MPD2    C4 6922   1.654   0.923  16.819  0.0679 -0.8675  0.1166
  465MPD2    C5 6923   1.694   0.808  16.883  0.8247  0.5508 -0.0992
  465MPD2     H 6924   1.489   1.056  17.076  0.0057 -0.6300 -0.1164
  465MPD2    H1 6925   1.668   0.923  16.712  0.8814  1.3302  0.2189
  465MPD2    H2 6926   1.741   0.718  17.060  0.5153  1.3098  0.0410
  465MPD2    H3 6927   1.741   0.727  16.829  0.9534 -0.1986  1.1364
  465MPD2     N 6928   1.511   1.115  16.820  0.3834 -0.2983 -0.1076
  465MPD2    H5 6929   1.454   1.178  16.876 -0.7664 -0.5182 -1.0392
  465MPD2    N1 6930   1.619   0.898  17.237 -0.5173 -0.5216 -0.3039
  465MPD2    H7 6931   1.570   0.974  17.283 -2.8843 -1.4463 -1.2819
  466TMC3    C1 6932   1.215   1.332  16.676  0.1834 -0.0636 -0.2932
  466TMC3    C2 6933   1.253   1.439  16.598 -0.1700  0.1448  0.3422
  466TMC3    C3 6934   1.378   1.441  16.544 -0.2107 -0.4305 -0.8532
  466TMC3    C4 6935   1.307   1.238  16.697 -0.1103 -0.1832  0.3638
  466TMC3    C5 6936   1.426   1.239  16.637 -0.2449  0.0964 -0.1128
  466TMC3    C6 6937   1.470   1.339  16.557 -0.4859  0.2056  0.3933
  466TMC3     C 6938   1.130   1.358  16.793 -0.4900  0.5255  0.2655
  466TMC3     O 6939   1.130   1.466  16.847  0.0341 -0.2766  0.4647
  466TMC3     H 6940   1.187   1.520  16.567  2.1688  1.9004 -0.0345
  466TMC3    H1 6941   1.281   1.155  16.762 -1.0233 -0.2215 -0.0554
  466TMC3    H2 6942   1.569   1.346  16.513  0.4735  0.9696  2.6830
  466TMC3    C7 6943   1.531   1.150  16.689  0.5533 -0.0036 -0.1373
  466TMC3    C8 6944   1.419   1.567  16.487 -0.0584  0.1863 -0.5010
  466TMC3    O1 6945   1.620   1.134  16.612 -0.1929  0.3457  0.1125
  466TMC3    O2 6946   1.468   1.565  16.375 -0.0514  0.2851  0.3025
  467TMC3    C1 6947   2.675   0.094  13.999  0.0257  0.1872  0.4264
  467TMC3    C2 6948   2.601   0.200  13.945 -1.2803 -0.1465  0.2813
  467TMC3    C3 6949   2.462   0.182  13.948 -1.0782 -0.4565 -0.8651
  467TMC3    C4 6950   2.618   4.723  14.069  0.3924  0.0409  0.6469
  467TMC3    C5 6951   2.485   4.712  14.074  0.1104  0.6359 -0.0472
  467TMC3    C6 6952   2.401   0.075  14.004 -0.2097  0.6080  0.4565
  467TMC3     C 6953   2.817   0.103  13.983 -0.5822  1.3665 -0.3041
  467TMC3     O 6954   2.866   0.212  13.979  0.1881  0.1199 -0.0034
  467TMC3     H 6955   2.643   0.276  13.881 -0.9296  1.2121  2.1327
  467TMC3    H1 6956   2.681   4.657  14.128  2.8818  1.7930 -0.0207
  467TMC3    H2 6957   2.293   0.069  14.013 -0.3077  1.7120  0.0289
  467TMC3    C7 6958   2.428   4.589  14.123 -0.2972  0.3634 -0.1069
  467TMC3    C8 6959   2.385   0.279  13.875  0.4979 -0.8561 -0.3994
  467TMC3    O1 6960   2.511   4.511  14.163 -0.2361 -0.1361 -0.1997
  467TMC3    O2 6961   2.427   0.390  13.846  0.3095  0.1712  0.4069
  468MPD2     C 6962   1.402   2.704  11.038  0.7437  0.7290  0.2829
  468MPD2    C1 6963   1.517   2.640  11.057  0.1845 -0.3050  0.3098
  468MPD2    C2 6964   1.532   2.508  11.015  0.5709  0.2265  0.2513
  468MPD2    C3 6965   1.424   2.440  10.972  1.0866 -0.9184 -0.0905
  468MPD2    C4 6966   1.302   2.499  10.974  0.8662  0.0351 -0.1085
  468MPD2    C5 6967   1.288   2.632  10.991 -0.7375 -0.4084  0.7342
  468MPD2     H 6968   1.626   2.458  11.035  0.7624  0.4438 -0.1215
  468MPD2    H1 6969   1.213   2.447  10.940  0.3737 -0.7718  2.5001
  468MPD2    H2 6970   1.384   2.811  11.037 -2.2248  0.2382 -0.1987
  468MPD2    H3 6971   1.187   2.671  10.989 -0.4321  0.3076 -0.7852
  468MPD2     N 6972   1.425   2.306  10.934 -0.1775  0.6034 -0.0918
  468MPD2    H5 6973   1.343   2.251  10.914  0.0959  0.5892 -1.1870
  468MPD2    N1 6974   1.631   2.695  11.117  0.0838 -0.2295 -0.1222
  468MPD2    H7 6975   1.724   2.653  11.121  0.0125 -0.3040  0.7814
  469TMC3    C1 6976   1.754   2.838  11.259 -1.0998  0.7872 -0.0441
  469TMC3    C2 6977   1.810   2.723  11.303 -0.0543 -0.1405  0.4202
  469TMC3    C3 6978   1.933   2.733  11.362 -0.0223  0.0905  0.7392
  469TMC3    C4 6979   1.808   2.963  11.286  0.0771  0.1836  0.3176
  469TMC3    C5 6980   1.932   2.974  11.346  0.0485  0.3736 -0.2880
  469TMC3    C6 6981   2.000   2.855  11.377  0.5079 -0.3193 -0.2118
  469TMC3     C 6982   1.636   2.821  11.180 -0.1561  0.6383  0.0408
  469TMC3     O 6983   1.554   2.911  11.182 -0.1911 -0.6109  0.0364
  469TMC3     H 6984   1.762   2.626  11.293  0.5772 -0.6592  2.4909
  469TMC3    H1 6985   1.762   3.045  11.233 -0.7992 -2.6910 -3.3435
  469TMC3    H2 6986   2.108   2.856  11.385  0.5906 -0.4295 -1.3086
  469TMC3    C7 6987   1.992   3.108  11.354 -0.1096  0.4573  0.2584
  469TMC3    C8 6988   1.998   2.608  11.387 -0.8411 -1.1296  0.1644
  469TMC3    O1 6989   1.932   3.207  11.313  0.0116 -0.0929  0.0948
  469TMC3    O2 6990   1.952   2.508  11.335  0.0143 -0.3699  0.1729
  470TMC3    C1 6991   2.675   3.140   0.757 -0.5651  0.2472  0.1041
  470TMC3    C2 6992   2.715   3.264   0.728  0.3392  0.8168  0.0904
  470TMC3    C3 6993   2.762   3.334   0.840  0.0076  0.5963  0.2827
  470TMC3    C4 6994   2.695   3.072   0.880 -0.1540 -1.5594  0.5788
  470TMC3    C5 6995   2.733   3.152   0.983  0.0963  0.5295 -0.6703
  470TMC3    C6 6996   2.768   3.286   0.964  0.1073 -0.6814  0.4295
  470TMC3     C 6997   2.669   3.052   0.639  0.1264  0.2137 -0.2819
  470TMC3     O 6998   2.613   2.947   0.662  0.3704 -0.3475 -0.6423
  470TMC3     H 6999   2.695   3.310   0.632  2.0434 -0.3810 -0.8255
  470TMC3    H1 7000   2.706   2.965   0.878 -0.4348 -1.5966  0.9485
  470TMC3    H2 7001   2.817   3.341   1.044  1.3803  0.8243 -1.3698
  470TMC3    C7 7002   2.793   3.074   1.096 -0.6677 -0.4705  0.2415
  470TMC3    C8 7003   2.790   3.482   0.829  0.3887 -0.3960  0.1567
  470TMC3    O1 7004   2.832   2.962   1.060 -0.4338  0.0953 -0.8966
  470TMC3    O2 7005   2.761   3.557   0.918 -0.3199  0.4228 -0.1370
  471MPD2     C 7006   4.149   0.226  17.097 -0.2585 -0.0311  0.5849
  471MPD2    C1 7007   4.133   0.105  17.029  0.0994  0.1451  0.3453
  471MPD2    C2 7008   4.040   0.007  17.071 -1.0321 -0.5972 -0.9299
  471MPD2    C3 7009   3.968   0.037  17.184 -1.0299 -0.6427 -0.1617
  471MPD2    C4 7010   3.996   0.150  17.261 -0.3407 -0.3019  0.3832
  471MPD2    C5 7011   4.071   0.248  17.209 -0.6280  0.0390 -0.5833
  471MPD2     H 7012   4.019   4.645  17.012  1.3342 -0.3723 -2.0967
  471MPD2    H1 7013   3.949   0.163  17.358  0.0961 -1.8620  0.8020
  471MPD2    H2 7014   4.214   0.307  17.064  1.6047 -2.3132 -1.3660
  471MPD2    H3 7015   4.084   0.335  17.272  3.1324 -0.5771 -0.4569
  471MPD2     N 7016   3.882   4.669  17.244  0.0459 -0.1274  0.0754
  471MPD2    H5 7017   3.852   4.686  17.339  1.1256  0.2913  0.3362
  471MPD2    N1 7018   4.207   0.067  16.915 -0.1314  0.0611 -0.1358
  471MPD2    H7 7019   4.199   4.702  16.873 -2.0811 -1.7471  4.1636
  472TMC3    C1 7020   4.374   0.088  16.762  0.2258  0.2556  0.0073
  472TMC3    C2 7021   4.369   0.154  16.645 -0.1558 -0.2536  0.0966
  472TMC3    C3 7022   4.402   0.099  16.524 -0.3099  1.0014  0.1969
  472TMC3    C4 7023   4.411   4.684  16.768 -0.6437 -0.4491  0.4922
  472TMC3    C5 7024   4.438   4.626  16.642  0.2025 -0.6049 -0.0771
  472TMC3    C6 7025   4.436   4.693  16.518 -0.4940 -0.0904  0.5256
  472TMC3     C 7026   4.306   0.151  16.864  0.8576 -0.1230 -0.3484
  472TMC3     O 7027   4.326   0.271  16.879 -0.3092 -0.2064 -0.0506
  472TMC3     H 7028   4.326   0.254  16.645  2.8701  1.0402  0.9605
  472TMC3    H1 7029   4.416   4.635  16.865 -0.4072  1.4854  1.4490
  472TMC3    H2 7030   4.490   4.648  16.435  0.6321 -1.0737  1.7835
  472TMC3    C7 7031   4.398   4.483  16.637  0.1578 -0.8233 -0.4637
  472TMC3    C8 7032   4.314   0.126  16.424 -0.3965  0.7538  0.7523
  472TMC3    O1 7033   4.391   4.423  16.742  0.5685  0.4839 -0.4683
  472TMC3    O2 7034   4.337   0.193  16.326  0.2076  0.1405  0.5095
  473MPD2     C 7035   4.314   2.459  13.571  0.1448 -0.3412  0.2430
  473MPD2    C1 7036   4.284   2.582  13.516  0.0075  0.3868 -0.7113
  473MPD2    C2 7037   4.334   2.701  13.572  0.6076  0.1100 -0.5294
  473MPD2    C3 7038   4.420   2.688  13.683 -0.6174 -0.3365  0.2813
  473MPD2    C4 7039   4.447   2.562  13.736 -0.8781 -1.0313 -0.1288
  473MPD2    C5 7040   4.407   2.450  13.670 -0.0263 -0.2331 -0.2861
  473MPD2     H 7041   4.302   2.799  13.538  0.4980  0.3684  0.3046
  473MPD2    H1 7042   4.506   2.553  13.826 -1.2191  0.1707  0.2147
  473MPD2    H2 7043   4.264   2.377  13.520 -1.0063  0.7469 -0.3835
  473MPD2    H3 7044   4.435   2.352  13.705 -0.6873  0.4157  2.0801
  473MPD2     N 7045   4.460   2.801  13.769  0.6289 -0.4044  0.1601
  473MPD2    H5 7046   4.481   2.772  13.864 -0.1968 -3.9477 -0.7204
  473MPD2    N1 7047   4.194   2.596  13.403 -0.1842 -0.0575 -0.0855
  473MPD2    H7 7048   4.187   2.689  13.364  2.0507 -0.1409 -0.7115
  474TMC3    C1 7049   4.460   3.028  13.843  0.0054 -0.3102  0.2896
  474TMC3    C2 7050   4.398   3.145  13.807  0.1179  0.6621 -0.1522
  474TMC3    C3 7051   4.375   3.235  13.908 -0.2042  0.4181 -0.1643
  474TMC3    C4 7052   4.489   2.998  13.977  0.3238  0.2126  0.2616
  474TMC3    C5 7053   4.474   3.099  14.070  0.3612  0.3133 -0.0267
  474TMC3    C6 7054   4.422   3.222  14.041  0.7717  0.1799 -0.6105
  474TMC3     C 7055   4.466   2.934  13.730 -0.3244  0.5278  0.2576
  474TMC3     O 7056   4.449   2.982  13.616  0.0845  0.2176 -0.1093
  474TMC3     H 7057   4.363   3.164  13.706 -3.2788 -0.9429  0.7363
  474TMC3    H1 7058   4.537   2.906  14.006  1.2032  0.4283 -0.4827
  474TMC3    H2 7059   4.401   3.306  14.106 -0.8169 -2.0619  1.7539
  474TMC3    C7 7060   4.499   3.056  14.204 -0.3856  0.2344  0.1528
  474TMC3    C8 7061   4.324   3.370  13.878  0.5343  0.2889  0.7106
  474TMC3    O1 7062   4.486   2.933  14.217 -0.1309  0.3604 -0.3069
  474TMC3    O2 7063   4.375   3.459  13.942 -0.1741  0.9214  0.1111
  475MPD2     C 7064   2.991   4.466  10.512 -0.2982 -0.1873 -0.6004
  475MPD2    C1 7065   2.962   4.543  10.402 -0.5100 -0.2702  0.2826
  475MPD2    C2 7066   2.861   4.633  10.409  0.6235  0.8138 -0.1384
  475MPD2    C3 7067   2.794   4.650  10.523 -0.5920 -0.5102 -0.1523
  475MPD2    C4 7068   2.811   4.569  10.631  0.5622 -0.5272  0.3204
  475MPD2    C5 7069   2.911   4.474  10.622 -0.5688 -0.7500  0.5901
  475MPD2     H 7070   2.828   4.688  10.321  0.3126 -0.2956 -0.7175
  475MPD2    H1 7071   2.758   4.578  10.725  0.1602 -1.5016  0.1834
  475MPD2    H2 7072   3.068   4.390  10.502 -0.9027 -0.8168 -0.4796
  475MPD2    H3 7073   2.930   4.410  10.708 -1.6424  1.2983  2.3459
  475MPD2     N 7074   2.720   0.037  10.533 -0.2189 -0.4575 -0.1757
  475MPD2    H5 7075   2.709   0.099  10.453  2.3582 -0.3003 -0.4105
  475MPD2    N1 7076   3.043   4.531  10.289  0.8073  0.4412  0.2991
  475MPD2    H7 7077   3.135   4.490  10.301  1.4105  1.5579 -0.5735
  476TMC3    C1 7078   3.141   4.601  10.092  0.1329  0.4221  1.1656
  476TMC3    C2 7079   3.105   4.619   9.963  0.1636  0.1757  0.2553
  476TMC3    C3 7080   3.149   0.002   9.902  0.6225 -0.8269 -0.2518
  476TMC3    C4 7081   3.238   4.680  10.147 -0.2530 -0.5583 -0.3326
  476TMC3    C5 7082   3.292   0.057  10.075  0.1059  0.0796 -0.0507
  476TMC3    C6 7083   3.251   0.083   9.949  0.3815 -0.0090  0.5265
  476TMC3     C 7084   3.021   4.589  10.164 -0.2117  0.4736 -0.1922
  476TMC3     O 7085   2.932   4.668  10.125 -0.1773 -0.1613 -0.3389
  476TMC3     H 7086   3.023   4.561   9.923  0.1356 -1.4348  2.6764
  476TMC3    H1 7087   3.252   4.678  10.254  1.1487 -0.3602 -0.5118
  476TMC3    H2 7088   3.293   0.162   9.889 -0.0131 -0.1102  0.1238
  476TMC3    C7 7089   3.395   0.133  10.144 -0.0331  0.8834 -0.6944
  476TMC3    C8 7090   3.049   0.075   9.827 -0.3563 -0.2068 -0.1865
  476TMC3    O1 7091   3.493   0.152  10.075 -0.2341 -0.1765 -0.0280
  476TMC3    O2 7092   3.095   0.154   9.742  0.0325  0.1518  0.0262
  477MPD2     C 7093   4.477   1.277  11.527  0.2579  0.2413  0.0588
  477MPD2    C1 7094   4.448   1.364  11.631 -0.0172  0.5862  0.3708
  477MPD2    C2 7095   4.533   1.372  11.738 -0.2986  0.6526 -0.4683
  477MPD2    C3 7096   4.651   1.290  11.738  0.4175  0.6441  0.5692
  477MPD2    C4 7097   4.681   1.216  11.630  0.0393 -0.5322 -0.4993
  477MPD2    C5 7098   4.595   1.204  11.528  0.5056  0.4395 -0.8334
  477MPD2     H 7099   4.512   1.438  11.821 -2.4341 -2.8132  1.7555
  477MPD2    H1 7100   0.040   1.152  11.643 -1.3769 -1.9571  1.8967
  477MPD2    H2 7101   4.413   1.263  11.441  1.0506  0.7134 -0.6044
  477MPD2    H3 7102   4.622   1.141  11.444  0.9601 -1.1577  0.5191
  477MPD2     N 7103   0.021   1.326  11.836 -0.4951  0.1330  0.5795
  477MPD2    H5 7104   4.709   1.394  11.901  2.3315  2.0967  0.2423
  477MPD2    N1 7105   4.344   1.455  11.602 -0.2369  0.8245 -0.2261
  477MPD2    H7 7106   4.319   1.459  11.503  0.1591 -3.3125 -0.5111
  478TMC3    C1 7107   4.208   1.647  11.636  0.7685 -0.0544 -0.1864
  478TMC3    C2 7108   4.185   1.747  11.727  0.7054  0.0636  0.2862
  478TMC3    C3 7109   4.130   1.862  11.685  0.0720 -0.0820 -0.0074
  478TMC3    C4 7110   4.175   1.651  11.505  0.0061 -0.2622 -0.5613
  478TMC3    C5 7111   4.116   1.771  11.470  0.7662  0.2640  0.2112
  478TMC3    C6 7112   4.093   1.877  11.551 -0.4824  0.3606  0.0563
  478TMC3     C 7113   4.305   1.552  11.688  0.3547 -0.2524 -0.1979
  478TMC3     O 7114   4.321   1.549  11.808 -0.2061  0.5638 -0.2337
  478TMC3     H 7115   4.219   1.748  11.830  0.4106 -1.7478  0.3987
  478TMC3    H1 7116   4.227   1.591  11.431 -2.0034 -1.5862 -0.8920
  478TMC3    H2 7117   4.025   1.957  11.525  0.1436  0.1315 -2.2792
  478TMC3    C7 7118   4.050   1.759  11.340 -0.4270 -0.2249 -0.0094
  478TMC3    C8 7119   4.075   1.940  11.782  0.0346 -0.1902 -0.5126
  478TMC3    O1 7120   4.039   1.650  11.283 -0.1857  0.1197  0.3745
  478TMC3    O2 7121   4.055   1.883  11.887  0.1344  0.2941  0.4372
  479MPD2     C 7122   3.969   3.905  15.138  0.0444  0.5817 -0.2678
  479MPD2    C1 7123   3.911   4.020  15.091  0.0738 -1.0877 -0.5496
  479MPD2    C2 7124   3.968   4.141  15.116  0.3094 -0.3552 -0.4574
  479MPD2    C3 7125   4.077   4.149  15.199 -0.3328  0.4748  0.4273
  479MPD2    C4 7126   4.141   4.031  15.237 -0.6420  0.3082 -0.6050
  479MPD2    C5 7127   4.086   3.911  15.209  0.7201 -0.9655  0.2809
  479MPD2     H 7128   3.912   4.230  15.095 -2.3223 -2.3535 -1.8785
  479MPD2    H1 7129   4.230   4.034  15.300 -0.8276 -0.9179 -0.2700
  479MPD2    H2 7130   3.935   3.807  15.105 -0.9834  1.1530 -0.9299
  479MPD2    H3 7131   4.131   3.820  15.248  0.1835 -1.0941  0.6096
  479MPD2     N 7132   4.123   4.270  15.249  0.7486 -0.4636 -0.1650
  479MPD2    H5 7133   4.205   4.278  15.308  0.3616  0.1011  0.3066
  479MPD2    N1 7134   3.788   4.005  15.016  0.0590  0.3536  0.6944
  479MPD2    H7 7135   3.748   3.912  15.016  1.5838 -0.2996 -2.1715
  480TMC3    C1 7136   4.122   4.481  15.577  0.2951  0.2777  0.6393
  480TMC3    C2 7137   4.078   4.615  15.586  0.3250 -0.0981  0.1952
  480TMC3    C3 7138   4.045   4.674  15.467  0.9138  0.0103 -0.5489
  480TMC3    C4 7139   4.142   4.418  15.462 -0.1520  0.1593  0.1343
  480TMC3    C5 7140   4.095   4.472  15.345  0.5422 -0.3145 -0.1974
  480TMC3    C6 7141   4.045   4.601  15.346 -0.9547 -1.1632 -0.4558
  480TMC3     C 7142   4.069   4.389  15.689 -0.0912  0.1951 -0.2192
  480TMC3     O 7143   4.103   4.273  15.683 -0.0196  0.3747 -0.1415
  480TMC3     H 7144   4.084   4.664  15.682 -1.2472 -0.7726  0.6364
  480TMC3    H1 7145   4.181   4.317  15.472  1.1167  0.8536  2.2988
  480TMC3    H2 7146   4.021   4.647  15.250  0.8139 -1.2145 -0.9312
  480TMC3    C7 7147   4.054   4.382  15.234 -0.3034  0.5361 -0.2424
  480TMC3    C8 7148   3.998   0.083  15.475  0.3032 -0.8747 -0.1072
  480TMC3    O1 7149   3.973   4.436  15.161 -0.3014  0.1078 -0.3665
  480TMC3    O2 7150   4.011   0.141  15.582 -0.4449 -0.1065  0.6363
  481MPD2     C 7151   0.669   4.348  13.713  0.6965  0.3448 -0.2254
  481MPD2    C1 7152   0.588   4.245  13.754 -0.5539  0.6352 -0.0451
  481MPD2    C2 7153   0.613   4.189  13.880  0.5752 -0.3826  0.1037
  481MPD2    C3 7154   0.713   4.229  13.962 -0.5443 -0.5818  0.4922
  481MPD2    C4 7155   0.790   4.331  13.921 -0.1170 -0.4722  0.8248
  481MPD2    C5 7156   0.767   4.394  13.797  0.2941 -0.2661 -0.0546
  481MPD2     H 7157   0.552   4.106  13.914  1.3242 -0.7858  0.4728
  481MPD2    H1 7158   0.864   4.370  13.990 -1.6552  1.2724  1.5025
  481MPD2    H2 7159   0.661   4.389  13.613 -0.6433  0.1722 -0.1922
  481MPD2    H3 7160   0.833   4.472  13.761  0.7790 -0.2322  0.9037
  481MPD2     N 7161   0.734   4.179  14.087  0.2599  0.2424 -0.0272
  481MPD2    H5 7162   0.814   4.214  14.138  0.0713  1.4009 -0.5329
  481MPD2    N1 7163   0.485   4.200  13.670  0.2431 -0.5024 -0.0698
  481MPD2    H7 7164   0.461   4.257  13.590  1.5147  0.7791  0.4488
  482TMC3    C1 7165   0.317   4.086  13.573  0.1358 -0.3169  0.1627
  482TMC3    C2 7166   0.287   3.962  13.529 -0.0164 -0.3846 -0.2775
  482TMC3    C3 7167   0.193   3.950  13.428 -0.0666  0.1467  0.1302
  482TMC3    C4 7168   0.249   4.194  13.520  0.3035 -0.3206 -0.1076
  482TMC3    C5 7169   0.153   4.180  13.427 -0.1655 -0.3955 -0.8706
  482TMC3    C6 7170   0.124   4.060  13.365 -0.6184 -0.0122  0.6064
  482TMC3     C 7171   0.405   4.091  13.685 -0.7132 -0.5078  0.2715
  482TMC3     O 7172   0.423   3.988  13.749  0.1908  0.1775 -0.0954
  482TMC3     H 7173   0.338   3.876  13.571 -0.6064 -1.1714 -1.1759
  482TMC3    H1 7174   0.254   4.292  13.566  1.5277 -2.4070  4.3093
  482TMC3    H2 7175   0.058   4.043  13.281 -0.9292  1.4833  0.5428
  482TMC3    C7 7176   0.084   4.297  13.380 -0.4843 -0.6068  0.4681
  482TMC3    C8 7177   0.166   3.819  13.372 -0.3600  0.0717 -0.5479
  482TMC3    O1 7178   0.112   4.406  13.428  0.0929 -0.3147  0.1152
  482TMC3    O2 7179   0.225   3.739  13.440 -0.4385  0.2591 -0.0987
  483TMC3    C1 7180   2.847   2.638   0.585  0.2336  0.1434  0.9127
  483TMC3    C2 7181   2.890   2.770   0.588 -0.4292 -0.0510 -0.0004
  483TMC3    C3 7182   2.920   2.826   0.709 -1.0703  0.1380  0.4419
  483TMC3    C4 7183   2.842   2.560   0.702 -0.0166  0.3274  0.1757
  483TMC3    C5 7184   2.883   2.622   0.815  0.0743  0.7140  0.8755
  483TMC3    C6 7185   2.922   2.751   0.825  0.0071 -0.1921 -0.2373
  483TMC3     C 7186   2.850   2.563   0.458 -0.3587 -0.1244 -0.1433
  483TMC3     O 7187   2.888   2.634   0.364 -0.4730  0.2691  0.0422
  483TMC3     H 7188   2.868   2.822   0.495 -3.0692 -1.2577 -0.0694
  483TMC3    H1 7189   2.835   2.452   0.696 -2.5764  0.4498  0.8230
  483TMC3    H2 7190   2.967   2.783   0.918 -1.1131  1.3318 -0.2095
  483TMC3    C7 7191   2.932   2.528   0.923  0.4618 -0.2023  0.2059
  483TMC3    C8 7192   2.999   2.946   0.706  0.3032  0.3041 -0.2506
  483TMC3    O1 7193   2.859   2.436   0.951  0.0911 -0.3628 -0.1982
  483TMC3    O2 7194   3.012   3.002   0.599 -0.0651  0.3222  0.3807
  484MPD2     C 7195   0.928   0.774  12.064  0.0425  0.0157 -0.1228
  484MPD2    C1 7196   1.005   0.696  12.140 -0.6588 -0.5168  0.0907
  484MPD2    C2 7197   1.138   0.731  12.158 -0.1139 -0.9212  0.1819
  484MPD2    C3 7198   1.188   0.848  12.109 -0.7682 -0.1714  0.1066
  484MPD2    C4 7199   1.107   0.935  12.039 -0.1197 -0.2549  0.1750
  484MPD2    C5 7200   0.980   0.891  12.012 -0.8133  0.5528  0.1765
  484MPD2     H 7201   1.201   0.669  12.220 -1.9951 -0.5262  2.4432
  484MPD2    H1 7202   1.143   1.029  11.999  0.4840 -1.2885 -1.6910
  484MPD2    H2 7203   0.825   0.757  12.037  0.1467 -3.3554  1.6456
  484MPD2    H3 7204   0.915   0.946  11.944 -0.7506  1.3749  0.7896
  484MPD2     N 7205   1.320   0.893  12.126  0.7214 -0.2516  0.3178
  484MPD2    H5 7206   1.333   0.992  12.110  1.0354 -0.3626 -0.1246
  484MPD2    N1 7207   0.963   0.570  12.182  0.4969  0.6313 -0.5349
  484MPD2    H7 7208   1.018   0.513  12.245 -0.6210 -1.2844 -1.3115
  485TMC3    C1 7209   1.553   0.881  12.173 -0.7289  0.5281  0.4264
  485TMC3    C2 7210   1.644   0.837  12.263 -0.3815  0.1731 -0.5043
  485TMC3    C3 7211   1.761   0.898  12.258 -0.5279 -0.3245  0.0818
  485TMC3    C4 7212   1.576   0.971  12.080 -0.0674 -0.4827  0.4151
  485TMC3    C5 7213   1.700   1.027  12.076  0.6545 -0.0677 -0.0297
  485TMC3    C6 7214   1.788   1.004  12.176  0.2633 -0.4504 -0.8722
  485TMC3     C 7215   1.423   0.814  12.165 -0.2579  0.0956 -0.7243
  485TMC3     O 7216   1.422   0.694  12.181 -0.5481  0.4074  0.5252
  485TMC3     H 7217   1.622   0.751  12.325  0.6979  0.6574  0.5449
  485TMC3    H1 7218   1.505   0.982  11.999 -0.2029 -0.0969  0.5879
  485TMC3    H2 7219   1.885   1.052  12.178  0.1142 -0.1039 -1.8323
  485TMC3    C7 7220   1.764   1.026  11.946  0.1885 -0.1400  0.1462
  485TMC3    C8 7221   1.871   0.806  12.265 -0.0879 -0.1229  0.5262
  485TMC3    O1 7222   1.689   1.059  11.857  0.1255  0.2634  0.5939
  485TMC3    O2 7223   1.950   0.819  12.171  0.0816  0.3169 -0.1603
  486MPD2     C 7224   3.221   4.377  13.359  0.1045  0.7303  0.2544
  486MPD2    C1 7225   3.252   4.325  13.233 -0.1705  0.7172  0.1159
  486MPD2    C2 7226   3.262   4.408  13.124 -0.3160 -0.9324 -0.4615
  486MPD2    C3 7227   3.242   4.544  13.137  0.2539 -0.3133  0.2778
  486MPD2    C4 7228   3.211   4.597  13.262 -0.8232  0.7271 -0.0488
  486MPD2    C5 7229   3.199   4.510  13.369 -1.1272  0.2595  0.0435
  486MPD2     H 7230   3.284   4.373  13.024  0.6863 -2.2113  0.2023
  486MPD2    H1 7231   3.202   4.701  13.289  1.8736  0.8061  0.5526
  486MPD2    H2 7232   3.211   4.322  13.451 -1.9647 -0.5502 -0.7308
  486MPD2    H3 7233   3.179   4.545  13.470 -1.6668 -2.4906  0.8989
  486MPD2     N 7234   3.254   4.622  13.021 -0.5282 -0.4856  0.0921
  486MPD2    H5 7235   3.294   4.583  12.937  0.0291  2.0080 -0.8032
  486MPD2    N1 7236   3.269   4.186  13.223 -0.0289 -0.0569  0.3718
  486MPD2    H7 7237   3.256   4.136  13.311 -1.6611  1.7310  1.1517
  487TMC3    C1 7238   3.275   3.968  13.125 -0.2910 -0.7695  0.0334
  487TMC3    C2 7239   3.208   3.902  13.031  0.3844 -0.0416 -0.2069
  487TMC3    C3 7240   3.172   3.772  13.052 -0.5500  0.8258  0.4831
  487TMC3    C4 7241   3.313   3.903  13.241  0.4317  0.7366  0.0743
  487TMC3    C5 7242   3.282   3.772  13.260  0.5840 -0.7655  0.0476
  487TMC3    C6 7243   3.206   3.705  13.165 -0.3857  0.6122  0.5562
  487TMC3     C 7244   3.282   4.112  13.105  0.4014 -0.2121  0.0537
  487TMC3     O 7245   3.276   4.157  12.990  0.0665  0.1407  0.5216
  487TMC3     H 7246   3.170   3.957  12.946 -0.0219 -0.7481 -0.4786
  487TMC3    H1 7247   3.371   3.947  13.322 -0.0985 -0.6823  1.2235
  487TMC3    H2 7248   3.178   3.602  13.183 -0.0439  0.5430  0.6987
  487TMC3    C7 7249   3.275   3.745  13.404  1.1762  0.5445 -0.4283
  487TMC3    C8 7250   3.085   3.711  12.952 -1.0353  0.3657 -0.5072
  487TMC3    O1 7251   3.307   3.825  13.486  0.3800  0.4264  0.6907
  487TMC3    O2 7252   3.124   3.726  12.837  0.0575 -0.1820  0.4735
  488MPD2     C 7253   3.590   1.552  16.107  0.2778 -0.2749 -0.1747
  488MPD2    C1 7254   3.641   1.611  16.220  0.1358 -0.1530  0.1276
  488MPD2    C2 7255   3.593   1.572  16.341 -0.4702 -0.1555 -0.0230
  488MPD2    C3 7256   3.498   1.468  16.352  0.8345 -0.1129 -0.6323
  488MPD2    C4 7257   3.455   1.406  16.237  0.5852  0.5924  0.4488
  488MPD2    C5 7258   3.508   1.447  16.114 -0.1407  0.2996 -0.3392
  488MPD2     H 7259   3.636   1.616  16.430 -3.3051  0.5187  1.0044
  488MPD2    H1 7260   3.384   1.324  16.234 -0.2102  1.2616  0.7685
  488MPD2    H2 7261   3.618   1.586  16.008 -0.2040 -0.7836 -0.4817
  488MPD2    H3 7262   3.475   1.399  16.022  0.5869 -2.6181  0.9229
  488MPD2     N 7263   3.462   1.436  16.484  0.5438 -0.6091 -0.1292
  488MPD2    H5 7264   3.504   1.501  16.550 -0.4850 -0.3622  0.2727
  488MPD2    N1 7265   3.725   1.733  16.219 -0.3251  0.1446 -0.3477
  488MPD2    H7 7266   3.727   1.787  16.305  0.5746 -1.7922  0.8352
  489TMC3    C1 7267   3.392   1.314  16.674 -0.6014 -0.5087 -0.1799
  489TMC3    C2 7268   3.501   1.369  16.728  0.7067 -0.2058  0.6831
  489TMC3    C3 7269   3.497   1.394  16.864 -0.1336 -0.4241  0.6492
  489TMC3    C4 7270   3.277   1.273  16.740  0.0632 -0.3833 -0.3086
  489TMC3    C5 7271   3.276   1.300  16.874  0.4801  0.1582  0.3398
  489TMC3    C6 7272   3.389   1.354  16.938 -0.1658 -0.5656  0.0459
  489TMC3     C 7273   3.375   1.337  16.528 -0.3059  0.4032 -0.4924
  489TMC3     O 7274   3.288   1.281  16.462  0.0856 -0.1880 -0.7594
  489TMC3     H 7275   3.591   1.391  16.672 -0.3413 -1.2004 -1.4041
  489TMC3    H1 7276   3.183   1.247  16.693 -0.0783  0.5686 -0.5565
  489TMC3    H2 7277   3.388   1.359  17.047 -2.7456 -1.0680  0.0371
  489TMC3    C7 7278   3.168   1.241  16.959 -0.0271 -0.4481  0.5306
  489TMC3    C8 7279   3.578   1.507  16.913 -0.0673  0.0790 -0.2019
  489TMC3    O1 7280   3.196   1.247  17.078  0.9115  0.1538 -0.6106
  489TMC3    O2 7281   3.680   1.530  16.849 -0.0536 -0.2031 -0.0602
  490MPD2     C 7282   3.897   0.966   0.384 -0.8369 -0.0374 -0.1651
  490MPD2    C1 7283   3.937   0.901   0.272  0.0863 -0.2935  0.3008
  490MPD2    C2 7284   4.035   0.959   0.194 -0.3888 -0.1668 -0.5275
  490MPD2    C3 7285   4.091   1.084   0.231  0.4348  0.3998 -0.6659
  490MPD2    C4 7286   4.047   1.141   0.346  0.5176 -0.0669  0.2562
  490MPD2    C5 7287   3.944   1.089   0.416 -0.3137  0.0716 -0.2890
  490MPD2     H 7288   4.065   0.903   0.107 -1.5941  0.6870 -1.4988
  490MPD2    H1 7289   4.081   1.240   0.373  0.3187  0.1461 -0.2715
  490MPD2    H2 7290   3.820   0.923   0.447 -1.0727 -1.2733 -1.2847
  490MPD2    H3 7291   3.914   1.136   0.508 -0.6191 -0.3908 -0.1509
  490MPD2     N 7292   4.191   1.149   0.159 -0.4504 -0.0609  0.6004
  490MPD2    H5 7293   4.237   1.227   0.205 -1.8899  0.2394  1.5134
  490MPD2    N1 7294   3.904   0.765   0.232  0.7185 -0.1581 -0.1468
  490MPD2    H7 7295   3.938   0.739   0.140 -0.1525 -0.5130 -0.3705
  491TMC3    C1 7296   3.852   0.532   0.257 -0.0154 -0.4110  0.1032
  491TMC3    C2 7297   3.836   0.435   0.350 -0.9683  0.7250 -0.2318
  491TMC3    C3 7298   3.860   0.306   0.314 -0.1560  0.2123 -0.7723
  491TMC3    C4 7299   3.881   0.504   0.123  0.1971 -0.5232  0.1243
  491TMC3    C5 7300   3.889   0.370   0.098 -0.1273 -0.3742 -0.3917
  491TMC3    C6 7301   3.885   0.270   0.187  0.0010  0.6186  0.2838
  491TMC3     C 7302   3.838   0.670   0.309 -0.2085 -0.3052  0.9578
  491TMC3     O 7303   3.816   0.689   0.429  0.4598  0.0956 -0.5183
  491TMC3     H 7304   3.799   0.447   0.452  0.5717 -0.1152  0.4270
  491TMC3    H1 7305   3.869   0.581   0.048 -1.8930  0.2311  1.2135
  491TMC3    H2 7306   3.892   0.167   0.154  0.4213 -0.1742  2.8557
  491TMC3    C7 7307   3.840   0.329  17.674  1.1963 -0.0032 -0.1742
  491TMC3    C8 7308   3.776   0.216   0.396 -0.2105  0.4929  0.1250
  491TMC3    O1 7309   3.814   0.212  17.663 -0.6277 -0.0828 -0.5516
  491TMC3    O2 7310   3.688   0.259   0.463 -0.8664  0.2648  0.4306
  492MPD2     C 7311   0.207   0.072  10.496  0.1551 -0.2462  0.2755
  492MPD2    C1 7312   0.089   0.007  10.451  0.8573 -0.2698  0.3880
  492MPD2    C2 7313   4.698   0.032  10.516 -0.0544 -0.1078  0.2734
  492MPD2    C3 7314   4.684   0.127  10.612  0.0870 -0.2421  0.4513
  492MPD2    C4 7315   0.076   0.197  10.649 -0.0383 -0.2652  0.0084
  492MPD2    C5 7316   0.197   0.168  10.590  0.1663 -0.4542  0.1323
  492MPD2     H 7317   4.608   4.708  10.482  0.6088 -0.9655 -0.1979
  492MPD2    H1 7318   0.077   0.269  10.729  0.2352 -0.7020  0.3991
  492MPD2    H2 7319   0.305   0.044  10.461  0.3181  0.1717  0.3971
  492MPD2    H3 7320   0.285   0.223  10.622 -0.3595 -0.2271  1.1921
  492MPD2     N 7321   4.568   0.156  10.691  0.0166  0.1205  0.4105
  492MPD2    H5 7322   4.587   0.236  10.752 -1.4134  0.1707  0.7975
  492MPD2    N1 7323   0.105   4.637  10.358 -0.2402  0.1155 -0.6370
  492MPD2    H7 7324   0.202   4.622  10.329 -0.3560 -0.8278 -0.5240
  493TMC3    C1 7325   0.045   4.498  10.182  0.4442 -0.0195  0.1064
  493TMC3    C2 7326   0.140   4.558  10.099 -0.6190 -0.3697 -0.0092
  493TMC3    C3 7327   0.128   4.538   9.965 -0.0970 -0.2214  0.5297
  493TMC3    C4 7328   4.670   4.429  10.123 -0.2455 -0.2194  0.4231
  493TMC3    C5 7329   4.651   4.410   9.986  0.4231 -0.4887  0.6114
  493TMC3    C6 7330   0.021   4.471   9.900 -0.6165  0.0102  0.2827
  493TMC3     C 7331   0.001   4.568  10.301  0.3404 -0.4577  0.5693
  493TMC3     O 7332   4.611   4.601  10.298  0.4253  0.9619  0.1181
  493TMC3     H 7333   0.230   4.606  10.136 -0.3045 -0.1855 -1.0008
  493TMC3    H1 7334   4.590   4.388  10.184 -1.0389  0.3842 -0.2092
  493TMC3    H2 7335   0.004   4.465   9.794 -2.7549  0.9591  0.5555
  493TMC3    C7 7336   4.523   4.388   9.941  0.2066 -0.1570  0.6560
  493TMC3    C8 7337   0.231   4.591   9.887  0.2482  0.1245  0.7486
  493TMC3    O1 7338   4.456   4.309  10.011 -0.0756  0.8086  0.2638
  493TMC3    O2 7339   0.239   4.536   9.778 -0.6443 -0.0451 -0.0220
  494TMC3    C1 7340   0.186   2.560   0.663 -0.2763  0.7088  0.5091
  494TMC3    C2 7341   0.237   2.432   0.691  0.6702 -0.6013  0.4463
  494TMC3    C3 7342   0.347   2.388   0.625  0.1923  0.6919 -0.2878
  494TMC3    C4 7343   0.247   2.635   0.563 -0.3762  0.4552  0.2170
  494TMC3    C5 7344   0.369   2.594   0.511 -0.3337  0.0707  0.0334
  494TMC3    C6 7345   0.418   2.464   0.535 -0.2979  0.3606  0.2707
  494TMC3     C 7346   0.042   2.577   0.688  0.0060 -0.2035  0.1713
  494TMC3     O 7347   0.001   2.509   0.781  0.2224 -0.6622 -0.8144
  494TMC3     H 7348   0.192   2.367   0.765 -0.7669 -1.2243 -0.9773
  494TMC3    H1 7349   0.210   2.734   0.540  1.2084  0.9745 -0.1062
  494TMC3    H2 7350   0.509   2.421   0.495 -0.5578 -0.4385  0.5463
  494TMC3    C7 7351   0.417   2.654   0.391  0.4859  1.1020  0.0760
  494TMC3    C8 7352   0.357   2.235   0.604  0.3604  0.0648  0.2844
  494TMC3    O1 7353   0.493   2.582   0.324 -0.5199 -0.3513 -0.1055
  494TMC3    O2 7354   0.351   2.169   0.705  0.0210  0.4045 -0.1617
  495TMC3    C1 7355   3.937   0.328  14.542 -0.6287  0.0646  0.6510
  495TMC3    C2 7356   3.816   0.335  14.468  0.5699  1.1366 -0.0963
  495TMC3    C3 7357   3.697   0.323  14.537  0.0174 -0.5944 -0.3709
  495TMC3    C4 7358   3.933   0.329  14.683 -0.9073  0.9419  0.3584
  495TMC3    C5 7359   3.806   0.334  14.743  0.2577 -0.0416  0.0218
  495TMC3    C6 7360   3.686   0.321  14.677 -0.2904 -0.7768  0.1670
  495TMC3     C 7361   4.010   0.212  14.493  0.8037  0.2885 -0.5153
  495TMC3     O 7362   3.950   0.140  14.414 -0.0449 -0.3209  1.1970
  495TMC3     H 7363   3.811   0.323  14.361  0.6049 -1.5924  0.2013
  495TMC3    H1 7364   4.025   0.331  14.740 -0.7827 -1.9663  0.2170
  495TMC3    H2 7365   3.595   0.306  14.735 -1.7337  2.1643 -1.3184
  495TMC3    C7 7366   3.798   0.305  14.883 -0.2786  0.4812  0.5742
  495TMC3    C8 7367   3.615   0.224  14.480 -0.4905 -0.3873  0.4851
  495TMC3    O1 7368   3.740   0.198  14.905 -0.2965 -0.2990 -0.3403
  495TMC3    O2 7369   3.493   0.228  14.513 -0.2617  0.0070  0.0676
  496MPD2     C 7370   1.243   4.617  15.719 -0.0680 -0.3851  0.1343
  496MPD2    C1 7371   1.248   4.478  15.718 -0.6155 -0.0585  0.2294
  496MPD2    C2 7372   1.176   4.411  15.817  0.8782  0.3119  0.0736
  496MPD2    C3 7373   1.101   4.480  15.908  0.9664  0.1448 -0.5907
  496MPD2    C4 7374   1.103   4.617  15.905  0.1933 -0.2573  0.0566
  496MPD2    C5 7375   1.175   4.686  15.813 -0.1687 -0.8692  0.2077
  496MPD2     H 7376   1.187   4.304  15.826 -0.9551  0.3446  2.7466
  496MPD2    H1 7377   1.052   4.674  15.981 -1.8426 -0.7216 -0.9486
  496MPD2    H2 7378   1.291   4.670  15.638  1.0105 -0.3371  0.8025
  496MPD2    H3 7379   1.169   0.068  15.809 -0.6131 -0.8859  0.4890
  496MPD2     N 7380   1.028   4.423  16.009  0.0087  0.8418  0.0559
  496MPD2    H5 7381   0.967   4.483  16.063  0.6815 -1.4651  3.3208
  496MPD2    N1 7382   1.314   4.412  15.611 -0.0987 -0.3411 -0.7950
  496MPD2    H7 7383   1.344   4.468  15.532  0.9184  0.4651  0.1598
  497TMC3    C1 7384   0.918   4.264  16.131  0.3252  0.4502 -0.1580
  497TMC3    C2 7385   0.832   4.162  16.098 -0.7116  0.2524  0.3846
  497TMC3    C3 7386   0.726   4.140  16.180 -0.8998  0.1583 -0.0981
  497TMC3    C4 7387   0.902   4.338  16.238  0.4253  0.1851  0.0961
  497TMC3    C5 7388   0.800   4.311  16.319  0.2248  0.9087  0.4400
  497TMC3    C6 7389   0.710   4.207  16.296  0.0551 -0.0569  0.5026
  497TMC3     C 7390   1.017   4.286  16.029 -0.5430 -0.1311  0.0688
  497TMC3     O 7391   1.074   4.193  15.971  0.1678 -0.2113  0.1530
  497TMC3     H 7392   0.833   4.131  15.994  2.2986  0.9480  0.2140
  497TMC3    H1 7393   0.967   4.424  16.252  1.5013 -0.0664 -3.2623
  497TMC3    H2 7394   0.644   4.182  16.379  1.9092 -1.4962  1.5434
  497TMC3    C7 7395   0.761   4.429  16.391 -0.0970 -0.1854 -0.2110
  497TMC3    C8 7396   0.633   4.040  16.131  0.3857  0.1078 -1.2148
  497TMC3    O1 7397   0.826   4.533  16.371  0.1521 -0.3579 -0.0957
  497TMC3    O2 7398   0.517   4.050  16.167  0.1587  0.4518  0.2812
  498MPD2     C 7399   1.818   0.022   9.918  0.1803  0.2890 -0.4930
  498MPD2    C1 7400   1.857   4.614   9.920 -0.6921 -0.5811  0.4049
  498MPD2    C2 7401   1.791   4.528  10.005 -0.3993 -0.2175  0.2128
  498MPD2    C3 7402   1.688   4.573  10.079  0.1812 -0.1297  0.6269
  498MPD2    C4 7403   1.646   4.703  10.074 -0.6131 -0.6950  0.0275
  498MPD2    C5 7404   1.720   0.062  10.002 -0.1043  0.0269  0.1895
  498MPD2     H 7405   1.812   4.421  10.011  1.6094  0.2193  1.0976
  498MPD2    H1 7406   1.561   0.015  10.129 -0.5159  0.4398 -0.6229
  498MPD2    H2 7407   1.869   0.098   9.859  0.4145 -0.9203 -1.8408
  498MPD2    H3 7408   1.684   0.165  10.002 -1.5561 -0.4890  3.5812
  498MPD2     N 7409   1.600   4.477  10.121 -0.3094  0.6229  0.2919
  498MPD2    H5 7410   1.633   4.384  10.098  0.0073  0.4860  1.2972
  498MPD2    N1 7411   1.962   4.556   9.835  0.3811  0.7380  0.8038
  498MPD2    H7 7412   1.989   4.461   9.859  0.4838  0.4136 -0.6007
  499TMC3    C1 7413   2.145   4.554   9.673 -0.9879  1.1060 -0.1643
  499TMC3    C2 7414   2.210   4.460   9.748  0.3134  0.0026 -0.7164
  499TMC3    C3 7415   2.347   4.439   9.732  0.0323  0.6908 -0.0589
  499TMC3    C4 7416   2.205   4.621   9.574  0.2801  0.1018 -0.2711
  499TMC3    C5 7417   2.335   4.603   9.553 -0.9230  1.1048 -0.3069
  499TMC3    C6 7418   2.403   4.503   9.624 -0.5259  0.4283 -0.0983
  499TMC3     C 7419   2.026   4.619   9.733  0.6559  0.2176  0.1391
  499TMC3     O 7420   2.000   0.005   9.688  0.0335  0.1644  0.2165
  499TMC3     H 7421   2.162   4.412   9.832 -0.1111 -0.5805 -1.2945
  499TMC3    H1 7422   2.143   4.691   9.518 -2.3882 -0.4253  2.0583
  499TMC3    H2 7423   2.503   4.474   9.591 -0.2694  0.4567  0.6502
  499TMC3    C7 7424   2.408   4.697   9.472  0.9735  0.1610 -0.1538
  499TMC3    C8 7425   2.442   4.347   9.805  0.0572  0.5192  0.0748
  499TMC3    O1 7426   2.526   4.668   9.465  0.0859 -0.9675  0.0489
  499TMC3    O2 7427   2.560   4.352   9.775  0.2932 -0.6623  0.0312
  500MPD2     C 7428   3.680   1.219  10.178  0.6035 -0.1944 -0.2766
  500MPD2    C1 7429   3.674   1.359  10.154 -0.1372 -0.4010 -0.3784
  500MPD2    C2 7430   3.553   1.408  10.105 -0.7152 -0.4150 -0.0637
  500MPD2    C3 7431   3.436   1.334  10.089 -0.4385  0.4638 -0.4224
  500MPD2    C4 7432   3.452   1.198  10.114  0.2297 -0.1892 -0.1162
  500MPD2    C5 7433   3.566   1.141  10.152  0.5925  0.3721  0.4483
  500MPD2     H 7434   3.546   1.515  10.093 -0.9576 -0.5861 -1.4244
  500MPD2    H1 7435   3.373   1.125  10.097  1.4381 -1.2702 -1.0289
  500MPD2    H2 7436   3.765   1.161  10.212  0.6758 -0.0024 -0.1299
  500MPD2    H3 7437   3.567   1.034  10.169  1.0783  0.2071 -0.6731
  500MPD2     N 7438   3.312   1.372  10.026 -0.0386  0.0991  0.2320
  500MPD2    H5 7439   3.253   1.297   9.991 -1.0407  1.9431 -2.0201
  500MPD2    N1 7440   3.780   1.443  10.169 -0.1480 -0.1890 -0.0159
  500MPD2    H7 7441   3.765   1.540  10.144 -0.9607 -0.0823  0.9076
  501TMC3    C1 7442   4.006   1.500  10.225  0.3929  0.6261 -0.0077
  501TMC3    C2 7443   4.015   1.592  10.124  0.4885  0.0059  0.4599
  501TMC3    C3 7444   4.113   1.690  10.140 -0.0082 -0.3478  0.2684
  501TMC3    C4 7445   4.100   1.486  10.325 -0.3544 -0.0815  0.5599
  501TMC3    C5 7446   4.190   1.590  10.328 -0.0933  0.5026 -0.1157
  501TMC3    C6 7447   4.201   1.693  10.238 -0.5513  0.5166 -0.7932
  501TMC3     C 7448   3.897   1.403  10.235  0.0211  0.1819  0.8040
  501TMC3     O 7449   3.931   1.292  10.284  0.2745  0.6922 -0.5939
  501TMC3     H 7450   3.936   1.609  10.053  0.2104 -1.7395  0.3559
  501TMC3    H1 7451   4.096   1.408  10.400 -2.6319 -1.0929 -0.6285
  501TMC3    H2 7452   4.273   1.772  10.254 -0.4559  0.1104  0.7728
  501TMC3    C7 7453   4.282   1.588  10.441 -0.0252 -0.7547 -0.0049
  501TMC3    C8 7454   4.079   1.817  10.087 -0.5187 -0.9915  0.0293
  501TMC3    O1 7455   4.246   1.532  10.541  0.1988 -0.3127  0.0160
  501TMC3    O2 7456   4.033   1.827   9.977  0.4399  0.5634 -0.5005
  502TMC3    C1 7457   3.206   0.686  15.344 -0.1321 -0.4908  0.4209
  502TMC3    C2 7458   3.144   0.802  15.308 -0.2452 -0.2946  0.2518
  502TMC3    C3 7459   3.047   0.794  15.215  0.1385  1.2259  0.0519
  502TMC3    C4 7460   3.164   0.556  15.310 -0.5073  0.0016  0.0943
  502TMC3    C5 7461   3.057   0.553  15.220  0.4753  0.3603 -0.3207
  502TMC3    C6 7462   2.995   0.672  15.180 -0.9149  0.1163  0.4025
  502TMC3     C 7463   3.289   0.701  15.469 -0.0557  0.2960 -0.1676
  502TMC3     O 7464   3.318   0.813  15.503 -0.4284  0.5050 -0.0332
  502TMC3     H 7465   3.171   0.898  15.349 -1.0294  0.1837 -0.3659
  502TMC3    H1 7466   3.230   0.473  15.329 -0.6629  0.0301  0.7585
  502TMC3    H2 7467   2.925   0.680  15.097  0.9540  1.7141 -1.0463
  502TMC3    C7 7468   2.994   0.425  15.215  0.4767 -0.5278 -0.8904
  502TMC3    C8 7469   2.944   0.900  15.225 -0.4178  0.4206  0.6461
  502TMC3    O1 7470   3.060   0.333  15.263  0.4798  0.1168 -0.0092
  502TMC3    O2 7471   2.833   0.869  15.276 -0.0241  0.2165 -1.1072
  503MPD2     C 7472   0.483   1.240  16.930 -0.1392  0.1383 -0.9890
  503MPD2    C1 7473   0.492   1.313  17.048  0.7194  0.0365 -0.0147
  503MPD2    C2 7474   0.494   1.255  17.169 -0.4293 -0.2917  0.0898
  503MPD2    C3 7475   0.471   1.117  17.177 -0.2592  0.1490  0.2352
  503MPD2    C4 7476   0.468   1.038  17.060  0.0522  0.6796 -0.4534
  503MPD2    C5 7477   0.468   1.102  16.940 -0.1873 -0.2041  0.2933
  503MPD2     H 7478   0.494   1.310  17.263  1.3642  0.2167 -0.1916
  503MPD2    H1 7479   0.462   0.930  17.068 -0.3530  0.7504  0.1790
  503MPD2    H2 7480   0.503   1.281  16.832 -1.3688 -0.4312 -1.4823
  503MPD2    H3 7481   0.463   1.049  16.846 -1.5083  2.1052 -0.9357
  503MPD2     N 7482   0.483   1.054  17.305  0.0099 -0.3285 -0.0822
  503MPD2    H5 7483   0.519   1.109  17.382 -0.0732  0.2776 -0.4785
  503MPD2    N1 7484   0.509   1.453  17.042  0.4874  0.4578 -0.1985
  503MPD2    H7 7485   0.527   1.493  17.134 -0.4654 -0.1199  0.2276
  504TMC3    C1 7486   0.559   0.876  17.442 -0.6224 -0.4731  0.3697
  504TMC3    C2 7487   0.501   0.800  17.543 -0.7290 -0.0781 -0.5410
  504TMC3    C3 7488   0.571   0.782  17.654 -0.3302  0.2340  0.5772
  504TMC3    C4 7489   0.683   0.925  17.445 -0.2363  0.2540  0.4884
  504TMC3    C5 7490   0.758   0.900  17.556  0.0068  0.3000  0.5062
  504TMC3    C6 7491   0.706   0.826  17.660 -0.3566 -0.2025  0.1183
  504TMC3     C 7492   0.484   0.919  17.325 -0.0406  0.4345 -0.4527
  504TMC3     O 7493   0.416   0.832  17.271  0.1345  0.6285 -0.1130
  504TMC3     H 7494   0.396   0.777  17.527 -0.2725 -2.4043 -0.0706
  504TMC3    H1 7495   0.737   0.970  17.362 -0.4339 -1.4850 -0.5724
  504TMC3    H2 7496   0.756   0.817   0.048 -2.0400 -0.2255  1.0118
  504TMC3    C7 7497   0.896   0.885  17.531 -0.4328 -0.6531  0.7185
  504TMC3    C8 7498   0.502   0.736   0.068  0.5599 -0.0476 -0.0941
  504TMC3    O1 7499   0.943   0.955  17.445 -0.7397 -0.6675  0.0491
  504TMC3    O2 7500   0.387   0.700   0.034  0.1485  0.2877  0.8770
  505MPD2     C 7501   0.680   3.361  10.853  0.0790 -0.2068  0.0603
  505MPD2    C1 7502   0.789   3.407  10.785  0.0852  0.2399  0.3589
  505MPD2    C2 7503   0.845   3.524  10.827 -0.2667  0.0480  0.0325
  505MPD2    C3 7504   0.802   3.590  10.935 -0.2521 -0.1823 -0.4714
  505MPD2    C4 7505   0.694   3.548  10.999 -0.0424 -0.3771  0.0896
  505MPD2    C5 7506   0.634   3.434  10.960  0.2167 -0.2205 -0.6859
  505MPD2     H 7507   0.936   3.565  10.784  1.4365 -0.1651  3.4206
  505MPD2    H1 7508   0.660   3.592  11.092  0.7651  0.7383 -0.1400
  505MPD2    H2 7509   0.623   3.274  10.822 -0.9061  0.2289  0.6687
  505MPD2    H3 7510   0.547   3.403  11.016  0.5782  0.1102  0.0521
  505MPD2     N 7511   0.889   3.685  10.986 -0.1138 -0.3260 -0.3953
  505MPD2    H5 7512   0.981   3.682  10.942 -0.6687  0.9360 -1.6560
  505MPD2    N1 7513   0.843   3.336  10.676  0.0024 -0.4387 -0.1117
  505MPD2    H7 7514   0.799   3.253  10.638  1.2833 -1.7977  1.3957
  506TMC3    C1 7515   0.972   3.281  10.501  0.7414 -0.7134 -0.1044
  506TMC3    C2 7516   1.011   3.336  10.383 -0.0614 -0.2716 -0.7054
  506TMC3    C3 7517   1.113   3.275  10.317  0.1114  0.8794  0.2661
  506TMC3    C4 7518   1.037   3.173  10.559  0.0771 -0.1591  0.1274
  506TMC3    C5 7519   1.142   3.114  10.489 -0.2835 -0.1621 -0.2262
  506TMC3    C6 7520   1.182   3.164  10.361 -0.1452 -0.3027 -0.0647
  506TMC3     C 7521   0.945   3.380  10.603 -0.1648 -0.4069  0.7216
  506TMC3     O 7522   0.998   3.490  10.599 -0.2575 -0.0159  0.0271
  506TMC3     H 7523   0.958   3.421  10.342 -1.3734 -0.9066 -0.3188
  506TMC3    H1 7524   1.004   3.137  10.655  2.1635 -0.2781  0.7911
  506TMC3    H2 7525   1.268   3.121  10.311 -0.9948 -1.2568 -0.6913
  506TMC3    C7 7526   1.259   3.113  10.574 -0.4200 -0.1603 -0.0041
  506TMC3    C8 7527   1.176   3.350  10.208 -0.6333 -1.2936  0.1868
  506TMC3    O1 7528   1.334   3.016  10.571 -0.2949  0.1785 -0.9755
  506TMC3    O2 7529   1.228   3.285  10.121  0.2209 -0.4665  0.3084
  507TMC3    C1 7530   1.750   0.719  14.940  0.1420  0.0541  0.3588
  507TMC3    C2 7531   1.745   0.633  14.837  0.0209 -0.5068 -0.3192
  507TMC3    C3 7532   1.807   0.674  14.721 -0.5685 -0.5507  0.1251
  507TMC3    C4 7533   1.809   0.845  14.940 -0.2175 -0.7644  0.9157
  507TMC3    C5 7534   1.871   0.885  14.822  0.6813 -0.0874 -0.7410
  507TMC3    C6 7535   1.867   0.799  14.714  0.1056  0.3373  0.2629
  507TMC3     C 7536   1.668   0.682  15.061  1.0062 -0.4007  0.4472
  507TMC3     O 7537   1.704   0.724  15.172  0.2468  0.1686  0.5116
  507TMC3     H 7538   1.699   0.535  14.842 -3.6070  1.1565 -1.4579
  507TMC3    H1 7539   1.811   0.909  15.028  1.2014 -0.6916  0.8348
  507TMC3    H2 7540   1.938   0.821  14.635  1.3444 -0.5208  1.1330
  507TMC3    C7 7541   1.852   1.019  14.769  0.4690 -0.0523 -0.2744
  507TMC3    C8 7542   1.726   0.656  14.598  0.1544 -0.4602 -0.1991
  507TMC3    O1 7543   1.836   1.026  14.647 -0.3297 -0.0246  0.2572
  507TMC3    O2 7544   1.650   0.560  14.586  0.1642  0.4264 -0.8750
  508MPD2     C 7545   2.425   3.141  15.897 -0.0396  0.4638  0.4688
  508MPD2    C1 7546   2.543   3.191  15.850  0.2874 -0.4683 -0.2152
  508MPD2    C2 7547   2.570   3.193  15.711  0.8876  0.2788  0.2340
  508MPD2    C3 7548   2.472   3.145  15.625  0.1565 -0.3730 -0.2038
  508MPD2    C4 7549   2.356   3.097  15.674  0.3051  1.3839 -0.6590
  508MPD2    C5 7550   2.332   3.091  15.809  0.3833 -0.1096 -0.3961
  508MPD2     H 7551   2.663   3.238  15.680  0.1768  1.6214  0.0116
  508MPD2    H1 7552   2.277   3.055  15.612  0.5267 -0.5586  0.3791
  508MPD2    H2 7553   2.400   3.155  16.002 -1.0628  1.1737  0.1340
  508MPD2    H3 7554   2.233   3.060  15.842  0.8736 -1.5643 -0.2865
  508MPD2     N 7555   2.488   3.164  15.484  0.4555 -0.0562 -0.4473
  508MPD2    H5 7556   2.566   3.218  15.448 -0.1053 -0.1637 -1.8134
  508MPD2    N1 7557   2.636   3.243  15.945 -0.0490  0.1760  0.0608
  508MPD2    H7 7558   2.594   3.251  16.036 -1.7206 -1.5478 -0.5568
  509TMC3    C1 7559   2.328   3.359  15.142  0.1075  0.0060  0.9826
  509TMC3    C2 7560   2.451   3.399  15.099 -0.7038  0.0534  0.4182
  509TMC3    C3 7561   2.560   3.326  15.142 -0.1522  0.9097 -0.1362
  509TMC3    C4 7562   2.300   3.258  15.232 -0.1679 -0.0983  0.1819
  509TMC3    C5 7563   2.415   3.192  15.269  0.3921  0.5303  0.5306
  509TMC3    C6 7564   2.542   3.226  15.233 -0.1493  0.7205 -0.0861
  509TMC3     C 7565   2.213   3.449  15.126 -0.3494 -0.2058 -0.5745
  509TMC3     O 7566   2.114   3.432  15.198 -0.1196  0.6426  0.4142
  509TMC3     H 7567   2.472   3.490  15.045  0.1421  0.5665  1.6053
  509TMC3    H1 7568   2.200   3.237  15.269 -0.7721 -0.4217 -1.5958
  509TMC3    H2 7569   2.631   3.174  15.266  0.1732  0.5600 -1.1975
  509TMC3    C7 7570   2.392   3.120  15.391 -0.5900  0.8983 -0.3765
  509TMC3    C8 7571   2.694   3.356  15.093  0.3057 -0.3522  0.1746
  509TMC3    O1 7572   2.285   3.060  15.396 -0.3016  0.0265  0.4260
  509TMC3    O2 7573   2.790   3.279  15.114  0.1310 -0.3452  0.2040
  510MPD2     C 7574   0.644   0.561  14.488  0.3058  0.5824  0.2536
  510MPD2    C1 7575   0.728   0.490  14.577 -0.3325 -0.6319 -0.1095
  510MPD2    C2 7576   0.840   0.421  14.527  0.2809  0.0271 -0.2692
  510MPD2    C3 7577   0.861   0.410  14.388  0.2824  0.6007 -0.2778
  510MPD2    C4 7578   0.761   0.457  14.311  0.5615 -0.5625  0.3918
  510MPD2    C5 7579   0.651   0.532  14.354  0.2727 -0.1905  0.3824
  510MPD2     H 7580   0.914   0.381  14.596 -0.6251 -2.2717 -0.6338
  510MPD2    H1 7581   0.760   0.434  14.205  0.4253 -2.1790  0.7405
  510MPD2    H2 7582   0.548   0.604  14.513  0.6256  1.5202 -0.1520
  510MPD2    H3 7583   0.575   0.556  14.281  0.7334 -0.1321 -0.0763
  510MPD2     N 7584   0.965   0.320  14.347  0.1412 -0.6139 -0.3726
  510MPD2    H5 7585   1.027   0.293  14.423 -1.6901  0.5240  1.5252
  510MPD2    N1 7586   0.699   0.498  14.720  0.4304 -0.4738  0.1893
  510MPD2    H7 7587   0.611   0.545  14.739 -0.2971 -1.3045 -1.0856
  511TMC3    C1 7588   0.711   0.436  14.950 -0.1258  0.7338  0.3117
  511TMC3    C2 7589   0.590   0.492  14.977  0.0610  0.6456 -0.1943
  511TMC3    C3 7590   0.538   0.460  15.100  0.1158 -0.5595  0.0780
  511TMC3    C4 7591   0.791   0.367  15.039 -0.6396 -0.4655  0.0301
  511TMC3    C5 7592   0.726   0.327  15.154  0.2047  0.3456  0.2544
  511TMC3    C6 7593   0.605   0.384  15.187  0.0000 -1.0651  0.0620
  511TMC3     C 7594   0.783   0.447  14.819  0.5700 -0.5189  0.1970
  511TMC3     O 7595   0.895   0.403  14.808 -0.0464 -0.6322  0.3234
  511TMC3     H 7596   0.531   0.545  14.903 -1.4451  1.7847  1.8259
  511TMC3    H1 7597   0.886   0.319  15.019  0.4680  2.3174 -1.3536
  511TMC3    H2 7598   0.571   0.375  15.290 -3.9592 -1.0113 -1.2431
  511TMC3    C7 7599   0.807   0.277  15.265 -0.1415  0.6841 -0.0443
  511TMC3    C8 7600   0.419   0.527  15.145  0.4932 -0.0495  0.0963
  511TMC3    O1 7601   0.923   0.300  15.244  0.1931 -0.4540  0.0724
  511TMC3    O2 7602   0.383   0.624  15.083 -0.0804 -0.2335 -0.4671
  512TMC3    C1 7603   3.963   4.125  13.277 -0.5231  0.1385  0.1353
  512TMC3    C2 7604   4.059   4.092  13.373  0.2629  0.2167  0.6838
  512TMC3    C3 7605   4.152   3.999  13.332  0.4707 -0.1642  0.7536
  512TMC3    C4 7606   3.954   4.070  13.154 -0.4776  0.1325 -0.7424
  512TMC3    C5 7607   4.053   3.980  13.121  0.7347 -0.4038  0.0758
  512TMC3    C6 7608   4.151   3.945  13.207  0.7884  0.2233  0.3270
  512TMC3     C 7609   3.839   4.180  13.331  0.0321 -0.5426  0.3125
  512TMC3     O 7610   3.742   4.147  13.269  0.2785  0.6846  0.2295
  512TMC3     H 7611   4.037   4.111  13.477 -1.3934  0.2061  0.3258
  512TMC3    H1 7612   3.870   4.083  13.086  0.3768  0.8930 -1.6547
  512TMC3    H2 7613   4.231   3.879  13.176  0.3932 -1.2403  2.4234
  512TMC3    C7 7614   4.033   3.911  12.996  0.1710  0.0507  0.0660
  512TMC3    C8 7615   4.271   3.975  13.404 -0.1860 -0.4293  0.0511
  512TMC3    O1 7616   3.997   3.979  12.904  0.3631  0.6517  0.0748
  512TMC3    O2 7617   4.342   3.880  13.378 -0.4300 -0.2776 -0.4417
  513MPD2     C 7618   1.004   4.138  13.582 -0.0393  0.9231 -0.0494
  513MPD2    C1 7619   1.089   4.147  13.474 -0.0599  0.4587 -0.0038
  513MPD2    C2 7620   1.214   4.207  13.486  0.2491  0.3640  0.5148
  513MPD2    C3 7621   1.253   4.262  13.606 -0.0876  0.5420  0.0115
  513MPD2    C4 7622   1.174   4.238  13.716  0.1247  0.2868 -0.0091
  513MPD2    C5 7623   1.049   4.182  13.706  0.0462  0.1789  0.9125
  513MPD2     H 7624   1.267   4.205  13.392 -0.2328 -0.2681  0.2559
  513MPD2    H1 7625   1.210   4.269  13.813 -0.1756  0.1777  0.1379
  513MPD2    H2 7626   0.905   4.094  13.580 -0.1442  1.0695  1.9041
  513MPD2    H3 7627   0.983   4.178  13.792  1.9528 -0.0011  2.3823
  513MPD2     N 7628   1.387   4.313  13.613  0.2015  0.3359 -0.0937
  513MPD2    H5 7629   1.430   4.317  13.521  1.9205 -0.8359  0.6550
  513MPD2    N1 7630   1.060   4.081  13.352 -0.7798 -0.0027 -0.3715
  513MPD2    H7 7631   1.137   4.071  13.287 -0.3107 -3.3542  0.6878
  514TMC3    C1 7632   0.959   3.978  13.185  0.2122 -0.2163 -0.0462
  514TMC3    C2 7633   0.892   4.043  13.086 -0.2180 -0.0019 -1.5363
  514TMC3    C3 7634   0.956   4.056  12.965 -0.3438 -0.1894  1.1338
  514TMC3    C4 7635   1.084   3.922  13.165  0.2958 -0.1005 -0.1166
  514TMC3    C5 7636   1.148   3.959  13.046 -0.4279  0.1677  0.3748
  514TMC3    C6 7637   1.090   4.027  12.952  0.1919  0.2583 -0.7375
  514TMC3     C 7638   0.940   4.043  13.311  0.5704 -0.6502  0.2332
  514TMC3     O 7639   0.827   4.085  13.338  0.2545  0.3328 -0.6249
  514TMC3     H 7640   0.786   4.064  13.095 -0.3703 -0.9803 -1.0534
  514TMC3    H1 7641   1.134   3.867  13.244 -0.1212  1.8421  1.5026
  514TMC3    H2 7642   1.138   4.043  12.856  0.2809 -0.6845 -0.8546
  514TMC3    C7 7643   1.288   3.993  13.074 -0.6882  0.0820 -1.0388
  514TMC3    C8 7644   0.866   4.068  12.849  0.4067 -0.4196 -0.2735
  514TMC3    O1 7645   1.320   3.980  13.193 -0.3502  0.0774 -0.3438
  514TMC3    O2 7646   0.757   4.120  12.863 -0.0523  0.3634 -0.3354
  515MPD2     C 7647   3.938   1.811  15.460 -0.3167 -0.1187 -1.2160
  515MPD2    C1 7648   3.972   1.777  15.325  0.4956 -0.2547 -0.2560
  515MPD2    C2 7649   4.069   1.842  15.253  0.8112 -0.5134 -0.0409
  515MPD2    C3 7650   4.141   1.936  15.314  0.0002 -0.7075  0.2956
  515MPD2    C4 7651   4.116   1.971  15.449  0.0917 -0.2665 -0.2728
  515MPD2    C5 7652   4.013   1.912  15.522  0.1726  0.2670  0.0420
  515MPD2     H 7653   4.072   1.818  15.147 -2.1833  0.8880 -0.4569
  515MPD2    H1 7654   4.186   2.041  15.495  1.3428 -1.6703 -0.0182
  515MPD2    H2 7655   3.858   1.768  15.520  1.2168 -0.0341  0.8913
  515MPD2    H3 7656   4.004   1.941  15.626 -0.0260  0.4239 -0.0187
  515MPD2     N 7657   4.244   2.015  15.249 -0.0316  0.4602 -0.3871
  515MPD2    H5 7658   4.300   2.066  15.316 -1.7999  1.0193  0.6640
  515MPD2    N1 7659   3.898   1.673  15.258  0.0154  0.1369 -0.0728
  515MPD2    H7 7660   3.917   1.661  15.159  1.3553 -2.0824  0.4474
  516TMC3    C1 7661   3.762   1.475  15.240 -0.6583  0.9654 -0.0519
  516TMC3    C2 7662   3.735   1.520  15.113  0.3131  0.1590 -0.7797
  516TMC3    C3 7663   3.680   1.423  15.031  0.4029 -0.1731 -0.3882
  516TMC3    C4 7664   3.735   1.349  15.286 -0.2585 -0.0639  0.6373
  516TMC3    C5 7665   3.655   1.271  15.205 -0.3511 -0.1559 -0.3964
  516TMC3    C6 7666   3.635   1.304  15.076  0.6858  0.1476 -0.8311
  516TMC3     C 7667   3.832   1.563  15.331  0.4116 -0.6963 -0.1879
  516TMC3     O 7668   3.825   1.534  15.451 -0.6798  0.0857 -0.0267
  516TMC3     H 7669   3.755   1.618  15.074 -2.0618  0.5478 -1.0177
  516TMC3    H1 7670   3.763   1.324  15.388  1.4445  0.3964  0.2741
  516TMC3    H2 7671   3.584   1.242  15.004  2.3506 -3.9509  1.5348
  516TMC3    C7 7672   3.641   1.127  15.248  0.8375 -0.2002  0.6384
  516TMC3    C8 7673   3.634   1.473  14.904 -0.1069  0.0038 -0.9963
  516TMC3    O1 7674   3.668   1.103  15.366 -0.2254 -0.3965 -0.1586
  516TMC3    O2 7675   3.530   1.534  14.906  0.2689  0.4319 -0.2639
  517MPD2     C 7676   3.461   2.765  17.694  0.3981 -0.0723  0.2466
  517MPD2    C1 7677   3.592   2.742   0.017  0.7336  0.0653 -0.1056
  517MPD2    C2 7678   3.636   2.792   0.136 -0.5440 -0.3393 -0.7173
  517MPD2    C3 7679   3.561   2.865   0.224 -0.1499 -0.3795 -0.5798
  517MPD2    C4 7680   3.434   2.882   0.185 -0.0367  0.1300 -0.1553
  517MPD2    C5 7681   3.382   2.829   0.070  0.4835  0.0271  0.6381
  517MPD2     H 7682   3.737   2.764   0.165 -0.8424 -0.1198  0.5115
  517MPD2    H1 7683   3.365   2.941   0.244 -0.3504  1.8617 -2.2529
  517MPD2    H2 7684   3.415   2.741  17.599 -0.4453  0.2186  0.5822
  517MPD2    H3 7685   3.289   2.867   0.030 -0.6736 -1.6620  1.7025
  517MPD2     N 7686   3.607   2.915   0.347 -0.1231  0.2195 -0.4098
  517MPD2    H5 7687   3.530   2.955   0.400 -1.0010 -0.0156 -1.5077
  517MPD2    N1 7688   3.679   2.668  17.638  0.2322  0.1755 -0.3588
  517MPD2    H7 7689   3.780   2.679  17.638  0.6685 -4.1804  0.3748
  518TMC3    C1 7690   3.748   2.506  17.489 -0.1342  0.1933  0.3431
  518TMC3    C2 7691   3.729   2.370  17.487 -0.5252  0.5179 -0.1590
  518TMC3    C3 7692   3.841   2.294  17.477 -0.3239 -0.2709 -0.1996
  518TMC3    C4 7693   3.869   2.562  17.469 -0.5117  0.7850 -0.6063
  518TMC3    C5 7694   3.975   2.479  17.440 -0.3287 -0.4419  0.3670
  518TMC3    C6 7695   3.960   2.347  17.441  0.4919 -0.4198 -0.4780
  518TMC3     C 7696   3.635   2.578  17.548  0.3549 -0.2521 -0.6693
  518TMC3     O 7697   3.525   2.525  17.551 -0.0673 -0.0114  0.7478
  518TMC3     H 7698   3.630   2.324  17.490 -0.4791  0.3628 -1.1450
  518TMC3    H1 7699   3.884   2.669  17.481 -1.9676  1.2420 -2.8695
  518TMC3    H2 7700   4.041   2.277  17.426  0.1363 -1.0732  0.6981
  518TMC3    C7 7701   4.088   2.535  17.359 -0.0849 -0.4351 -0.2661
  518TMC3    C8 7702   3.826   2.150  17.493 -0.5773  1.2896  0.3856
  518TMC3    O1 7703   4.089   2.653  17.325  0.2696  0.1749  0.2107
  518TMC3    O2 7704   3.902   2.070  17.445  0.3941 -0.1040 -0.5239
  519MPD2     C 7705   0.831   1.365  14.342  0.2185  0.2766 -0.2990
  519MPD2    C1 7706   0.791   1.391  14.210 -0.2347  0.4194  0.3311
  519MPD2    C2 7707   0.847   1.316  14.108  0.4962 -0.7677 -0.3566
  519MPD2    C3 7708   0.945   1.223  14.132 -0.3695 -0.4094 -0.6462
  519MPD2    C4 7709   0.986   1.203  14.263  0.2037  0.7690 -0.3438
  519MPD2    C5 7710   0.925   1.273  14.367 -0.1714 -0.0558 -0.1421
  519MPD2     H 7711   0.808   1.316  14.007  1.2652 -2.6653 -0.6406
  519MPD2    H1 7712   1.053   1.124  14.293  1.4472  2.2231  0.6883
  519MPD2    H2 7713   0.781   1.421  14.419 -0.3773 -0.5396 -0.0963
  519MPD2    H3 7714   0.956   1.254  14.469  0.6205  0.4239 -0.2925
  519MPD2     N 7715   1.002   1.146  14.033 -0.4910 -0.2623  0.4741
  519MPD2    H5 7716   1.070   1.080  14.068 -0.4719 -0.5179 -0.0522
  519MPD2    N1 7717   0.687   1.478  14.184 -0.1106  0.5670  0.2777
  519MPD2    H7 7718   0.634   1.526  14.257  1.2653  0.5482  1.2869
  520TMC3    C1 7719   1.017   1.040  13.816 -0.2879 -0.0200  0.6684
  520TMC3    C2 7720   0.941   1.013  13.699  0.1726  0.1858  0.5445
  520TMC3    C3 7721   0.956   0.888  13.641 -0.2182  0.6431 -0.5003
  520TMC3    C4 7722   1.111   0.955  13.868  1.1743  0.3062  0.4827
  520TMC3    C5 7723   1.130   0.838  13.796 -0.7073 -0.2196 -0.1866
  520TMC3    C6 7724   1.046   0.801  13.690  0.4690  0.6717 -0.2507
  520TMC3     C 7725   0.981   1.154  13.895 -0.1822 -0.5495  0.3653
  520TMC3     O 7726   0.919   1.234  13.827  0.1870  0.0846 -0.8706
  520TMC3     H 7727   0.870   1.090  13.670 -0.6955  0.3464  3.0778
  520TMC3    H1 7728   1.179   0.993  13.943  0.2997  1.3363  0.7601
  520TMC3    H2 7729   1.063   0.701  13.652 -0.3641  0.4220  0.0380
  520TMC3    C7 7730   1.232   0.748  13.840  1.0094  0.1447  0.6305
  520TMC3    C8 7731   0.836   0.820  13.625 -0.8518 -0.5848 -0.4040
  520TMC3    O1 7732   1.263   0.752  13.955  0.4844  0.0677 -0.0982
  520TMC3    O2 7733   0.836   0.719  13.553  0.0992  0.1900 -0.6716
  521MPD2     C 7734   1.438   4.253  17.066  0.0576 -0.0641  0.2987
  521MPD2    C1 7735   1.467   4.121  17.100  0.4014 -0.2598  0.0703
  521MPD2    C2 7736   1.584   4.061  17.060 -0.3037  0.4767 -0.1367
  521MPD2    C3 7737   1.668   4.124  16.973  0.1153  0.0663  1.0210
  521MPD2    C4 7738   1.627   4.247  16.924 -0.2362  0.0678  0.1697
  521MPD2    C5 7739   1.508   4.305  16.964 -0.4852 -0.3543  0.4910
  521MPD2     H 7740   1.617   3.963  17.092  3.5322  1.2964 -1.5589
  521MPD2    H1 7741   1.674   4.302  16.843  2.0982 -2.7367 -0.3577
  521MPD2    H2 7742   1.347   4.305  17.093 -1.1952 -1.6541 -0.8800
  521MPD2    H3 7743   1.460   4.397  16.934 -1.6157 -1.5164 -1.2589
  521MPD2     N 7744   1.791   4.063  16.931 -0.1267 -0.2298  0.0152
  521MPD2    H5 7745   1.809   3.967  16.960  2.5176  0.4963  0.8123
  521MPD2    N1 7746   1.360   4.064  17.179  0.4094  0.6357 -0.0968
  521MPD2    H7 7747   1.282   4.122  17.207  0.2791  0.2864  0.2663
  522TMC3    C1 7748   1.977   4.013  16.798  0.6253 -0.1089 -0.3847
  522TMC3    C2 7749   2.094   4.054  16.738  0.2414 -0.1105 -0.0844
  522TMC3    C3 7750   2.165   3.951  16.677  0.3135  0.1083  0.2422
  522TMC3    C4 7751   1.934   3.880  16.797 -0.0300  0.4249  0.1335
  522TMC3    C5 7752   2.015   3.785  16.745  0.6740  0.3917  0.7590
  522TMC3    C6 7753   2.135   3.818  16.691  0.6552  0.1093 -0.1997
  522TMC3     C 7754   1.880   4.114  16.838  1.0422  0.3721 -0.1483
  522TMC3     O 7755   1.902   4.231  16.820 -0.2336  0.3545 -0.0336
  522TMC3     H 7756   2.121   4.158  16.727  1.2492 -0.4528 -0.8668
  522TMC3    H1 7757   1.833   3.860  16.833 -0.3507 -0.0374 -1.0359
  522TMC3    H2 7758   2.192   3.734  16.655  0.9276  0.3240 -0.2685
  522TMC3    C7 7759   1.973   3.648  16.730  0.9541 -1.0262  0.4694
  522TMC3    C8 7760   2.306   3.983  16.666  0.3982 -0.7235 -0.2486
  522TMC3    O1 7761   2.036   3.579  16.651 -0.2738 -0.0853 -0.5584
  522TMC3    O2 7762   2.335   4.095  16.707  0.3663  0.3556  0.1181
  523MPD2     C 7763   4.275   2.764  10.402  0.1389  0.4532 -0.6331
  523MPD2    C1 7764   4.313   2.714  10.283 -0.1081  0.1593  0.3810
  523MPD2    C2 7765   4.265   2.776  10.165 -0.1194 -0.3078  0.6241
  523MPD2    C3 7766   4.193   2.896  10.173  0.6099  0.2889 -0.2192
  523MPD2    C4 7767   4.148   2.944  10.293 -0.5589  0.3818  0.4682
  523MPD2    C5 7768   4.185   2.875  10.413  0.3773  0.1884  0.4370
  523MPD2     H 7769   4.286   2.730  10.070 -1.9321 -0.5671  0.3357
  523MPD2    H1 7770   4.095   3.036  10.312  1.3633  1.7968 -0.9980
  523MPD2    H2 7771   4.290   2.707  10.493 -0.2075 -0.3494 -1.0734
  523MPD2    H3 7772   4.150   2.913  10.508  0.9269 -0.5039  0.9193
  523MPD2     N 7773   4.148   2.968  10.059  0.5077  0.3662  0.5490
  523MPD2    H5 7774   4.100   3.057  10.068  0.9209  0.7463 -0.9144
  523MPD2    N1 7775   4.372   2.581  10.287  0.0973 -0.0527  0.1817
  523MPD2    H7 7776   4.378   2.535  10.377 -0.6561 -0.8227 -0.1680
  524TMC3    C1 7777   4.129   3.053   9.853 -0.5286  0.2449  0.1134
  524TMC3    C2 7778   4.110   3.027   9.717 -0.1949 -0.5833  0.0159
  524TMC3    C3 7779   4.057   3.131   9.650  0.0169 -0.4202  0.1625
  524TMC3    C4 7780   4.119   3.179   9.903  0.1670 -0.4668 -0.1590
  524TMC3    C5 7781   4.071   3.284   9.828  0.6201  0.2791  0.2275
  524TMC3    C6 7782   4.033   3.256   9.700  0.1544 -0.3039 -0.1741
  524TMC3     C 7783   4.177   2.944   9.930  0.4541  0.1573 -0.4889
  524TMC3     O 7784   4.225   2.845   9.876 -0.7200 -0.1816 -0.1748
  524TMC3     H 7785   4.096   2.924   9.683 -0.0594 -0.7399  0.4335
  524TMC3    H1 7786   4.152   3.207  10.003  0.8551  1.1942 -0.8443
  524TMC3    H2 7787   4.006   3.329   9.625  0.5627  0.9316  0.8920
  524TMC3    C7 7788   4.048   3.414   9.887  0.7027 -0.1253  0.2183
  524TMC3    C8 7789   4.018   3.110   9.510 -0.3570  0.1215  0.3480
  524TMC3    O1 7790   4.074   3.417  10.006  1.0218 -0.3893 -0.0181
  524TMC3    O2 7791   3.927   3.184   9.478  0.2561  0.3530  0.4029
  525MPD2     C 7792   1.942   0.449  14.415  0.1683 -0.5143 -0.0914
  525MPD2    C1 7793   2.057   0.435  14.492 -0.3179  0.6588  0.0971
  525MPD2    C2 7794   2.153   0.537  14.490 -0.4980  0.1069 -0.4382
  525MPD2    C3 7795   2.130   0.657  14.419 -0.3641  0.7425 -0.7229
  525MPD2    C4 7796   2.010   0.669  14.346 -0.7636 -0.6439  0.0140
  525MPD2    C5 7797   1.919   0.568  14.348 -0.2757 -0.0227  0.3189
  525MPD2     H 7798   2.244   0.520  14.547 -0.9905 -0.8617  0.0788
  525MPD2    H1 7799   1.974   0.756  14.292 -2.0139  0.3525  2.4591
  525MPD2    H2 7800   1.866   0.372  14.417  0.1469 -0.4053  3.3987
  525MPD2    H3 7801   1.834   0.584  14.283 -0.3247 -1.3858  0.0425
  525MPD2     N 7802   2.215   0.765  14.426  0.6980 -0.3898  0.0515
  525MPD2    H5 7803   2.174   0.858  14.430 -0.8832 -1.1241  0.9839
  525MPD2    N1 7804   2.084   0.324  14.579 -0.0891  0.0608  0.2034
  525MPD2    H7 7805   2.180   0.328  14.611  0.3531 -1.4406 -0.9033
  526TMC3    C1 7806   2.065   0.146  14.723 -0.1504 -0.0960  0.2469
  526TMC3    C2 7807   2.028   0.014  14.723 -0.6448  0.2395  0.3631
  526TMC3    C3 7808   2.102   4.648  14.799  0.0586  0.3564  0.0831
  526TMC3    C4 7809   2.163   0.196  14.806  0.4123  0.0726 -0.6279
  526TMC3    C5 7810   2.234   0.100  14.873  0.6259  0.2043  0.0825
  526TMC3    C6 7811   2.215   4.693  14.866 -0.3808  0.6678  0.3973
  526TMC3     C 7812   1.997   0.235  14.633 -0.3700  0.0996 -0.1761
  526TMC3     O 7813   1.879   0.221  14.604 -0.0395  0.2200  0.7139
  526TMC3     H 7814   1.942   4.699  14.671 -1.1055  0.1096  1.2293
  526TMC3    H1 7815   2.185   0.302  14.814  0.2860 -0.0023  0.6833
  526TMC3    H2 7816   2.256   4.624  14.938  0.1387  3.0425  2.3872
  526TMC3    C7 7817   2.362   0.144  14.909 -0.3193 -0.0663  0.5801
  526TMC3    C8 7818   2.021   4.562  14.875 -0.2477 -0.4765  0.1392
  526TMC3    O1 7819   2.387   0.262  14.934 -0.6001  0.7638 -0.0891
  526TMC3    O2 7820   1.962   4.466  14.826 -0.3005 -0.6278  0.6079
  527MPD2     C 7821   4.398   3.000   0.998 -0.1881  0.2392 -0.6259
  527MPD2    C1 7822   4.469   2.994   1.112  0.2436  0.2479 -0.4994
  527MPD2    C2 7823   4.603   2.966   1.104  0.9928 -0.7415 -0.1111
  527MPD2    C3 7824   4.664   2.936   0.987 -0.4082 -0.0557  0.0820
  527MPD2    C4 7825   4.596   2.939   0.871  0.2456  0.6073 -0.1538
  527MPD2    C5 7826   4.462   2.971   0.874 -0.4299  0.3880 -0.1446
  527MPD2     H 7827   4.651   2.951   1.200  1.3659 -1.2636 -0.3773
  527MPD2    H1 7828   4.635   2.888   0.784 -0.1598  0.1775 -0.0862
  527MPD2    H2 7829   4.294   3.029   0.986 -0.3102  0.0953  0.1085
  527MPD2    H3 7830   4.397   2.977   0.787 -0.3497 -1.3897 -0.3097
  527MPD2     N 7831   0.071   2.881   0.999 -0.3464  1.0207  0.3954
  527MPD2    H5 7832   0.113   2.883   1.092 -1.3109  0.5224  0.8469
  527MPD2    N1 7833   4.420   3.002   1.239  0.0776 -1.6640 -0.5369
  527MPD2    H7 7834   4.489   2.989   1.313  0.1385  1.0856 -0.1427
  528TMC3    C1 7835   4.280   3.025   1.418 -0.5010  0.2737  0.2944
  528TMC3    C2 7836   4.383   2.977   1.494 -0.2000 -0.0530 -0.3465
  528TMC3    C3 7837   4.379   3.007   1.626  0.1116 -0.1051  0.1006
  528TMC3    C4 7838   4.170   3.081   1.470  0.0329 -0.7469 -0.2051
  528TMC3    C5 7839   4.170   3.098   1.603 -0.6968  0.2560  0.2324
  528TMC3    C6 7840   4.271   3.061   1.688 -1.2234 -0.5963  0.7258
  528TMC3     C 7841   4.294   3.033   1.276 -0.1608 -0.4018 -0.3284
  528TMC3     O 7842   4.203   3.082   1.209 -0.4935  0.7353  0.0248
  528TMC3     H 7843   4.460   2.910   1.459 -0.8739 -0.6011 -0.7950
  528TMC3    H1 7844   4.097   3.124   1.403 -1.2486 -3.8673 -0.8138
  528TMC3    H2 7845   4.273   3.112   1.783 -0.8313 -1.1189  1.0013
  528TMC3    C7 7846   4.038   3.134   1.652 -0.0310 -0.7315 -0.1233
  528TMC3    C8 7847   4.507   2.986   1.700 -1.0936 -0.2971  0.3427
  528TMC3    O1 7848   3.955   3.162   1.568  0.2495 -0.5976  0.2908
  528TMC3    O2 7849   4.606   2.994   1.629  0.3244 -0.0998 -0.2885
  529MPD2     C 7850   2.516   2.338   0.714 -0.3311  0.1442 -0.2789
  529MPD2    C1 7851   2.500   2.217   0.658  0.3529 -0.2888 -0.4044
  529MPD2    C2 7852   2.448   2.211   0.527 -0.2339 -0.1040 -0.2603
  529MPD2    C3 7853   2.430   2.326   0.450 -0.0039 -0.0953  0.2044
  529MPD2    C4 7854   2.451   2.450   0.510  0.8157 -0.4530 -0.0689
  529MPD2    C5 7855   2.502   2.449   0.633 -0.2634  0.1813  0.5755
  529MPD2     H 7856   2.435   2.115   0.478 -2.5715  0.7046 -1.2141
  529MPD2    H1 7857   2.434   2.536   0.447  0.0902 -0.5794 -0.0389
  529MPD2    H2 7858   2.540   2.357   0.818  2.5303 -1.9137 -0.5867
  529MPD2    H3 7859   2.518   2.551   0.666  1.2984  0.3462 -0.6832
  529MPD2     N 7860   2.374   2.325   0.317 -0.6293 -0.0390 -1.0985
  529MPD2    H5 7861   2.370   2.413   0.265 -0.5095  1.2396  1.0777
  529MPD2    N1 7862   2.529   2.092   0.717  0.0430  0.2140  0.5127
  529MPD2    H7 7863   2.499   2.013   0.661 -1.8939  0.8504  0.6779
  530TMC3    C1 7864   2.632   1.932   0.861 -0.0752  0.8615  0.9069
  530TMC3    C2 7865   2.701   1.911   0.981  1.0535 -0.1807 -0.0658
  530TMC3    C3 7866   2.711   1.778   1.019  0.3552 -0.3929 -0.3940
  530TMC3    C4 7867   2.591   1.834   0.770  0.4387  1.3076 -0.4106
  530TMC3    C5 7868   2.597   1.700   0.816  0.1285  0.0863 -0.2406
  530TMC3    C6 7869   2.664   1.674   0.937  0.2070 -0.2521 -0.2414
  530TMC3     C 7870   2.604   2.072   0.832 -0.3520 -0.0600 -0.5663
  530TMC3     O 7871   2.659   2.156   0.905 -0.2301 -0.3826  0.6191
  530TMC3     H 7872   2.733   1.993   1.043  1.5039 -0.6559  0.3202
  530TMC3    H1 7873   2.556   1.851   0.669  2.2119 -0.2996 -1.3042
  530TMC3    H2 7874   2.688   1.575   0.975  0.3827  0.1097  0.5930
  530TMC3    C7 7875   2.540   1.594   0.737 -0.2480 -0.2079 -1.0170
  530TMC3    C8 7876   2.814   1.750   1.125  0.0846 -0.2087  0.0827
  530TMC3    O1 7877   2.558   1.600   0.616 -0.5582  0.3504  0.4593
  530TMC3    O2 7878   2.843   1.848   1.194  0.3103  1.0263  0.4930
  531MPD2     C 7879   1.751   4.191  13.018 -0.3330  0.0407 -0.9821
  531MPD2    C1 7880   1.664   4.197  13.128  0.2507 -0.7815  0.3969
  531MPD2    C2 7881   1.529   4.152  13.113 -0.3642 -0.1193 -0.1144
  531MPD2    C3 7882   1.490   4.107  12.986  0.3538 -0.6119 -0.2143
  531MPD2    C4 7883   1.575   4.114  12.873  0.8702  0.3591 -0.1302
  531MPD2    C5 7884   1.706   4.158  12.892  0.0954 -0.0244  0.0675
  531MPD2     H 7885   1.464   4.140  13.199  0.4151  1.5410  0.7221
  531MPD2    H1 7886   1.543   4.084  12.774 -0.9736  1.3160  0.1683
  531MPD2    H2 7887   1.854   4.223  13.016  0.4551 -2.2572  2.3451
  531MPD2    H3 7888   1.766   4.170  12.802 -0.3639  2.1305  0.0553
  531MPD2     N 7889   1.358   4.047  12.965 -0.2528 -0.0124  0.8048
  531MPD2    H5 7890   1.326   4.031  12.870 -2.8943  2.5485  1.2949
  531MPD2    N1 7891   1.714   4.248  13.256  0.6197  0.3196  0.6258
  531MPD2    H7 7892   1.812   4.271  13.272  1.1551 -1.9642  0.6822
  532TMC3    C1 7893   1.703   4.327  13.476 -0.2533  0.8197  0.6340
  532TMC3    C2 7894   1.611   4.398  13.545  0.8107  0.0532  0.1922
  532TMC3    C3 7895   1.600   4.372  13.680 -0.5589 -0.3945 -0.0806
  532TMC3    C4 7896   1.796   4.248  13.530 -0.6284 -0.3221  0.3662
  532TMC3    C5 7897   1.800   4.245  13.670  0.2544 -0.5671  0.2330
  532TMC3    C6 7898   1.703   4.307  13.744 -0.0922  0.4277  0.1279
  532TMC3     C 7899   1.640   4.277  13.362  0.2397 -0.5458  0.0135
  532TMC3     O 7900   1.521   4.275  13.367 -0.4398 -0.1000 -0.2039
  532TMC3     H 7901   1.546   4.468  13.494  1.9069  1.0695  0.1729
  532TMC3    H1 7902   1.879   4.208  13.473 -2.0524  1.0917 -2.6893
  532TMC3    H2 7903   1.698   4.290  13.851  1.1930  1.9091  0.4243
  532TMC3    C7 7904   1.908   4.196  13.745 -0.1666  0.1279  0.0749
  532TMC3    C8 7905   1.466   4.335  13.724 -0.3703 -0.1230 -0.6090
  532TMC3    O1 7906   1.934   4.257  13.848 -0.2114  0.7604  0.4825
  532TMC3    O2 7907   1.452   4.301  13.840  0.3725 -0.4652  0.1333
  533TMC3    C1 7908   2.377   0.885  14.549 -0.2920  0.1575  0.0237
  533TMC3    C2 7909   2.513   0.913  14.578  0.0951  0.2292  0.4787
  533TMC3    C3 7910   2.538   0.999  14.691 -0.3990  0.0629 -0.4059
  533TMC3    C4 7911   2.275   0.937  14.624 -0.0371  1.2729  0.0210
  533TMC3    C5 7912   2.305   0.999  14.734  0.3899  0.7643 -0.1610
  533TMC3    C6 7913   2.433   1.033  14.766 -1.1666  0.1454  0.0490
  533TMC3     C 7914   2.343   0.761  14.473  0.3889  0.0670 -0.2519
  533TMC3     O 7915   2.422   0.669  14.473 -0.1578  0.0472 -0.0343
  533TMC3     H 7916   2.592   0.878  14.513 -1.6916 -2.1195 -0.4411
  533TMC3    H1 7917   2.168   0.919  14.616 -0.3824  3.5450 -0.6053
  533TMC3    H2 7918   2.445   1.093  14.856  2.7879 -1.2398  0.4392
  533TMC3    C7 7919   2.232   0.944  14.841  0.0205 -0.0867 -0.1721
  533TMC3    C8 7920   2.654   1.092  14.688  0.9899  0.0930 -0.5044
  533TMC3    O1 7921   2.211   0.825  14.836 -0.1397  0.1274  0.4861
  533TMC3    O2 7922   2.647   1.181  14.768  0.2092  0.2902  0.4891
  534MPD2     C 7923   4.665   1.958   1.884 -0.0030 -0.0406  0.3579
  534MPD2    C1 7924   4.650   2.045   1.781  0.2185  0.5424 -0.0006
  534MPD2    C2 7925   4.583   1.996   1.670  0.2996  0.0143  0.6077
  534MPD2    C3 7926   4.543   1.865   1.659  0.4733 -0.5064 -0.2051
  534MPD2    C4 7927   4.559   1.785   1.772 -0.0193 -0.2686  0.4931
  534MPD2    C5 7928   4.629   1.826   1.879 -0.1975  0.0293 -0.5369
  534MPD2     H 7929   4.568   2.073   1.595 -0.2746  1.6225  2.3747
  534MPD2    H1 7930   4.530   1.680   1.767  1.5704 -0.7808  2.0879
  534MPD2    H2 7931   4.697   1.989   1.983 -0.6883 -0.1862  0.6259
  534MPD2    H3 7932   4.639   1.760   1.964  3.3906  0.6147 -0.5079
  534MPD2     N 7933   4.476   1.805   1.549  0.0527  0.2141 -0.1733
  534MPD2    H5 7934   4.421   1.721   1.560  1.4521 -0.7234 -0.4831
  534MPD2    N1 7935   4.679   2.182   1.784 -0.1459  0.9090 -0.6163
  534MPD2    H7 7936   4.670   2.231   1.695 -0.9682  2.3797  0.2735
  535TMC3    C1 7937   4.374   1.800   1.330  0.0643 -0.5535 -0.5172
  535TMC3    C2 7938   4.262   1.721   1.364 -0.4794  0.2137  0.1592
  535TMC3    C3 7939   4.155   1.722   1.273  0.7136  0.3966  0.8556
  535TMC3    C4 7940   4.369   1.867   1.209 -0.1054  0.2032  0.3482
  535TMC3    C5 7941   4.265   1.855   1.120 -0.2300  0.2440 -0.2254
  535TMC3    C6 7942   4.154   1.785   1.154  0.2374  0.1287  0.6064
  535TMC3     C 7943   4.459   1.868   1.429  0.5875  0.6147 -1.1991
  535TMC3     O 7944   4.520   1.959   1.382 -0.5508 -0.4604  0.1528
  535TMC3     H 7945   4.258   1.659   1.453 -0.6977 -0.0287 -0.0177
  535TMC3    H1 7946   4.454   1.923   1.171 -0.7083  2.0765  1.7401
  535TMC3    H2 7947   4.070   1.775   1.085 -0.8330 -0.5220  1.9862
  535TMC3    C7 7948   4.283   1.908   0.983  0.3177 -0.4679  0.6465
  535TMC3    C8 7949   4.039   1.639   1.303  0.4066  0.1624  0.0920
  535TMC3    O1 7950   4.394   1.933   0.944  0.3110  1.0506  0.1893
  535TMC3    O2 7951   3.945   1.650   1.227 -0.7481  0.0181  0.3623
  536MPD2     C 7952   3.613   0.028  16.661 -0.3413 -0.6400 -0.0686
  536MPD2    C1 7953   3.484   4.722  16.697  0.7926  0.2289  0.6165
  536MPD2    C2 7954   3.386   0.024  16.600 -0.4256 -0.0491 -0.6892
  536MPD2    C3 7955   3.416   0.066  16.474 -0.2916 -0.1264  0.1254
  536MPD2    C4 7956   3.548   0.086  16.439 -0.2072  0.8173  0.0056
  536MPD2    C5 7957   3.645   0.067  16.536 -0.1961 -0.9802 -0.9256
  536MPD2     H 7958   3.281   0.009  16.622  0.0434 -1.8287  0.3297
  536MPD2    H1 7959   3.584   0.095  16.338  1.8595 -2.0348  0.4715
  536MPD2    H2 7960   3.698   0.006  16.725 -0.5883  2.6597  1.3944
  536MPD2    H3 7961   3.750   0.083  16.514  0.2194 -0.7705  1.1763
  536MPD2     N 7962   3.333   0.072  16.361 -0.2895  0.1108 -0.3999
  536MPD2    H5 7963   3.384   0.107  16.280  0.5846 -1.6647 -0.6299
  536MPD2    N1 7964   3.462   4.685  16.832  0.5560  0.1485 -0.6076
  536MPD2    H7 7965   3.547   4.693  16.887  0.2475  1.9449 -0.4036
  537TMC3    C1 7966   3.360   4.623  17.036 -0.2938  0.1011 -0.4810
  537TMC3    C2 7967   3.453   4.704  17.093 -0.6804 -0.2474 -0.6720
  537TMC3    C3 7968   3.467   4.690  17.228  0.6326 -0.0764 -0.3741
  537TMC3    C4 7969   3.294   4.519  17.097  0.5042  0.6039  0.2657
  537TMC3    C5 7970   3.305   4.511  17.233 -0.2623  0.6025  1.1374
  537TMC3    C6 7971   3.395   4.596  17.300  0.4335 -0.4161  0.3535
  537TMC3     C 7972   3.356   4.631  16.890 -0.2635  0.2214  0.4854
  537TMC3     O 7973   3.262   4.578  16.836  0.3962 -0.5411  0.1662
  537TMC3     H 7974   3.501   0.061  17.043 -1.0799  0.4939  0.1711
  537TMC3    H1 7975   3.222   4.460  17.041 -0.6021  1.6366  0.5815
  537TMC3    H2 7976   3.413   4.600  17.406  3.5698  0.5484 -0.2069
  537TMC3    C7 7977   3.200   4.452  17.317  0.2345 -0.2537  0.6364
  537TMC3    C8 7978   3.546   0.054  17.304  0.1127 -0.3866  0.4909
  537TMC3    O1 7979   3.196   4.498  17.432 -0.2835 -0.3298  1.1061
  537TMC3    O2 7980   3.586   0.012  17.410 -0.0170 -0.0762 -0.0228
  538TMC3    C1 7981   4.441   2.691  10.917 -0.9118  0.4922  0.3757
  538TMC3    C2 7982   4.430   2.605  10.810  0.0778 -0.3472  0.6623
  538TMC3    C3 7983   4.491   2.635  10.695 -0.5520  0.5690  1.1228
  538TMC3    C4 7984   4.494   2.814  10.909 -0.2762 -0.4198 -0.2187
  538TMC3    C5 7985   4.543   2.852  10.785 -0.6440 -0.6739  0.0765
  538TMC3    C6 7986   4.537   2.761  10.674  0.6362  0.1276  0.4133
  538TMC3     C 7987   4.397   2.632  11.044 -0.0198 -0.0407  0.1182
  538TMC3     O 7988   4.321   2.537  11.044  1.2594  0.4717  0.3238
  538TMC3     H 7989   4.387   2.505  10.818  1.4083 -0.9233  0.6157
  538TMC3    H1 7990   4.490   2.879  10.996  1.5112 -3.1093  1.8955
  538TMC3    H2 7991   4.575   2.790  10.577  3.9025  1.3933  2.0693
  538TMC3    C7 7992   4.497   2.987  10.761 -0.1595 -0.8146 -0.0604
  538TMC3    C8 7993   4.524   2.529  10.605 -0.4946 -0.3115  0.0136
  538TMC3    O1 7994   4.473   3.058  10.858  0.4837 -0.1934 -0.1212
  538TMC3    O2 7995   4.444   2.436  10.589 -0.0121 -0.2203 -0.3871
  539MPD2     C 7996   4.078   2.141  12.007  0.0513  0.8825 -0.0027
  539MPD2    C1 7997   4.089   2.173  11.871 -0.3689  0.5898 -0.5888
  539MPD2    C2 7998   4.081   2.309  11.836 -0.5228  0.1846 -0.4780
  539MPD2    C3 7999   4.060   2.413  11.931 -0.1122 -0.1634 -0.3776
  539MPD2    C4 8000   4.058   2.376  12.061 -0.9709 -0.4854  0.1275
  539MPD2    C5 8001   4.073   2.248  12.095  0.3753  0.4732 -0.0186
  539MPD2     H 8002   4.088   2.327  11.729  0.2102  0.4654 -0.3784
  539MPD2    H1 8003   4.049   2.451  12.138  1.4148  0.2523 -0.2995
  539MPD2    H2 8004   4.087   2.041  12.048  0.5000  1.4390  1.2683
  539MPD2    H3 8005   4.061   2.220  12.200  0.5994  2.7750  0.6101
  539MPD2     N 8006   4.042   2.547  11.899  0.3469  0.1190 -0.2288
  539MPD2    H5 8007   4.038   2.615  11.975 -0.2480 -0.6957  0.4631
  539MPD2    N1 8008   4.100   2.076  11.768 -0.0032 -0.3019  0.0853
  539MPD2    H7 8009   4.121   2.116  11.677 -2.6441 -1.4799 -1.0499
  540TMC3    C1 8010   3.979   2.729  11.769  0.4239  0.0570 -0.2371
  540TMC3    C2 8011   3.983   2.783  11.642 -0.1234 -0.1713  0.5101
  540TMC3    C3 8012   3.954   2.916  11.627 -0.3163 -0.7269 -0.0832
  540TMC3    C4 8013   3.926   2.796  11.873  0.0910  0.0637 -0.2206
  540TMC3    C5 8014   3.905   2.931  11.851  0.5306 -0.2992  0.1203
  540TMC3    C6 8015   3.925   2.996  11.733 -0.7295  0.2005  0.1192
  540TMC3     C 8016   4.010   2.589  11.776 -0.2299 -0.2060  0.7053
  540TMC3     O 8017   4.005   2.528  11.671  0.1905  0.1019 -0.0979
  540TMC3     H 8018   4.010   2.722  11.557 -0.4830  0.3589  0.0121
  540TMC3    H1 8019   3.892   2.740  11.960 -0.4831 -1.8363 -1.6794
  540TMC3    H2 8020   3.913   3.103  11.733 -0.8380  0.1889  1.8391
  540TMC3    C7 8021   3.825   2.999  11.958  0.2481  0.2758 -0.2375
  540TMC3    C8 8022   4.009   2.985  11.512  0.5931  0.1856 -0.4498
  540TMC3    O1 8023   3.746   3.087  11.934 -0.4354  0.1286  0.5755
  540TMC3    O2 8024   4.053   3.101  11.520  0.5030  0.4089 -0.4545
  541MPD2     C 8025   2.885   4.463  13.616  0.2013 -0.3636 -0.1450
  541MPD2    C1 8026   2.848   4.357  13.537  0.1457  0.1275 -0.3300
  541MPD2    C2 8027   2.819   4.379  13.405  0.2366  0.2555 -0.0004
  541MPD2    C3 8028   2.826   4.508  13.346 -0.3132 -0.3177  0.0746
  541MPD2    C4 8029   2.856   4.613  13.435 -0.2647  0.0626 -0.2671
  541MPD2    C5 8030   2.887   4.595  13.570 -0.2226 -0.0136  0.3153
  541MPD2     H 8031   2.802   4.291  13.344 -1.7896  1.1584 -0.7693
  541MPD2    H1 8032   2.856   4.715  13.397  0.0648  0.3109  0.4051
  541MPD2    H2 8033   2.912   4.440  13.719 -1.1272 -1.9441 -0.1417
  541MPD2    H3 8034   2.929   4.670  13.637 -0.0778  1.4856 -1.4514
  541MPD2     N 8035   2.804   4.541  13.211 -0.5701  0.4837  0.1676
  541MPD2    H5 8036   2.800   4.640  13.186 -0.0285  1.4439  3.9703
  541MPD2    N1 8037   2.840   4.221  13.582 -0.9653  0.1943  0.1682
  541MPD2    H7 8038   2.823   4.150  13.512  0.0829 -1.1485  1.2520
  542TMC3    C1 8039   2.798   4.513  12.973 -0.2488  0.7804 -0.5330
  542TMC3    C2 8040   2.779   4.424  12.871  0.0794 -0.0438 -0.4883
  542TMC3    C3 8041   2.775   4.477  12.739  0.5700  0.1341  0.2093
  542TMC3    C4 8042   2.789   4.649  12.954 -0.4944 -0.5681  0.1976
  542TMC3    C5 8043   2.777   4.690  12.823 -0.3612  0.9406 -0.1615
  542TMC3    C6 8044   2.766   4.609  12.715 -0.7357 -0.3489  1.2168
  542TMC3     C 8045   2.806   4.449  13.105 -0.2120  0.3334  0.1688
  542TMC3     O 8046   2.806   4.327  13.116  0.2555  0.3219  0.2790
  542TMC3     H 8047   2.783   4.317  12.886  0.9312 -0.0708 -0.9072
  542TMC3    H1 8048   2.799   4.716  13.038  1.8793  1.4901 -1.7317
  542TMC3    H2 8049   2.736   4.650  12.620 -1.3067 -1.3359  0.9735
  542TMC3    C7 8050   2.804   0.104  12.801  0.5293  0.1520  0.3309
  542TMC3    C8 8051   2.784   4.401  12.619 -0.4929  0.0491  0.0665
  542TMC3    O1 8052   2.883   0.162  12.877 -0.1448 -0.1584 -0.1081
  542TMC3    O2 8053   2.801   4.456  12.517 -0.2977  0.0152 -0.2550
  543TMC3    C1 8054   2.102   0.827  16.883  0.4036  0.3405  0.0853
  543TMC3    C2 8055   2.090   0.695  16.910 -0.3159  0.0756 -0.0444
  543TMC3    C3 8056   2.034   0.663  17.033 -0.1873 -0.3248 -0.0636
  543TMC3    C4 8057   2.065   0.927  16.964  0.5985  0.3752 -0.2908
  543TMC3    C5 8058   2.025   0.892  17.090  0.0129 -0.3727  0.1147
  543TMC3    C6 8059   2.011   0.757  17.130 -0.3091  0.3180 -0.2494
  543TMC3     C 8060   2.157   0.852  16.753 -0.0301  0.5034 -0.2537
  543TMC3     O 8061   2.239   0.775  16.706 -0.1624 -0.2155 -0.5328
  543TMC3     H 8062   2.110   0.621  16.832  0.3767  0.2437 -0.0188
  543TMC3    H1 8063   2.068   1.029  16.925  1.5401  0.7710  0.8298
  543TMC3    H2 8064   1.974   0.737  17.230  3.5721 -1.8870  0.7359
  543TMC3    C7 8065   1.992   0.987  17.191 -0.5571 -0.1796  0.2818
  543TMC3    C8 8066   1.971   0.536  17.051 -0.0476 -0.2825  0.0411
  543TMC3    O1 8067   1.980   0.949  17.307 -0.5940  0.1292 -0.0128
  543TMC3    O2 8068   2.024   0.457  16.978 -0.8768 -0.6633  0.5046
  544MPD2     C 8069   1.698   0.168  17.283 -0.0575 -0.0735 -0.4475
  544MPD2    C1 8070   1.789   0.158  17.181 -0.3192  0.4796 -0.0388
  544MPD2    C2 8071   1.858   0.269  17.139 -0.5227  0.6165 -0.7427
  544MPD2    C3 8072   1.821   0.395  17.184 -0.2228  0.0582 -0.3638
  544MPD2    C4 8073   1.715   0.402  17.283 -0.1634  0.6952 -0.3256
  544MPD2    C5 8074   1.658   0.286  17.326  0.1998  0.5403  0.0164
  544MPD2     H 8075   1.953   0.263  17.088 -0.5741  0.5754 -0.8341
  544MPD2    H1 8076   1.674   0.495  17.319 -1.7458 -0.5059  0.9453
  544MPD2    H2 8077   1.648   0.078  17.317 -0.3259  0.4927  0.6502
  544MPD2    H3 8078   1.574   0.298  17.394  0.7488 -2.5938  1.2568
  544MPD2     N 8079   1.880   0.524  17.154  0.2414  0.4678 -0.1951
  544MPD2    H5 8080   1.844   0.607  17.200 -0.0361 -0.0611  0.5508
  544MPD2    N1 8081   1.826   0.027  17.142 -0.2472 -0.2082 -0.1866
  544MPD2    H7 8082   1.799   4.675  17.201  3.1484 -1.6775 -0.6442
  545TMC3    C1 8083   1.931   4.586  17.020  0.2704 -0.6022  0.2028
  545TMC3    C2 8084   2.051   4.547  16.960 -0.0354  0.0655 -0.0504
  545TMC3    C3 8085   2.100   4.424  16.991 -0.8131 -0.2734 -0.0293
  545TMC3    C4 8086   1.863   4.505  17.111  0.2078 -0.3397 -0.2293
  545TMC3    C5 8087   1.914   4.385  17.141  0.6625 -0.0929 -0.3262
  545TMC3    C6 8088   2.035   4.345  17.085 -0.6746 -0.1402 -1.2325
  545TMC3     C 8089   1.910   0.003  17.037  0.6251  0.1494 -0.0210
  545TMC3     O 8090   1.941   0.079  16.948 -0.2082  0.1938 -0.0799
  545TMC3     H 8091   2.100   4.618  16.894 -1.2977  0.6599 -0.3514
  545TMC3    H1 8092   1.768   4.532  17.156 -1.2181 -3.7939 -1.1471
  545TMC3    H2 8093   2.076   4.246  17.097 -2.1532 -0.9780 -3.0763
  545TMC3    C7 8094   1.851   4.295  17.230  0.6791 -0.2298  0.9887
  545TMC3    C8 8095   2.227   4.387  16.935  0.2258 -0.0242  0.3681
  545TMC3    O1 8096   1.743   4.329  17.277 -0.8664 -0.3379 -0.2314
  545TMC3    O2 8097   2.259   4.461  16.844  0.0660  0.5353 -0.1457
  546MPD2     C 8098   3.469   0.967  16.774  0.0804  0.0001  0.1010
  546MPD2    C1 8099   3.420   0.958  16.902 -0.5364  0.2835  0.9730
  546MPD2    C2 8100   3.486   1.022  17.006  0.0442  0.3638  0.0714
  546MPD2    C3 8101   3.603   1.089  16.981 -0.2650 -0.7900 -0.0667
  546MPD2    C4 8102   3.660   1.083  16.854 -1.1174  0.2960 -0.4485
  546MPD2    C5 8103   3.594   1.019  16.751 -0.2090  0.3352  0.4314
  546MPD2     H 8104   3.438   1.029  17.103  1.4901 -0.1832  0.8353
  546MPD2    H1 8105   3.763   1.109  16.832 -1.0205  1.4036  1.3262
  546MPD2    H2 8106   3.415   0.931  16.687  1.3285 -1.9698  0.1243
  546MPD2    H3 8107   3.630   1.005  16.650 -0.8752 -1.4155  0.4191
  546MPD2     N 8108   3.665   1.173  17.072 -0.3404  0.0067 -0.3660
  546MPD2    H5 8109   3.758   1.209  17.053 -1.4950  2.6985 -0.9154
  546MPD2    N1 8110   3.299   0.887  16.920 -0.3077  0.3241 -0.1392
  546MPD2    H7 8111   3.269   0.842  16.834 -0.0043 -3.8481  1.9925
  547TMC3    C1 8112   3.121   0.752  17.007  0.1639  0.1879 -0.2300
  547TMC3    C2 8113   3.047   0.764  16.897  0.1152  0.3730  0.3535
  547TMC3    C3 8114   2.977   0.657  16.853 -0.0054  0.4678 -0.4568
  547TMC3    C4 8115   3.095   0.661  17.098  0.4269 -0.6827 -0.1217
  547TMC3    C5 8116   2.998   0.570  17.062  0.2697 -0.0015 -0.0800
  547TMC3    C6 8117   2.944   0.556  16.940  0.0828  0.1615 -0.0312
  547TMC3     C 8118   3.239   0.838  17.033 -0.1401 -0.1854 -0.0608
  547TMC3     O 8119   3.262   0.866  17.152 -0.1567 -0.2096  0.0586
  547TMC3     H 8120   3.065   0.841  16.823  1.2467  1.3754  1.6854
  547TMC3    H1 8121   3.137   0.669  17.198  0.5013  3.0332 -0.4429
  547TMC3    H2 8122   2.866   0.487  16.909  2.7049 -1.2786 -3.3613
  547TMC3    C7 8123   3.005   0.439  17.124  0.4959  0.5373  0.0663
  547TMC3    C8 8124   2.915   0.658  16.726 -0.0490 -0.5184 -0.0546
  547TMC3    O1 8125   2.921   0.360  17.091  0.7265  0.0812  0.0712
  547TMC3    O2 8126   2.873   0.769  16.693  0.6240 -0.5931  0.0870
  548MPD2     C 8127   3.443   1.441  12.405 -0.8918 -0.5527 -1.0017
  548MPD2    C1 8128   3.402   1.318  12.445 -0.1150  0.1020  0.1261
  548MPD2    C2 8129   3.482   1.211  12.409  0.1097 -0.3547 -0.5589
  548MPD2    C3 8130   3.600   1.226  12.344 -0.2475 -0.3705  0.7690
  548MPD2    C4 8131   3.626   1.353  12.284 -0.1133 -0.3731  0.3255
  548MPD2    C5 8132   3.544   1.460  12.323 -0.0180  0.2439 -0.0337
  548MPD2     H 8133   3.454   1.109  12.429 -1.6837  0.3063  0.3018
  548MPD2    H1 8134   3.712   1.373  12.221  0.3383 -1.0650  0.7288
  548MPD2    H2 8135   3.397   1.534  12.438 -2.2300 -0.9740 -1.6471
  548MPD2    H3 8136   3.565   1.558  12.284  0.7995 -0.6336 -1.8101
  548MPD2     N 8137   3.673   1.113  12.320  0.7282 -0.6073  0.0543
  548MPD2    H5 8138   3.660   1.040  12.389 -1.7462  0.5041  0.7719
  548MPD2    N1 8139   3.278   1.312  12.512  0.2153 -0.3128  0.1545
  548MPD2    H7 8140   3.232   1.397  12.542 -1.4719  0.0542 -3.3981
  549TMC3    C1 8141   3.114   1.201  12.639 -0.1925 -0.2587  0.2953
  549TMC3    C2 8142   3.033   1.303  12.631 -0.1096 -0.3105  0.3588
  549TMC3    C3 8143   2.927   1.299  12.716  0.7566 -0.4400  0.5676
  549TMC3    C4 8144   3.100   1.098  12.729 -0.3263  0.3162 -0.4575
  549TMC3    C5 8145   2.992   1.103  12.812  0.1385  0.4036 -0.7768
  549TMC3    C6 8146   2.899   1.200  12.803  0.1978 -0.1552 -0.7734
  549TMC3     C 8147   3.223   1.194  12.544  0.6505  0.4026 -0.8074
  549TMC3     O 8148   3.250   1.078  12.517 -0.5950 -0.4490  0.1652
  549TMC3     H 8149   3.042   1.372  12.548  2.9320  0.3172  1.1971
  549TMC3    H1 8150   3.167   1.013  12.722  1.0167  1.1738  1.7838
  549TMC3    H2 8151   2.814   1.205  12.870  1.3770 -0.4165  0.7362
  549TMC3    C7 8152   2.946   0.989  12.893  0.1881  0.1260  0.1590
  549TMC3    C8 8153   2.818   1.391  12.680  0.8835  0.1315  0.5397
  549TMC3    O1 8154   2.857   1.006  12.978 -0.3003  0.2161 -0.2932
  549TMC3    O2 8155   2.706   1.345  12.700 -0.7844  0.1733 -0.1084
  550TMC3    C1 8156   2.130   3.796  12.660 -0.6609 -0.1216  0.6648
  550TMC3    C2 8157   2.107   3.894  12.752  0.4250 -0.6248  0.2470
  550TMC3    C3 8158   2.027   3.996  12.717  0.0114  0.0670 -0.5949
  550TMC3    C4 8159   2.054   3.778  12.552 -0.0071  0.4146 -0.6133
  550TMC3    C5 8160   1.959   3.871  12.532 -0.3653  0.3274 -0.3204
  550TMC3    C6 8161   1.951   3.981  12.609  0.1152 -0.3645 -0.3324
  550TMC3     C 8162   2.246   3.709  12.678 -0.3235  0.6633  0.3322
  550TMC3     O 8163   2.284   3.671  12.787 -0.1981 -0.0744  0.9124
  550TMC3     H 8164   2.172   3.900  12.839  0.8477  1.3913 -0.2185
  550TMC3    H1 8165   2.044   3.681  12.504 -0.3055 -0.9393  2.1826
  550TMC3    H2 8166   1.878   4.056  12.583  0.9809  0.9951  1.0734
  550TMC3    C7 8167   1.878   3.870  12.412 -0.1654  0.0690  0.0080
  550TMC3    C8 8168   2.050   4.124  12.787  0.1208 -0.4509 -0.6668
  550TMC3    O1 8169   1.792   3.957  12.401  0.5064  0.2423  0.1409
  550TMC3    O2 8170   2.109   4.114  12.891  0.4893 -0.3934 -0.0568
  551TMC3    C1 8171   4.379   1.837  13.330  0.5186  0.2068 -0.0185
  551TMC3    C2 8172   4.455   1.912  13.246  0.1621 -0.5461  0.4280
  551TMC3    C3 8173   4.523   2.018  13.291 -0.3005 -0.2384 -0.3112
  551TMC3    C4 8174   4.349   1.876  13.452  0.5479 -0.0267 -0.1668
  551TMC3    C5 8175   4.425   1.979  13.500 -0.6158  0.2295 -0.2439
  551TMC3    C6 8176   4.511   2.059  13.422 -0.9321  0.2093  0.2813
  551TMC3     C 8177   4.290   1.733  13.269 -0.5578  0.2760  0.7118
  551TMC3     O 8178   4.323   1.693  13.161  0.5617  0.2366  0.2903
  551TMC3     H 8179   4.459   1.888  13.140  4.1941  1.3919  0.1029
  551TMC3    H1 8180   4.306   1.806  13.522 -0.8632  0.1871 -0.8321
  551TMC3    H2 8181   4.568   2.147  13.451 -0.9922 -0.1872  1.6112
  551TMC3    C7 8182   4.410   2.025  13.642  0.1859 -0.1708 -0.2557
  551TMC3    C8 8183   4.588   2.108  13.203 -0.2823 -0.0766 -0.4777
  551TMC3    O1 8184   4.514   2.037  13.708 -0.5845  0.0340 -0.5102
  551TMC3    O2 8185   4.577   2.228  13.222  0.0801  0.9244  0.0790
  552MPD2     C 8186   1.472   3.975  14.179  0.7255  0.2566  0.0118
  552MPD2    C1 8187   1.570   3.949  14.085 -0.8182 -0.1573 -0.0582
  552MPD2    C2 8188   1.694   3.919  14.126 -0.3049  0.2967  0.6879
  552MPD2    C3 8189   1.712   3.920  14.261  0.0164 -0.6328  0.8490
  552MPD2    C4 8190   1.617   3.947  14.354 -0.4727 -0.5624 -0.1747
  552MPD2    C5 8191   1.498   3.987  14.313  0.2531 -0.6444 -0.4836
  552MPD2     H 8192   1.773   3.905  14.053 -1.0821  1.2624 -0.3338
  552MPD2    H1 8193   1.644   3.944  14.459 -0.2877 -1.4109 -0.2496
  552MPD2    H2 8194   1.369   3.990  14.150  0.3328 -0.1667  1.1659
  552MPD2    H3 8195   1.413   4.007  14.377  2.1961  2.0594  1.2413
  552MPD2     N 8196   1.841   3.879  14.315 -0.9047  0.4844 -0.0761
  552MPD2    H5 8197   1.851   3.872  14.416 -0.5169 -0.2093 -0.1586
  552MPD2    N1 8198   1.544   3.943  13.948  0.1936  0.2640 -0.0868
  552MPD2    H7 8199   1.624   3.936  13.887  0.5497 -0.4612  0.4567
  553TMC3    C1 8200   1.425   3.957  13.758  0.1462  0.0889 -0.0871
  553TMC3    C2 8201   1.536   3.982  13.679 -0.5892  1.0544 -0.0560
  553TMC3    C3 8202   1.531   3.961  13.542 -0.2933 -0.5925 -0.3065
  553TMC3    C4 8203   1.315   3.899  13.703 -0.2955 -0.7865  0.2014
  553TMC3    C5 8204   1.320   3.865  13.566  0.0740 -0.0580  0.5367
  553TMC3    C6 8205   1.421   3.904  13.482 -0.1751  0.2148 -0.3398
  553TMC3     C 8206   1.417   3.974  13.900  0.1663 -0.0581 -0.0463
  553TMC3     O 8207   1.306   3.963  13.945 -0.4720 -0.3625 -0.9169
  553TMC3     H 8208   1.614   4.043  13.723  0.0949 -0.1471  0.3970
  553TMC3    H1 8209   1.223   3.889  13.760 -0.7754 -1.1310 -0.6387
  553TMC3    H2 8210   1.410   3.889  13.375  1.0507 -0.6788 -0.3296
  553TMC3    C7 8211   1.231   3.759  13.523 -0.4372 -0.1231 -0.2357
  553TMC3    C8 8212   1.657   3.937  13.470  0.4340 -0.3584 -0.1447
  553TMC3    O1 8213   1.111   3.786  13.529  0.3418  0.3313 -0.4827
  553TMC3    O2 8214   1.765   3.931  13.528  0.1449  0.2551  0.1440
  554TMC3    C1 8215   3.366   2.786  11.770 -0.8366  0.3878  0.4356
  554TMC3    C2 8216   3.308   2.701  11.681  0.0562  0.6135  0.2186
  554TMC3    C3 8217   3.364   2.689  11.558 -0.2516  0.4634 -0.4012
  554TMC3    C4 8218   3.481   2.854  11.748 -0.3162 -0.4753 -0.9222
  554TMC3    C5 8219   3.530   2.844  11.621 -0.8647  0.0912 -0.1373
  554TMC3    C6 8220   3.474   2.764  11.529 -0.1280  0.5959  0.2608
  554TMC3     C 8221   3.343   2.758  11.910  0.1197 -0.3879 -0.3150
  554TMC3     O 8222   3.351   2.851  11.989  0.3411 -0.1568 -0.1637
  554TMC3     H 8223   3.209   2.662  11.702  0.4037  1.1305  2.8634
  554TMC3    H1 8224   3.533   2.910  11.825 -1.3098  2.1181 -2.1465
  554TMC3    H2 8225   3.517   2.754  11.430 -0.8347 -0.7070  0.0934
  554TMC3    C7 8226   3.612   2.945  11.571 -0.1195 -0.0971 -0.2036
  554TMC3    C8 8227   3.283   2.672  11.443 -0.2741  0.5736  0.3968
  554TMC3    O1 8228   3.676   2.917  11.473 -0.1034  0.2840 -0.0649
  554TMC3    O2 8229   3.321   2.742  11.350 -0.1328  0.4138  0.1405
  555TMC3    C1 8230   2.563   2.312  14.972 -0.2723  0.4712  0.8198
  555TMC3    C2 8231   2.529   2.395  15.074  0.2358 -0.0268  0.0482
  555TMC3    C3 8232   2.476   2.338  15.182  0.3029 -0.6771 -0.0195
  555TMC3    C4 8233   2.558   2.174  14.985 -0.2258  0.3018 -0.4634
  555TMC3    C5 8234   2.482   2.124  15.088  0.3738  0.2509 -0.6883
  555TMC3    C6 8235   2.450   2.203  15.193 -0.0669 -0.6245  0.1480
  555TMC3     C 8236   2.652   2.374  14.874 -0.0420  0.1439  0.2831
  555TMC3     O 8237   2.740   2.302  14.828  0.4493  0.4037  0.0872
  555TMC3     H 8238   2.563   2.498  15.080 -2.3861  0.9201 -1.6289
  555TMC3    H1 8239   2.579   2.107  14.902 -0.0034 -0.4681  0.2074
  555TMC3    H2 8240   2.393   2.162  15.275  1.8255 -2.1455  0.7075
  555TMC3    C7 8241   2.442   1.986  15.098 -0.0626 -0.2139  0.1619
  555TMC3    C8 8242   2.489   2.416  15.299 -0.1556  0.1134  0.3238
  555TMC3    O1 8243   2.341   1.969  15.165 -0.4738  0.0507 -0.0729
  555TMC3    O2 8244   2.461   2.538  15.287 -0.5690 -0.4523 -0.0773
  556MPD2     C 8245   0.831   3.252  10.095 -0.4090 -0.5225  0.5052
  556MPD2    C1 8246   0.770   3.211  10.211 -0.2998 -0.4713  0.5343
  556MPD2    C2 8247   0.747   3.075  10.223  0.5724  0.0834 -0.0328
  556MPD2    C3 8248   0.780   2.980  10.127  0.2895  0.1556 -0.2074
  556MPD2    C4 8249   0.841   3.022  10.009 -0.1047 -0.5052  0.2970
  556MPD2    C5 8250   0.873   3.155   9.997  1.3007 -0.6474  0.2412
  556MPD2     H 8251   0.691   3.039  10.308  0.7598  2.1719  0.9690
  556MPD2    H1 8252   0.854   2.965   9.918  1.2362  1.3476 -0.6835
  556MPD2    H2 8253   0.843   3.357  10.072 -0.3280  0.0556  3.3063
  556MPD2    H3 8254   0.908   3.194   9.902 -1.8908  0.2388 -0.5873
  556MPD2     N 8255   0.741   2.845  10.155  0.3295  0.7633  0.4343
  556MPD2    H5 8256   0.685   2.829  10.238  0.5147  1.2553  0.6505
  556MPD2    N1 8257   0.706   3.296  10.306  0.0277 -0.3058 -0.1823
  556MPD2    H7 8258   0.643   3.244  10.366 -1.0464  0.4271 -0.6796
  557TMC3    C1 8259   0.701   2.625  10.127 -0.0423  0.1048 -0.3470
  557TMC3    C2 8260   0.768   2.510  10.104  0.0702  0.2400 -0.4043
  557TMC3    C3 8261   0.708   2.398  10.147  0.5165 -0.1106  0.2529
  557TMC3    C4 8262   0.578   2.639  10.179  0.0863 -0.2719  0.5586
  557TMC3    C5 8263   0.524   2.523  10.230 -0.0116  0.8130 -0.5141
  557TMC3    C6 8264   0.583   2.401  10.204  0.6525 -0.2058  0.0225
  557TMC3     C 8265   0.760   2.740  10.071 -0.5198 -0.5371 -0.1900
  557TMC3     O 8266   0.834   2.720   9.978 -0.0619  0.0872  0.5856
  557TMC3     H 8267   0.864   2.506  10.053  1.2516  1.6118  1.7482
  557TMC3    H1 8268   0.533   2.737  10.180  0.7284  0.0323 -1.0420
  557TMC3    H2 8269   0.524   2.312  10.188  0.9902 -0.8334  2.2570
  557TMC3    C7 8270   0.388   2.527  10.285  0.0314  0.3398 -0.2336
  557TMC3    C8 8271   0.767   2.274  10.111 -0.4647  0.1165 -0.4694
  557TMC3    O1 8272   0.332   2.639  10.276 -0.2218  0.0448  0.2758
  557TMC3    O2 8273   0.694   2.198  10.049 -0.3928 -0.3358  0.3792
  558TMC3    C1 8274   3.150   1.494   9.919 -0.1192  0.0329 -0.2714
  558TMC3    C2 8275   3.058   1.405   9.976  0.3325  0.2685  0.6485
  558TMC3    C3 8276   2.961   1.347   9.897  0.5175  0.3247 -0.3891
  558TMC3    C4 8277   3.153   1.507   9.781 -0.4216 -0.0894 -0.1876
  558TMC3    C5 8278   3.069   1.431   9.707 -0.5973  0.5028 -0.0041
  558TMC3    C6 8279   2.967   1.354   9.763  0.4349  0.3166 -0.7461
  558TMC3     C 8280   3.278   1.494   9.979 -0.7255  0.4842 -0.0742
  558TMC3     O 8281   3.340   1.599   9.972  0.0533  0.0742 -0.5357
  558TMC3     H 8282   3.060   1.385  10.083 -1.4639 -0.6378  0.5137
  558TMC3    H1 8283   3.238   1.549   9.730 -0.0297  0.9060  1.2923
  558TMC3    H2 8284   2.891   1.296   9.711  0.7241 -1.6268  0.9801
  558TMC3    C7 8285   3.116   1.396   9.575 -0.0721 -0.6422 -0.2680
  558TMC3    C8 8286   2.880   1.247   9.962  0.0562  0.0095  0.0271
  558TMC3    O1 8287   3.188   1.475   9.512 -0.5367  0.1760  0.3134
  558TMC3    O2 8288   2.763   1.221   9.922 -0.1648  0.4193 -0.1403
  559MPD2     C 8289   3.172   2.318  10.415  0.3055  0.5378  0.6021
  559MPD2    C1 8290   3.101   2.215  10.463 -0.5668  0.0565 -0.7892
  559MPD2    C2 8291   3.157   2.114  10.541  0.3590 -0.0082 -0.3983
  559MPD2    C3 8292   3.299   2.122  10.568  0.3804  0.3993 -0.3378
  559MPD2    C4 8293   3.370   2.233  10.520  0.2693  0.3020  0.3717
  559MPD2    C5 8294   3.309   2.330  10.450 -0.2830  0.3880 -0.5744
  559MPD2     H 8295   3.103   2.035  10.591  0.6828  1.5806  2.4967
  559MPD2    H1 8296   3.474   2.235  10.550  0.1027 -1.5542  1.0875
  559MPD2    H2 8297   3.120   2.392  10.355 -0.5436  0.6033  1.4167
  559MPD2    H3 8298   3.372   2.408  10.409  1.0934 -1.0851 -1.2682
  559MPD2     N 8299   3.357   2.031  10.662 -0.8570  0.1471  0.5890
  559MPD2    H5 8300   3.300   1.956  10.698  0.4451 -1.4203 -0.6217
  559MPD2    N1 8301   2.959   2.214  10.436 -0.0479 -0.0937 -0.8620
  559MPD2    H7 8302   2.920   2.298  10.397  0.7791  0.5354 -0.3423
  560TMC3    C1 8303   3.490   1.950  10.829 -0.2955  0.3878 -0.0587
  560TMC3    C2 8304   3.417   1.830  10.815 -0.0039  0.5017  0.4323
  560TMC3    C3 8305   3.404   1.758  10.934  0.5346 -0.7123 -0.7721
  560TMC3    C4 8306   3.541   2.002  10.942 -0.1497 -0.8013 -0.3054
  560TMC3    C5 8307   3.517   1.926  11.056 -0.5260  0.2563  0.6458
  560TMC3    C6 8308   3.453   1.806  11.047  0.2137 -0.4198  0.3554
  560TMC3     C 8309   3.484   2.040  10.715 -0.1357  0.0511 -0.1915
  560TMC3     O 8310   3.571   2.124  10.711 -0.3283  0.2504  0.0324
  560TMC3     H 8311   3.394   1.787  10.718  3.1146  2.7495 -1.2951
  560TMC3    H1 8312   3.586   2.101  10.943 -0.1938 -0.7682 -1.4170
  560TMC3    H2 8313   3.423   1.754  11.138 -0.6086  0.1679  0.4247
  560TMC3    C7 8314   3.579   1.963  11.183 -0.1540 -0.5280  0.0422
  560TMC3    C8 8315   3.396   1.617  10.913 -0.1070  0.7218 -0.1123
  560TMC3    O1 8316   3.541   1.901  11.279  0.2167  0.2616  0.1165
  560TMC3    O2 8317   3.346   1.580  10.808 -0.8562  0.2976 -0.7563
  561TMC3    C1 8318   1.164   1.072  11.221  0.3835 -0.1283 -0.0796
  561TMC3    C2 8319   1.073   0.996  11.284 -0.0354 -0.0650  0.7862
  561TMC3    C3 8320   0.962   1.049  11.340 -0.2994 -0.2672 -0.0617
  561TMC3    C4 8321   1.157   1.212  11.221 -0.3287  0.0304 -0.0796
  561TMC3    C5 8322   1.045   1.265  11.281 -0.3121  0.5091  0.5961
  561TMC3    C6 8323   0.950   1.187  11.337 -0.1428  0.2852 -0.2491
  561TMC3     C 8324   1.285   1.012  11.159 -0.5786 -0.3536  0.6266
  561TMC3     O 8325   1.264   0.894  11.128  0.5640 -0.0939  0.4650
  561TMC3     H 8326   1.083   0.888  11.288 -0.7830 -0.1626  0.0610
  561TMC3    H1 8327   1.236   1.276  11.183  1.2395 -1.1085  1.2853
  561TMC3    H2 8328   0.872   1.244  11.384  0.4467  1.0217 -0.1555
  561TMC3    C7 8329   0.984   1.393  11.240  0.4611 -0.4397 -0.0511
  561TMC3    C8 8330   0.899   0.976  11.444  0.5095  0.2656 -0.3143
  561TMC3    O1 8331   0.863   1.413  11.249  0.1876 -0.5875 -0.4752
  561TMC3    O2 8332   0.904   0.850  11.439  0.0432 -0.2304 -0.1100
  562TMC3    C1 8333   2.417   2.385  16.057 -1.3688 -1.0095  0.3161
  562TMC3    C2 8334   2.329   2.491  16.059  0.0997 -0.5247 -0.2190
  562TMC3    C3 8335   2.254   2.502  15.945  0.6776 -0.2364 -0.0751
  562TMC3    C4 8336   2.413   2.292  15.954 -0.1943  0.0246 -0.0279
  562TMC3    C5 8337   2.330   2.308  15.851 -0.3761 -0.7987  0.6720
  562TMC3    C6 8338   2.249   2.417  15.838  0.3354  0.0201  0.5528
  562TMC3     C 8339   2.472   2.331  16.179  0.0896  0.4041  0.1923
  562TMC3     O 8340   2.483   2.212  16.178 -0.2906 -0.4361  0.0404
  562TMC3     H 8341   2.327   2.560  16.142  1.9289 -0.2151 -0.4322
  562TMC3    H1 8342   2.486   2.213  15.957  0.7861  0.8924 -1.0900
  562TMC3    H2 8343   2.169   2.415  15.765 -0.7256 -2.0633  1.7968
  562TMC3    C7 8344   2.343   2.219  15.740 -0.3814  0.3549  0.0716
  562TMC3    C8 8345   2.175   2.622  15.934  0.8431 -0.2450 -0.6519
  562TMC3    O1 8346   2.284   2.255  15.637 -0.1867 -0.0613  0.6901
  562TMC3    O2 8347   2.150   2.673  16.043  0.0037 -0.6191  0.2243
  563MPD2     C 8348   4.610   3.901  15.720 -0.5464 -0.0899 -0.9557
  563MPD2    C1 8349   4.640   4.018  15.781 -0.0126 -0.3186 -0.6422
  563MPD2    C2 8350   0.009   4.025  15.882  0.0543  0.2486  0.0887
  563MPD2    C3 8351   0.071   3.907  15.932 -0.0682 -0.1443 -0.3269
  563MPD2    C4 8352   0.039   3.787  15.875  0.3989  0.2956  0.0937
  563MPD2    C5 8353   4.660   3.785  15.781  0.1059  0.9261 -0.1280
  563MPD2     H 8354   0.028   4.120  15.930 -0.0566  0.3593 -0.0877
  563MPD2    H1 8355   0.069   3.691  15.915  0.1318  1.0218  2.0586
  563MPD2    H2 8356   4.530   3.901  15.648 -0.8179 -2.1494 -0.6610
  563MPD2    H3 8357   4.628   3.690  15.741 -0.4413  1.1982 -0.3431
  563MPD2     N 8358   0.153   3.930  16.044 -0.0854 -0.5900  0.3390
  563MPD2    H5 8359   0.164   4.027  16.074 -0.8383 -0.6800  0.9021
  563MPD2    N1 8360   4.577   4.135  15.736  0.3817  0.2898 -0.0570
  563MPD2    H7 8361   4.495   4.120  15.677 -0.2625 -1.7474  1.3221
  564TMC3    C1 8362   4.476   4.294  15.864 -0.3207 -0.1200  0.3928
  564TMC3    C2 8363   4.367   4.226  15.823 -0.1067 -0.2890  0.4589
  564TMC3    C3 8364   4.279   4.172  15.915  0.6023 -0.0755 -0.3128
  564TMC3    C4 8365   4.508   4.315  15.998  0.3721  0.2620 -0.9126
  564TMC3    C5 8366   4.427   4.245  16.092 -0.3247 -0.4682  0.2686
  564TMC3    C6 8367   4.307   4.192  16.050 -0.0611 -1.0188  0.4078
  564TMC3     C 8368   4.596   4.264  15.781  0.1837  0.0316 -0.0685
  564TMC3     O 8369   4.708   4.314  15.816 -0.2496  0.2432 -0.4594
  564TMC3     H 8370   4.357   4.221  15.715 -0.4222 -0.2835  0.4881
  564TMC3    H1 8371   4.606   4.351  16.025  0.8795 -1.5622 -0.3228
  564TMC3    H2 8372   4.235   4.160  16.124 -2.1840 -0.8433 -1.6043
  564TMC3    C7 8373   4.507   4.150  16.171 -0.1953  0.1209  0.0402
  564TMC3    C8 8374   4.228   4.040  15.886  0.3198 -0.5261  0.3267
  564TMC3    O1 8375   4.617   4.167  16.227 -0.0714 -0.2749  0.2131
  564TMC3    O2 8376   4.175   3.975  15.975  0.1927 -0.1041  0.3640
  565TMC3    C1 8377   0.854   4.691   9.809  0.0949 -0.2266  0.6720
  565TMC3    C2 8378   0.790   4.636   9.923  0.0682  0.0723  0.0977
  565TMC3    C3 8379   0.752   4.504   9.911 -0.0855 -0.3672  0.0333
  565TMC3    C4 8380   0.883   4.625   9.694  0.4018  0.0247  1.0902
  565TMC3    C5 8381   0.855   4.491   9.701 -0.5427 -1.0370  0.6113
  565TMC3    C6 8382   0.788   4.434   9.809 -1.0065 -0.4938  0.3291
  565TMC3     C 8383   0.911   0.097   9.812  0.1169 -0.1252  0.3185
  565TMC3     O 8384   0.959   0.147   9.714  0.2632 -0.1108 -0.0298
  565TMC3     H 8385   0.769   4.707  10.003 -0.5553 -0.6699  0.5894
  565TMC3    H1 8386   0.928   4.685   9.616  1.6333 -1.5090  0.6410
  565TMC3    H2 8387   0.784   4.326   9.802 -0.6689 -0.6359  2.2539
  565TMC3    C7 8388   0.845   4.420   9.570 -0.1524  0.2904 -0.5383
  565TMC3    C8 8389   0.624   4.462   9.976 -0.0695 -0.6693 -0.5341
  565TMC3    O1 8390   0.755   4.340   9.575  0.0925  0.1858 -0.1365
  565TMC3    O2 8391   0.578   4.525  10.071  0.3135  0.5811  0.4230
  566MPD2     C 8392   1.657   2.717  14.572  0.4078  0.4363  0.4528
  566MPD2    C1 8393   1.649   2.729  14.437 -0.4619  0.8188 -0.4733
  566MPD2    C2 8394   1.538   2.691  14.363 -0.1196 -0.4068 -0.5505
  566MPD2    C3 8395   1.435   2.626  14.427  1.0687  0.1730  0.0866
  566MPD2    C4 8396   1.433   2.625  14.564  0.3720 -0.3113 -0.0555
  566MPD2    C5 8397   1.545   2.670  14.636 -0.0404  0.4785 -0.5103
  566MPD2     H 8398   1.535   2.701  14.255  1.8817  1.3577 -0.4220
  566MPD2    H1 8399   1.355   2.580  14.625  0.6706 -1.4807 -0.5465
  566MPD2    H2 8400   1.745   2.743  14.631  0.2516  0.6841  0.5768
  566MPD2    H3 8401   1.539   2.656  14.743 -0.4616  1.2418 -0.4295
  566MPD2     N 8402   1.339   2.572  14.344  0.1611 -0.2065  0.4627
  566MPD2    H5 8403   1.355   2.592  14.246  1.7284 -0.6561  0.6305
  566MPD2    N1 8404   1.764   2.774  14.379 -0.7924 -0.5064 -0.5645
  566MPD2    H7 8405   1.840   2.809  14.437 -0.5050  0.5484 -1.5797
  567TMC3    C1 8406   1.918   2.828  14.213  0.0604  0.1761  0.3133
  567TMC3    C2 8407   1.939   2.895  14.093 -0.8282  0.2921  0.1559
  567TMC3    C3 8408   2.049   2.869  14.022 -1.1081  0.6207  0.0152
  567TMC3    C4 8409   2.017   2.743  14.263  0.0594  0.3641  0.9806
  567TMC3    C5 8410   2.131   2.734  14.183  0.1299  0.4071  0.5806
  567TMC3    C6 8411   2.155   2.793  14.064 -0.5405  0.0247 -0.2169
  567TMC3     C 8412   1.781   2.805  14.245  0.3681  0.0261 -0.2941
  567TMC3     O 8413   1.696   2.814  14.154 -0.3669 -0.3772  0.4763
  567TMC3     H 8414   1.858   2.951  14.049 -0.3900  0.1480 -0.8267
  567TMC3    H1 8415   1.999   2.677  14.347  1.4121 -2.7240 -1.1086
  567TMC3    H2 8416   2.251   2.782  14.014 -1.1986 -1.4594 -1.1505
  567TMC3    C7 8417   2.250   2.669  14.243  0.3098  0.3853 -0.0328
  567TMC3    C8 8418   2.025   2.908  13.880 -0.2161 -0.2753  0.4205
  567TMC3    O1 8419   2.348   2.660  14.171  0.0039  0.0864 -0.6489
  567TMC3    O2 8420   1.913   2.874  13.841 -0.2907 -0.3839 -0.2776
  568MPD2     C 8421   3.982   2.660  16.324  0.1867  0.4202  0.1145
  568MPD2    C1 8422   4.099   2.709  16.361  0.2001  0.6886 -0.3981
  568MPD2    C2 8423   4.135   2.842  16.339  0.5240  0.8841  0.0075
  568MPD2    C3 8424   4.056   2.912  16.249  0.4340 -0.5733  0.4222
  568MPD2    C4 8425   3.944   2.857  16.204  0.2035 -0.0092  0.1271
  568MPD2    C5 8426   3.907   2.734  16.247 -0.8563 -0.7326  0.3452
  568MPD2     H 8427   4.225   2.889  16.378  2.1515 -1.0317 -1.4311
  568MPD2    H1 8428   3.875   2.892  16.128  2.7228  1.6600 -1.3922
  568MPD2    H2 8429   3.954   2.556  16.339 -1.6132  0.7976 -0.6162
  568MPD2    H3 8430   3.819   2.701  16.194 -0.5477  1.1830 -1.3588
  568MPD2     N 8431   4.094   3.042  16.203  0.1288  0.1244  0.0805
  568MPD2    H5 8432   4.170   3.087  16.254  0.5065  1.6631 -1.8613
  568MPD2    N1 8433   4.173   2.617  16.442 -0.5336 -0.5258  0.0271
  568MPD2    H7 8434   4.122   2.530  16.456 -1.5439 -0.2318 -1.7516
  569TMC3    C1 8435   4.104   3.229  16.066 -0.4979  0.5935 -0.2719
  569TMC3    C2 8436   4.161   3.299  16.173  0.1985  0.4296  0.2919
  569TMC3    C3 8437   4.263   3.376  16.141  1.3284  0.5669  0.1043
  569TMC3    C4 8438   4.148   3.238  15.937 -0.6040 -0.0374 -0.3932
  569TMC3    C5 8439   4.263   3.314  15.914  0.0345 -0.1808  0.3137
  569TMC3    C6 8440   4.319   3.384  16.018  0.1932 -0.3325  0.5344
  569TMC3     C 8441   4.040   3.103  16.094  0.6740 -0.4376 -0.5692
  569TMC3     O 8442   3.959   3.067  16.014  0.4440  0.2824  0.4896
  569TMC3     H 8443   4.112   3.308  16.270 -2.7306  3.2596 -1.4366
  569TMC3    H1 8444   4.095   3.194  15.853  0.7723  1.9221 -2.2796
  569TMC3    H2 8445   4.408   3.442  15.995 -1.6597  1.9554 -0.8919
  569TMC3    C7 8446   4.258   3.390  15.788  0.2404  0.5405  0.3072
  569TMC3    C8 8447   4.240   3.504  16.184  0.4467 -0.1325 -0.4127
  569TMC3    O1 8448   4.215   3.331  15.692 -0.3968 -0.0065  0.0167
  569TMC3    O2 8449   4.205   3.584  16.097 -0.6922 -0.2930 -0.6770
  570TMC3    C1 8450   3.820   1.923  16.142  0.4468  0.0881  0.6625
  570TMC3    C2 8451   3.920   1.968  16.064 -0.0253  1.0243  0.6520
  570TMC3    C3 8452   3.927   2.100  16.031  0.0154 -0.3018  0.7667
  570TMC3    C4 8453   3.736   2.011  16.204 -0.5689 -0.2238  0.3087
  570TMC3    C5 8454   3.755   2.143  16.187 -0.8331 -0.3791 -0.9142
  570TMC3    C6 8455   3.848   2.195  16.101  0.1026  0.0492  1.3206
  570TMC3     C 8456   3.785   1.786  16.110 -0.1195 -0.3363  0.1725
  570TMC3     O 8457   3.813   1.738  15.999 -0.1198  0.0666 -0.0359
  570TMC3     H 8458   3.978   1.895  16.009 -1.7961 -1.1505  1.6968
  570TMC3    H1 8459   3.662   1.965  16.268  0.2501 -0.8586  0.7896
  570TMC3    H2 8460   3.858   2.298  16.066  1.1301 -0.4753  0.0529
  570TMC3    C7 8461   3.694   2.231  16.283 -0.8487  0.3878  0.4356
  570TMC3    C8 8462   4.035   2.151  15.957 -0.6137 -0.2999  0.3077
  570TMC3    O1 8463   3.627   2.175  16.368 -0.4229  0.5426 -0.4062
  570TMC3    O2 8464   4.045   2.277  15.946 -0.1522 -0.3110  0.0860
  571MPD2     C 8465   1.634   3.253  17.525  1.1274  0.5570  0.1886
  571MPD2    C1 8466   1.522   3.212  17.594  0.0961  0.2079  0.1431
  571MPD2    C2 8467   1.437   3.302  17.656  0.7888  0.4179  0.5098
  571MPD2    C3 8468   1.463   3.438  17.648  0.2972  0.5259 -0.1849
  571MPD2    C4 8469   1.566   3.481  17.563  0.2613  0.1274  0.5916
  571MPD2    C5 8470   1.650   3.391  17.509 -0.2196 -0.5654  0.2229
  571MPD2     H 8471   1.354   3.266   0.009  0.0981 -0.2691 -0.8413
  571MPD2    H1 8472   1.603   3.583  17.563  3.8353 -1.1683 -1.4718
  571MPD2    H2 8473   1.700   3.184  17.473 -0.6182 -2.1452  1.5458
  571MPD2    H3 8474   1.740   3.421  17.456  0.4559 -1.9745  0.5880
  571MPD2     N 8475   1.395   3.535   0.015  0.0758 -0.0042  0.4184
  571MPD2    H5 8476   1.430   3.630   0.015  0.3729 -0.1149  0.6462
  571MPD2    N1 8477   1.509   3.070  17.601 -0.1469  0.6278 -0.1905
  571MPD2    H7 8478   1.595   3.021  17.578 -0.0693  1.4290 -1.5722
  572TMC3    C1 8479   1.233   3.642   0.146  1.0023 -0.6083  0.0883
  572TMC3    C2 8480   1.169   3.620   0.257  0.0724  0.2422 -0.6093
  572TMC3    C3 8481   1.150   3.730   0.337 -0.9003  0.1339  0.1764
  572TMC3    C4 8482   1.267   3.765   0.097  0.1169  0.6324  0.0940
  572TMC3    C5 8483   1.234   3.876   0.173  0.1991  0.0113 -0.0935
  572TMC3    C6 8484   1.177   3.861   0.297 -0.1908  0.1815 -0.6953
  572TMC3     C 8485   1.280   3.518   0.084  0.6763 -0.1650  0.3538
  572TMC3     O 8486   1.191   3.436   0.078  0.1909 -0.1308  0.6136
  572TMC3     H 8487   1.169   3.521   0.301  2.8902  1.0297  1.1779
  572TMC3    H1 8488   1.307   3.772  17.704  2.4206 -0.6225  0.9176
  572TMC3    H2 8489   1.168   3.942   0.369 -2.1198 -1.3533  0.7727
  572TMC3    C7 8490   1.243   4.014   0.125 -0.1577 -0.1676 -0.6238
  572TMC3    C8 8491   1.094   3.700   0.462 -0.3143 -0.6223  0.1412
  572TMC3    O1 8492   1.182   4.100   0.185  0.0962  0.2061 -0.0903
  572TMC3    O2 8493   1.036   3.589   0.464  0.5762  0.1231  0.1261
  573MPD2     C 8494   2.087   3.503   0.638 -0.1816 -0.2835 -0.1335
  573MPD2    C1 8495   2.135   3.614   0.577  0.6014  0.2905  0.2793
  573MPD2    C2 8496   2.190   3.602   0.454 -0.1122 -0.0669  0.1318
  573MPD2    C3 8497   2.203   3.478   0.392 -0.1637  0.3832  0.5606
  573MPD2    C4 8498   2.137   3.371   0.448 -0.3814 -0.3624 -0.3050
  573MPD2    C5 8499   2.075   3.391   0.567 -0.2205  0.3974  0.2760
  573MPD2     H 8500   2.225   3.700   0.421  2.8239 -0.7408  1.2569
  573MPD2    H1 8501   2.129   3.275   0.397 -1.7849 -1.0719  1.2470
  573MPD2    H2 8502   2.046   3.510   0.738  0.2498  2.4730 -0.1733
  573MPD2    H3 8503   2.022   3.305   0.606  0.8216  0.4504  1.8104
  573MPD2     N 8504   2.249   3.467   0.257 -0.2156 -0.0524 -0.0346
  573MPD2    H5 8505   2.230   3.380   0.208 -2.0208  1.2594 -1.6890
  573MPD2    N1 8506   2.136   3.730   0.656 -0.3155  0.4016 -0.1664
  573MPD2    H7 8507   2.092   3.723   0.748  2.8765 -1.7721  1.1720
  574TMC3    C1 8508   2.298   3.534   0.044 -0.3741  0.0861  0.6414
  574TMC3    C2 8509   2.171   3.544  17.698 -0.2619  0.6333  0.0374
  574TMC3    C3 8510   2.152   3.589  17.569 -0.5397 -0.0386  0.1358
  574TMC3    C4 8511   2.398   3.572  17.674 -0.5100  0.3526  0.3183
  574TMC3    C5 8512   2.384   3.621  17.547 -0.2532  0.5738  0.3416
  574TMC3    C6 8513   2.262   3.611  17.488 -0.3765  0.2864 -0.4037
  574TMC3     C 8514   2.306   3.565   0.184 -0.3674  0.1789 -0.2588
  574TMC3     O 8515   2.350   3.676   0.209 -0.6498  0.3921 -0.6488
  574TMC3     H 8516   2.084   3.524   0.052 -0.0918 -1.1070 -0.2850
  574TMC3    H1 8517   2.496   3.576   0.011  0.0025  0.1788 -0.7902
  574TMC3    H2 8518   2.247   3.628  17.382  3.0849  2.6454 -0.5011
  574TMC3    C7 8519   2.493   3.585  17.464  0.0151  0.0764  0.1731
  574TMC3    C8 8520   2.022   3.639  17.539  0.6146  0.2374  0.7499
  574TMC3    O1 8521   2.587   3.523  17.514  0.6595 -0.0080 -0.0770
  574TMC3    O2 8522   1.925   3.602  17.606  0.1673  0.3809  0.4188
  575TMC3    C1 8523   0.084   4.300  10.660  0.8501  0.4116  0.1316
  575TMC3    C2 8524   4.723   4.186  10.659 -0.0961 -0.6146  0.3549
  575TMC3    C3 8525   4.718   4.115  10.540 -0.3557  0.0991 -0.4561
  575TMC3    C4 8526   0.153   4.344  10.545  0.2690 -0.0785  0.1750
  575TMC3    C5 8527   0.159   4.250  10.438  0.0089 -0.0469  0.2810
  575TMC3    C6 8528   0.078   4.140  10.432  0.3262  1.0705  0.8636
  575TMC3     C 8529   0.054   4.395  10.765  0.3093  0.2974 -0.4043
  575TMC3     O 8530   4.662   4.398  10.802  0.4604  0.1212  0.2946
  575TMC3     H 8531   4.669   4.150  10.746 -1.2111  0.1964 -0.0043
  575TMC3    H1 8532   0.213   4.434  10.544  0.7602 -0.3977  0.5515
  575TMC3    H2 8533   0.073   4.069  10.350  1.4952 -0.7024  2.3306
  575TMC3    C7 8534   0.242   4.298  10.322 -0.2060 -0.5454 -0.2803
  575TMC3    C8 8535   4.672   3.972  10.563  0.7074 -0.2797 -0.5580
  575TMC3    O1 8536   0.304   4.407  10.325 -0.1401 -0.7206 -0.3441
  575TMC3    O2 8537   4.637   3.941  10.676 -0.1890 -0.0931  0.2992
  576MPD2     C 8538   4.709   1.396  12.523 -0.6437  0.3389  0.3421
  576MPD2    C1 8539   0.008   1.500  12.434 -0.0696 -0.9315  0.2631
  576MPD2    C2 8540   4.685   1.625  12.470 -0.5439  0.0239  0.0669
  576MPD2    C3 8541   4.603   1.649  12.582 -0.3182  0.3039 -0.0271
  576MPD2    C4 8542   4.581   1.545  12.666 -0.0355  0.4620 -0.1534
  576MPD2    C5 8543   4.634   1.419  12.634 -0.2716 -0.3417 -0.3493
  576MPD2     H 8544   4.708   1.712  12.409 -1.4864 -1.6651 -2.6653
  576MPD2    H1 8545   4.515   1.554  12.751 -1.4789  0.3318 -1.2535
  576MPD2    H2 8546   0.015   1.294  12.511  1.7598  1.2102 -0.4355
  576MPD2    H3 8547   4.609   1.330  12.691 -0.1371  0.0830  0.3703
  576MPD2     N 8548   4.553   1.780  12.607 -0.1227 -0.2473 -0.0096
  576MPD2    H5 8549   4.540   1.844  12.528 -0.1343  0.1717  0.3309
  576MPD2    N1 8550   0.077   1.476  12.317  0.1096  0.3587  0.5169
  576MPD2    H7 8551   0.062   1.548  12.247  0.5475 -0.0718 -0.0134
  577TMC3    C1 8552   0.248   1.392  12.158  0.1543  0.3402  0.4453
  577TMC3    C2 8553   0.379   1.356  12.162  0.6966  0.0613 -0.1088
  577TMC3    C3 8554   0.436   1.328  12.038 -0.9528 -0.7173  0.3123
  577TMC3    C4 8555   0.174   1.380  12.055  0.3448  0.0918  0.3958
  577TMC3    C5 8556   0.231   1.354  11.935  0.0167  0.1908 -0.5320
  577TMC3    C6 8557   0.362   1.329  11.923 -0.6195  0.4315  0.1294
  577TMC3     C 8558   0.175   1.381  12.294 -0.3574 -0.0655  0.5907
  577TMC3     O 8559   0.229   1.316  12.380  1.2615  0.5123 -0.1580
  577TMC3     H 8560   0.436   1.351  12.254 -2.8373 -0.6929  2.0171
  577TMC3    H1 8561   0.067   1.375  12.070  0.1064 -0.8202 -1.5895
  577TMC3    H2 8562   0.404   1.327  11.824 -1.2542 -2.7014 -0.0995
  577TMC3    C7 8563   0.152   1.288  11.833  0.4100  0.1027  0.8457
  577TMC3    C8 8564   0.520   1.218  12.032  1.3492  0.8519  0.3195
  577TMC3    O1 8565   0.212   1.208  11.764 -0.1495 -0.6809 -0.6524
  577TMC3    O2 8566   0.501   1.137  12.123 -0.1467  0.4716  0.2992
  578MPD2     C 8567   3.007   1.826   0.787 -0.3604 -0.1911 -0.0854
  578MPD2    C1 8568   2.985   1.709   0.723 -0.1072 -0.3656  1.1940
  578MPD2    C2 8569   3.041   1.596   0.782 -0.4467  0.1619 -0.1307
  578MPD2    C3 8570   3.127   1.607   0.885  0.4114  0.2950  0.0138
  578MPD2    C4 8571   3.154   1.729   0.943  0.1483 -0.4778  0.3465
  578MPD2    C5 8572   3.086   1.838   0.901 -0.2523  0.1389 -0.4298
  578MPD2     H 8573   3.020   1.497   0.741  1.1282 -0.5846  0.8759
  578MPD2    H1 8574   3.223   1.746   1.024 -0.4967  0.4326  0.7144
  578MPD2    H2 8575   2.960   1.918   0.754  1.6902  0.9099  0.0576
  578MPD2    H3 8576   3.092   1.927   0.963  2.4954 -0.3602 -0.0172
  578MPD2     N 8577   3.196   1.487   0.926  0.2669  0.2257  0.0260
  578MPD2    H5 8578   3.158   1.407   0.877  1.7437 -0.2323 -0.3590
  578MPD2    N1 8579   2.907   1.705   0.604  0.1775 -0.3036 -0.1690
  578MPD2    H7 8580   2.883   1.795   0.564  1.5356 -0.4456 -1.2987
  579TMC3    C1 8581   3.351   1.352   1.048 -0.6454  0.1572 -0.4089
  579TMC3    C2 8582   3.425   1.345   1.161  0.0288  0.1490  0.1018
  579TMC3    C3 8583   3.447   1.222   1.206 -0.0854  0.7014  0.1645
  579TMC3    C4 8584   3.317   1.248   0.969 -0.2754  0.1819  0.0777
  579TMC3    C5 8585   3.333   1.125   1.030  0.1731 -0.3369 -0.2664
  579TMC3    C6 8586   3.397   1.108   1.146 -0.5224  0.5139 -0.0608
  579TMC3     C 8587   3.304   1.486   1.017 -0.4070  0.4492 -0.6903
  579TMC3     O 8588   3.364   1.573   1.078  0.2193 -0.0731  0.4163
  579TMC3     H 8589   3.448   1.430   1.224 -1.4570  0.5625  0.0754
  579TMC3    H1 8590   3.272   1.263   0.871  0.1434 -0.6965 -0.2562
  579TMC3    H2 8591   3.425   1.010   1.185 -2.3061 -0.4400 -1.2214
  579TMC3    C7 8592   3.306   1.003   0.952  0.7065 -0.3611  0.2564
  579TMC3    C8 8593   3.557   1.195   1.299  0.3339  0.1498  0.1899
  579TMC3    O1 8594   3.366   0.899   0.984 -0.2146 -0.1835 -0.1196
  579TMC3    O2 8595   3.560   1.083   1.344  0.1327  0.0003 -0.6520
  580TMC3    C1 8596   2.594   0.812  12.029 -0.0136  0.4065 -0.4251
  580TMC3    C2 8597   2.680   0.898  12.086 -0.7855  0.0385 -0.6016
  580TMC3    C3 8598   2.768   0.839  12.176  0.1809 -0.3359 -0.3038
  580TMC3    C4 8599   2.572   0.682  12.079  0.2392  0.2336 -0.2332
  580TMC3    C5 8600   2.662   0.635  12.166 -0.4088  0.1483  0.0498
  580TMC3    C6 8601   2.757   0.710  12.217  0.1838 -0.6228  0.7663
  580TMC3     C 8602   2.520   0.863  11.914 -0.1506 -0.1210  0.1509
  580TMC3     O 8603   2.407   0.820  11.888  0.1414 -0.4887 -0.0411
  580TMC3     H 8604   2.687   1.004  12.066  1.2115  0.1547  0.6580
  580TMC3    H1 8605   2.500   0.615  12.034  0.9429 -0.7152  0.0559
  580TMC3    H2 8606   2.837   0.677  12.282  2.2514  1.7850 -0.5668
  580TMC3    C7 8607   2.658   0.495  12.201 -0.2837  0.1298  0.4914
  580TMC3    C8 8608   2.887   0.915  12.211 -0.4047 -0.0937  0.1539
  580TMC3    O1 8609   2.558   0.426  12.169  0.1684  0.1787  0.0100
  580TMC3    O2 8610   2.930   0.923  12.325 -0.5196  0.0814  0.2747
  581MPD2     C 8611   0.972   1.057  14.717  0.6120  0.0694 -0.4574
  581MPD2    C1 8612   0.933   1.097  14.844  0.2623 -0.6700 -0.3779
  581MPD2    C2 8613   0.799   1.123  14.869  0.0537 -0.1582 -0.3387
  581MPD2    C3 8614   0.703   1.098  14.774  0.1514 -0.3017 -0.2111
  581MPD2    C4 8615   0.743   1.063  14.648  0.2266  0.3416 -0.5034
  581MPD2    C5 8616   0.873   1.042  14.625  0.3646 -0.0034  0.4615
  581MPD2     H 8617   0.758   1.139  14.968  2.0542  0.3915  0.4115
  581MPD2    H1 8618   0.669   1.063  14.569  0.0264 -1.4972 -0.3075
  581MPD2    H2 8619   1.078   1.052  14.694  0.2484 -2.2989 -1.7095
  581MPD2    H3 8620   0.897   1.024  14.520  0.6861 -0.3990  0.6033
  581MPD2     N 8621   0.568   1.125  14.801  0.4841  0.1415  0.1349
  581MPD2    H5 8622   0.545   1.172  14.888  2.2919 -0.4807  0.9542
  581MPD2    N1 8623   1.033   1.122  14.945 -0.4197  0.5340  0.2032
  581MPD2    H7 8624   1.126   1.093  14.914 -1.9194 -1.5996 -2.2810
  582TMC3    C1 8625   1.138   1.136  15.163 -0.3045 -0.5522 -0.2708
  582TMC3    C2 8626   1.113   1.137  15.300  0.1365 -0.0502  0.1297
  582TMC3    C3 8627   1.156   1.031  15.375 -0.5290 -0.5863  0.2017
  582TMC3    C4 8628   1.221   1.042  15.103  0.0750  0.1969  0.4873
  582TMC3    C5 8629   1.246   0.928  15.176 -0.1401 -0.1533  0.8553
  582TMC3    C6 8630   1.216   0.922  15.311 -0.5054  0.3287  0.6153
  582TMC3     C 8631   1.020   1.166  15.079  0.2477  0.0685 -0.1329
  582TMC3     O 8632   0.925   1.218  15.138 -0.3319  0.2629 -0.2262
  582TMC3     H 8633   1.035   1.199  15.344  0.2180 -0.3397  0.6815
  582TMC3    H1 8634   1.245   1.043  14.998  2.0390  0.2093  0.9240
  582TMC3    H2 8635   1.219   0.824  15.358 -0.9709 -0.4561 -0.9956
  582TMC3    C7 8636   1.171   0.829  15.101 -0.3069 -0.3610  0.2615
  582TMC3    C8 8637   1.066   0.988  15.482  0.8375 -0.7796  0.2773
  582TMC3    O1 8638   1.201   0.826  14.985  0.0116  0.4194 -0.7734
  582TMC3    O2 8639   0.949   1.000  15.451  0.1894  0.2212  0.1723
  583MPD2     C 8640   1.017   2.154  16.947  0.1037 -0.5414 -0.4963
  583MPD2    C1 8641   0.993   2.275  16.877  0.2938 -0.2475 -0.1522
  583MPD2    C2 8642   0.940   2.377  16.947  0.1557 -0.3418  0.1371
  583MPD2    C3 8643   0.907   2.363  17.084  0.8769  0.0779  0.3523
  583MPD2    C4 8644   0.943   2.243  17.154  0.4441  0.3647  0.3365
  583MPD2    C5 8645   1.001   2.144  17.081 -0.6712 -0.7104  0.1250
  583MPD2     H 8646   0.936   2.477  16.904  2.3534 -1.4019 -2.5770
  583MPD2    H1 8647   0.938   2.229  17.262 -1.4208 -0.5358  0.1222
  583MPD2    H2 8648   1.066   2.073  16.896  0.9535 -1.1511  1.2830
  583MPD2    H3 8649   1.033   2.053  17.130 -1.3841  1.0455  3.7908
  583MPD2     N 8650   0.835   2.473  17.144 -0.3856  0.0953  0.1935
  583MPD2    H5 8651   0.806   2.546  17.079  2.1462  1.6444  0.7882
  583MPD2    N1 8652   1.040   2.292  16.741 -0.6928  0.3441  0.8350
  583MPD2    H7 8653   1.018   2.381  16.697  0.0851 -0.2671 -0.7810
  584TMC3    C1 8654   0.715   2.606  17.301 -0.2244 -0.5742  0.4267
  584TMC3    C2 8655   0.726   2.716  17.224 -0.0123  0.6553 -0.3959
  584TMC3    C3 8656   0.696   2.837  17.282  0.2524  0.3679 -0.7746
  584TMC3    C4 8657   0.676   2.626  17.430 -0.0285  0.1516 -0.2415
  584TMC3    C5 8658   0.643   2.747  17.483 -0.6473 -0.1341 -0.6943
  584TMC3    C6 8659   0.653   2.858  17.410 -0.2606 -0.4104  0.0206
  584TMC3     C 8660   0.784   2.475  17.268 -0.0638 -0.7285  0.4077
  584TMC3     O 8661   0.808   2.401  17.360 -0.0338  0.6385 -0.7515
  584TMC3     H 8662   0.770   2.713  17.125  0.8306 -0.1587  0.0019
  584TMC3    H1 8663   0.674   2.540  17.497 -1.1775  0.2706 -0.1330
  584TMC3    H2 8664   0.605   2.950  17.441  2.3882  1.2115 -0.6592
  584TMC3    C7 8665   0.629   2.752  17.626 -0.2169 -0.6177 -0.2342
  584TMC3    C8 8666   0.690   2.949  17.188 -0.2291  0.2578  0.4442
  584TMC3    O1 8667   0.633   2.649  17.686 -0.2962  0.3135  0.3741
  584TMC3    O2 8668   0.651   2.923  17.076 -0.3298 -0.1043 -0.6762
  585MPD2     C 8669   4.636   1.509   0.562  0.0072 -0.2444 -0.8585
  585MPD2    C1 8670   4.661   1.548   0.434 -0.1231  0.6572  0.0188
  585MPD2    C2 8671   4.674   1.454   0.328  0.3881  0.1551 -0.6018
  585MPD2    C3 8672   4.647   1.322   0.359  0.7144 -0.0301  0.4794
  585MPD2    C4 8673   4.602   1.282   0.484  0.1125 -0.2998  0.4815
  585MPD2    C5 8674   4.599   1.372   0.586  0.1676  0.0626  0.1692
  585MPD2     H 8675   4.694   1.499   0.232  1.0134 -0.3727 -0.7231
  585MPD2    H1 8676   4.572   1.181   0.507 -0.2098 -0.6976 -1.6462
  585MPD2    H2 8677   4.617   1.589   0.632 -1.5163  0.0024 -1.5487
  585MPD2    H3 8678   4.560   1.337   0.681  0.4083  0.7057  0.5071
  585MPD2     N 8679   4.645   1.224   0.254  0.0659  0.6343 -0.1087
  585MPD2    H5 8680   4.608   1.131   0.270  0.3749  0.4151 -0.6687
  585MPD2    N1 8681   4.676   1.687   0.423  0.6311  0.2966  0.4609
  585MPD2    H7 8682   4.631   1.743   0.495  1.7518  0.8819  0.7113
  586TMC3    C1 8683   4.586   1.176   0.035 -0.1644  0.7683 -0.1026
  586TMC3    C2 8684   4.613   1.178  17.609 -0.4450 -0.3521 -0.0371
  586TMC3    C3 8685   4.513   1.163  17.520 -0.2144 -0.0149 -0.1247
  586TMC3    C4 8686   4.457   1.172   0.078 -0.5072 -0.0740 -0.2635
  586TMC3    C5 8687   4.354   1.170  17.694  0.3510  0.1358 -0.0625
  586TMC3    C6 8688   4.381   1.167  17.562 -0.1182  0.0248 -0.1912
  586TMC3     C 8689   4.671   1.249   0.125 -0.0305 -0.1929 -0.6739
  586TMC3     O 8690   0.010   1.326   0.062  0.2149  0.5880 -0.3416
  586TMC3     H 8691   4.715   1.186  17.574 -1.5041  3.2103 -2.4031
  586TMC3    H1 8692   4.442   1.150   0.183 -0.8606 -0.5457 -0.4141
  586TMC3    H2 8693   4.299   1.169  17.491 -1.5430  0.7633  1.4661
  586TMC3    C7 8694   4.225   1.118   0.035  0.5902  0.1313 -0.0422
  586TMC3    C8 8695   4.524   1.064  17.421  0.4401 -0.2839 -0.4287
  586TMC3    O1 8696   4.155   1.062  17.662 -0.5145  0.2140  0.0968
  586TMC3    O2 8697   4.420   0.998  17.400 -0.1574 -0.2856 -0.1239
  587TMC3    C1 8698   1.457   4.613  16.174  0.2307 -0.4230 -0.0058
  587TMC3    C2 8699   1.467   4.613  16.307  0.1846  0.1658  0.1100
  587TMC3    C3 8700   1.553   4.523  16.359  0.2989  0.2217  0.7347
  587TMC3    C4 8701   1.523   4.526  16.094  0.2404  0.7321  0.0844
  587TMC3    C5 8702   1.600   4.436  16.158 -0.4544  0.2746 -0.5095
  587TMC3    C6 8703   1.617   4.425  16.293 -0.1329 -0.3829  0.6683
  587TMC3     C 8704   1.402   0.005  16.107 -0.6901  0.3836  0.5750
  587TMC3     O 8705   1.428   0.025  15.989  0.9915  0.6675 -0.0305
  587TMC3     H 8706   1.408   4.677  16.371 -3.4569 -2.6290 -0.4168
  587TMC3    H1 8707   1.503   4.513  15.989  1.1157  0.1984 -0.0144
  587TMC3    H2 8708   1.686   4.352  16.334  1.6959  0.6994 -0.5435
  587TMC3    C7 8709   1.677   4.355  16.073  0.1165  0.2759 -0.0360
  587TMC3    C8 8710   1.588   4.542  16.496  0.1626  0.2499 -0.0646
  587TMC3    O1 8711   1.630   4.312  15.966  0.5560  0.2072  0.4551
  587TMC3    O2 8712   1.648   4.451  16.551  0.4509  0.1306 -0.2588
  588TMC3    C1 8713   0.196   1.835  10.137  0.3606 -0.2191 -0.4680
  588TMC3    C2 8714   0.184   1.727  10.220 -0.0613 -0.4284  0.6760
  588TMC3    C3 8715   0.212   1.600  10.176 -0.4391  0.3125  0.5233
  588TMC3    C4 8716   0.259   1.816  10.017 -0.3461 -0.1212 -0.2507
  588TMC3    C5 8717   0.299   1.689   9.978  0.1041  0.3518 -0.1319
  588TMC3    C6 8718   0.271   1.579  10.055  0.1264  0.6150  0.8556
  588TMC3     C 8719   0.140   1.969  10.172  1.0429  0.1767 -0.3914
  588TMC3     O 8720   0.037   1.974  10.236  0.3619  0.3879 -0.0953
  588TMC3     H 8721   0.139   1.732  10.318 -0.1113 -1.7045  0.7226
  588TMC3    H1 8722   0.263   1.902   9.952  1.9141 -0.8126 -1.0406
  588TMC3    H2 8723   0.268   1.480  10.011  1.0698  0.7509  0.4794
  588TMC3    C7 8724   0.375   1.680   9.852 -0.1559  0.4070 -0.9786
  588TMC3    C8 8725   0.168   1.482  10.247 -0.3253  0.7252  1.0785
  588TMC3    O1 8726   0.344   1.587   9.777  0.0940  0.0546  0.6535
  588TMC3    O2 8727   0.079   1.506  10.329 -0.3798 -0.2787  0.2216
  589TMC3    C1 8728   2.925   4.370   0.846  0.4838 -0.1208  0.3420
  589TMC3    C2 8729   3.021   4.401   0.945  0.2147  0.0329 -0.6567
  589TMC3    C3 8730   3.055   4.295   1.033  0.1605 -0.1733  0.5054
  589TMC3    C4 8731   2.882   4.243   0.827 -0.4227 -0.3625 -0.2731
  589TMC3    C5 8732   2.931   4.146   0.912 -0.2738  0.4422 -0.5205
  589TMC3    C6 8733   3.015   4.168   1.020  0.2355  0.1714  0.3870
  589TMC3     C 8734   2.847   4.483   0.800 -0.9355  0.0650 -0.1057
  589TMC3     O 8735   2.766   4.457   0.708  0.1113 -0.0853  0.4568
  589TMC3     H 8736   3.073   4.494   0.962 -1.4534  1.1302 -1.5217
  589TMC3    H1 8737   2.815   4.218   0.745 -0.3526 -1.5752  0.0545
  589TMC3    H2 8738   3.048   4.092   1.089  2.2587 -0.6094 -1.4577
  589TMC3    C7 8739   2.919   4.007   0.861  0.5645 -0.4509 -0.2515
  589TMC3    C8 8740   3.183   4.314   1.099  0.0625 -0.1502  0.2232
  589TMC3    O1 8741   2.951   3.924   0.943  0.1161 -0.0507  0.4677
  589TMC3    O2 8742   3.276   4.370   1.043 -0.1796 -1.2248  0.5640
  590MPD2     C 8743   3.327   3.384  16.481  0.1022 -0.6952 -0.3273
  590MPD2    C1 8744   3.318   3.429  16.347  0.0973  0.6463 -0.0555
  590MPD2    C2 8745   3.438   3.455  16.287 -0.2679  0.3352  0.2036
  590MPD2    C3 8746   3.554   3.471  16.358 -0.8386  0.1069  1.1025
  590MPD2    C4 8747   3.559   3.443  16.490  0.5492  0.2675 -0.3549
  590MPD2    C5 8748   3.447   3.390  16.547 -0.1263  0.0531 -0.3666
  590MPD2     H 8749   3.434   3.470  16.179  1.3532  1.1454  0.2610
  590MPD2    H1 8750   3.645   3.448  16.556 -1.2672 -2.4910  2.2012
  590MPD2    H2 8751   3.242   3.342  16.533 -0.0717 -0.9982 -0.8554
  590MPD2    H3 8752   3.453   3.349  16.647  0.8577 -1.1661 -0.9201
  590MPD2     N 8753   3.653   3.529  16.290 -0.6421 -0.5989  0.1076
  590MPD2    H5 8754   3.645   3.532  16.189  0.2234  2.5878  0.1402
  590MPD2    N1 8755   3.187   3.425  16.292 -0.1907  0.1056 -0.0194
  590MPD2    H7 8756   3.108   3.409  16.353  0.4485 -0.3435  0.6979
  591TMC3    C1 8757   3.853   3.634  16.250 -0.2049  0.4780 -0.5145
  591TMC3    C2 8758   3.852   3.579  16.128  0.0218  0.0764 -0.2896
  591TMC3    C3 8759   3.895   3.660  16.021 -0.0170  0.0841 -0.0268
  591TMC3    C4 8760   3.864   3.769  16.269 -0.8964 -0.2801  0.0677
  591TMC3    C5 8761   3.907   3.845  16.161 -0.5212 -0.4351  0.2155
  591TMC3    C6 8762   3.922   3.792  16.035 -0.0812  0.3135  0.2226
  591TMC3     C 8763   3.769   3.571  16.347  0.1976 -0.3583  0.4274
  591TMC3     O 8764   3.816   3.542  16.455 -0.3089  0.2666 -0.5217
  591TMC3     H 8765   3.821   3.476  16.110  0.0397  0.2441 -1.2784
  591TMC3    H1 8766   3.876   3.799  16.372  0.6037  2.0265 -0.7563
  591TMC3    H2 8767   3.960   3.845  15.948 -0.7977  0.7944  0.2037
  591TMC3    C7 8768   3.859   3.984  16.165 -0.5837  0.3212 -0.7413
  591TMC3    C8 8769   3.872   3.605  15.884  0.5494  0.5852  0.2745
  591TMC3    O1 8770   3.779   4.012  16.255  0.0413  0.2393 -0.6846
  591TMC3    O2 8771   3.871   3.479  15.877  0.2529  0.3125 -0.4287
  592MPD2     C 8772   3.590   0.359  11.429  0.2205  0.1183  0.1354
  592MPD2    C1 8773   3.667   0.361  11.547 -0.7457 -0.3524  0.0165
  592MPD2    C2 8774   3.620   0.284  11.655  0.2915 -0.0223  0.4821
  592MPD2    C3 8775   3.498   0.217  11.653 -0.0133  0.1765  0.0662
  592MPD2    C4 8776   3.426   0.214  11.537 -0.1495 -0.3081  0.1979
  592MPD2    C5 8777   3.472   0.287  11.427 -0.5150 -0.4784  0.4237
  592MPD2     H 8778   3.678   0.285  11.747  0.3308  1.2316  0.4428
  592MPD2    H1 8779   3.331   0.163  11.524  0.3225 -1.5479  1.5831
  592MPD2    H2 8780   3.613   0.414  11.338  1.0643 -1.8109 -0.8230
  592MPD2    H3 8781   3.425   0.272  11.331  2.6072  1.3535 -1.3785
  592MPD2     N 8782   3.441   0.170  11.779 -1.1358 -0.1696  0.1438
  592MPD2    H5 8783   3.496   0.185  11.863  1.1681  1.2046 -1.6063
  592MPD2    N1 8784   3.787   0.432  11.538  0.7959  0.5710 -0.5794
  592MPD2    H7 8785   3.810   0.477  11.449  1.4932 -1.6421 -1.5308
  593TMC3    C1 8786   3.990   0.551  11.617  0.3077 -0.3832  0.4962
  593TMC3    C2 8787   4.026   0.633  11.719 -0.4171 -0.2448  0.1561
  593TMC3    C3 8788   4.148   0.690  11.704 -0.3751  0.3422  0.3115
  593TMC3    C4 8789   4.042   0.546  11.489 -0.2264 -0.0714 -0.3231
  593TMC3    C5 8790   4.152   0.618  11.471 -0.8557  0.2378  0.1452
  593TMC3    C6 8791   4.209   0.682  11.577 -0.8954 -0.0291 -0.7318
  593TMC3     C 8792   3.875   0.460  11.642  0.0403 -0.3352  0.1679
  593TMC3     O 8793   3.866   0.421  11.758  0.3416 -0.5146  0.1656
  593TMC3     H 8794   3.980   0.633  11.817  1.7867  0.5020  1.1839
  593TMC3    H1 8795   4.006   0.476  11.414 -0.8413  0.7188 -0.7561
  593TMC3    H2 8796   4.301   0.739  11.572 -0.6782 -0.5187 -2.1144
  593TMC3    C7 8797   4.195   0.636  11.336  0.6190  0.3183  0.0772
  593TMC3    C8 8798   4.190   0.789  11.806  0.1125  0.3926  0.3887
  593TMC3    O1 8799   4.151   0.559  11.246 -0.3760 -0.6085 -0.0181
  593TMC3    O2 8800   4.115   0.845  11.879 -0.0836 -0.4241 -0.3523
  594MPD2     C 8801   2.776   3.738  14.334 -0.0506 -0.6610  0.2382
  594MPD2    C1 8802   2.670   3.833  14.327  0.7852 -0.2653 -0.2658
  594MPD2    C2 8803   2.701   3.967  14.319  0.3674  0.1624 -0.6105
  594MPD2    C3 8804   2.831   4.004  14.307 -0.0794 -0.1436  0.3997
  594MPD2    C4 8805   2.934   3.914  14.290  0.8182 -0.2032  0.0262
  594MPD2    C5 8806   2.901   3.781  14.303  0.9597 -0.4518  0.0537
  594MPD2     H 8807   2.626   4.038  14.349  0.6461 -0.0884  0.6796
  594MPD2    H1 8808   3.028   3.952  14.252 -0.2125  1.8183 -0.5179
  594MPD2    H2 8809   2.749   3.633  14.325  0.5819 -0.9604  1.8599
  594MPD2    H3 8810   2.977   3.704  14.298 -0.1899 -1.5734 -0.1877
  594MPD2     N 8811   2.863   4.148  14.322 -0.6060 -0.2069 -0.3261
  594MPD2    H5 8812   2.793   4.220  14.311  1.2567  1.1222 -3.6936
  594MPD2    N1 8813   2.533   3.791  14.349  0.4890  0.2510  0.1819
  594MPD2    H7 8814   2.515   3.697  14.383 -2.5029  0.8699  0.2870
  595TMC3    C1 8815   3.100   4.554  14.323  0.2471 -0.0304  0.2249
  595TMC3    C2 8816   3.094   4.415  14.308  0.3624  0.8668 -0.0060
  595TMC3    C3 8817   2.978   4.350  14.340  0.4500 -1.0700 -0.6020
  595TMC3    C4 8818   3.003   4.625  14.397 -0.6569 -0.1647 -0.1063
  595TMC3    C5 8819   2.897   4.548  14.437 -0.6427  0.0637 -0.9390
  595TMC3    C6 8820   2.881   4.410  14.410  0.3977 -0.3040  0.4649
  595TMC3     C 8821   3.232   4.618  14.335 -0.4567 -0.1614  0.9233
  595TMC3     O 8822   3.229   0.005  14.377  0.1720  0.5231  1.2076
  595TMC3     H 8823   3.172   4.351  14.269 -0.2519 -0.8007  1.5087
  595TMC3    H1 8824   2.999   0.006  14.414  0.0083 -0.0221 -0.9059
  595TMC3    H2 8825   2.781   4.368  14.420  0.5738 -0.6005  0.9670
  595TMC3    C7 8826   2.797   4.590  14.531 -0.8800 -0.8362 -0.3677
  595TMC3    C8 8827   2.988   4.198  14.332  0.6096 -0.0002  0.8601
  595TMC3    O1 8828   2.691   4.532  14.549  0.4037  0.1813  0.0341
  595TMC3    O2 8829   3.094   4.139  14.363  0.3310 -0.2983 -0.6700
  596MPD2     C 8830   1.793   2.013  16.838 -1.1087  0.8435 -0.1843
  596MPD2    C1 8831   1.802   2.137  16.776  0.2084  0.3175  0.2509
  596MPD2    C2 8832   1.795   2.154  16.637  0.1140 -0.9836  0.7044
  596MPD2    C3 8833   1.781   2.037  16.557  0.4824  1.2337  0.6386
  596MPD2    C4 8834   1.791   1.915  16.624  0.4388  0.7180  0.1490
  596MPD2    C5 8835   1.789   1.900  16.757 -0.1071  0.3746  0.3281
  596MPD2     H 8836   1.814   2.254  16.600  2.6170 -1.9314 -0.5371
  596MPD2    H1 8837   1.784   1.825  16.564 -0.4733 -0.1411  1.5442
  596MPD2    H2 8838   1.792   1.988  16.944 -4.2353 -2.3852 -0.9761
  596MPD2    H3 8839   1.779   1.807  16.811  1.7235  1.4401  2.4765
  596MPD2     N 8840   1.794   2.038  16.419  0.0471 -0.2124  0.4106
  596MPD2    H5 8841   1.793   1.953  16.363  0.2679 -0.7706  1.2563
  596MPD2    N1 8842   1.820   2.256  16.853  0.0985 -0.2690  0.3028
  596MPD2    H7 8843   1.828   2.350  16.814 -0.6786  0.1417  1.1290
  597TMC3    C1 8844   1.802   2.401  17.043  0.5012 -0.3186  0.3902
  597TMC3    C2 8845   1.853   2.486  16.959 -0.4099  0.7832 -0.3922
  597TMC3    C3 8846   1.837   2.616  16.986  0.4265 -0.2710 -0.9113
  597TMC3    C4 8847   1.723   2.440  17.146 -0.1526  0.1740 -0.3560
  597TMC3    C5 8848   1.689   2.569  17.161 -0.2276  0.7294  0.6510
  597TMC3    C6 8849   1.759   2.663  17.084 -0.8813 -0.2852  0.2965
  597TMC3     C 8850   1.793   2.268  16.991  0.1571 -0.0910 -0.1249
  597TMC3     O 8851   1.734   2.192  17.067  0.0799 -0.4073 -0.0336
  597TMC3     H 8852   1.923   2.455  16.882 -0.8698 -1.6070  0.1673
  597TMC3    H1 8853   1.688   2.364  17.215  0.8156  1.1180  1.1552
  597TMC3    H2 8854   1.708   2.757  17.067 -1.2049 -0.1709  1.9275
  597TMC3    C7 8855   1.564   2.596  17.235  0.1879  0.3157 -0.3387
  597TMC3    C8 8856   1.901   2.717  16.911 -1.0065  0.6872 -0.8071
  597TMC3    O1 8857   1.524   2.510  17.316 -0.4615 -0.3488 -0.3870
  597TMC3    O2 8858   1.964   2.685  16.811  0.3267 -0.0684  0.4805
  598TMC3    C1 8859   0.530   4.117  15.704 -0.8542 -0.1608 -0.4821
  598TMC3    C2 8860   0.422   4.156  15.782 -0.5765 -0.1160  0.2287
  598TMC3    C3 8861   0.434   4.286  15.830 -0.0850 -1.0128 -0.9229
  598TMC3    C4 8862   0.648   4.186  15.675  0.2124 -0.6217  0.3712
  598TMC3    C5 8863   0.640   4.318  15.721 -0.0819  0.1605 -0.5623
  598TMC3    C6 8864   0.535   4.369  15.794  0.1426  0.6643 -0.3704
  598TMC3     C 8865   0.508   3.996  15.628  0.1379  0.5927 -0.5822
  598TMC3     O 8866   0.607   3.942  15.576  0.2644 -0.6539  0.0768
  598TMC3     H 8867   0.344   4.086  15.812 -0.9520  0.2615  0.1389
  598TMC3    H1 8868   0.725   4.162  15.603 -0.1467 -2.6742  0.6651
  598TMC3    H2 8869   0.544   4.463  15.848  0.7362  1.0011 -1.0503
  598TMC3    C7 8870   0.750   4.409  15.683  0.5596 -0.3383  0.3114
  598TMC3    C8 8871   0.323   4.327  15.915 -0.3281  0.5154 -0.1384
  598TMC3    O1 8872   0.858   4.360  15.673 -0.0617 -0.0375 -0.1163
  598TMC3    O2 8873   0.250   4.240  15.961  0.1166 -0.1321  0.9535
  599MPD2     C 8874   0.172   1.336  15.776 -0.1298 -0.4945  0.2351
  599MPD2    C1 8875   0.073   1.246  15.810  0.8957  0.2718  0.9858
  599MPD2    C2 8876   4.684   1.291  15.858  1.0480 -0.1846  0.3436
  599MPD2    C3 8877   4.653   1.424  15.860  0.0968 -0.4526  0.2860
  599MPD2    C4 8878   0.033   1.514  15.837 -0.4199 -0.2390  0.2639
  599MPD2    C5 8879   0.154   1.467  15.792  0.2367  0.0981 -0.1151
  599MPD2     H 8880   4.606   1.222  15.889  0.4997  0.8232  1.2126
  599MPD2    H1 8881   0.012   1.620  15.833  0.5857 -0.0204  0.8579
  599MPD2    H2 8882   0.259   1.294  15.727  0.0494  0.8430 -0.5986
  599MPD2    H3 8883   0.229   1.529  15.743  1.7807 -1.5295  0.2228
  599MPD2     N 8884   4.521   1.472  15.886  0.5169  0.6659 -0.1073
  599MPD2    H5 8885   4.520   1.572  15.907  0.9404  0.3032  1.6305
  599MPD2    N1 8886   0.096   1.114  15.783 -0.0190  0.3009 -0.3340
  599MPD2    H7 8887   0.169   1.088  15.718 -1.7538 -1.0530 -1.7239
  600TMC3    C1 8888   4.297   1.492  15.921  0.5180 -0.0201  0.1068
  600TMC3    C2 8889   4.172   1.453  15.890  0.8654 -0.9263 -0.2135
  600TMC3    C3 8890   4.067   1.480  15.970  0.0819 -0.1212 -0.1038
  600TMC3    C4 8891   4.308   1.573  16.031 -0.8641  0.4472  0.9409
  600TMC3    C5 8892   4.196   1.612  16.102 -0.4641  0.6112  0.1450
  600TMC3    C6 8893   4.075   1.566  16.074 -0.0402 -0.5961 -0.3494
  600TMC3     C 8894   4.407   1.405  15.880 -0.2904 -0.0648  0.4868
  600TMC3     O 8895   4.387   1.293  15.830  0.0933 -0.2387  0.8981
  600TMC3     H 8896   4.169   1.378  15.812 -0.8972  1.3931 -2.4006
  600TMC3    H1 8897   4.408   1.604  16.057 -0.1407 -1.4032  0.3563
  600TMC3    H2 8898   3.989   1.607  16.126  0.7515 -1.2896  1.5135
  600TMC3    C7 8899   4.207   1.710  16.214 -0.5080  0.5157  0.4304
  600TMC3    C8 8900   3.943   1.408  15.951  0.3800  0.1411  0.0265
  600TMC3    O1 8901   4.123   1.699  16.305  0.1792 -0.4009  0.6457
  600TMC3    O2 8902   3.911   1.373  15.840  0.1000  0.0099  0.2643
  601MPD2     C 8903   1.337   4.348  17.466  0.0577  0.1753  0.0978
  601MPD2    C1 8904   1.232   4.343  17.553  0.8567  0.0992  0.3511
  601MPD2    C2 8905   1.218   4.227  17.631  0.7854  0.1396 -0.3077
  601MPD2    C3 8906   1.309   4.133  17.621 -0.3703  0.1280 -0.1910
  601MPD2    C4 8907   1.416   4.140  17.542  0.7767  0.7411  0.0290
  601MPD2    C5 8908   1.433   4.249  17.458  0.2745 -0.1947 -0.5122
  601MPD2     H 8909   1.135   4.222  17.700  1.6875  4.8749  1.1584
  601MPD2    H1 8910   1.493   4.064  17.541  0.4584  0.4109  0.8392
  601MPD2    H2 8911   1.355   4.428  17.395  1.7416 -0.1489  0.1744
  601MPD2    H3 8912   1.522   4.257  17.397  0.2404  2.0486 -0.2702
  601MPD2     N 8913   1.311   4.025   0.006 -0.3382  0.2094 -0.4134
  601MPD2    H5 8914   1.379   3.952  17.694 -1.0952 -0.1503 -1.7060
  601MPD2    N1 8915   1.135   4.448  17.560  0.0958 -0.3160  1.1783
  601MPD2    H7 8916   1.049   4.437  17.613 -1.2677  1.3126 -0.6947
  602TMC3    C1 8917   1.030   4.639  17.532 -0.0664  0.7550  0.1187
  602TMC3    C2 8918   1.034   0.044  17.559  0.5234 -0.9190  0.4786
  602TMC3    C3 8919   0.919   0.123  17.547 -0.3764 -0.7235  0.0940
  602TMC3    C4 8920   0.912   4.589  17.488 -0.7526 -0.6554  0.2868
  602TMC3    C5 8921   0.798   4.661  17.468  0.1752  0.4453  0.5740
  602TMC3    C6 8922   0.797   0.073  17.490 -0.0810 -0.0131  0.4381
  602TMC3     C 8923   1.149   4.569  17.504  0.1575  0.1935  0.5485
  602TMC3     O 8924   1.231   4.620  17.428  0.3020  0.1234 -0.1839
  602TMC3     H 8925   1.125   0.090  17.598 -0.9962  0.0934  2.8535
  602TMC3    H1 8926   0.914   4.487  17.452 -1.1968 -1.1677  1.7045
  602TMC3    H2 8927   0.710   0.138  17.486  0.0982  0.3601  2.6139
  602TMC3    C7 8928   0.698   4.604  17.379 -0.0856 -0.0648  0.4052
  602TMC3    C8 8929   0.961   0.255  17.492 -0.4822 -0.5484  0.7173
  602TMC3    O1 8930   0.706   4.486  17.354 -0.7702  0.3725  0.3421
  602TMC3    O2 8931   1.077   0.273  17.471  0.7879  0.4330 -0.1744
  603TMC3    C1 8932   4.365   3.811   9.869  0.6307 -0.4165 -0.2195
  603TMC3    C2 8933   4.341   3.841   9.999 -0.3192  0.3874  0.2561
  603TMC3    C3 8934   4.293   3.964  10.039  0.2328  0.9600 -0.8007
  603TMC3    C4 8935   4.342   3.905   9.773 -0.1417 -0.5204  0.0357
  603TMC3    C5 8936   4.302   4.030   9.814  0.3298  0.2756 -0.6576
  603TMC3    C6 8937   4.268   4.063   9.944  0.6129 -0.0023  0.2095
  603TMC3     C 8938   4.388   3.669   9.836  0.4122 -0.2508 -0.0738
  603TMC3     O 8939   4.403   3.609   9.946 -0.0551  0.4605 -0.1974
  603TMC3     H 8940   4.338   3.766  10.077  1.8249 -1.2640 -1.2216
  603TMC3    H1 8941   4.326   3.874   9.670  0.8042 -3.9392  0.9296
  603TMC3    H2 8942   4.266   4.167   9.974  0.1197  0.2495 -0.7332
  603TMC3    C7 8943   4.247   4.111   9.711 -0.8075  0.2621 -0.1979
  603TMC3    C8 8944   4.315   3.993  10.182 -1.0069 -0.1009 -0.4167
  603TMC3    O1 8945   4.306   4.102   9.603  0.6108  0.3546 -0.0451
  603TMC3    O2 8946   4.291   3.903  10.259 -0.0382  0.2831  0.2654
  604MPD2     C 8947   0.581   3.194  16.661  0.1458  0.3969 -0.0404
  604MPD2    C1 8948   0.509   3.277  16.578  0.2561  0.8303  0.3142
  604MPD2    C2 8949   0.543   3.269  16.439 -0.2063 -0.3289 -0.3956
  604MPD2    C3 8950   0.635   3.184  16.387  0.1962 -0.0033 -0.1440
  604MPD2    C4 8951   0.704   3.100  16.472 -0.1385  0.3866  0.0861
  604MPD2    C5 8952   0.674   3.107  16.606  0.2380 -0.3504  0.2501
  604MPD2     H 8953   0.492   3.337  16.372 -1.5189 -2.3559 -1.4812
  604MPD2    H1 8954   0.771   3.025  16.432  1.2726  1.2468  0.8752
  604MPD2    H2 8955   0.562   3.182  16.767  1.5811  0.5058  0.2220
  604MPD2    H3 8956   0.723   3.039  16.675 -1.7834 -0.3365  1.7003
  604MPD2     N 8957   0.663   3.200  16.249 -0.2432 -0.3214  0.3872
  604MPD2    H5 8958   0.621   3.283  16.208 -0.7227 -0.2619  0.9881
  604MPD2    N1 8959   0.417   3.353  16.648  0.2814  0.3933 -0.1970
  604MPD2    H7 8960   0.413   3.339  16.749  1.3223 -0.1986 -0.2338
  605TMC3    C1 8961   0.258   3.535  16.662  0.4325  0.1952  0.8102
  605TMC3    C2 8962   0.338   3.607  16.748  0.5697  0.4945 -0.5182
  605TMC3    C3 8963   0.298   3.734  16.775 -0.8671  0.1255 -0.6090
  605TMC3    C4 8964   0.160   3.591  16.587 -0.0856  0.4472  0.2506
  605TMC3    C5 8965   0.122   3.718  16.617  0.6397  0.0692 -0.4886
  605TMC3    C6 8966   0.193   3.790  16.712 -0.0513 -0.2313 -0.0269
  605TMC3     C 8967   0.332   3.437  16.581 -0.1458  0.9638  0.0035
  605TMC3     O 8968   0.319   3.454  16.460 -0.1297 -0.3505  0.2287
  605TMC3     H 8969   0.426   3.569  16.798  0.7740 -0.8071 -1.8754
  605TMC3    H1 8970   0.103   3.536  16.513  1.6551  0.5403 -1.1595
  605TMC3    H2 8971   0.166   3.894  16.725 -2.5965 -0.9626  0.6758
  605TMC3    C7 8972   0.043   3.797  16.522 -0.3054  0.2823 -1.0043
  605TMC3    C8 8973   0.376   3.811  16.867 -0.5283 -1.1228  0.0910
  605TMC3    O1 8974   0.046   3.921  16.534 -0.3075  0.4728 -0.8736
  605TMC3    O2 8975   0.322   3.905  16.922 -0.5539  0.0217  0.1390
  606TMC3    C1 8976   1.687   1.449  17.151 -0.9864 -0.1193  0.4424
  606TMC3    C2 8977   1.720   1.565  17.214 -0.4853  0.1344 -0.3640
  606TMC3    C3 8978   1.685   1.592  17.343  0.8372 -0.0649 -0.4349
  606TMC3    C4 8979   1.601   1.360  17.213  0.0765 -0.9761 -0.0432
  606TMC3    C5 8980   1.563   1.395  17.342 -0.5174 -0.0162 -0.4302
  606TMC3    C6 8981   1.605   1.509  17.412 -0.3383  0.0494 -0.7540
  606TMC3     C 8982   1.702   1.431  17.009 -0.9491 -0.1395 -0.1409
  606TMC3     O 8983   1.645   1.335  16.955 -0.1041  0.9599 -0.0842
  606TMC3     H 8984   1.766   1.649  17.161 -0.0157  1.3433  1.9561
  606TMC3    H1 8985   1.564   1.272  17.161  2.2295 -0.8174 -1.8502
  606TMC3    H2 8986   1.591   1.512  17.519  1.9705  1.3475 -0.4932
  606TMC3    C7 8987   1.492   1.293  17.418 -0.5060 -0.5197  0.5078
  606TMC3    C8 8988   1.707   1.723  17.396 -0.1622 -0.2909 -0.3747
  606TMC3    O1 8989   1.512   1.177  17.381  0.3480 -0.4209  0.6534
  606TMC3    O2 8990   1.788   1.793  17.329 -0.1429  0.0444  0.0614
  607MPD2     C 8991   3.786   4.599  10.900 -0.5389 -0.1710  0.5208
  607MPD2    C1 8992   3.848   4.692  10.985 -0.3247  0.4972  0.3303
  607MPD2    C2 8993   3.818   4.690  11.118  0.0078  0.5125  0.0236
  607MPD2    C3 8994   3.726   4.600  11.165 -0.0106  0.0201  0.0329
  607MPD2    C4 8995   3.656   4.522  11.074 -0.3546 -0.1725 -0.9277
  607MPD2    C5 8996   3.678   4.529  10.944  0.4137  0.6691  0.0459
  607MPD2     H 8997   3.870   0.030  11.186 -1.7102  0.2652  1.5820
  607MPD2    H1 8998   3.569   4.461  11.098 -1.3743  1.7181  0.1583
  607MPD2    H2 8999   3.803   4.594  10.794  0.0639  2.6226  0.4624
  607MPD2    H3 9000   3.616   4.469  10.878  0.8501 -0.5415  0.7181
  607MPD2     N 9001   3.693   4.607  11.300 -0.2723  0.5826 -0.2926
  607MPD2    H5 9002   3.732   4.687  11.349  0.3131  1.3119 -1.9660
  607MPD2    N1 9003   3.944   0.055  10.950 -0.0409  0.3678 -0.0752
  607MPD2    H7 9004   3.985   0.119  11.018  0.0174  1.2837 -0.9786
  608TMC3    C1 9005   4.122   0.147  10.838  0.0586 -0.4093  0.2402
  608TMC3    C2 9006   4.157   0.213  10.954  0.1121 -0.3241  0.2959
  608TMC3    C3 9007   4.291   0.246  10.974 -0.5233  0.7871  0.4075
  608TMC3    C4 9008   4.218   0.112  10.745  0.3130  0.6055 -0.1681
  608TMC3    C5 9009   4.350   0.143  10.775  0.4557  0.0470 -0.5937
  608TMC3    C6 9010   4.387   0.206  10.889 -0.3517 -0.1826  0.4373
  608TMC3     C 9011   4.001   0.073  10.831  0.2508  0.0757  0.8321
  608TMC3     O 9012   3.982   0.008  10.729  0.4160 -0.2780  1.1979
  608TMC3     H 9013   4.076   0.267  11.002  2.5428  1.5127  2.3179
  608TMC3    H1 9014   4.190   0.059  10.655 -1.8936  1.4286  0.0300
  608TMC3    H2 9015   4.491   0.219  10.917 -0.2602 -0.3979  0.2032
  608TMC3    C7 9016   4.449   0.088  10.686 -0.2068  0.2918  0.1061
  608TMC3    C8 9017   4.341   0.269  11.114  0.6508  0.5133  0.4446
  608TMC3    O1 9018   4.410   0.010  10.602  0.4592 -0.8048  0.5289
  608TMC3    O2 9019   4.447   0.325  11.134  0.1320 -0.3825 -0.2254
  609TMC3    C1 9020   2.537   2.940   9.212  0.2760  0.6042 -0.3110
  609TMC3    C2 9021   2.572   2.877   9.091 -0.4730 -0.1376 -0.1003
  609TMC3    C3 9022   2.709   2.878   9.062  0.3737 -0.2360 -0.6863
  609TMC3    C4 9023   2.630   3.010   9.287  0.6095 -0.3325 -0.0148
  609TMC3    C5 9024   2.760   3.010   9.237  0.1881  0.2201 -0.3647
  609TMC3    C6 9025   2.805   2.931   9.138 -0.0723 -0.9915 -1.0821
  609TMC3     C 9026   2.399   2.964   9.242  0.5818 -0.1899 -0.5038
  609TMC3     O 9027   2.380   3.049   9.330 -0.5984 -0.1516 -0.3558
  609TMC3     H 9028   2.497   2.829   9.028 -0.3732  0.0242 -0.3431
  609TMC3    H1 9029   2.597   3.066   9.375 -0.9044  0.8078 -1.3037
  609TMC3    H2 9030   2.912   2.924   9.120  0.1330 -1.2626  0.2973
  609TMC3    C7 9031   2.853   3.078   9.316 -0.3781 -0.4279  0.4065
  609TMC3    C8 9032   2.752   2.791   8.952 -0.5064 -0.3248  0.0691
  609TMC3    O1 9033   2.820   3.086   9.434 -0.0172 -0.0175 -0.0076
  609TMC3    O2 9034   2.661   2.724   8.906 -0.7258  0.1697  0.1839
  610TMC3    C1 9035   4.612   0.108  11.632 -0.4878  0.0373 -0.0455
  610TMC3    C2 9036   4.607   4.726  11.542  0.1250 -0.5119  0.5926
  610TMC3    C3 9037   4.585   4.601  11.604  0.0687  0.0638 -0.2060
  610TMC3    C4 9038   4.582   0.092  11.769  0.2283  0.1270 -0.2073
  610TMC3    C5 9039   4.549   4.693  11.816 -0.1797 -0.2396  0.5008
  610TMC3    C6 9040   4.560   4.589  11.736  1.1323 -0.5186  0.0947
  610TMC3     C 9041   4.629   0.241  11.573  0.1085 -0.4287 -0.2546
  610TMC3     O 9042   4.606   0.333  11.647  0.1816 -0.1903 -0.1891
  610TMC3     H 9043   4.621   0.007  11.434 -0.3227  1.5059  0.6785
  610TMC3    H1 9044   4.558   0.185  11.820 -1.7097 -0.0450 -0.8133
  610TMC3    H2 9045   4.535   4.497  11.787 -0.5070  0.9293  1.8872
  610TMC3    C7 9046   4.505   4.662  11.952  1.0079  0.1599 -0.1842
  610TMC3    C8 9047   4.611   4.476  11.538 -0.4499  0.0626  0.2774
  610TMC3    O1 9048   4.423   4.574  11.966 -0.0258  0.0410  0.1932
  610TMC3    O2 9049   4.605   4.374  11.605  0.1155  0.4622  0.0463
  611MPD2     C 9050   2.786   4.548   9.608  0.5979  0.2382 -0.1687
  611MPD2    C1 9051   2.872   4.479   9.689  0.2544 -0.4548  0.3326
  611MPD2    C2 9052   3.008   4.486   9.669  0.3839  0.5710  0.2736
  611MPD2    C3 9053   3.055   4.576   9.573 -0.1956  0.0246  0.4250
  611MPD2    C4 9054   2.967   4.648   9.492 -0.0652  0.3446  0.5925
  611MPD2    C5 9055   2.833   4.633   9.510 -0.5663 -0.4043 -0.6616
  611MPD2     H 9056   3.071   4.428   9.736  0.3700 -1.5106 -1.5047
  611MPD2    H1 9057   2.995   4.719   9.416 -1.0806 -0.6546 -0.7299
  611MPD2    H2 9058   2.679   4.535   9.619  0.5947 -1.3258 -2.0327
  611MPD2    H3 9059   2.763   4.694   9.455 -0.0807 -0.9693 -1.9015
  611MPD2     N 9060   3.193   4.611   9.571  0.5131 -0.3996  0.1541
  611MPD2    H5 9061   3.224   4.695   9.523  1.1541 -0.9432 -0.3657
  611MPD2    N1 9062   2.814   4.397   9.791  0.0307 -0.1239 -0.0949
  611MPD2    H7 9063   2.715   4.380   9.784 -0.5110  2.2764  1.7295
  612TMC3    C1 9064   3.403   4.659   9.655 -0.8743  0.5836 -0.6443
  612TMC3    C2 9065   3.529   4.604   9.660 -0.5998 -0.0139  0.8501
  612TMC3    C3 9066   3.637   4.684   9.647 -0.4274 -0.3561  0.4346
  612TMC3    C4 9067   3.385   0.073   9.633  0.5755 -0.2705  0.2516
  612TMC3    C5 9068   3.496   0.152   9.627 -0.0272  0.5191  0.2589
  612TMC3    C6 9069   3.623   0.096   9.644  0.4882  0.2014  0.3744
  612TMC3     C 9070   3.290   4.563   9.652 -0.0769  0.9420  0.2686
  612TMC3     O 9071   3.308   4.455   9.713  0.2852  0.1704 -0.1879
  612TMC3     H 9072   3.534   4.496   9.663 -0.2069  0.0059  0.8504
  612TMC3    H1 9073   3.298   0.110   9.579  1.0984  0.4729 -0.0854
  612TMC3    H2 9074   3.705   0.160   9.614  0.7056  0.1512  0.8555
  612TMC3    C7 9075   3.478   0.298   9.608 -0.0645 -0.1330  0.2888
  612TMC3    C8 9076   3.769   4.638   9.607  0.1515  0.0201 -0.0011
  612TMC3    O1 9077   3.579   0.363   9.576  0.2936  0.6335  0.7182
  612TMC3    O2 9078   3.834   4.707   9.532  0.5449 -0.7260  0.0441
  613MPD2     C 9079   3.058   1.724  16.437 -0.0477 -0.0138  0.1863
  613MPD2    C1 9080   2.974   1.778  16.338  0.1538 -0.8946  0.2029
  613MPD2    C2 9081   2.920   1.695  16.239 -0.6384 -0.1706 -0.3164
  613MPD2    C3 9082   2.946   1.563  16.234  0.7151 -0.2233  0.8162
  613MPD2    C4 9083   3.009   1.504  16.342 -0.5062 -0.3491  0.5204
  613MPD2    C5 9084   3.065   1.584  16.443  0.4694 -0.0708  0.4124
  613MPD2     H 9085   2.878   1.750  16.155  1.3545 -0.1717 -1.3362
  613MPD2    H1 9086   3.033   1.399  16.351  0.6878 -0.1196 -0.0052
  613MPD2    H2 9087   3.100   1.786  16.516 -0.6866  1.0329 -0.2930
  613MPD2    H3 9088   3.123   1.544  16.526  0.3629  5.0120  2.9554
  613MPD2     N 9089   2.891   1.469  16.140  0.4745  0.3025 -0.8590
  613MPD2    H5 9090   2.924   1.374  16.150  0.1847  0.4413  1.6504
  613MPD2    N1 9091   2.953   1.913  16.334  0.4677 -0.0474  0.3647
  613MPD2    H7 9092   3.029   1.954  16.389 -0.3156  1.7249  0.1184
  614TMC3    C1 9093   2.960   2.089  16.186  0.0872  0.7566 -0.0795
  614TMC3    C2 9094   3.077   2.053  16.127  0.4990  0.1572  0.2692
  614TMC3    C3 9095   3.100   2.075  15.994 -0.1466 -0.5132  0.5570
  614TMC3    C4 9096   2.878   2.173  16.127 -1.0667  0.1094 -0.1266
  614TMC3    C5 9097   2.909   2.213  15.999 -0.1688  0.6070  0.2809
  614TMC3    C6 9098   3.015   2.164  15.927 -0.1156 -0.2005  1.2498
  614TMC3     C 9099   2.882   1.975  16.239 -0.2105 -0.6819  0.7081
  614TMC3     O 9100   2.764   1.955  16.208 -0.3178  0.9726 -0.6804
  614TMC3     H 9101   3.139   1.976  16.173  0.9435  1.6030  2.0863
  614TMC3    H1 9102   2.789   2.212  16.176 -1.9130  0.4205 -1.9163
  614TMC3    H2 9103   3.042   2.190  15.825 -0.2716 -1.7274  0.8250
  614TMC3    C7 9104   2.808   2.299  15.932 -0.5643  0.1462  0.2560
  614TMC3    C8 9105   3.121   1.950  15.918  0.2751 -0.5662  0.3826
  614TMC3    O1 9106   2.758   2.379  16.009 -0.2676 -0.2716  0.8286
  614TMC3    O2 9107   3.078   1.850  15.975  0.1754  0.1456 -0.1196
  615MPD2     C 9108   2.863   3.740  15.918 -0.3088  1.0008 -0.0010
  615MPD2    C1 9109   2.720   3.756  15.933  0.4379  0.2967  0.1463
  615MPD2    C2 9110   2.643   3.673  15.857  0.6332 -0.2244  0.7145
  615MPD2    C3 9111   2.698   3.596  15.758 -0.2513  0.2271  0.1277
  615MPD2    C4 9112   2.833   3.596  15.725  0.6851 -0.4154  1.1328
  615MPD2    C5 9113   2.917   3.664  15.813  0.4734 -0.4243 -0.0050
  615MPD2     H 9114   2.537   3.688  15.873  0.3918 -2.7868  1.5034
  615MPD2    H1 9115   2.879   3.529  15.653  0.6646  2.3643 -1.4836
  615MPD2    H2 9116   2.935   3.790  15.983  1.7850 -2.2367  0.1779
  615MPD2    H3 9117   3.025   3.663  15.799  0.5668  3.1040  0.5142
  615MPD2     N 9118   2.610   3.528  15.670  0.1353 -0.3777 -0.3947
  615MPD2    H5 9119   2.650   3.505  15.579 -0.9668 -2.1021 -0.4621
  615MPD2    N1 9120   2.661   3.853  16.011  0.5750  0.4114 -0.3886
  615MPD2    H7 9121   2.567   3.829  16.041  0.7826 -0.7337 -0.6420
  616TMC3    C1 9122   2.645   4.044  16.149  0.0088  0.5094 -0.0108
  616TMC3    C2 9123   2.707   4.153  16.204 -0.2111 -0.0366 -0.3936
  616TMC3    C3 9124   2.626   4.222  16.296 -0.1452 -0.1094  0.3162
  616TMC3    C4 9125   2.520   3.998  16.181 -0.3685  0.6804  0.8570
  616TMC3    C5 9126   2.444   4.084  16.259  0.1610  0.2941  0.0452
  616TMC3    C6 9127   2.490   4.196  16.315  0.0662 -0.7325  0.4297
  616TMC3     C 9128   2.723   3.969  16.056 -0.0051 -0.9286  0.4355
  616TMC3     O 9129   2.836   4.002  16.029 -1.1152 -0.8676 -0.4673
  616TMC3     H 9130   2.799   4.183  16.155  0.2369  0.6514  0.8707
  616TMC3    H1 9131   2.468   3.915  16.135  1.2047  0.0834  0.1759
  616TMC3    H2 9132   2.427   4.255  16.381 -0.5501 -0.6121 -0.2741
  616TMC3    C7 9133   2.312   4.034  16.292  0.2134  0.5973  1.0991
  616TMC3    C8 9134   2.676   4.343  16.358 -0.3021 -0.1375  0.0992
  616TMC3    O1 9135   2.290   3.913  16.270  0.2315 -0.4550  0.8679
  616TMC3    O2 9136   2.590   4.430  16.389  0.1083 -0.2469  0.3534
  617MPD2     C 9137   0.273   2.110  13.530  0.4781  0.6066 -0.0981
  617MPD2    C1 9138   0.322   2.174  13.644 -0.3745 -0.2613  0.5015
  617MPD2    C2 9139   0.252   2.141  13.765  0.3252 -0.6552  0.1607
  617MPD2    C3 9140   0.139   2.064  13.766  0.2612  0.0437 -0.0407
  617MPD2    C4 9141   0.087   2.019  13.646  0.6646 -0.1656 -0.5358
  617MPD2    C5 9142   0.158   2.031  13.529 -0.4793  0.4985 -0.9266
  617MPD2     H 9143   0.288   2.181  13.859  0.1861  1.3221 -0.6155
  617MPD2    H1 9144   0.002   1.953  13.638  1.1512 -0.8398 -0.1442
  617MPD2    H2 9145   0.334   2.104  13.440 -0.7795  0.1473 -0.9205
  617MPD2    H3 9146   0.127   1.980  13.438  0.5189  0.1743 -1.0884
  617MPD2     N 9147   0.065   2.039  13.879  0.5451 -0.7054 -0.2266
  617MPD2    H5 9148   4.709   1.991  13.845  0.0030 -0.3491  0.5814
  617MPD2    N1 9149   0.434   2.253  13.642  0.0606  0.2206 -0.2160
  617MPD2    H7 9150   0.474   2.272  13.551  1.1421  3.5905  0.9361
  618TMC3    C1 9151   0.616   2.383  13.715 -0.1501 -0.3748 -0.1357
  618TMC3    C2 9152   0.700   2.398  13.823 -0.0951 -0.6979  0.0781
  618TMC3    C3 9153   0.833   2.418  13.794  0.1932 -0.4556  0.2102
  618TMC3    C4 9154   0.654   2.413  13.589 -0.2972  0.0915 -0.2824
  618TMC3    C5 9155   0.785   2.449  13.567  0.3422 -0.6047 -0.4970
  618TMC3    C6 9156   0.878   2.429  13.666 -0.2062 -0.0721 -0.1346
  618TMC3     C 9157   0.499   2.311  13.751  0.3415 -0.5410 -0.3868
  618TMC3     O 9158   0.472   2.300  13.868  0.3574 -0.1700  0.0923
  618TMC3     H 9159   0.675   2.372  13.925 -0.1610 -0.2125  0.1890
  618TMC3    H1 9160   0.578   2.402  13.513  1.5340 -0.8640 -1.9771
  618TMC3    H2 9161   0.985   2.427  13.648 -0.0017  0.8743  1.0111
  618TMC3    C7 9162   0.847   2.429  13.432  0.5201 -0.2550 -0.2230
  618TMC3    C8 9163   0.917   2.360  13.897  0.6438  0.7381  0.2768
  618TMC3    O1 9164   0.967   2.443  13.413  0.0241 -0.2470 -0.2643
  618TMC3    O2 9165   0.888   2.382  14.014 -0.2372  0.4555  0.1295
  619MPD2     C 9166   1.708   3.083  13.709 -0.4625  1.2192  0.5054
  619MPD2    C1 9167   1.707   3.137  13.582 -0.2738  0.0421 -0.0049
  619MPD2    C2 9168   1.588   3.152  13.518 -0.1752 -0.0373 -0.5892
  619MPD2    C3 9169   1.473   3.108  13.579 -0.2589  0.0961  0.8013
  619MPD2    C4 9170   1.483   3.028  13.695 -0.1361  0.3843  0.4293
  619MPD2    C5 9171   1.598   3.016  13.762 -0.8828 -0.2672 -0.2249
  619MPD2     H 9172   1.584   3.217  13.432 -3.3210 -1.2164 -1.3278
  619MPD2    H1 9173   1.401   2.975  13.743  0.1524 -0.7864 -0.3831
  619MPD2    H2 9174   1.802   3.069  13.762 -0.4697 -1.8851 -0.2712
  619MPD2    H3 9175   1.595   2.953  13.850  1.1156  0.1112  0.1270
  619MPD2     N 9176   1.346   3.154  13.534  0.4941  0.1222 -0.1953
  619MPD2    H5 9177   1.269   3.126  13.593  0.5582  0.3393 -0.0086
  619MPD2    N1 9178   1.830   3.180  13.516 -0.0533  0.4432  0.7036
  619MPD2    H7 9179   1.809   3.196  13.418  0.9234  2.4574  0.8284
  620TMC3    C1 9180   2.029   3.294  13.491 -0.0878 -0.1434  0.0506
  620TMC3    C2 9181   2.008   3.285  13.360 -0.5509  0.3666 -0.4752
  620TMC3    C3 9182   2.063   3.391  13.291 -0.5006  0.5485 -0.1837
  620TMC3    C4 9183   2.087   3.402  13.551 -0.0086  0.0919  0.0555
  620TMC3    C5 9184   2.148   3.499  13.484  0.1932 -0.2344  0.3869
  620TMC3    C6 9185   2.136   3.491  13.349 -0.0990  0.5543  0.7743
  620TMC3     C 9186   1.950   3.203  13.576  0.3513  0.1200 -0.3835
  620TMC3     O 9187   1.985   3.192  13.694 -0.4179  0.1743 -0.2048
  620TMC3     H 9188   1.964   3.199  13.311  0.8796 -0.2294 -0.7050
  620TMC3    H1 9189   2.092   3.405  13.659  1.1319  1.1675 -0.0178
  620TMC3    H2 9190   2.184   3.572  13.295  2.1926 -2.9060 -2.3643
  620TMC3    C7 9191   2.112   3.627  13.528 -0.0003 -0.3719 -0.0104
  620TMC3    C8 9192   1.969   3.445  13.185  0.1303 -0.3306 -0.6276
  620TMC3    O1 9193   2.065   3.702  13.446 -0.2244  0.4073 -0.5970
  620TMC3    O2 9194   1.901   3.377  13.106  0.2737 -0.3513  0.0119
  621MPD2     C 9195   1.841   2.906  10.078 -0.2972  0.3155 -0.5511
  621MPD2    C1 9196   1.954   2.891  10.006 -0.3271  0.9687  0.4625
  621MPD2    C2 9197   1.955   2.953   9.883 -0.4439 -0.1080 -0.5394
  621MPD2    C3 9198   1.851   3.015   9.831  0.0109 -0.9239 -0.3837
  621MPD2    C4 9199   1.732   3.028   9.899  0.2234 -1.0583 -0.1102
  621MPD2    C5 9200   1.732   2.958  10.019 -0.0079  0.9116  0.2411
  621MPD2     H 9201   2.047   2.960   9.826  0.1678 -3.6928  0.0021
  621MPD2    H1 9202   1.639   3.060   9.854  0.7315  0.7853  0.1841
  621MPD2    H2 9203   1.837   2.855  10.174  2.2540  1.0058 -0.0661
  621MPD2    H3 9204   1.642   2.952  10.079 -0.3876  2.1691 -0.2089
  621MPD2     N 9205   1.857   3.077   9.705 -0.4884  0.5227  0.1026
  621MPD2    H5 9206   1.948   3.077   9.659  0.5598 -3.5225  2.2425
  621MPD2    N1 9207   2.071   2.817  10.049 -0.3539  0.1303 -0.3794
  621MPD2    H7 9208   2.048   2.741  10.113  0.8579  0.7272  0.7507
  622TMC3    C1 9209   2.283   2.736  10.075  0.3473  0.2149 -0.3130
  622TMC3    C2 9210   2.258   2.705  10.206 -0.0954 -0.3201  0.4658
  622TMC3    C3 9211   2.344   2.615  10.265  0.1265 -0.5146  0.0410
  622TMC3    C4 9212   2.387   2.680  10.003  0.4259  0.0862 -0.3147
  622TMC3    C5 9213   2.462   2.582  10.063  0.4767 -0.4392  0.2183
  622TMC3    C6 9214   2.438   2.541  10.190  0.4048  0.7536 -0.0322
  622TMC3     C 9215   2.197   2.835  10.008  0.4893  0.0305  0.4066
  622TMC3     O 9216   2.247   2.922   9.937  0.0655  0.1114 -0.4276
  622TMC3     H 9217   2.188   2.761  10.265  1.9239  3.0503 -0.3557
  622TMC3    H1 9218   2.400   2.716   9.902 -2.4748 -0.9854 -1.0889
  622TMC3    H2 9219   2.501   2.463  10.231 -0.2923  0.6025  0.7569
  622TMC3    C7 9220   2.569   2.513   9.990  0.2476 -0.3079  0.4803
  622TMC3    C8 9221   2.290   2.526  10.367 -0.3252 -0.3476  0.3066
  622TMC3    O1 9222   2.676   2.480  10.039 -0.0467  0.0814 -0.2137
  622TMC3    O2 9223   2.351   2.424  10.399  0.2139 -0.2564 -0.0736
  623MPD2     C 9224   0.686   3.537  16.179 -0.0677 -0.8567 -0.3323
  623MPD2    C1 9225   0.671   3.599  16.303  0.7052  0.4722 -0.1671
  623MPD2    C2 9226   0.780   3.611  16.383 -0.2828  0.3880  0.1716
  623MPD2    C3 9227   0.899   3.546  16.349  0.3191 -0.1002 -0.0815
  623MPD2    C4 9228   0.913   3.488  16.223  0.2335  0.1073 -0.0679
  623MPD2    C5 9229   0.805   3.486  16.141  0.0034 -0.0865  0.7358
  623MPD2     H 9230   0.759   3.661  16.476 -0.8185 -1.2535  0.9419
  623MPD2    H1 9231   1.013   3.483  16.183 -0.2281  1.0050 -1.3382
  623MPD2    H2 9232   0.604   3.535  16.108  0.1092 -2.0333 -0.4988
  623MPD2    H3 9233   0.833   3.462  16.039  1.6900  4.6658  0.0696
  623MPD2     N 9234   1.003   3.578  16.436 -0.2277  0.4644  0.0702
  623MPD2    H5 9235   0.981   3.643  16.511 -0.0522  0.0024  0.5245
  623MPD2    N1 9236   0.543   3.652  16.334  0.3774 -0.2191 -0.0387
  623MPD2    H7 9237   0.481   3.655  16.255 -0.8207 -0.3247  0.9012
  624TMC3    C1 9238   1.264   3.580  16.734 -0.6207 -0.3122 -0.5951
  624TMC3    C2 9239   1.196   3.692  16.780  0.5902 -0.3777  0.8072
  624TMC3    C3 9240   1.142   3.774  16.689 -0.2757  0.2108  0.2435
  624TMC3    C4 9241   1.277   3.541  16.600  0.0090  0.4159  0.6081
  624TMC3    C5 9242   1.209   3.621  16.515  0.4115  0.3106  0.3090
  624TMC3    C6 9243   1.156   3.746  16.556  0.6841  0.3077 -0.1775
  624TMC3     C 9244   1.364   3.531  16.828  0.0010 -0.3919  1.3325
  624TMC3     O 9245   1.396   3.619  16.912  0.3089  0.0508 -1.1362
  624TMC3     H 9246   1.175   3.713  16.884  0.4628 -1.4629  0.9982
  624TMC3    H1 9247   1.337   3.462  16.556  2.1753  2.2892  0.1693
  624TMC3    H2 9248   1.092   3.794  16.483  0.3187  0.3451  0.1702
  624TMC3    C7 9249   1.132   3.546  16.419  0.5040 -0.2858 -0.0590
  624TMC3    C8 9250   0.999   3.790  16.721  0.1638 -0.4346  0.5537
  624TMC3    O1 9251   1.189   3.462  16.347 -0.0452 -0.1171 -0.4905
  624TMC3    O2 9252   0.926   3.731  16.644 -0.5343  0.4171  0.2328
  625MPD2     C 9253   1.306   0.373   1.099  0.7261 -0.9977  0.4100
  625MPD2    C1 9254   1.297   0.445   0.981  0.4612 -0.8078  0.0352
  625MPD2    C2 9255   1.410   0.446   0.906 -0.6002 -0.9231  0.0225
  625MPD2    C3 9256   1.524   0.376   0.937 -0.2647  0.1966  0.3282
  625MPD2    C4 9257   1.530   0.303   1.053 -0.1048 -0.1094  0.2447
  625MPD2    C5 9258   1.420   0.305   1.135 -0.7014 -0.9487  0.7823
  625MPD2     H 9259   1.407   0.504   0.815  3.2060 -1.2918 -0.3380
  625MPD2    H1 9260   1.620   0.249   1.079 -1.1331 -0.4711  3.0132
  625MPD2    H2 9261   1.232   0.360   1.176 -1.1613  0.6104 -1.1390
  625MPD2    H3 9262   1.421   0.251   1.230 -0.3615  2.3888  2.6790
  625MPD2     N 9263   1.630   0.385   0.834  0.3273 -0.4980 -0.2677
  625MPD2    H5 9264   1.607   0.439   0.751 -0.0752 -1.1811 -0.5969
  625MPD2    N1 9265   1.179   0.499   0.931  0.2858  0.1460 -0.0034
  625MPD2    H7 9266   1.177   0.558   0.848 -0.2725 -3.0476 -2.2786
  626TMC3    C1 9267   0.970   0.608   0.967 -0.2741 -0.7255 -0.2609
  626TMC3    C2 9268   0.929   0.605   0.835 -0.4030  0.6721 -0.1022
  626TMC3    C3 9269   0.815   0.672   0.801  0.1087 -0.5037 -0.6361
  626TMC3    C4 9270   0.901   0.673   1.058  0.4437  0.1187  0.0040
  626TMC3    C5 9271   0.786   0.740   1.020 -0.2949  0.2233  0.5119
  626TMC3    C6 9272   0.737   0.736   0.892  0.2701 -0.0451 -0.0915
  626TMC3     C 9273   1.063   0.511   1.008 -0.3239 -0.0432  0.7288
  626TMC3     O 9274   1.036   0.454   1.112  0.1221 -0.3735  0.1997
  626TMC3     H 9275   0.974   0.532   0.770  0.4890 -0.3531  1.6814
  626TMC3    H1 9276   0.923   0.665   1.164  2.9921 -2.3771 -0.6954
  626TMC3    H2 9277   0.673   0.817   0.859  1.3378  1.0191  0.4293
  626TMC3    C7 9278   0.723   0.826   1.115 -0.0207 -0.2829  0.6681
  626TMC3    C8 9279   0.755   0.643   0.668 -0.1418  0.2526 -0.5347
  626TMC3    O1 9280   0.785   0.852   1.218 -0.5662 -0.3002 -0.0437
  626TMC3    O2 9281   0.830   0.609   0.579 -0.2316  0.7762  0.3082
  627MPD2     C 9282   4.617   1.023  14.296 -0.2613 -0.1867 -0.1071
  627MPD2    C1 9283   4.667   0.956  14.410  0.1689  0.3243  0.5391
  627MPD2    C2 9284   4.658   0.817  14.415 -0.2034  0.5992 -0.3153
  627MPD2    C3 9285   4.593   0.744  14.314  0.6289 -0.3480  0.0796
  627MPD2    C4 9286   4.541   0.814  14.209 -0.4033 -0.4789 -0.2882
  627MPD2    C5 9287   4.560   0.948  14.198  0.3058 -0.8849 -0.4112
  627MPD2     H 9288   4.702   0.756  14.493 -2.2185  0.2627  0.5504
  627MPD2    H1 9289   4.483   0.766  14.132  0.3560 -1.7410 -0.0689
  627MPD2    H2 9290   4.634   1.129  14.283 -1.9555  0.1733  0.6898
  627MPD2    H3 9291   4.508   0.996  14.116  3.4381 -0.3536 -2.0931
  627MPD2     N 9292   4.584   0.608  14.313 -0.1233 -0.2405 -0.0667
  627MPD2    H5 9293   4.550   0.572  14.225  2.1314 -0.7413 -0.7358
  627MPD2    N1 9294   0.020   1.017  14.515  0.6184  0.0110  0.5355
  627MPD2    H7 9295   0.047   0.962  14.596  0.3961  3.3422  2.8494
  628TMC3    C1 9296   0.132   1.182  14.630  0.2460 -0.4067  0.0378
  628TMC3    C2 9297   0.230   1.089  14.675  0.2339 -0.2656 -0.7147
  628TMC3    C3 9298   0.329   1.136  14.757  0.0400 -0.8013  0.4835
  628TMC3    C4 9299   0.127   1.312  14.672  0.2347 -0.1442  0.6966
  628TMC3    C5 9300   0.225   1.354  14.761  0.0315 -0.1151  0.3949
  628TMC3    C6 9301   0.320   1.265  14.809  0.4366  0.0581 -0.2742
  628TMC3     C 9302   0.040   1.152  14.525 -0.0658  0.0903  0.2255
  628TMC3     O 9303   4.722   1.246  14.460  0.2263 -0.0250  0.3020
  628TMC3     H 9304   0.231   0.985  14.645  0.0035 -1.1778  2.4243
  628TMC3    H1 9305   0.054   1.379  14.629  1.9963 -0.1654 -2.3915
  628TMC3    H2 9306   0.402   1.308  14.866  1.2972 -0.7233 -0.9291
  628TMC3    C7 9307   0.250   1.499  14.782 -0.2160  0.3868 -0.0803
  628TMC3    C8 9308   0.461   1.077  14.727 -0.3616 -0.0756 -0.1920
  628TMC3    O1 9309   0.327   1.520  14.875  0.2709 -0.7695 -0.7639
  628TMC3    O2 9310   0.458   0.997  14.635  0.1476  0.3918  0.1482
  629MPD2     C 9311   3.031   4.581  16.631 -0.2955 -0.0098 -0.0947
  629MPD2    C1 9312   3.096   4.485  16.553  0.1106  0.2717  0.2003
  629MPD2    C2 9313   3.022   4.411  16.462 -0.2311 -0.3391  0.6716
  629MPD2    C3 9314   2.890   4.433  16.454  0.6957 -0.4261 -0.0704
  629MPD2    C4 9315   2.823   4.528  16.533  0.5667  0.1342  0.0270
  629MPD2    C5 9316   2.895   4.596  16.624  0.0465  0.1762 -0.0567
  629MPD2     H 9317   3.072   4.329  16.411  0.1420 -0.6645  1.5786
  629MPD2    H1 9318   2.716   4.547  16.536  0.0297 -2.7171 -1.2331
  629MPD2    H2 9319   3.091   4.638  16.701  1.3788 -0.5424 -1.1031
  629MPD2    H3 9320   2.844   4.656  16.699  0.0890 -0.7875  0.7340
  629MPD2     N 9321   2.808   4.344  16.378  0.5055 -0.1598  0.7078
  629MPD2    H5 9322   2.856   4.263  16.341 -2.2736 -1.0122 -1.0835
  629MPD2    N1 9323   3.233   4.455  16.571  0.2771  0.1967  0.5255
  629MPD2    H7 9324   3.262   4.483  16.664 -1.4645  2.4269  0.3757
  630TMC3    C1 9325   3.446   4.378  16.551  0.0944  0.4371 -0.2778
  630TMC3    C2 9326   3.565   4.415  16.491  0.1396  1.1799 -0.2104
  630TMC3    C3 9327   3.679   4.384  16.562 -0.3625  0.1801  0.8813
  630TMC3    C4 9328   3.439   4.336  16.684  0.3388 -0.4003 -0.8512
  630TMC3    C5 9329   3.557   4.298  16.744 -0.5418 -0.5343  0.2456
  630TMC3    C6 9330   3.680   4.335  16.691  0.0498  0.6605 -0.3461
  630TMC3     C 9331   3.325   4.399  16.481  0.4946 -0.1785  0.0401
  630TMC3     O 9332   3.337   4.397  16.354 -0.1401  0.1065 -0.1274
  630TMC3     H 9333   3.572   4.466  16.396  0.1221 -1.7179 -1.7710
  630TMC3    H1 9334   3.347   4.295  16.722  0.1029  0.8156 -0.1248
  630TMC3    H2 9335   3.775   4.312  16.738 -1.2182 -1.4153  1.1706
  630TMC3    C7 9336   3.547   4.172  16.821  0.5595 -0.2776 -0.7599
  630TMC3    C8 9337   3.801   4.463  16.529 -0.0837 -0.0834 -0.4185
  630TMC3    O1 9338   3.442   4.110  16.798 -0.4324 -0.1634  0.3382
  630TMC3    O2 9339   3.883   4.464  16.620  0.3649 -0.6334 -0.5917
  631MPD2     C 9340   1.575   3.681  15.525 -0.0671  0.0896  0.2222
  631MPD2    C1 9341   1.654   3.775  15.463  0.6655  0.3059 -0.2510
  631MPD2    C2 9342   1.790   3.756  15.445 -0.5022  0.5439 -0.7411
  631MPD2    C3 9343   1.842   3.630  15.470  0.4443 -0.3429 -0.7497
  631MPD2    C4 9344   1.760   3.530  15.504  0.4121  0.1845 -0.2780
  631MPD2    C5 9345   1.630   3.557  15.540  0.0145  0.5443  0.3341
  631MPD2     H 9346   1.850   3.840  15.412  0.6235  0.0819  0.1263
  631MPD2    H1 9347   1.797   3.431  15.526 -0.3616 -0.0846 -0.1709
  631MPD2    H2 9348   1.471   3.700  15.550  0.1674  0.6277  0.7782
  631MPD2    H3 9349   1.580   3.481  15.599  1.9950 -0.0296  1.2805
  631MPD2     N 9350   1.993   3.621  15.455 -0.5389 -0.3184  1.5223
  631MPD2    H5 9351   2.048   3.699  15.423  0.2364 -0.6680  1.9988
  631MPD2    N1 9352   1.584   3.891  15.426 -0.0295 -0.4468 -0.0074
  631MPD2    H7 9353   1.492   3.899  15.468 -0.3004 -1.0582 -0.4770
  632TMC3    C1 9354   1.558   4.112  15.360  0.5675  0.0708  0.0938
  632TMC3    C2 9355   1.479   4.140  15.467  0.1974  0.6104  0.4305
  632TMC3    C3 9356   1.389   4.246  15.473 -0.0995 -0.9921 -0.0720
  632TMC3    C4 9357   1.557   4.203  15.254  0.4996 -0.1273  0.0036
  632TMC3    C5 9358   1.463   4.303  15.253 -0.0374 -0.5671  0.2278
  632TMC3    C6 9359   1.376   4.326  15.357  0.5694  0.5901  0.1964
  632TMC3     C 9360   1.638   3.992  15.354 -0.5142 -0.4981  0.0367
  632TMC3     O 9361   1.719   3.990  15.262  0.0011  0.2984 -0.4235
  632TMC3     H 9362   1.490   4.075  15.553  0.1741  0.5846  0.4138
  632TMC3    H1 9363   1.614   4.184  15.164  2.4476  1.4629  0.9083
  632TMC3    H2 9364   1.304   4.407  15.348  0.6209  0.4767 -1.2780
  632TMC3    C7 9365   1.485   4.413  15.165  0.6190  0.4145  0.0928
  632TMC3    C8 9366   1.329   4.277  15.597 -0.0671  0.7451  0.5172
  632TMC3    O1 9367   1.464   4.527  15.206 -0.3289  0.2298  0.1087
  632TMC3    O2 9368   1.324   4.190  15.683 -0.3251  0.7032  0.8312
  633MPD2     C 9369   1.241   2.185  17.539  0.3584  0.8327  0.1132
  633MPD2    C1 9370   1.218   2.120  17.420  0.4808  0.3027 -0.6776
  633MPD2    C2 9371   1.157   1.999  17.420  0.0979 -0.3850 -0.0698
  633MPD2    C3 9372   1.090   1.959  17.531 -0.1681 -0.2886 -0.3009
  633MPD2    C4 9373   1.119   2.020  17.651  0.5163  0.2159 -0.0251
  633MPD2    C5 9374   1.196   2.127  17.653 -0.5208 -0.7887  0.7532
  633MPD2     H 9375   1.126   1.952  17.327 -1.0418  1.0262 -0.3946
  633MPD2    H1 9376   1.062   1.985   0.028  0.1502  0.5793 -0.1258
  633MPD2    H2 9377   1.302   2.275  17.545 -0.9374  1.7128 -0.1178
  633MPD2    H3 9378   1.211   2.165   0.045  0.7416 -2.3131  1.1270
  633MPD2     N 9379   1.003   1.847  17.538  0.1428  0.7724 -0.8933
  633MPD2    H5 9380   0.950   1.828  17.623 -0.4319  1.0705 -1.1862
  633MPD2    N1 9381   1.241   2.168  17.297  0.1994  0.0355  0.2571
  633MPD2    H7 9382   1.234   2.104  17.219 -1.5062 -0.1973  0.6186
  634TMC3    C1 9383   1.323   2.323  17.132 -0.7762 -0.0636 -0.5958
  634TMC3    C2 9384   1.390   2.228  17.070 -0.9390  0.3138  0.1402
  634TMC3    C3 9385   1.412   2.244  16.938 -0.2318 -0.8101  0.4452
  634TMC3    C4 9386   1.277   2.433  17.075  0.6129  0.4785  0.4543
  634TMC3    C5 9387   1.302   2.455  16.943  0.0923  0.1986 -0.3595
  634TMC3    C6 9388   1.378   2.362  16.875  0.2564  0.1256  0.7684
  634TMC3     C 9389   1.281   2.298  17.271  0.2621  0.0726 -0.4331
  634TMC3     O 9390   1.249   2.395  17.338  0.0540  0.1615  0.5283
  634TMC3     H 9391   1.422   2.139  17.123 -0.6224 -0.3080 -1.1061
  634TMC3    H1 9392   1.199   2.493  17.121 -0.0584 -0.9381  1.1593
  634TMC3    H2 9393   1.371   2.372  16.768  0.8917  0.5586  0.7683
  634TMC3    C7 9394   1.250   2.569  16.862  0.5385  0.0733  0.1733
  634TMC3    C8 9395   1.443   2.122  16.864 -0.2167 -0.5778  0.4142
  634TMC3    O1 9396   1.243   2.564  16.740 -0.1848 -0.0252  0.7834
  634TMC3    O2 9397   1.460   2.017  16.926 -0.4497 -0.1018 -0.2529
  635TMC3    C1 9398   1.421   2.852  17.672 -0.0178 -0.0808  0.4055
  635TMC3    C2 9399   1.511   2.782  17.604 -0.2405  0.0894  0.6613
  635TMC3    C3 9400   1.537   2.654  17.639 -0.2817  0.1054  0.4502
  635TMC3    C4 9401   1.354   2.801   0.072  0.2091 -0.0089 -0.2437
  635TMC3    C5 9402   1.370   2.669   0.098  0.1658 -0.2882 -0.3458
  635TMC3    C6 9403   1.470   2.598   0.038 -0.0914 -0.7531  0.5962
  635TMC3     C 9404   1.400   2.996  17.653 -0.1129  0.3976  0.6184
  635TMC3     O 9405   1.292   3.040  17.690 -0.2060  0.3358  0.2732
  635TMC3     H 9406   1.565   2.823  17.520 -2.0738 -2.1381 -1.5752
  635TMC3    H1 9407   1.267   2.854   0.107 -0.0599 -0.0864 -0.8102
  635TMC3    H2 9408   1.494   2.495   0.061  0.9237 -0.5845  0.3218
  635TMC3    C7 9409   1.300   2.593   0.205 -0.2410  0.2926 -0.2875
  635TMC3    C8 9410   1.650   2.580  17.590  0.4734  0.4149 -0.0515
  635TMC3    O1 9411   1.298   2.469   0.191 -0.7886 -0.3063  0.0785
  635TMC3    O2 9412   1.660   2.461  17.615 -0.1939 -1.0447 -0.5190
  636MPD2     C 9413   2.376   1.977  15.558  0.1411  0.1783  0.3502
  636MPD2    C1 9414   2.427   1.987  15.684 -0.3562 -0.7458 -0.2832
  636MPD2    C2 9415   2.517   1.879  15.722 -0.1029  0.1279  0.9596
  636MPD2    C3 9416   2.539   1.766  15.642 -0.0954 -0.1969  0.0020
  636MPD2    C4 9417   2.482   1.768  15.517  0.1795 -0.6981 -0.1624
  636MPD2    C5 9418   2.402   1.874  15.476  0.6295  0.4327  0.3844
  636MPD2     H 9419   2.561   1.869  15.820  0.9283 -2.1680  0.2673
  636MPD2    H1 9420   2.495   1.678  15.459 -0.5814  0.4425 -2.1003
  636MPD2    H2 9421   2.321   2.062  15.519 -2.8217 -1.1401  1.6642
  636MPD2    H3 9422   2.358   1.870  15.377 -0.8622 -0.1415  1.0707
  636MPD2     N 9423   2.612   1.660  15.701  0.4602  0.3738  0.0122
  636MPD2    H5 9424   2.625   1.662  15.802 -3.5308  1.6371  0.4779
  636MPD2    N1 9425   2.410   2.104  15.772 -0.7277  0.2022  0.4438
  636MPD2    H7 9426   2.444   2.084  15.865 -1.1326 -1.2345  0.2784
  637TMC3    C1 9427   2.723   1.457  15.711 -0.1963  0.0833  0.4283
  637TMC3    C2 9428   2.708   1.453  15.849  0.4126  0.5962  0.3532
  637TMC3    C3 9429   2.811   1.400  15.927 -0.8360 -0.1686 -0.2054
  637TMC3    C4 9430   2.835   1.414  15.651 -0.1912  0.0076 -0.3144
  637TMC3    C5 9431   2.942   1.386  15.740  0.1439 -0.6459  0.8558
  637TMC3    C6 9432   2.927   1.363  15.871  0.1117  0.0688  0.2852
  637TMC3     C 9433   2.641   1.541  15.634 -0.3178  0.6693 -0.2803
  637TMC3     O 9434   2.640   1.511  15.515  0.4676 -0.2643  0.0604
  637TMC3     H 9435   2.611   1.484  15.887  0.9661  2.4823  0.2174
  637TMC3    H1 9436   2.840   1.431  15.544  0.9227 -1.9636 -0.5700
  637TMC3    H2 9437   3.004   1.327  15.938  0.6009  2.3006  0.9511
  637TMC3    C7 9438   3.061   1.460  15.717 -0.6960  0.1826 -0.4487
  637TMC3    C8 9439   2.819   1.501  16.030  0.3727  0.3969 -0.5538
  637TMC3    O1 9440   3.139   1.474  15.809 -0.1712  0.4419  0.1777
  637TMC3    O2 9441   2.764   1.607  15.999 -0.3840 -0.1200  0.4818
  638MPD2     C 9442   2.062   1.105  15.126 -0.3664  0.1733  0.2080
  638MPD2    C1 9443   2.127   1.010  15.056 -0.5038 -0.0563  0.6026
  638MPD2    C2 9444   2.127   0.880  15.103  0.5538  0.3914  0.1636
  638MPD2    C3 9445   2.050   0.852  15.213 -0.8327 -0.2605  0.1036
  638MPD2    C4 9446   1.963   0.940  15.275 -0.1820 -0.7912  0.2352
  638MPD2    C5 9447   1.979   1.070  15.227  0.2232 -0.1067  0.4065
  638MPD2     H 9448   2.199   0.808  15.065 -0.8133 -0.1915 -1.3259
  638MPD2    H1 9449   1.905   0.921  15.365 -0.7956  1.8052  0.3785
  638MPD2    H2 9450   2.060   1.211  15.103 -1.4036  0.0726 -0.1778
  638MPD2    H3 9451   1.921   1.150  15.271 -2.1267 -0.0936 -2.6805
  638MPD2     N 9452   2.053   0.711  15.235 -0.2781  0.1461 -0.4040
  638MPD2    H5 9453   2.112   0.666  15.166 -2.8766 -1.0564 -1.8291
  638MPD2    N1 9454   2.192   1.044  14.934  0.3675  0.6265  0.3489
  638MPD2    H7 9455   2.206   1.141  14.910 -1.1381  1.1901  1.8293
  639TMC3    C1 9456   2.002   0.513  15.324  0.4979  0.3770  0.9988
  639TMC3    C2 9457   1.899   0.442  15.258  0.7104 -0.5627 -0.1247
  639TMC3    C3 9458   1.939   0.336  15.184 -0.5653 -1.0558 -0.0996
  639TMC3    C4 9459   2.134   0.478  15.302  0.3023  0.0941  0.1482
  639TMC3    C5 9460   2.159   0.361  15.233  0.3693  0.0146  0.7552
  639TMC3    C6 9461   2.063   0.290  15.168 -0.5469 -0.3302 -0.1830
  639TMC3     C 9462   1.984   0.653  15.336  0.4229  0.0774  0.4137
  639TMC3     O 9463   1.931   0.706  15.429 -0.5561 -0.1632  0.3567
  639TMC3     H 9464   1.794   0.467  15.262  0.3865 -2.4512  2.8034
  639TMC3    H1 9465   2.204   0.548  15.347  0.4402 -0.5438  0.9169
  639TMC3    H2 9466   2.090   0.207  15.104 -3.8739 -1.5241 -0.0299
  639TMC3    C7 9467   2.284   0.294  15.254 -0.2827 -0.0016 -0.3122
  639TMC3    C8 9468   1.850   0.291  15.071 -0.4430  0.5280 -0.0043
  639TMC3    O1 9469   2.281   0.172  15.284  0.0701 -0.1779  0.3061
  639TMC3    O2 9470   1.898   0.216  14.990  0.2709 -0.2402 -0.1476
  640MPD2     C 9471   2.028   3.953  10.300 -0.0931  0.3881  0.6099
  640MPD2    C1 9472   2.059   4.005  10.180 -0.9727 -0.4362 -0.1007
  640MPD2    C2 9473   2.073   4.146  10.169 -0.8760  0.1440 -0.2060
  640MPD2    C3 9474   2.061   4.233  10.280  0.2141  0.2814 -0.2950
  640MPD2    C4 9475   2.010   4.175  10.400 -0.3027  0.0406 -0.6573
  640MPD2    C5 9476   1.988   4.041  10.403 -0.0803  0.8901  0.1800
  640MPD2     H 9477   2.109   4.192  10.077  3.8283  0.3802  1.7786
  640MPD2    H1 9478   1.992   4.228  10.493  1.3678 -0.1745 -0.2106
  640MPD2    H2 9479   2.011   3.848  10.316  0.4663  0.5003  1.9820
  640MPD2    H3 9480   1.954   3.994  10.495 -0.9701  0.0672 -0.5755
  640MPD2     N 9481   2.089   4.375  10.271 -0.1062 -0.2010  0.6908
  640MPD2    H5 9482   2.073   4.435  10.351  0.5928  0.1655  0.5556
  640MPD2    N1 9483   2.074   3.917  10.072 -0.1120 -0.0097  0.4295
  640MPD2    H7 9484   2.064   3.821  10.105 -2.3960  0.0060 -0.2682
  641TMC3    C1 9485   2.157   3.842   9.862  0.8780 -0.0466  0.3707
  641TMC3    C2 9486   2.251   3.758   9.924  0.4898  0.0571 -0.0912
  641TMC3    C3 9487   2.339   3.684   9.843  0.3583  0.0300  0.2956
  641TMC3    C4 9488   2.164   3.869   9.726 -0.0076  0.3605 -0.0671
  641TMC3    C5 9489   2.259   3.800   9.654  0.2529  0.9857 -0.0649
  641TMC3    C6 9490   2.343   3.703   9.708 -0.6846  0.0648  0.0098
  641TMC3     C 9491   2.112   3.954   9.941  0.0970  0.1768 -0.6832
  641TMC3     O 9492   2.126   4.067   9.891  0.7882  0.4263 -0.1548
  641TMC3     H 9493   2.246   3.740  10.030 -0.7641 -0.3836 -0.2209
  641TMC3    H1 9494   2.092   3.940   9.687  0.3559  1.2008  0.7933
  641TMC3    H2 9495   2.413   3.643   9.650 -0.0028  0.2554  0.6292
  641TMC3    C7 9496   2.243   3.786   9.510 -0.3585 -0.2395  0.0814
  641TMC3    C8 9497   2.456   3.623   9.897  0.3762 -0.1074 -0.9568
  641TMC3    O1 9498   2.299   3.688   9.460 -0.2086  0.1519  0.4334
  641TMC3    O2 9499   2.560   3.619   9.832  0.0154  0.0807  0.6717
  642TMC3    C1 9500   3.846   0.979  12.240 -0.1836  0.5607 -0.2061
  642TMC3    C2 9501   3.981   0.982  12.201  0.0190  0.4646  0.8989
  642TMC3    C3 9502   4.041   0.856  12.207 -0.6275 -0.2455  0.3536
  642TMC3    C4 9503   3.780   0.864  12.271  0.4641  1.0004 -0.1338
  642TMC3    C5 9504   3.853   0.748  12.279 -0.0838 -0.2601  0.6013
  642TMC3    C6 9505   3.983   0.741  12.247  0.2948  0.1056  0.7622
  642TMC3     C 9506   3.779   1.105  12.232  0.6534 -0.0525 -0.3773
  642TMC3     O 9507   3.812   1.185  12.140  0.0342  0.1992 -0.2429
  642TMC3     H 9508   4.033   1.076  12.188  0.1616  0.3607  0.7224
  642TMC3    H1 9509   3.673   0.867  12.287  0.6207  0.8707  0.9073
  642TMC3    H2 9510   4.033   0.644  12.250 -1.0135 -0.6174 -0.8696
  642TMC3    C7 9511   3.780   0.628  12.272 -0.3141  0.9654 -0.0425
  642TMC3    C8 9512   4.183   0.848  12.225 -0.0637 -0.1047 -0.2236
  642TMC3    O1 9513   3.665   0.638  12.230  0.0383 -0.2327  0.1282
  642TMC3    O2 9514   4.239   0.764  12.156 -0.2100  0.1553  0.3667
  643TMC3    C1 9515   2.626   4.524  17.494 -0.5853 -1.2156 -0.5694
  643TMC3    C2 9516   2.547   4.472  17.389 -0.3107 -0.1601 -0.2458
  643TMC3    C3 9517   2.587   4.480  17.256  0.1299 -0.2353 -0.0970
  643TMC3    C4 9518   2.746   4.577  17.467 -0.2592  0.6213  0.6158
  643TMC3    C5 9519   2.790   4.573  17.335  0.1079  0.2439  0.2067
  643TMC3    C6 9520   2.716   4.519  17.229  0.3010 -0.6404  0.6445
  643TMC3     C 9521   2.565   4.542  17.617 -0.5354 -0.3495  0.9630
  643TMC3     O 9522   2.442   4.560  17.610  0.1853  0.5808  0.1780
  643TMC3     H 9523   2.445   4.440  17.406 -0.4551  0.4131 -0.0555
  643TMC3    H1 9524   2.790   4.632  17.549  2.3262  1.1096 -1.1066
  643TMC3    H2 9525   2.763   4.514  17.132 -0.8800 -1.8623  0.1299
  643TMC3    C7 9526   2.873   4.686  17.299  0.6082  0.1289 -0.2544
  643TMC3    C8 9527   2.511   4.565  17.173  0.3679  0.0976 -0.7517
  643TMC3    O1 9528   2.839   0.028  17.202 -0.1252  0.5157 -0.4335
  643TMC3    O2 9529   2.434   4.637  17.238 -0.3039 -0.5300  0.4583
  644MPD2     C 9530   3.179   4.029   9.616  0.1070  0.5325  0.2847
  644MPD2    C1 9531   3.226   4.134   9.532 -0.4948 -0.1953 -0.7135
  644MPD2    C2 9532   3.131   4.199   9.452  0.0147  0.0731  0.3038
  644MPD2    C3 9533   2.998   4.166   9.467  1.0855 -0.4289 -0.2213
  644MPD2    C4 9534   2.956   4.068   9.556  0.2150 -0.4752  0.0036
  644MPD2    C5 9535   3.045   4.000   9.632  0.5464 -0.9196 -0.6593
  644MPD2     H 9536   3.151   4.274   9.376 -1.8522 -0.5532 -0.8313
  644MPD2    H1 9537   2.856   4.038   9.584  0.4468  1.1107  2.5245
  644MPD2    H2 9538   3.252   3.960   9.655 -0.0338 -0.6946 -1.6238
  644MPD2    H3 9539   3.005   3.922   9.697 -1.3849  0.4697 -0.1810
  644MPD2     N 9540   2.904   4.241   9.390 -0.2358 -0.0595  0.0116
  644MPD2    H5 9541   2.941   4.310   9.325  1.2848  0.0484  0.9784
  644MPD2    N1 9542   3.361   4.145   9.509  0.3153  0.1632  0.5763
  644MPD2    H7 9543   3.419   4.075   9.555  0.9567  0.8029  0.7447
  645TMC3    C1 9544   2.700   4.310   9.287 -0.4304  0.1368 -0.0082
  645TMC3    C2 9545   2.754   4.431   9.262  0.7301  0.9631  0.5268
  645TMC3    C3 9546   2.661   4.515   9.210  0.0083 -0.3444  0.6299
  645TMC3    C4 9547   2.575   4.269   9.258  0.2743 -0.3253  0.3562
  645TMC3    C5 9548   2.483   4.359   9.199 -0.5653  0.9451 -0.1726
  645TMC3    C6 9549   2.532   4.480   9.165 -0.6068  0.0795 -0.4320
  645TMC3     C 9550   2.764   4.223   9.386  0.3718  0.4589 -0.2054
  645TMC3     O 9551   2.695   4.138   9.437 -0.3947 -0.3854  0.8196
  645TMC3     H 9552   2.840   4.463   9.319  0.8617  2.4250 -0.4873
  645TMC3    H1 9553   2.532   4.170   9.269  1.1092 -0.3855  2.9439
  645TMC3    H2 9554   2.481   4.560   9.113  0.2689  1.0077  0.1467
  645TMC3    C7 9555   2.344   4.356   9.248 -0.6971  0.4959  0.3717
  645TMC3    C8 9556   2.716   4.642   9.159  0.0014 -0.2981 -0.1636
  645TMC3    O1 9557   2.330   4.296   9.352  0.0888 -0.0974 -0.6565
  645TMC3    O2 9558   2.637   0.005   9.126  0.4303  0.1418 -0.2794
  646MPD2     C 9559   2.374   4.698  14.436  0.0920 -0.1748  0.3119
  646MPD2    C1 9560   2.274   4.603  14.456  0.1064 -0.1463 -0.1018
  646MPD2    C2 9561   2.140   4.630  14.426 -0.3256 -0.4729  0.0215
  646MPD2    C3 9562   2.110   0.030  14.370  0.0079 -0.4834  0.1107
  646MPD2    C4 9563   2.212   0.117  14.348  0.3038 -1.1398 -0.6072
  646MPD2    C5 9564   2.336   0.090  14.383  0.0103 -0.2988  0.4271
  646MPD2     H 9565   2.064   4.554  14.423 -0.4337 -0.3699  0.1899
  646MPD2    H1 9566   2.189   0.216  14.311  0.5515 -1.2635 -1.0923
  646MPD2    H2 9567   2.480   4.681  14.457  0.7091  1.4529 -1.4980
  646MPD2    H3 9568   2.416   0.161  14.367  0.2796 -1.0101 -1.3348
  646MPD2     N 9569   1.982   0.069  14.338 -0.2951  0.4001 -0.3855
  646MPD2    H5 9570   1.973   0.164  14.301 -1.5844  0.4454  0.0189
  646MPD2    N1 9571   2.329   4.486  14.512  0.5400 -0.2018  0.3349
  646MPD2    H7 9572   2.428   4.489  14.531  0.4707 -1.5252  0.8793
  647TMC3    C1 9573   2.337   4.273  14.592 -0.6331  0.8698 -0.2568
  647TMC3    C2 9574   2.275   4.150  14.629  0.5786  0.3908 -0.9529
  647TMC3    C3 9575   2.353   4.034  14.638 -0.0326 -0.0162 -0.6376
  647TMC3    C4 9576   2.473   4.280  14.578  0.0305  0.3570  0.3488
  647TMC3    C5 9577   2.541   4.158  14.598  0.7695 -0.4440 -0.9836
  647TMC3    C6 9578   2.486   4.034  14.619  0.0195 -0.2682 -0.4098
  647TMC3     C 9579   2.253   4.377  14.546  0.1314 -0.2118 -0.5510
  647TMC3     O 9580   2.132   4.360  14.561  0.4541  0.6648 -0.0461
  647TMC3     H 9581   2.168   4.150  14.648  0.6307  3.3665 -0.6620
  647TMC3    H1 9582   2.527   4.370  14.550 -1.7285  1.9635  2.1267
  647TMC3    H2 9583   2.535   3.938  14.607  2.5724  1.0470 -0.4775
  647TMC3    C7 9584   2.682   4.166  14.631  0.3947 -0.5485 -0.3447
  647TMC3    C8 9585   2.304   3.921  14.708  0.5614 -0.2336  0.4067
  647TMC3    O1 9586   2.733   4.057  14.650  0.1532 -1.1209  0.3199
  647TMC3    O2 9587   2.386   3.830  14.708  0.3637  0.8175 -0.4036
  648TMC3    C1 9588   1.733   2.136  16.206  0.6817  0.4809 -0.5205
  648TMC3    C2 9589   1.787   2.017  16.157  0.6696 -0.1929  0.0361
  648TMC3    C3 9590   1.760   1.994  16.026  0.0693 -0.2246 -0.1367
  648TMC3    C4 9591   1.659   2.223  16.132 -0.0440 -0.2842 -0.5006
  648TMC3    C5 9592   1.649   2.193  15.999  0.3857 -0.1029 -0.5752
  648TMC3    C6 9593   1.699   2.078  15.940  0.0322 -0.3594  0.3037
  648TMC3     C 9594   1.748   2.153  16.352 -0.1807 -0.1875  0.8840
  648TMC3     O 9595   1.699   2.257  16.394  0.2371 -0.3808 -0.1811
  648TMC3     H 9596   1.866   1.962  16.207  0.4112 -0.9658 -0.4118
  648TMC3    H1 9597   1.627   2.314  16.180  1.0205  1.3932 -2.9283
  648TMC3    H2 9598   1.694   2.066  15.832  2.7557 -0.3729  0.1757
  648TMC3    C7 9599   1.549   2.263  15.917 -0.7110 -0.3913 -0.0656
  648TMC3    C8 9600   1.807   1.877  15.966 -0.0237  0.2848 -0.1227
  648TMC3    O1 9601   1.514   2.208  15.818 -0.0836  0.2782 -0.5114
  648TMC3    O2 9602   1.811   1.871  15.843  0.0300  0.2812 -0.0544
  649TMC3    C1 9603   0.887   3.442  12.470 -0.0481 -0.5984  0.0488
  649TMC3    C2 9604   1.013   3.490  12.491  0.6133  0.3338  0.3956
  649TMC3    C3 9605   1.067   3.481  12.615  0.3006 -0.1691 -0.2145
  649TMC3    C4 9606   0.801   3.406  12.570 -0.0033 -0.2363  0.2243
  649TMC3    C5 9607   0.862   3.399  12.695 -0.5607 -0.5323 -0.5482
  649TMC3    C6 9608   0.993   3.431  12.713 -0.2141 -0.1299  0.1858
  649TMC3     C 9609   0.832   3.444  12.339  0.6129 -0.4056 -0.9257
  649TMC3     O 9610   0.711   3.430  12.323 -0.7208 -0.2413 -0.0912
  649TMC3     H 9611   1.077   3.530  12.413  2.4488 -0.6297  1.4127
  649TMC3    H1 9612   0.710   3.349  12.561  1.4923 -2.8381  1.4227
  649TMC3    H2 9613   1.041   3.420  12.810  0.2857 -1.4806 -0.2170
  649TMC3    C7 9614   0.783   3.338  12.800  0.0110 -0.0587  0.0192
  649TMC3    C8 9615   1.198   3.531  12.656 -0.0618  0.5107  0.7520
  649TMC3    O1 9616   0.669   3.305  12.776  0.2612  1.0086 -0.2492
  649TMC3    O2 9617   1.221   3.583  12.764  0.2643 -0.4014 -0.4724
  650TMC3    C1 9618   3.258   0.091  12.886  0.0620  0.2693 -1.2124
  650TMC3    C2 9619   3.303   0.220  12.891 -0.2399 -1.2390 -0.5762
  650TMC3    C3 9620   3.311   0.287  12.770  0.4075  0.4632 -0.5664
  650TMC3    C4 9621   3.230   0.024  12.769  0.2161 -1.2802 -0.1848
  650TMC3    C5 9622   3.237   0.095  12.650 -0.3360  0.0513  0.3163
  650TMC3    C6 9623   3.290   0.223  12.651  0.4464 -0.0495  0.0199
  650TMC3     C 9624   3.216   0.032  13.012 -0.1133 -0.5430  0.2835
  650TMC3     O 9625   3.177   0.112  13.097  0.6976  0.2789 -0.0265
  650TMC3     H 9626   3.303   0.275  12.984  2.2174  0.3333 -1.5015
  650TMC3    H1 9627   3.181   4.654  12.768  1.3070 -1.8612  1.4022
  650TMC3    H2 9628   3.311   0.265  12.553  1.1740 -1.3415 -0.3763
  650TMC3    C7 9629   3.134   0.064  12.560  0.2525 -0.5534  0.2713
  650TMC3    C8 9630   3.238   0.407  12.778 -0.7299  0.2251  0.0379
  650TMC3    O1 9631   3.095   4.675  12.561 -0.3747  0.1155  0.2808
  650TMC3    O2 9632   3.235   0.487  12.684 -0.5467  0.6592  0.2501
  651MPD2     C 9633   1.920   1.846  10.413 -0.3541  0.6961  0.3599
  651MPD2    C1 9634   1.931   1.929  10.521  0.0997  0.6406  0.3707
  651MPD2    C2 9635   2.055   1.981  10.551 -0.1557 -0.5794 -0.7734
  651MPD2    C3 9636   2.174   1.938  10.483 -0.9490 -0.8964  0.2841
  651MPD2    C4 9637   2.160   1.842  10.383  0.2064 -0.5363 -0.2011
  651MPD2    C5 9638   2.032   1.793  10.350 -0.1937  0.4369  0.0578
  651MPD2     H 9639   2.063   2.057  10.627 -0.2070  2.5474 -3.8822
  651MPD2    H1 9640   2.239   1.794  10.326  0.5556 -0.3022  0.0786
  651MPD2    H2 9641   1.825   1.803  10.382 -1.0152  2.3245  0.1532
  651MPD2    H3 9642   2.032   1.722  10.268 -0.7511 -0.8770  1.1953
  651MPD2     N 9643   2.291   2.000  10.521 -0.0793  0.2086  0.2380
  651MPD2    H5 9644   2.287   2.079  10.585  1.8892 -0.0412  0.6707
  651MPD2    N1 9645   1.825   1.969  10.601  1.0461 -0.1904  0.1958
  651MPD2    H7 9646   1.829   2.037  10.676  0.5320  0.3411 -0.2661
  652TMC3    C1 9647   2.745   2.146  10.484 -0.2389 -0.0757 -0.3465
  652TMC3    C2 9648   2.654   2.037  10.489  0.6675  0.8175 -0.1427
  652TMC3    C3 9649   2.524   2.061  10.530 -0.9636  0.6088  0.3186
  652TMC3    C4 9650   2.714   2.261  10.551 -0.0284  0.0824 -0.1981
  652TMC3    C5 9651   2.587   2.281  10.598 -0.1211 -0.4305 -0.7875
  652TMC3    C6 9652   2.489   2.181  10.587  0.4642  0.4096  0.6926
  652TMC3     C 9653   2.880   2.109  10.469 -0.1401  0.3430  0.1265
  652TMC3     O 9654   2.910   1.996  10.493  0.2771  0.7044  0.4222
  652TMC3     H 9655   2.685   1.943  10.445  2.0196 -0.0721  2.7241
  652TMC3    H1 9656   2.794   2.328  10.578 -2.2622  3.8316 -2.6968
  652TMC3    H2 9657   2.390   2.201  10.626 -0.5009 -0.2899 -1.4087
  652TMC3    C7 9658   2.553   2.410  10.651 -0.0942  0.2107 -0.1384
  652TMC3    C8 9659   2.413   1.977  10.470  0.1585 -0.2871  0.6421
  652TMC3    O1 9660   2.481   2.421  10.750  0.2837 -0.0438  0.2851
  652TMC3    O2 9661   2.452   1.891  10.392 -0.5463 -0.5369  0.0593
  653MPD2     C 9662   0.767   2.023   0.010  0.4274 -0.7375  0.6927
  653MPD2    C1 9663   0.785   2.111  17.617  0.8155 -0.3131  0.3587
  653MPD2    C2 9664   0.736   2.085  17.492  0.2927 -0.6001 -0.3230
  653MPD2    C3 9665   0.671   1.965  17.474 -0.1964 -0.4251 -0.6011
  653MPD2    C4 9666   0.640   1.886  17.584 -0.3009  0.1541  0.0413
  653MPD2    C5 9667   0.694   1.910  17.708  0.1551  0.5749 -0.0130
  653MPD2     H 9668   0.756   2.151  17.409  0.4661  1.1439  1.1049
  653MPD2    H1 9669   0.592   1.790  17.573  1.6658 -1.0520  1.8667
  653MPD2    H2 9670   0.804   2.032   0.111  1.8843  1.2467 -0.0391
  653MPD2    H3 9671   0.673   1.849   0.088  0.8273  1.5201  0.7996
  653MPD2     N 9672   0.620   1.940  17.342  0.2725  0.3250 -0.3541
  653MPD2    H5 9673   0.628   2.012  17.271 -0.9401 -0.8373 -1.6651
  653MPD2    N1 9674   0.854   2.232  17.640  0.7125  0.2061 -0.3308
  653MPD2    H7 9675   0.850   2.294  17.560  0.4526  0.6536  0.0374
  654TMC3    C1 9676   0.551   1.814  17.167 -0.1698 -0.1452 -0.8699
  654TMC3    C2 9677   0.474   1.915  17.102  0.8100 -0.0963  0.2492
  654TMC3    C3 9678   0.422   1.892  16.977 -0.5125  0.0581 -0.7992
  654TMC3    C4 9679   0.569   1.695  17.099  0.0950 -0.3876 -0.1087
  654TMC3    C5 9680   0.508   1.675  16.978  0.2631 -0.6865 -0.3871
  654TMC3    C6 9681   0.436   1.773  16.914  1.0421 -0.2224  0.1541
  654TMC3     C 9682   0.568   1.817  17.307  0.8219 -0.5484  0.0197
  654TMC3     O 9683   0.556   1.710  17.363  0.0815 -0.4936  0.1857
  654TMC3     H 9684   0.456   2.014  17.144 -0.9469 -0.1505 -0.3526
  654TMC3    H1 9685   0.633   1.623  17.149 -0.0130  0.4618  1.2373
  654TMC3    H2 9686   0.386   1.751  16.821  0.0689 -0.1013  0.6496
  654TMC3    C7 9687   0.497   1.539  16.936 -0.5799 -0.0094  0.5819
  654TMC3    C8 9688   0.339   1.996  16.909 -0.2581 -0.5277  0.2441
  654TMC3    O1 9689   0.463   1.522  16.817 -0.6323 -0.2042 -0.2226
  654TMC3    O2 9690   0.286   2.074  16.986  0.6701 -0.2658 -0.4175
  655MPD2     C 9691   1.961   2.121  15.685 -0.2144  0.3682  0.6536
  655MPD2    C1 9692   1.953   2.233  15.602  0.5677  0.2078  0.2114
  655MPD2    C2 9693   1.981   2.220  15.467  0.1870  0.0758  0.4930
  655MPD2    C3 9694   2.012   2.091  15.418 -0.2576  0.0107 -0.2824
  655MPD2    C4 9695   2.013   1.984  15.504 -0.1190  0.0341  0.1456
  655MPD2    C5 9696   1.997   2.001  15.638  0.2184  0.0208  0.0387
  655MPD2     H 9697   1.982   2.306  15.401 -0.1427  0.1405  0.5720
  655MPD2    H1 9698   2.031   1.886  15.460 -0.7250  0.9731 -2.1701
  655MPD2    H2 9699   1.920   2.114  15.785  1.2890 -0.0612  1.2329
  655MPD2    H3 9700   1.999   1.916  15.705  1.3015 -0.0170 -0.0422
  655MPD2     N 9701   2.044   2.065  15.285 -0.3533 -0.5772  0.3575
  655MPD2    H5 9702   2.058   1.973  15.244 -0.7811 -1.3673  2.0278
  655MPD2    N1 9703   1.916   2.356  15.646 -0.8491  0.9272  0.1154
  655MPD2    H7 9704   1.893   2.420  15.571 -3.1718 -2.6063 -2.1948
  656TMC3    C1 9705   1.840   2.530  15.803 -0.4715 -0.4995  0.2174
  656TMC3    C2 9706   1.849   2.581  15.928  0.6504  0.4898 -0.1424
  656TMC3    C3 9707   1.763   2.675  15.975 -0.8233 -0.0881  0.3137
  656TMC3    C4 9708   1.733   2.574  15.728 -0.5810  0.4124 -0.4808
  656TMC3    C5 9709   1.649   2.676  15.771  0.3512  0.1803 -0.3569
  656TMC3    C6 9710   1.665   2.721  15.897 -0.6850  0.4413 -0.1357
  656TMC3     C 9711   1.911   2.396  15.780 -0.5349 -0.0839 -0.1625
  656TMC3     O 9712   1.974   2.340  15.875  0.5235 -0.7113 -0.1754
  656TMC3     H 9713   1.927   2.543  15.993 -0.3882  0.3062  0.9861
  656TMC3    H1 9714   1.733   2.549  15.623 -1.8990 -1.9952  0.0828
  656TMC3    H2 9715   1.601   2.792  15.949  2.3066  1.3255  2.3589
  656TMC3    C7 9716   1.538   2.700  15.681  0.1224 -0.5624  0.0289
  656TMC3    C8 9717   1.730   2.645  16.110 -0.0163  0.3251  0.4127
  656TMC3    O1 9718   1.540   2.663  15.565 -0.3016  0.4449 -0.1332
  656TMC3    O2 9719   1.748   2.529  16.144  0.2599 -0.0234 -0.1702
  657TMC3    C1 9720   1.256   1.559  15.100 -0.7847  0.4313  0.1746
  657TMC3    C2 9721   1.210   1.540  15.225 -0.2849 -0.4813 -0.3877
  657TMC3    C3 9722   1.098   1.608  15.263  0.0395 -0.2921  0.1167
  657TMC3    C4 9723   1.186   1.638  15.014 -0.0231 -0.3729  0.1018
  657TMC3    C5 9724   1.069   1.700  15.054  0.2264  0.8001  0.2576
  657TMC3    C6 9725   1.024   1.681  15.181  0.5697  0.5763 -0.3379
  657TMC3     C 9726   1.331   1.446  15.047  0.6269  0.5550  0.2120
  657TMC3     O 9727   1.287   1.390  14.949  0.1164 -0.0462 -0.1480
  657TMC3     H 9728   1.256   1.468  15.292  1.5831 -0.7681 -2.0009
  657TMC3    H1 9729   1.211   1.624  14.909  2.9525 -0.5547  0.8279
  657TMC3    H2 9730   0.925   1.720  15.203  0.3640  0.0020 -0.2499
  657TMC3    C7 9731   1.025   1.814  14.980  0.7734 -0.6957  0.3152
  657TMC3    C8 9732   1.012   1.541  15.361 -0.4514 -0.5487  1.2446
  657TMC3    O1 9733   0.970   1.903  15.044 -0.2572  0.3472 -0.0145
  657TMC3    O2 9734   0.893   1.577  15.361 -0.1203 -0.0551 -0.1332
  658MPD2     C 9735   2.445   2.325  14.573  0.1505 -0.0256  0.9233
  658MPD2    C1 9736   2.311   2.349  14.599  0.2012  0.5539  0.1564
  658MPD2    C2 9737   2.240   2.437  14.526 -0.3631  0.0417  0.0046
  658MPD2    C3 9738   2.300   2.509  14.422  0.1050 -0.2481 -0.1542
  658MPD2    C4 9739   2.431   2.478  14.387  0.3690 -0.6401 -0.3717
  658MPD2    C5 9740   2.501   2.388  14.464 -0.1434 -0.1792 -0.4301
  658MPD2     H 9741   2.134   2.455  14.542 -0.9035 -1.5722 -1.6693
  658MPD2    H1 9742   2.477   2.514  14.297  3.8559 -0.3948  1.5161
  658MPD2    H2 9743   2.494   2.246  14.629 -1.0858 -0.1470  1.8305
  658MPD2    H3 9744   2.600   2.354  14.435  0.7253  1.3928  0.6583
  658MPD2     N 9745   2.219   2.607  14.359  0.3708  0.0623 -0.5710
  658MPD2    H5 9746   2.131   2.626  14.406 -0.8918 -0.7407 -2.5963
  658MPD2    N1 9747   2.250   2.276  14.704 -0.6287  0.0646 -0.0775
  658MPD2    H7 9748   2.305   2.200  14.742 -0.0521  0.1469 -0.7431
  659TMC3    C1 9749   2.080   2.189  14.840  1.3592 -0.0637 -0.8666
  659TMC3    C2 9750   2.131   2.186  14.968 -0.2166  0.9265  0.2911
  659TMC3    C3 9751   2.060   2.112  15.060  0.3326  0.5176  0.1415
  659TMC3    C4 9752   1.961   2.123  14.810  0.0316 -0.0445 -0.0235
  659TMC3    C5 9753   1.899   2.040  14.906 -0.2998 -0.6727 -0.3010
  659TMC3    C6 9754   1.951   2.037  15.034 -0.3158 -0.1562 -0.1617
  659TMC3     C 9755   2.120   2.294  14.754  0.3711 -0.3513  0.1211
  659TMC3     O 9756   2.027   2.371  14.722 -0.2771  0.2409  0.4669
  659TMC3     H 9757   2.210   2.249  15.007  0.1375  1.0695 -0.6398
  659TMC3    H1 9758   1.924   2.134  14.708 -0.8771  0.2690  0.3396
  659TMC3    H2 9759   1.884   1.992  15.107  0.2359 -0.1507  0.3495
  659TMC3    C7 9760   1.759   2.029  14.894  0.2928 -0.1689  0.2024
  659TMC3    C8 9761   2.060   2.164  15.195 -0.0736 -0.8880 -0.1318
  659TMC3    O1 9762   1.704   1.940  14.960 -0.2430 -0.4461  0.6991
  659TMC3    O2 9763   2.089   2.282  15.205  0.3230  0.8286 -0.4204
  660MPD2     C 9764   0.370   0.352  12.265 -0.0241  0.0139 -0.0836
  660MPD2    C1 9765   0.419   0.481  12.288 -0.7768 -0.4069 -0.1714
  660MPD2    C2 9766   0.451   0.514  12.416  0.8647 -0.1289 -0.4872
  660MPD2    C3 9767   0.432   0.431  12.525  0.3316  0.5618 -0.0696
  660MPD2    C4 9768   0.379   0.308  12.502 -0.1465 -0.5673  0.0359
  660MPD2    C5 9769   0.348   0.269  12.375  0.1693 -0.0406 -0.1981
  660MPD2     H 9770   0.492   0.611  12.440  0.3889 -0.1483  0.3885
  660MPD2    H1 9771   0.362   0.238  12.583 -0.0619 -0.6537 -0.0212
  660MPD2    H2 9772   0.362   0.311  12.165 -0.3197  0.1548 -0.1177
  660MPD2    H3 9773   0.314   0.168  12.358  1.9899 -0.7068  0.1128
  660MPD2     N 9774   0.452   0.461  12.659  0.2533 -0.5888 -0.5874
  660MPD2    H5 9775   0.446   0.379  12.718 -1.1740 -2.1505 -2.9357
  660MPD2    N1 9776   0.424   0.571  12.176  0.0290  0.2690  0.3327
  660MPD2    H7 9777   0.396   0.525  12.090  0.9207  0.5395 -0.0937
  661TMC3    C1 9778   0.423   0.765  12.060  0.3410 -1.0243 -0.0299
  661TMC3    C2 9779   0.443   0.695  11.951  0.1560 -0.1840  0.2825
  661TMC3    C3 9780   0.376   0.751  11.841 -0.1974 -0.1729 -0.5631
  661TMC3    C4 9781   0.348   0.878  12.073 -0.0791  0.0255  0.6418
  661TMC3    C5 9782   0.281   0.927  11.964  0.1787  0.6224  0.2523
  661TMC3    C6 9783   0.295   0.861  11.840 -0.4254 -0.5927  0.5824
  661TMC3     C 9784   0.464   0.698  12.185  1.2829  0.1855  0.1487
  661TMC3     O 9785   0.491   0.774  12.278 -0.4419 -0.4965  0.2678
  661TMC3     H 9786   0.523   0.622  11.945  1.7568  1.6786 -0.8290
  661TMC3    H1 9787   0.333   0.917  12.173 -0.2976  0.7050  0.3408
  661TMC3    H2 9788   0.252   0.898  11.748  0.9249  1.5101  0.7929
  661TMC3    C7 9789   0.156   0.996  11.983  0.6649 -0.1598  0.7533
  661TMC3    C8 9790   0.420   0.690  11.720  0.3613  0.2841 -0.9156
  661TMC3    O1 9791   0.148   1.068  12.084  0.0282  0.2506 -0.2619
  661TMC3    O2 9792   0.467   0.580  11.725 -0.1962 -0.2829 -0.2669
  662MPD2     C 9793   0.040   0.730  17.120  0.3557  0.5084  0.4989
  662MPD2    C1 9794   4.650   0.714  17.194  0.6796 -0.0942 -0.0754
  662MPD2    C2 9795   4.610   0.809  17.284 -0.1166  0.3353  0.0909
  662MPD2    C3 9796   4.683   0.928  17.287  0.1222 -0.0181  0.1136
  662MPD2    C4 9797   0.075   0.937  17.215 -0.8507 -0.1263 -0.1143
  662MPD2    C5 9798   0.120   0.836  17.139 -0.1098  0.6687 -0.7278
  662MPD2     H 9799   4.518   0.797  17.338  0.1690  0.1497  0.5324
  662MPD2    H1 9800   0.144   1.018  17.237 -0.0974 -0.7410 -0.2159
  662MPD2    H2 9801   0.053   0.659  17.038 -0.5717 -0.7875  1.4714
  662MPD2    H3 9802   0.215   0.843  17.086  1.3272 -1.2330  1.5893
  662MPD2     N 9803   4.647   1.041  17.363 -0.0047 -0.1900  0.2505
  662MPD2    H5 9804   4.716   1.116  17.368 -0.2118  0.2421 -3.2332
  662MPD2    N1 9805   4.559   0.604  17.193 -0.3165  0.6426  0.1224
  662MPD2    H7 9806   4.474   0.614  17.247  0.0837  2.1083  0.4721
  663TMC3    C1 9807   4.526   0.371  17.232  0.4689 -0.1081 -0.1402
  663TMC3    C2 9808   4.392   0.388  17.261 -0.1153 -0.3369  0.8482
  663TMC3    C3 9809   4.341   0.354  17.378  0.1062 -0.3231  0.1116
  663TMC3    C4 9810   4.608   0.291  17.310 -0.4173  0.3402 -0.1108
  663TMC3    C5 9811   4.544   0.236  17.412 -0.1401 -0.3861  0.4375
  663TMC3    C6 9812   4.416   0.262  17.450  0.2514  0.5899 -0.1923
  663TMC3     C 9813   4.598   0.475  17.155  0.0046  0.2954  0.6669
  663TMC3     O 9814   4.697   0.429  17.096  0.5293 -0.1011 -0.1344
  663TMC3     H 9815   4.327   0.459  17.211 -1.6047 -0.8582  2.0267
  663TMC3    H1 9816   4.715   0.280  17.298 -0.5574  1.5639 -2.3644
  663TMC3    H2 9817   4.394   0.237  17.553 -1.8325 -0.0722 -0.7974
  663TMC3    C7 9818   4.625   0.126  17.471  0.2062 -0.1116  0.2240
  663TMC3    C8 9819   4.319   0.481  17.448  0.1224  0.8308  0.0278
  663TMC3    O1 9820   0.010   0.102  17.431  0.2208 -0.0751 -0.4138
  663TMC3    O2 9821   4.344   0.583  17.384 -0.2838 -0.3348 -0.0385
  664MPD2     C 9822   3.022   3.461  17.707  0.4652 -0.3654  0.0519
  664MPD2    C1 9823   2.945   3.567  17.671 -0.1393 -0.0662 -0.3690
  664MPD2    C2 9824   2.854   3.618   0.059 -0.4264 -0.4509  0.3423
  664MPD2    C3 9825   2.827   3.555   0.180  0.4007  0.6187  0.6407
  664MPD2    C4 9826   2.899   3.442   0.209 -0.6992 -0.0656  0.9493
  664MPD2    C5 9827   2.994   3.400   0.119  0.3164 -0.4341 -0.4040
  664MPD2     H 9828   2.795   3.706   0.038  1.8931  0.7463 -1.1160
  664MPD2    H1 9829   2.875   3.370   0.286 -4.1131 -0.8222 -0.8317
  664MPD2    H2 9830   3.093   3.409  17.645 -1.7272 -2.2676 -0.8538
  664MPD2    H3 9831   3.053   3.311   0.137  1.4107  0.2431 -0.6104
  664MPD2     N 9832   2.724   3.601   0.269 -0.4568  0.6321  0.3953
  664MPD2    H5 9833   2.696   3.695   0.245  1.6422  1.1092 -0.2192
  664MPD2    N1 9834   2.965   3.627  17.543  0.3688 -0.2542  0.9092
  664MPD2    H7 9835   2.892   3.692  17.514 -0.3893 -1.8916 -0.8649
  665TMC3    C1 9836   2.598   3.614   0.465  0.1999  0.3049  0.4418
  665TMC3    C2 9837   2.525   3.538   0.557  0.4201 -0.3181 -0.3869
  665TMC3    C3 9838   2.471   3.605   0.662  0.0284  0.3266  0.1704
  665TMC3    C4 9839   2.622   3.743   0.480  0.5057  0.0612 -0.1468
  665TMC3    C5 9840   2.576   3.803   0.595  0.3288 -0.4570 -0.0338
  665TMC3    C6 9841   2.498   3.734   0.686  0.0984 -0.4195  0.3795
  665TMC3     C 9842   2.678   3.530   0.379 -0.3763 -0.2787 -0.2994
  665TMC3     O 9843   2.686   3.413   0.407  0.0103 -0.3472 -0.6165
  665TMC3     H 9844   2.516   3.431   0.550 -0.7473 -0.2883  0.5641
  665TMC3    H1 9845   2.699   3.793   0.422 -0.6561  1.0204 -0.8536
  665TMC3    H2 9846   2.461   3.780   0.777 -0.9046  0.4889 -0.4910
  665TMC3    C7 9847   2.579   3.951   0.601  0.2809 -0.7189 -0.3688
  665TMC3    C8 9848   2.437   3.530   0.781 -0.8328  0.2213  0.2730
  665TMC3    O1 9849   2.591   4.011   0.495  0.1249  0.0421 -0.2421
  665TMC3    O2 9850   2.432   3.598   0.881 -0.6281 -0.0915 -0.0882
  666TMC3    C1 9851   1.810   3.205   9.518  0.0381 -0.0269 -0.2395
  666TMC3    C2 9852   1.949   3.200   9.497 -0.5598 -0.2646  0.1462
  666TMC3    C3 9853   2.023   3.314   9.468  0.3296 -0.9223  0.4893
  666TMC3    C4 9854   1.746   3.323   9.499  0.4309 -0.1683 -0.3575
  666TMC3    C5 9855   1.816   3.438   9.488 -0.4327 -0.4245  0.2988
  666TMC3    C6 9856   1.957   3.440   9.474 -0.0569 -0.6255 -0.1315
  666TMC3     C 9857   1.754   3.137   9.635 -0.1797 -0.1118 -0.1188
  666TMC3     O 9858   1.638   3.148   9.664  0.0474  0.3742  0.2999
  666TMC3     H 9859   2.002   3.108   9.477  1.7624  1.3529 -1.1777
  666TMC3    H1 9860   1.639   3.335   9.511  0.3018 -0.6524 -1.0453
  666TMC3    H2 9861   2.007   3.536   9.484  0.2309 -0.4732 -2.8018
  666TMC3    C7 9862   1.759   3.552   9.543  0.3466 -0.2661  0.4709
  666TMC3    C8 9863   2.159   3.301   9.493 -0.6097 -0.9165 -0.1417
  666TMC3    O1 9864   1.674   3.536   9.631 -0.2435  0.0467 -0.3698
  666TMC3    O2 9865   2.182   3.203   9.564 -0.1797  0.5357  0.1285
  667MPD2     C 9866   4.372   3.922  15.027 -0.2811  0.2772 -0.4560
  667MPD2    C1 9867   4.320   3.926  14.904 -0.1110 -0.3213  0.0746
  667MPD2    C2 9868   4.306   3.814  14.837 -0.1964  0.3579  0.0086
  667MPD2    C3 9869   4.338   3.691  14.894  0.0362 -0.1996 -0.1711
  667MPD2    C4 9870   4.369   3.683  15.025  0.9675  0.5478 -0.2996
  667MPD2    C5 9871   4.394   3.803  15.093 -0.2188  0.3744 -0.1811
  667MPD2     H 9872   4.291   3.819  14.730 -0.4127  1.2203  0.0781
  667MPD2    H1 9873   4.387   3.592  15.081  1.5054  0.4703 -0.5928
  667MPD2    H2 9874   4.391   4.020  15.070  0.1155 -0.1408  0.3256
  667MPD2    H3 9875   4.443   3.808  15.189  2.8561  2.1729 -1.8340
  667MPD2     N 9876   4.317   3.566  14.825 -0.4425 -0.5051  0.3138
  667MPD2    H5 9877   4.323   3.480  14.880 -0.2442 -0.2312  0.7188
  667MPD2    N1 9878   4.276   4.041  14.835  0.8203 -0.1204  0.0050
  667MPD2    H7 9879   4.225   4.034  14.748 -0.2411  0.4256  0.5835
  668TMC3    C1 9880   4.216   4.266  14.806  0.2521  0.3737  0.6032
  668TMC3    C2 9881   4.231   4.397  14.847  0.0709 -0.1713  0.3385
  668TMC3    C3 9882   4.141   4.493  14.800 -0.0280  0.1064 -0.6017
  668TMC3    C4 9883   4.107   4.232  14.740  0.8964  0.0678  0.3956
  668TMC3    C5 9884   4.013   4.325  14.704 -0.4061  0.4870  0.8290
  668TMC3    C6 9885   4.028   4.459  14.727 -0.2503 -0.4834  0.0043
  668TMC3     C 9886   4.288   4.169  14.881 -0.3061 -0.0337 -0.1097
  668TMC3     O 9887   4.339   4.213  14.984  0.0506 -0.5126  0.0317
  668TMC3     H 9888   4.303   4.428  14.922 -0.0760  1.1870 -0.0810
  668TMC3    H1 9889   4.071   4.130  14.738  1.2124 -0.0510  0.7618
  668TMC3    H2 9890   3.951   4.528  14.693  0.1216 -0.0640  0.0056
  668TMC3    C7 9891   3.906   4.273  14.621 -0.2675  0.3570  0.3128
  668TMC3    C8 9892   4.133   4.619  14.871  0.7713  0.3565 -0.3010
  668TMC3    O1 9893   3.933   4.184  14.538 -0.2605  0.2039  0.2586
  668TMC3    O2 9894   4.026   4.672  14.891  0.1511  0.6316  0.4076
  669TMC3    C1 9895   2.164   3.675  14.487 -0.2073  0.1730  0.7107
  669TMC3    C2 9896   2.049   3.737  14.432 -0.2616 -0.5115  0.2221
  669TMC3    C3 9897   2.064   3.830  14.336  0.6855 -0.9753  0.0685
  669TMC3    C4 9898   2.292   3.713  14.448 -0.5525  0.4831  0.2336
  669TMC3    C5 9899   2.298   3.808  14.353 -0.1305  0.0862  0.2868
  669TMC3    C6 9900   2.190   3.868  14.291 -0.2594 -0.0121 -0.3363
  669TMC3     C 9901   2.144   3.571  14.585 -0.3465  0.1528  0.5600
  669TMC3     O 9902   2.026   3.547  14.627 -0.1350  0.1940 -0.5161
  669TMC3     H 9903   1.951   3.697  14.452 -0.5076  0.7563  1.5404
  669TMC3    H1 9904   2.377   3.690  14.510  0.1767 -0.5994 -1.1759
  669TMC3    H2 9905   2.198   3.929  14.202 -1.5269 -0.9431 -1.0835
  669TMC3    C7 9906   2.426   3.871  14.321 -0.3324  0.6624 -0.1692
  669TMC3    C8 9907   1.953   3.854  14.244 -0.7669 -0.2837 -0.0978
  669TMC3    O1 9908   2.429   3.983  14.273  0.5881  0.3590 -0.3097
  669TMC3    O2 9909   1.979   3.854  14.124  0.3192  0.2307 -0.1599
  670MPD2     C 9910   4.715   1.704  13.464  1.0329  0.1296 -0.1064
  670MPD2    C1 9911   0.126   1.708  13.456  0.2950 -0.0850 -1.0245
  670MPD2    C2 9912   0.217   1.695  13.564 -0.2475  0.3651 -0.3825
  670MPD2    C3 9913   0.161   1.683  13.693  0.6591 -0.0344  0.8159
  670MPD2    C4 9914   0.022   1.688  13.703  0.6598 -0.0307  0.1581
  670MPD2    C5 9915   4.661   1.690  13.594  0.0406 -0.9997 -0.4531
  670MPD2     H 9916   0.324   1.702  13.548 -0.0362  2.7819  1.9470
  670MPD2    H1 9917   4.699   1.697  13.800  0.1680  1.2201 -0.2115
  670MPD2    H2 9918   4.648   1.712  13.378  0.4035 -0.0758  0.3650
  670MPD2    H3 9919   4.556   1.708  13.612  0.2962  1.6210 -1.5613
  670MPD2     N 9920   0.237   1.658  13.809  0.2771 -0.2428  0.2268
  670MPD2    H5 9921   0.338   1.660  13.800  0.2806  2.3458  0.8584
  670MPD2    N1 9922   0.196   1.736  13.323 -0.3353  0.3008 -0.4955
  670MPD2    H7 9923   0.294   1.760  13.334 -0.4170  0.9851 -1.2697
  671TMC3    C1 9924   0.307   1.662  14.035 -0.4623  0.0554  0.1225
  671TMC3    C2 9925   0.423   1.604  13.993  0.5175  0.4145  0.1279
  671TMC3    C3 9926   0.534   1.609  14.072  0.3621  0.3840 -0.7868
  671TMC3    C4 9927   0.302   1.742  14.145 -0.3233 -0.8383 -0.4473
  671TMC3    C5 9928   0.414   1.746  14.224  0.1440 -0.5722 -0.0875
  671TMC3    C6 9929   0.529   1.679  14.189  0.7023  0.7756  0.6689
  671TMC3     C 9930   0.197   1.671  13.939 -0.1653 -0.3244  0.1809
  671TMC3     O 9931   0.091   1.707  13.983 -0.3330  0.2048 -0.5942
  671TMC3     H 9932   0.424   1.529  13.915 -1.0180 -0.3135  0.8058
  671TMC3    H1 9933   0.210   1.792  14.170 -0.0675 -1.0743  0.9478
  671TMC3    H2 9934   0.619   1.697  14.248  0.6514 -0.4472  1.1271
  671TMC3    C7 9935   0.401   1.790  14.362  0.8609 -0.1893 -1.1102
  671TMC3    C8 9936   0.644   1.515  14.057  0.1079 -0.1876 -0.3435
  671TMC3    O1 9937   0.352   1.902  14.375 -0.1569  0.0777  0.3075
  671TMC3    O2 9938   0.667   1.476  13.943  0.3347 -0.9040  0.2084
  672MPD2     C 9939   0.126   1.647   1.203 -1.1543 -0.0766  0.1616
  672MPD2    C1 9940   0.258   1.622   1.165 -0.0570  1.0753 -0.5155
  672MPD2    C2 9941   0.364   1.646   1.257 -0.2731 -0.5250  0.4631
  672MPD2    C3 9942   0.337   1.712   1.377 -0.3163 -0.2468 -0.5689
  672MPD2    C4 9943   0.208   1.742   1.409  0.6126 -0.2685  0.2606
  672MPD2    C5 9944   0.104   1.698   1.327 -0.4549 -0.2242 -0.8353
  672MPD2     H 9945   0.466   1.626   1.225 -0.6773 -0.0637 -1.0978
  672MPD2    H1 9946   0.184   1.807   1.493 -2.3546  1.2464 -1.7558
  672MPD2    H2 9947   0.042   1.614   1.144 -0.3248  0.4980 -1.3371
  672MPD2    H3 9948   0.001   1.722   1.350 -0.0298 -0.5705  1.3568
  672MPD2     N 9949   0.432   1.742   1.472 -0.4868  0.8510 -0.1133
  672MPD2    H5 9950   0.401   1.794   1.553 -1.3530  0.7714 -0.3992
  672MPD2    N1 9951   0.293   1.572   1.035 -0.3921  0.0621 -0.6582
  672MPD2    H7 9952   0.392   1.560   1.018 -0.2332 -0.0886  0.3704
  673TMC3    C1 9953   0.283   1.511   0.807  0.6547 -0.0470  0.4965
  673TMC3    C2 9954   0.357   1.399   0.813 -0.1751  0.2496  0.3600
  673TMC3    C3 9955   0.385   1.330   0.696  0.4749 -1.0887  0.3823
  673TMC3    C4 9956   0.242   1.559   0.690  0.0059  0.5112 -0.1028
  673TMC3    C5 9957   0.285   1.500   0.573 -0.4095 -0.2707  0.0974
  673TMC3    C6 9958   0.359   1.382   0.577 -0.3131 -0.0849  0.1480
  673TMC3     C 9959   0.210   1.559   0.926 -0.0965 -0.8114 -0.0131
  673TMC3     O 9960   0.095   1.600   0.912  0.4637  0.3725 -0.5236
  673TMC3     H 9961   0.383   1.352   0.907  1.3959 -0.6750 -0.5345
  673TMC3    H1 9962   0.163   1.631   0.673 -0.3332  0.3767  0.9001
  673TMC3    H2 9963   0.405   1.351   0.484  0.0279  1.0169 -0.0539
  673TMC3    C7 9964   0.301   1.596   0.465 -0.6214 -0.3477  0.6495
  673TMC3    C8 9965   0.491   1.235   0.688 -0.4061  0.3493  0.5892
  673TMC3    O1 9966   0.317   1.538   0.353  0.1469 -0.2986  0.2801
  673TMC3    O2 9967   0.475   1.144   0.606 -0.1099  0.3008  0.0575
  674MPD2     C 9968   4.723   1.514  17.383  0.0632 -0.2986  0.6906
  674MPD2    C1 9969   0.074   1.510  17.498 -0.7882  0.4119  0.3649
  674MPD2    C2 9970   0.053   1.609  17.591  0.6544 -0.0844 -0.3352
  674MPD2    C3 9971   4.688   1.710  17.568 -0.3932  0.0168  0.0548
  674MPD2    C4 9972   4.608   1.708  17.457  0.3609 -0.2450  0.0677
  674MPD2    C5 9973   4.627   1.605  17.362  0.4428  0.6697 -0.0193
  674MPD2     H 9974   0.106   1.591  17.684  0.1018 -0.6115 -0.1250
  674MPD2    H1 9975   4.540   1.789  17.432  1.0474  0.5628  0.8466
  674MPD2    H2 9976   0.003   1.437  17.307 -3.1574  2.2597 -2.1636
  674MPD2    H3 9977   4.551   1.610  17.284  2.6672  0.3211 -2.1868
  674MPD2     N 9978   4.689   1.809  17.666  0.6329 -0.8276 -0.5477
  674MPD2    H5 9979   0.026   1.810   0.037  0.9505 -2.6659 -0.7865
  674MPD2    N1 9980   0.181   1.417  17.523  0.0819 -0.0683 -0.4977
  674MPD2    H7 9981   0.230   1.418  17.612 -0.4749  0.0993 -0.1917
  675TMC3    C1 9982   0.281   1.203  17.526 -0.1713 -0.4268  0.5511
  675TMC3    C2 9983   0.227   1.081  17.550  0.1354  0.1463 -0.5718
  675TMC3    C3 9984   0.268   1.003  17.658  0.0491 -0.8526  0.0629
  675TMC3    C4 9985   0.380   1.248  17.609  0.3085 -0.2957 -0.2991
  675TMC3    C5 9986   0.423   1.174   0.004  0.0617 -0.4620 -0.8509
  675TMC3    C6 9987   0.365   1.052   0.029  0.4794  0.2983  0.4860
  675TMC3     C 9988   0.194   1.294  17.458 -0.3652  0.3818  0.5321
  675TMC3     O 9989   0.114   1.234  17.388 -0.4745 -1.1704 -0.2077
  675TMC3     H 9990   0.158   1.044  17.476 -0.7938  1.0900 -0.1685
  675TMC3    H1 9991   0.413   1.349  17.588 -1.1034  0.0265 -1.0146
  675TMC3    H2 9992   0.389   0.995   0.119 -1.2203  0.8688  1.3121
  675TMC3    C7 9993   0.538   1.220   0.083 -0.4949  0.2860 -0.3624
  675TMC3    C8 9994   0.156   0.933   0.003 -0.1481  0.1187  0.4296
  675TMC3    O1 9995   0.601   1.129   0.131  0.4595  1.0931  0.1497
  675TMC3    O2 9996   0.071   0.892  17.631  0.4418  0.6684  0.1600
  676MPD2     C 9997   3.115   4.435  11.255 -0.8046  0.6822  0.3050
  676MPD2    C1 9998   3.017   4.411  11.340 -0.3076 -0.1777  0.0394
  676MPD2    C2 9999   2.960   4.281  11.340 -0.0439  0.5157  0.2569
  676MPD2    C310000   3.012   4.185  11.258 -0.8152  0.2619  0.2751
  676MPD2    C410001   3.119   4.213  11.177 -0.4165  0.0663 -0.2672
  676MPD2    C510002   3.168   4.338  11.172  0.3695  0.1019 -0.2332
  676MPD2     H10003   2.871   4.261  11.399 -0.1810 -0.3504 -0.2550
  676MPD2    H110004   3.163   4.134  11.117 -1.0426 -0.2660 -0.2951
  676MPD2    H210005   3.168   4.529  11.249  0.2813  0.2032  2.4771
  676MPD2    H310006   3.257   4.370  11.119  0.6651 -1.2711 -0.5776
  676MPD2     N10007   2.952   4.059  11.232  0.0456  0.0423 -0.4926
  676MPD2    H510008   2.993   4.004  11.157  0.2671 -1.1405  0.4897
  676MPD2    N110009   2.956   4.511  11.423  0.7694 -0.6151 -0.9238
  676MPD2    H710010   2.864   4.481  11.453  0.9564  0.7281  1.0351
  677TMC3    C110011   2.881   4.724  11.511 -0.3065 -0.0289  0.2152
  677TMC3    C210012   2.772   4.653  11.546 -0.0942 -0.0022  0.0041
  677TMC3    C310013   2.663   0.002  11.590 -0.6939 -0.4533 -0.8108
  677TMC3    C410014   2.878   0.125  11.468  0.7125  0.0051  0.4539
  677TMC3    C510015   2.763   0.197  11.497 -1.3177 -0.1873  0.6578
  677TMC3    C610016   2.654   0.134  11.556  1.0112  0.0603 -0.2291
  677TMC3     C10017   2.989   4.643  11.436 -1.1161 -0.5799  0.4772
  677TMC3     O10018   3.093   4.697  11.413  0.3745  0.8560 -0.5873
  677TMC3     H10019   2.768   4.547  11.570 -0.7709  0.1107  0.3975
  677TMC3    H110020   2.964   0.171  11.420  0.3954 -0.4651 -0.5598
  677TMC3    H210021   2.566   0.197  11.568  0.5817 -0.3935 -0.9361
  677TMC3    C710022   2.763   0.336  11.463  0.8615  0.5150  0.1789
  677TMC3    C810023   2.536   4.675  11.625  0.6227 -0.1419  0.1029
  677TMC3    O110024   2.656   0.382  11.428  0.0397 -1.0133  0.1080
  677TMC3    O210025   2.447   4.698  11.549 -0.4314 -0.4887  0.1501
  678MPD2     C10026   3.509   4.150   1.452 -0.2278 -0.3060  0.6962
  678MPD2    C110027   3.537   4.222   1.337 -0.1961  0.2047 -0.6065
  678MPD2    C210028   3.434   4.266   1.262  0.1438  0.3939 -0.4860
  678MPD2    C310029   3.300   4.238   1.304  0.1652 -0.1246  0.3292
  678MPD2    C410030   3.276   4.171   1.421 -0.0054  0.3740  0.6787
  678MPD2    C510031   3.380   4.131   1.499 -0.7415  0.0258  0.3186
  678MPD2     H10032   3.453   4.310   1.164 -2.7969 -1.6359 -1.9967
  678MPD2    H110033   3.176   4.153   1.457 -0.0541  0.3822  0.5475
  678MPD2    H210034   3.588   4.120   1.520  0.4774  1.0524  0.4900
  678MPD2    H310035   3.356   4.069   1.585  0.6441 -1.3095 -0.2502
  678MPD2     N10036   3.184   4.254   1.225  0.0017 -0.0356  0.3350
  678MPD2    H510037   3.092   4.222   1.254 -0.3266 -0.5453 -1.2759
  678MPD2    N110038   3.669   4.228   1.287 -0.2554  0.2603 -0.0429
  678MPD2    H710039   3.678   4.282   1.202 -0.7793 -0.0075 -0.2742
  679TMC3    C110040   4.114   4.117   1.230 -0.5654  0.1864  0.7850
  679TMC3    C210041   3.987   4.076   1.273 -1.1576  0.2920  0.0499
  679TMC3    C310042   3.890   4.169   1.255  0.0677  0.3437 -0.3351
  679TMC3    C410043   4.140   4.231   1.156 -0.4439  0.1326 -1.1530
  679TMC3    C510044   4.034   4.309   1.136 -0.5576  0.5200 -0.0662
  679TMC3    C610045   3.909   4.288   1.186  0.1688 -0.1593 -0.2401
  679TMC3     C10046   4.230   4.042   1.264  0.1469  0.7255 -1.0689
  679TMC3     O10047   4.342   4.057   1.212 -0.2965  0.3893 -0.6005
  679TMC3     H10048   3.974   3.977   1.315  2.4448 -0.0129  0.3861
  679TMC3    H110049   4.243   4.257   1.136  1.0784 -3.0068  2.4176
  679TMC3    H210050   3.838   4.369   1.175  1.8464  1.2706 -0.4596
  679TMC3    C710051   4.042   4.401   1.025 -0.4482 -0.0169 -0.4310
  679TMC3    C810052   3.775   4.159   1.338  0.1874  0.1539 -1.0244
  679TMC3    O110053   3.945   4.468   0.996 -0.0825 -0.3406 -0.4555
  679TMC3    O210054   3.787   4.078   1.432 -0.6898 -0.2125  0.3818
  680MPD2     C10055   4.594   3.458  13.174 -0.2092 -0.0697 -0.1145
  680MPD2    C110056   4.715   3.446  13.234 -0.7424 -0.0148 -0.0241
  680MPD2    C210057   0.050   3.559  13.286  0.0100  0.0397 -0.1913
  680MPD2    C310058   4.715   3.685  13.268  0.2952 -0.1560  0.8680
  680MPD2    C410059   4.582   3.691  13.219 -0.1388 -0.0022  0.7253
  680MPD2    C510060   4.529   3.580  13.167 -0.1484  0.7129 -0.5592
  680MPD2     H10061   0.149   3.548  13.330  0.7029 -0.8665 -1.9804
  680MPD2    H110062   4.526   3.783  13.204  1.9499  1.4047  1.5353
  680MPD2    H210063   4.535   3.376  13.135 -0.8735 -0.2271  1.2260
  680MPD2    H310064   4.440   3.581  13.105 -0.7068 -2.5234  0.2265
  680MPD2     N10065   0.050   3.810  13.298 -0.1852  0.2799 -0.3809
  680MPD2    H510066   0.001   3.896  13.276  1.4308  1.0033 -1.0885
  680MPD2    N110067   0.059   3.323  13.256 -0.1947 -0.2383  0.4161
  680MPD2    H710068   0.157   3.328  13.278 -0.9156  0.9696  3.2532
  681TMC3    C110069   0.093   3.094  13.274 -0.5369  0.6743  0.1423
  681TMC3    C210070   0.053   2.993  13.352 -0.1867  0.0055 -0.8038
  681TMC3    C310071   0.142   2.916  13.417 -0.1865 -0.5126  0.4100
  681TMC3    C410072   0.225   3.113  13.252 -0.6958 -0.7027  0.1895
  681TMC3    C510073   0.311   3.041  13.323 -0.9817 -0.0873  0.2647
  681TMC3    C610074   0.273   2.943  13.407 -0.1081  0.8664 -0.3081
  681TMC3     C10075   4.724   3.199  13.235  0.0651  0.3811  0.2935
  681TMC3     O10076   4.607   3.163  13.234 -0.0772 -0.5949  0.3565
  681TMC3     H10077   4.675   2.969  13.368 -0.1783  1.4852  1.5272
  681TMC3    H110078   0.259   3.189  13.181 -1.0820  1.3894  2.2587
  681TMC3    H210079   0.345   2.886  13.465  0.3990 -0.4444 -2.2191
  681TMC3    C710080   0.458   3.058  13.319  0.4045 -0.1135  0.4135
  681TMC3    C810081   0.097   2.850  13.538 -0.0836 -0.7517  0.2516
  681TMC3    O110082   0.510   3.035  13.427 -0.5947  0.1712  0.8899
  681TMC3    O210083   4.715   2.795  13.528 -0.0309 -0.2040 -0.4500
  682MPD2     C10084   1.646   4.420  10.616  0.0321  0.2982  0.3864
  682MPD2    C110085   1.644   4.290  10.647  0.1729 -0.3900 -0.0304
  682MPD2    C210086   1.638   4.246  10.774  0.2614 -0.2091 -0.0121
  682MPD2    C310087   1.655   4.330  10.882 -0.2833 -0.8253  0.1671
  682MPD2    C410088   1.657   4.469  10.854 -0.2077  0.1770 -0.4437
  682MPD2    C510089   1.660   4.513  10.721  0.2646 -0.6841 -1.1035
  682MPD2     H10090   1.636   4.139  10.789 -0.3844 -0.1684  0.1697
  682MPD2    H110091   1.668   4.540  10.935 -1.9502 -1.5112  1.2789
  682MPD2    H210092   1.632   4.463  10.518  0.5363 -0.4430 -0.0133
  682MPD2    H310093   1.662   4.617  10.692  3.6663 -0.1918  0.8919
  682MPD2     N10094   1.640   4.284  11.016 -0.4387  0.2964  0.6692
  682MPD2    H510095   1.620   4.358  11.083 -0.5675  2.0111 -1.2407
  682MPD2    N110096   1.639   4.187  10.550 -0.1400 -0.3623  0.1392
  682MPD2    H710097   1.614   4.092  10.574 -1.1965  0.1513  1.0675
  683TMC3    C110098   1.773   4.194  11.390 -0.2934 -1.2250  1.0974
  683TMC3    C210099   1.738   4.076  11.445 -0.2287 -0.3995 -0.0263
  683TMC3    C310100   1.668   3.988  11.371 -0.0061 -0.2822  0.9867
  683TMC3    C410101   1.724   4.237  11.270  1.1690  0.1041  0.1704
  683TMC3    C510102   1.648   4.145  11.203  0.0718  0.0250 -0.4682
  683TMC3    C610103   1.622   4.020  11.246 -0.5356 -0.6011 -0.8472
  683TMC3     C10104   1.843   4.297  11.465 -0.8965  0.2858  0.6386
  683TMC3     O10105   1.820   4.414  11.443 -0.7063  0.2610  0.2108
  683TMC3     H10106   1.756   4.051  11.549  1.6128 -0.8352 -0.4520
  683TMC3    H110107   1.755   4.334  11.232 -0.2005  0.5469  0.1735
  683TMC3    H210108   1.569   3.942  11.193  1.8005 -0.8029 -2.8940
  683TMC3    C710109   1.636   4.156  11.060 -0.4262  0.1932  0.1472
  683TMC3    C810110   1.644   3.849  11.405  0.0442 -0.2737  0.3451
  683TMC3    O110111   1.661   4.058  10.995 -0.1468 -0.4479  0.1359
  683TMC3    O210112   1.546   3.790  11.350 -0.5627 -0.2897 -0.0218
  684MPD2     C10113   0.302   4.445  16.422 -0.7937 -0.3882  0.2805
  684MPD2    C110114   0.371   4.372  16.327 -0.1314  0.0036  0.1113
  684MPD2    C210115   0.447   4.443  16.231  0.0778 -0.4676 -0.1265
  684MPD2    C310116   0.454   4.579  16.242  0.2436 -0.0765  0.3028
  684MPD2    C410117   0.381   4.644  16.343 -0.0484 -0.0068  0.0972
  684MPD2    C510118   0.305   4.579  16.431  1.2790 -0.8689  0.1336
  684MPD2     H10119   0.512   4.397  16.157 -0.8846 -1.6843 -0.2147
  684MPD2    H110120   0.399   0.024  16.351 -0.4121  0.0258  0.4746
  684MPD2    H210121   0.253   4.390  16.502  0.9750 -0.2205  1.4783
  684MPD2    H310122   0.247   4.624  16.511  2.7259 -0.9206  1.2036
  684MPD2     N10123   0.548   4.655  16.173  0.5366 -0.0842  0.3189
  684MPD2    H510124   0.548   0.028  16.194  1.7517 -0.3572  1.5780
  684MPD2    N110125   0.372   4.229  16.337 -0.1258 -0.3419 -0.1756
  684MPD2    H710126   0.399   4.177  16.254 -2.2505  0.1000 -1.1519
  685TMC3    C110127   0.333   4.025  16.407  0.4932  0.0616  0.3959
  685TMC3    C210128   0.254   3.995  16.301 -0.1611 -0.1969  0.4490
  685TMC3    C310129   0.247   3.864  16.258 -0.2582  0.5334 -0.0960
  685TMC3    C410130   0.386   3.924  16.483 -0.2463 -0.2263 -0.1541
  685TMC3    C510131   0.383   3.793  16.433  0.2186  0.0292  0.8440
  685TMC3    C610132   0.314   3.763  16.320 -0.3816  0.5871  0.0856
  685TMC3     C10133   0.343   4.159  16.450  0.1395  0.3012 -0.5673
  685TMC3     O10134   0.358   4.194  16.567  0.0944 -0.5299  0.5982
  685TMC3     H10135   0.197   4.065  16.241 -0.0022  0.0237  0.5538
  685TMC3    H110136   0.455   3.942  16.565 -0.7197 -0.5545  0.3231
  685TMC3    H210137   0.299   3.657  16.304 -2.5457  0.8265  0.5820
  685TMC3    C710138   0.509   3.723  16.448 -0.0755 -0.5424 -0.1468
  685TMC3    C810139   0.187   3.824  16.132 -0.5165 -0.0243  0.7023
  685TMC3    O110140   0.568   3.727  16.553  0.1733 -0.4343 -0.2505
  685TMC3    O210141   0.171   3.705  16.114 -0.1521  0.2381  0.5203
  686MPD2     C10142   2.055   4.084  15.387  0.2951  0.2201  0.1080
  686MPD2    C110143   2.108   3.984  15.471  0.7534  0.4557 -0.1372
  686MPD2    C210144   2.222   3.922  15.423  0.4467 -0.3299  0.9945
  686MPD2    C310145   2.272   3.945  15.292  0.2635 -0.2698 -0.6389
  686MPD2    C410146   2.218   4.048  15.217  0.1399 -0.1673  0.7289
  686MPD2    C510147   2.105   4.118  15.262 -0.2228 -0.0732 -0.7123
  686MPD2     H10148   2.272   3.856  15.492  0.6861  0.1637  1.2886
  686MPD2    H110149   2.254   4.066  15.116  0.4046 -2.4999  0.4104
  686MPD2    H210150   1.963   4.134  15.414 -0.1729  0.5150 -2.1043
  686MPD2    H310151   2.057   4.188  15.196 -1.3150 -0.7464 -0.6427
  686MPD2     N10152   2.378   3.872  15.228  0.1395  0.3802  1.0270
  686MPD2    H510153   2.412   3.908  15.140 -0.1527 -1.7663  0.0293
  686MPD2    N110154   2.040   3.953  15.587  0.3159  0.0366  0.8073
  686MPD2    H710155   1.951   4.001  15.598  0.3770  0.6703 -1.4437
  687TMC3    C110156   2.376   3.674  15.383  0.5729 -0.2081 -0.4322
  687TMC3    C210157   2.246   3.633  15.388 -0.7962  0.2864  0.4499
  687TMC3    C310158   2.206   3.539  15.471  0.3813 -0.7123 -0.0168
  687TMC3    C410159   2.468   3.611  15.459  0.0178  0.2692  0.0375
  687TMC3    C510160   2.423   3.513  15.547 -0.0296 -0.2388 -0.3885
  687TMC3    C610161   2.292   3.477  15.555  0.0679 -0.7486  0.3101
  687TMC3     C10162   2.428   3.745  15.260 -0.4972  0.0732 -0.1762
  687TMC3     O10163   2.526   3.697  15.205 -0.1896 -0.2200  0.0173
  687TMC3     H10164   2.186   3.675  15.308 -0.1212  1.8749  0.7622
  687TMC3    H110165   2.574   3.634  15.451  0.2400 -2.2422 -4.0780
  687TMC3    H210166   2.250   3.428  15.642  0.7142 -2.2589 -0.2149
  687TMC3    C710167   2.477   3.519  15.679  0.1848  0.1465 -0.3203
  687TMC3    C810168   2.073   3.513  15.486  0.0207  0.8708 -0.0339
  687TMC3    O110169   2.400   3.520  15.774 -0.1097  0.6786 -0.3339
  687TMC3    O210170   2.042   3.401  15.529 -0.1629 -0.0463 -0.2606
  688MPD2     C10171   1.165   2.899  17.366  0.0728 -0.1524 -0.3456
  688MPD2    C110172   1.192   2.767  17.399  0.2151 -0.3026 -0.2879
  688MPD2    C210173   1.307   2.711  17.345  0.4156 -0.4490 -0.5104
  688MPD2    C310174   1.402   2.785  17.272 -0.8802  0.2329  0.4154
  688MPD2    C410175   1.375   2.914  17.237  0.7707 -0.6765  0.1579
  688MPD2    C510176   1.260   2.976  17.292  0.0521 -0.2414  0.1828
  688MPD2     H10177   1.329   2.607  17.363 -1.3327 -0.5154  1.2627
  688MPD2    H110178   1.442   2.983  17.187  0.4763 -1.0113 -0.6985
  688MPD2    H210179   1.079   2.952  17.404  1.2040  0.9968  0.5853
  688MPD2    H310180   1.250   3.083  17.286 -0.2406 -0.2507  0.4884
  688MPD2     N10181   1.521   2.724  17.215  0.9606  0.4996  0.0855
  688MPD2    H510182   1.575   2.787  17.156  1.3515  0.4639  0.4036
  688MPD2    N110183   1.113   2.674  17.476 -0.4205 -0.3318  0.2689
  688MPD2    H710184   1.151   2.583  17.498  3.0320  0.8450 -0.8612
  689TMC3    C110185   0.962   2.627  17.649  0.4328 -0.8921  0.1734
  689TMC3    C210186   0.925   2.681   0.056  0.3616  0.4758 -0.3521
  689TMC3    C310187   0.916   2.610   0.171 -0.2760 -0.1975 -0.5317
  689TMC3    C410188   0.976   2.489  17.644  0.5476  0.2327  0.0578
  689TMC3    C510189   0.945   2.414   0.050 -0.8726  0.0725  0.6827
  689TMC3    C610190   0.926   2.470   0.173  0.1394  0.2296  0.3917
  689TMC3     C10191   1.004   2.721  17.548  0.1470 -0.2087 -1.0683
  689TMC3     O10192   0.968   2.837  17.557 -0.2435  0.4280  0.1389
  689TMC3     H10193   0.897   2.786   0.060 -0.6375  0.1831  0.1502
  689TMC3    H110194   1.003   2.441  17.550  0.1727  1.3172 -0.6041
  689TMC3    H210195   0.925   2.408   0.261 -0.5439  0.2508  0.4000
  689TMC3    C710196   0.915   2.272   0.043 -0.9913  0.9075 -0.2450
  689TMC3    C810197   0.849   2.660   0.283 -0.2176 -0.2393  0.4959
  689TMC3    O110198   0.922   2.212   0.149  0.2222 -0.0414 -0.5529
  689TMC3    O210199   0.805   2.581   0.364  0.0926 -0.1718  0.5176
  690MPD2     C10200   3.381   4.386  15.623  0.5951  0.7235  0.4733
  690MPD2    C110201   3.295   4.468  15.548  0.1613  0.4172  0.1250
  690MPD2    C210202   3.321   4.609  15.552 -0.4463 -0.1445  0.1264
  690MPD2    C310203   3.423   4.664  15.634 -0.3550 -0.4149 -0.1695
  690MPD2    C410204   3.502   4.578  15.709  0.1601 -1.1619 -0.1467
  690MPD2    C510205   3.478   4.442  15.702 -0.8013 -0.4277 -0.2323
  690MPD2     H10206   3.253   4.676  15.500 -0.4079  0.0202  0.2896
  690MPD2    H110207   3.583   4.610  15.773 -1.5786  0.8204  1.0706
  690MPD2    H210208   3.357   4.281  15.640  2.0435  0.0232 -1.8235
  690MPD2    H310209   3.538   4.391  15.776  0.6700  1.4003 -0.1676
  690MPD2     N10210   3.455   0.076  15.619 -0.3751 -0.0166 -0.9431
  690MPD2    H510211   3.414   0.135  15.547 -2.7516  0.9216  1.2083
  690MPD2    N110212   3.200   4.420  15.453 -0.3170  0.1101  0.3735
  690MPD2    H710213   3.129   4.484  15.418  1.0235  0.5046 -1.6458
  691TMC3    C110214   3.094   4.263  15.316  0.3268 -0.6995  0.1370
  691TMC3    C210215   2.957   4.306  15.334  0.0622  0.1483 -0.1714
  691TMC3    C310216   2.870   4.245  15.248 -0.3076  0.1849 -0.4383
  691TMC3    C410217   3.127   4.159  15.236  0.1630  0.5208  0.0426
  691TMC3    C510218   3.023   4.094  15.167  0.2153 -0.8317 -0.2610
  691TMC3    C610219   2.900   4.143  15.165  0.4581  0.2388  0.3113
  691TMC3     C10220   3.196   4.290  15.416  1.0046 -0.4667 -0.4636
  691TMC3     O10221   3.274   4.200  15.445 -1.2571 -0.4868 -0.3451
  691TMC3     H10222   2.924   4.365  15.419  2.1809  2.3817 -0.8969
  691TMC3    H110223   3.226   4.115  15.242  0.4079  0.7835 -2.0570
  691TMC3    H210224   2.827   4.094  15.100  1.0663  0.6699 -0.6900
  691TMC3    C710225   3.064   3.964  15.107 -0.3513  0.1090 -0.4888
  691TMC3    C810226   2.733   4.236  15.304 -1.0214 -0.1056  0.0630
  691TMC3    O110227   3.181   3.929  15.122  0.0360  0.6327 -0.0467
  691TMC3    O210228   2.669   4.136  15.261 -0.5854  0.2776  0.6464
  692TMC3    C110229   0.044   0.880  15.779  0.3151 -0.1859 -0.2929
  692TMC3    C210230   4.686   0.785  15.833  0.3158  0.2545  0.2900
  692TMC3    C310231   4.724   0.651  15.806 -0.1941 -0.0813  0.3377
  692TMC3    C410232   0.161   0.858  15.713  0.6480  0.0744 -0.5263
  692TMC3    C510233   0.194   0.717  15.699  0.3640 -0.4200  0.1912
  692TMC3    C610234   0.119   0.613  15.760 -0.3639 -0.6115  0.7975
  692TMC3     C10235   0.022   1.009  15.840 -0.1444 -1.0243  0.2881
  692TMC3     O10236   4.675   1.000  15.939  0.4061 -0.5494 -0.3561
  692TMC3     H10237   4.582   0.816  15.840  0.7660  1.6668  0.7777
  692TMC3    H110238   0.221   0.938  15.672  1.7708 -0.5637 -0.1287
  692TMC3    H210239   0.150   0.514  15.729 -2.0855 -1.3108  1.3117
  692TMC3    C710240   0.306   0.694  15.618 -1.0215 -0.1866 -0.1961
  692TMC3    C810241   4.690   0.572  15.923  0.6238  0.1380  0.3553
  692TMC3    O110242   0.342   0.784  15.546 -0.0832 -0.4467 -0.0325
  692TMC3    O210243   0.002   0.455  15.925  0.2183 -0.2319  0.1454
  693MPD2     C10244   4.205   3.308  10.473 -0.5368 -0.6060  0.5288
  693MPD2    C110245   4.212   3.303  10.611 -0.4649  0.2810 -0.4591
  693MPD2    C210246   4.311   3.215  10.665  0.2237  0.5306  0.1384
  693MPD2    C310247   4.388   3.128  10.580 -0.0849  0.2691 -0.6666
  693MPD2    C410248   4.377   3.141  10.443 -0.0081 -0.7090 -0.7672
  693MPD2    C510249   4.287   3.226  10.394  0.1896 -0.2167  0.3849
  693MPD2     H10250   4.303   3.195  10.771 -0.3607 -2.1046 -0.4107
  693MPD2    H110251   4.427   3.072  10.376  1.5011 -1.1453  0.8027
  693MPD2    H210252   4.114   3.356  10.440  0.1939  0.3830 -0.0375
  693MPD2    H310253   4.261   3.226  10.289  0.4003  1.1676  0.3288
  693MPD2     N10254   4.459   3.017  10.630  0.0502 -1.1159  0.5733
  693MPD2    H510255   4.497   2.961  10.555  3.1016  0.3416  1.0368
  693MPD2    N110256   4.121   3.371  10.692 -0.1748 -0.5845  0.7195
  693MPD2    H710257   4.030   3.398  10.656  0.6773  1.7407  0.3048
  694TMC3    C110258   4.004   3.397  10.898  0.4363 -0.0236  0.1051
  694TMC3    C210259   3.893   3.343  10.833  0.2556  0.4922  0.2381
  694TMC3    C310260   3.783   3.327  10.923 -0.7970 -0.0600  0.2919
  694TMC3    C410261   4.005   3.443  11.031  0.1955  0.0199 -0.1860
  694TMC3    C510262   3.898   3.408  11.104 -0.5183 -0.3423 -0.0173
  694TMC3    C610263   3.780   3.352  11.054  0.0126  0.1117  0.6784
  694TMC3     C10264   4.129   3.380  10.828 -0.2009  0.2305  0.6707
  694TMC3     O10265   4.229   3.381  10.895  0.2276 -0.0767 -0.0040
  694TMC3     H10266   3.897   3.288  10.740  1.3175 -3.1060  2.4074
  694TMC3    H110267   4.097   3.489  11.066 -0.5237  1.5209 -0.2313
  694TMC3    H210268   3.690   3.335  11.111  0.1888  0.3793  1.0334
  694TMC3    C710269   3.908   3.427  11.248  0.4738 -0.4768  0.4173
  694TMC3    C810270   3.653   3.273  10.875 -0.5713  0.2432  0.0681
  694TMC3    O110271   3.983   3.512  11.293  0.1160 -0.1069  0.5639
  694TMC3    O210272   3.582   3.201  10.942  0.4774  0.0914 -0.7679
  695MPD2     C10273   0.574   0.698  13.700 -0.0593  0.0293  0.3099
  695MPD2    C110274   0.625   0.817  13.747 -0.2014  0.0654  0.0414
  695MPD2    C210275   0.544   0.890  13.839 -0.6055 -0.5850  0.1715
  695MPD2    C310276   0.417   0.849  13.872  0.6426  0.2152  0.1546
  695MPD2    C410277   0.374   0.720  13.832  0.5082  0.7954 -0.4713
  695MPD2    C510278   0.455   0.653  13.746 -0.2713  0.6331 -0.3973
  695MPD2     H10279   0.567   0.989  13.876 -0.2477 -0.8868  0.7506
  695MPD2    H110280   0.281   0.673  13.863  0.4255  0.5807 -1.0484
  695MPD2    H210281   0.629   0.635  13.631  0.2534  2.2442 -1.4847
  695MPD2    H310282   0.416   0.558  13.711  1.6437 -0.1036 -0.4823
  695MPD2     N10283   0.341   0.931  13.956  0.3867 -0.9161  0.0176
  695MPD2    H510284   0.386   1.015  13.992  0.4141 -0.4050 -1.2041
  695MPD2    N110285   0.750   0.874  13.717  0.5792  0.6337 -0.6608
  695MPD2    H710286   0.790   0.945  13.777  1.4245  0.9138 -1.5474
  696TMC3    C110287   0.145   1.054  13.999  0.0194  0.3423  0.1713
  696TMC3    C210288   0.198   1.118  14.108 -0.6145 -0.1469 -0.0135
  696TMC3    C310289   0.134   1.237  14.149 -0.0562  0.3138  0.2127
  696TMC3    C410290   0.031   1.098  13.936 -0.3448 -0.3705 -0.5007
  696TMC3    C510291   4.707   1.221  13.982  0.8763  0.4116 -0.3435
  696TMC3    C610292   0.033   1.294  14.085 -0.6684 -0.1388  0.4746
  696TMC3     C10293   0.203   0.922  13.954 -0.2897  0.5342 -0.0948
  696TMC3     O10294   0.125   0.851  13.894  0.0911  0.5347 -0.0895
  696TMC3     H10295   0.294   1.097  14.153 -1.1719  0.0489  1.2553
  696TMC3    H110296   4.711   1.043  13.855  0.6331 -0.0758 -1.2681
  696TMC3    H210297   4.693   1.364  14.135  0.4589  1.5456 -0.3927
  696TMC3    C710298   4.615   1.290  13.891 -0.2669  0.0863  0.0390
  696TMC3    C810299   0.221   1.335  14.213 -0.5133  0.2299  0.8877
  696TMC3    O110300   4.571   1.212  13.805  1.0182 -0.4088 -0.0416
  696TMC3    O210301   0.192   1.454  14.185 -0.2311 -0.4499 -0.0674
  697MPD2     C10302   4.548   3.211  15.588  0.0914 -0.2549  0.2647
  697MPD2    C110303   4.606   3.131  15.493 -0.0570  1.1096 -0.0229
  697MPD2    C210304   4.649   3.195  15.377 -0.4058  0.1487 -0.0450
  697MPD2    C310305   4.624   3.331  15.348  0.2430  0.1003  0.5688
  697MPD2    C410306   4.553   3.404  15.441  0.1195 -0.0517 -0.4076
  697MPD2    C510307   4.525   3.347  15.559 -0.5221  0.5174  0.0347
  697MPD2     H10308   4.691   3.135  15.297 -1.5224  1.1159 -1.3386
  697MPD2    H110309   4.544   3.512  15.443 -0.0604 -0.1099  2.1465
  697MPD2    H210310   4.523   3.171  15.685 -1.2785 -0.7651 -0.2901
  697MPD2    H310311   4.488   3.415  15.634  1.3027  1.7298 -0.1669
  697MPD2     N10312   4.664   3.387  15.225  0.0460 -0.4471  0.4686
  697MPD2    H510313   4.723   3.326  15.169  1.2276  1.1807 -0.0557
  697MPD2    N110314   4.629   2.991  15.508 -0.2950 -0.0788 -0.2148
  697MPD2    H710315   4.660   2.947  15.422  0.8048 -0.4516  0.3670
  698TMC3    C110316   4.708   3.554  15.056 -0.0573 -0.0233  0.1809
  698TMC3    C210317   4.722   3.690  15.041  0.0002  0.7355 -0.6802
  698TMC3    C310318   4.723   3.746  14.916  0.3298 -0.1938  0.9010
  698TMC3    C410319   4.697   3.470  14.945  0.7552 -0.4740  0.3156
  698TMC3    C510320   4.687   3.533  14.827  0.6070  0.0859 -0.1259
  698TMC3    C610321   4.695   3.668  14.803  0.4736 -0.4554 -0.3050
  698TMC3     C10322   4.651   3.520  15.189 -0.5008 -0.0032  0.2533
  698TMC3     O10323   4.587   3.608  15.244 -0.1780  0.1176 -0.0996
  698TMC3     H10324   0.010   3.748  15.132  1.8941 -2.0677  0.7994
  698TMC3    H110325   4.685   3.363  14.953  0.1898 -0.3768  0.7818
  698TMC3    H210326   4.688   3.712  14.704  2.4702 -2.1759 -1.2247
  698TMC3    C710327   4.672   3.458  14.706  0.4806 -0.5461 -0.2678
  698TMC3    C810328   0.073   3.870  14.897  0.1841 -0.4690 -0.2628
  698TMC3    O110329   4.692   3.512  14.596  0.2261  0.1027 -0.3283
  698TMC3    O210330   0.051   3.933  14.796  0.2708 -0.1372 -0.3669
  699TMC3    C110331   0.490   0.583  12.849  0.4404 -0.2462 -0.1153
  699TMC3    C210332   0.484   0.460  12.916 -0.0332 -0.2544 -1.0781
  699TMC3    C310333   0.485   0.471  13.060  0.1598 -0.0411 -0.7239
  699TMC3    C410334   0.494   0.700  12.913 -0.2487 -0.2580 -0.1978
  699TMC3    C510335   0.503   0.706  13.049  0.1797 -0.4765 -0.6780
  699TMC3    C610336   0.484   0.594  13.124  0.8587  0.6116 -0.0808
  699TMC3     C10337   0.473   0.586  12.709  0.4294  0.4688 -0.3455
  699TMC3     O10338   0.490   0.696  12.661  0.8293 -0.3531  0.9170
  699TMC3     H10339   0.481   0.360  12.873 -1.0404 -0.8525  0.3843
  699TMC3    H110340   0.497   0.794  12.859  1.3963 -0.2755 -0.1398
  699TMC3    H210341   0.501   0.602  13.231  0.0766  0.1012  0.0840
  699TMC3    C710342   0.452   0.832  13.097 -0.0968  0.2908  0.3978
  699TMC3    C810343   0.437   0.365  13.142 -0.1040 -0.6327  0.4664
  699TMC3    O110344   0.392   0.901  13.022  0.4903 -0.4427 -0.1219
  699TMC3    O210345   0.377   0.399  13.241  0.8928 -0.1104 -0.2513
  700TMC3    C110346   3.574   2.984  17.013  0.6524 -0.8653  0.9270
  700TMC3    C210347   3.666   2.884  16.977 -0.6070  0.3668 -0.1290
  700TMC3    C310348   3.694   2.784  17.064  0.6992 -0.3425  0.2431
  700TMC3    C410349   3.521   2.990  17.133 -0.7483  0.0260  0.3734
  700TMC3    C510350   3.573   2.897  17.223 -0.5235  0.2202  0.2434
  700TMC3    C610351   3.653   2.792  17.190 -0.6211  0.0858  0.7705
  700TMC3     C10352   3.584   3.100  16.933  0.4082 -0.0726  0.8081
  700TMC3     O10353   3.690   3.105  16.863 -0.8494 -0.0388 -0.0014
  700TMC3     H10354   3.683   2.869  16.871 -2.1897 -0.0216 -0.3182
  700TMC3    H110355   3.461   3.074  17.166 -0.5194 -0.1851  1.3291
  700TMC3    H210356   3.672   2.716  17.265  0.8254  1.5503  1.8894
  700TMC3    C710357   3.561   2.935  17.360 -0.4956 -0.0642 -0.0270
  700TMC3    C810358   3.768   2.672  17.012  0.5979 -0.1171  0.5441
  700TMC3    O110359   3.456   2.992  17.403  0.7747 -0.3904 -0.6405
  700TMC3    O210360   3.833   2.695  16.912 -0.2951  0.5772 -0.3037
  701TMC3    C110361   3.834   2.249  15.618 -0.2749  0.4531 -0.6995
  701TMC3    C210362   3.801   2.186  15.492  0.4150 -0.1090  0.6058
  701TMC3    C310363   3.874   2.236  15.386 -0.0444  0.5066 -0.6509
  701TMC3    C410364   3.921   2.357  15.625  0.6999 -0.7822 -0.2617
  701TMC3    C510365   3.996   2.385  15.515  0.4790  0.3245  0.7848
  701TMC3    C610366   3.973   2.328  15.397  0.1657 -0.3013 -0.1946
  701TMC3     C10367   3.739   2.241  15.728  0.5651  0.3510  0.1141
  701TMC3     O10368   3.728   2.337  15.796 -0.2281  0.8301  1.1023
  701TMC3     H10369   3.729   2.106  15.487 -1.1018  1.2939 -0.1074
  701TMC3    H110370   3.935   2.413  15.717 -0.1452  0.2589 -0.7725
  701TMC3    H210371   4.032   2.364  15.313 -0.2623  3.5256  1.1574
  701TMC3    C710372   4.067   2.509  15.516  0.2177 -0.7883 -0.0307
  701TMC3    C810373   3.857   2.181  15.258 -0.6640  0.1610 -0.4212
  701TMC3    O110374   4.108   2.556  15.411 -0.2367 -0.4954 -0.5765
  701TMC3    O210375   3.949   2.201  15.179 -0.3799 -0.9254  0.2220
  702MPD2     C10376   3.076   3.884  10.688  0.1469 -0.4633  0.7255
  702MPD2    C110377   2.946   3.897  10.711  0.0737  0.2278  0.5708
  702MPD2    C210378   2.880   3.973  10.616 -0.7489 -0.7310  0.4360
  702MPD2    C310379   2.950   4.041  10.521  0.0009  0.2490 -0.3498
  702MPD2    C410380   3.086   4.040  10.522  0.2667  0.5119 -0.2118
  702MPD2    C510381   3.151   3.961  10.608 -0.2669 -0.3213  0.3968
  702MPD2     H10382   2.771   3.975  10.615 -0.7219  2.1358  1.3425
  702MPD2    H110383   3.136   4.102  10.449  0.1168 -0.8766 -1.5023
  702MPD2    H210384   3.139   3.813  10.740  0.2507  0.0960  1.3588
  702MPD2    H310385   3.258   3.953  10.623 -0.1228  1.4751  0.3165
  702MPD2     N10386   2.876   4.119  10.431  0.3148 -0.5652  0.3785
  702MPD2    H510387   2.776   4.117  10.448  0.6124  2.1420  2.4745
  702MPD2    N110388   2.872   3.844  10.823  0.1450 -0.4408  0.1828
  702MPD2    H710389   2.776   3.877  10.829 -0.4765 -2.8670  3.3064
  703TMC3    C110390   2.830   4.214  10.224 -0.3154 -0.6885  0.5049
  703TMC3    C210391   2.741   4.316  10.266 -0.3392 -0.2183  0.3436
  703TMC3    C310392   2.677   4.395  10.172  0.2357  0.2597  0.2791
  703TMC3    C410393   2.865   4.208  10.096 -0.2233 -0.7724 -0.2363
  703TMC3    C510394   2.808   4.293  10.002 -0.5496  0.2272 -0.3150
  703TMC3    C610395   2.718   4.389  10.035  0.1210  0.0476 -0.6026
  703TMC3     C10396   2.930   4.171  10.313  0.3161  0.4828 -0.6679
  703TMC3     O10397   3.039   4.162  10.266 -0.4599 -0.2844 -0.5534
  703TMC3     H10398   2.741   4.344  10.371 -0.6113  1.1206 -0.0070
  703TMC3    H110399   2.927   4.128  10.057  0.2564 -1.5165  2.0208
  703TMC3    H210400   2.664   4.448   9.962  1.2647 -1.3432 -2.5894
  703TMC3    C710401   2.882   4.319   9.882 -0.0094  0.2948  0.6456
  703TMC3    C810402   2.576   4.493  10.204 -0.7298  0.0162 -0.1628
  703TMC3    O110403   2.998   4.297   9.910  0.3680  0.4169  0.4658
  703TMC3    O210404   2.552   4.573  10.117  0.4912 -0.1807 -0.4514
  704TMC3    C110405   0.926   2.618  12.469 -0.1278  0.1227 -0.4331
  704TMC3    C210406   0.901   2.581  12.341 -0.2011  0.7920 -0.1212
  704TMC3    C310407   0.986   2.505  12.276 -0.4322 -0.0765  0.1318
  704TMC3    C410408   1.046   2.591  12.530  0.0842 -0.6765 -0.1980
  704TMC3    C510409   1.125   2.495  12.464  0.0117  0.0228 -0.3764
  704TMC3    C610410   1.110   2.473  12.330 -0.2503 -0.0991  0.1846
  704TMC3     C10411   0.805   2.612  12.560  0.0283  0.0835  0.5917
  704TMC3     O10412   0.815   2.649  12.674 -0.1444  0.2565 -0.1099
  704TMC3     H10413   0.815   2.618  12.286 -0.2972 -0.9315 -1.1221
  704TMC3    H110414   1.068   2.618  12.633  2.1709 -0.6619 -0.6479
  704TMC3    H210415   1.181   2.411  12.276  1.2706  0.5096  1.4545
  704TMC3    C710416   1.150   2.358  12.521 -0.1904 -0.0276  0.2674
  704TMC3    C810417   0.915   2.402  12.211 -0.9739 -0.2512 -0.2543
  704TMC3    O110418   1.136   2.253  12.454  0.0736  0.3364 -0.1755
  704TMC3    O210419   0.793   2.388  12.228  0.4823 -0.2527  0.6143
  705MPD2     C10420   0.160   0.303  16.318 -0.1625  0.1146  0.2146
  705MPD2    C110421   0.172   0.443  16.332  0.8196  0.5078 -0.3226
  705MPD2    C210422   0.114   0.493  16.448  0.2205  0.4023 -0.2886
  705MPD2    C310423   0.046   0.413  16.544 -0.3212 -0.1612  0.1404
  705MPD2    C410424   0.048   0.279  16.532  0.1187 -0.2645 -0.1852
  705MPD2    C510425   0.105   0.227  16.421 -0.3412 -0.3179  0.4872
  705MPD2     H10426   0.124   0.599  16.468 -1.7765  0.3840  0.7961
  705MPD2    H110427   0.012   0.213  16.610 -3.0084  0.3632 -1.1362
  705MPD2    H210428   0.209   0.240  16.245  1.8699  0.2319  1.4770
  705MPD2    H310429   0.104   0.120  16.406  0.1336 -0.4028  1.0882
  705MPD2     N10430   4.703   0.467  16.658  1.0299 -0.1191  0.1647
  705MPD2    H510431   4.655   0.406  16.724  1.3102 -0.6597 -0.1264
  705MPD2    N110432   0.221   0.538  16.239  0.5613  0.2232 -0.3510
  705MPD2    H710433   0.218   0.634  16.274  0.2201 -0.0618  0.4134
  706TMC3    C110434   0.538   0.683  15.920 -0.2532  0.2690  0.2069
  706TMC3    C210435   0.500   0.818  15.928 -0.1587 -0.0778 -0.5916
  706TMC3    C310436   0.397   0.841  16.015 -0.3339  0.0389  0.3773
  706TMC3    C410437   0.470   0.582  15.983  0.0355  0.0768 -1.0749
  706TMC3    C510438   0.356   0.616  16.048 -0.2642  0.2481 -0.1595
  706TMC3    C610439   0.313   0.741  16.062  0.0793 -0.4473  0.2766
  706TMC3     C10440   0.679   0.653  15.901  0.5327 -0.3949  0.7316
  706TMC3     O10441   0.722   0.573  15.980  0.7558  0.5082 -0.1607
  706TMC3     H10442   0.566   0.894  15.888 -1.4632  0.8416 -1.0050
  706TMC3    H110443   0.515   0.483  15.981 -0.9811 -0.3929 -0.3244
  706TMC3    H210444   0.221   0.774  16.110  1.2619  1.9587  0.9147
  706TMC3    C710445   0.280   0.506  16.114  0.6857 -0.0060 -0.0705
  706TMC3    C810446   0.368   0.982  16.044  0.3779  0.2405 -0.1109
  706TMC3    O110447   0.298   0.391  16.068  1.2634 -0.5712 -0.3242
  706TMC3    O210448   0.443   1.050  15.973  0.1115  0.3133  0.0369
  707TMC3    C110449   1.541   4.679   1.020  1.0234 -0.1971 -0.4967
  707TMC3    C210450   1.550   4.596   1.125 -0.5157 -0.5688  0.1536
  707TMC3    C310451   1.428   4.568   1.194 -0.5414  0.0047 -0.7756
  707TMC3    C410452   1.426   0.009   0.982  0.1941 -0.4010  0.3699
  707TMC3    C510453   1.316   4.716   1.061 -0.2187 -0.0670 -0.5131
  707TMC3    C610454   1.313   4.637   1.171  0.0406 -0.1488  0.1199
  707TMC3     C10455   1.651   4.665   0.926 -0.0881 -0.1986 -0.2288
  707TMC3     O10456   1.760   4.652   0.971  0.0958 -0.3848 -0.3258
  707TMC3     H10457   1.648   4.559   1.152 -1.4669 -1.4606  2.3365
  707TMC3    H110458   1.425   0.080   0.900 -1.0196  0.2046  0.9024
  707TMC3    H210459   1.220   4.616   1.222 -0.0858 -0.5778 -0.2953
  707TMC3    C710460   1.192   0.056   1.034  0.1304 -0.5438  0.1685
  707TMC3    C810461   1.437   4.476   1.301  0.4283  0.0983 -1.0365
  707TMC3    O110462   1.100   0.057   1.110 -0.0295  0.0627 -0.0143
  707TMC3    O210463   1.345   4.489   1.383 -0.2768 -0.3787 -0.0456
  708MPD2     C10464   3.397   4.188  14.012  0.3693 -0.4291 -0.2122
  708MPD2    C110465   3.453   4.117  14.107 -0.0916  0.0354  0.3205
  708MPD2    C210466   3.586   4.121  14.136 -0.4728  0.6033 -0.0316
  708MPD2    C310467   3.671   4.204  14.066  0.6244  0.5544  0.1397
  708MPD2    C410468   3.611   4.284  13.968  0.1436  0.1734 -0.5639
  708MPD2    C510469   3.472   4.285  13.947 -0.7937 -0.1780 -0.2986
  708MPD2     H10470   3.626   4.051  14.209  1.1307 -2.1315 -3.4712
  708MPD2    H110471   3.669   4.356  13.912 -0.8418  0.0556 -1.7309
  708MPD2    H210472   3.293   4.184  13.984  0.0492  0.4143  0.8593
  708MPD2    H310473   3.431   4.351  13.872 -1.2531 -1.3677 -1.1009
  708MPD2     N10474   3.809   4.215  14.081  0.1083 -0.0851 -0.2353
  708MPD2    H510475   3.860   4.292  14.040 -1.7378  0.7963 -0.8811
  708MPD2    N110476   3.381   4.018  14.175 -0.5081  0.3436  0.0114
  708MPD2    H710477   3.438   3.956  14.232 -0.5883  1.2818  1.1005
  709TMC3    C110478   3.248   3.834  14.206 -0.6828  0.1466 -0.2466
  709TMC3    C210479   3.225   3.742  14.114  0.2932 -0.5850 -0.0111
  709TMC3    C310480   3.295   3.626  14.128  1.0791  0.3753 -0.5401
  709TMC3    C410481   3.332   3.813  14.318 -0.0419  0.2865  0.3726
  709TMC3    C510482   3.399   3.695  14.320 -0.4308  0.6056  0.1533
  709TMC3    C610483   3.382   3.592  14.231  0.0386 -0.0142 -0.6284
  709TMC3     C10484   3.259   3.965  14.145  0.3031 -0.1226  0.5937
  709TMC3     O10485   3.176   3.991  14.060  0.2899  0.5873  0.3631
  709TMC3     H10486   3.171   3.760  14.022 -2.0541  1.0128  1.6862
  709TMC3    H110487   3.362   3.891  14.387  0.9016 -1.3333  1.7768
  709TMC3    H210488   3.427   3.494  14.229 -0.1675 -0.1318  0.8472
  709TMC3    C710489   3.537   3.720  14.341  0.6074 -0.4467 -0.1492
  709TMC3    C810490   3.278   3.523  14.026  0.5230  0.2732 -0.2056
  709TMC3    O110491   3.563   3.828  14.291 -0.3825 -0.2831  0.8671
  709TMC3    O210492   3.290   3.409  14.066  0.1706 -0.2755 -0.0608
  710TMC3    C110493   3.973   0.495   0.677 -0.3498 -0.4542  0.2557
  710TMC3    C210494   4.048   0.522   0.564  0.3253 -0.7714  0.5414
  710TMC3    C310495   4.126   0.430   0.510  0.8393  0.0765 -0.4567
  710TMC3    C410496   3.978   0.377   0.737  0.2962  0.1719 -0.2878
  710TMC3    C510497   4.063   0.281   0.675  0.1211  0.1505  0.8945
  710TMC3    C610498   4.144   0.307   0.566  0.0268  0.0533 -0.0629
  710TMC3     C10499   3.891   0.601   0.728  0.1114 -0.2680 -0.0918
  710TMC3     O10500   3.785   0.577   0.786 -0.4297 -0.0964 -0.1930
  710TMC3     H10501   4.029   0.607   0.499 -0.8646 -1.2634  0.2397
  710TMC3    H110502   3.951   0.374   0.842  0.4741 -0.1416 -0.2523
  710TMC3    H210503   4.199   0.234   0.508  1.7255  0.2514  1.3001
  710TMC3    C710504   4.080   0.152   0.738  0.3406 -0.0352 -0.4585
  710TMC3    C810505   4.187   0.451   0.382  0.0762 -0.5858  0.1321
  710TMC3    O110506   3.995   0.124   0.815  0.1321 -0.2970 -0.4626
  710TMC3    O210507   4.224   0.346   0.326 -0.2801  0.2377  0.2198
  711TMC3    C110508   4.424   2.033  15.109  0.1157  0.4623  0.6313
  711TMC3    C210509   4.479   2.109  15.205  0.2614 -0.0064 -0.6610
  711TMC3    C310510   4.608   2.079  15.241  0.8270  0.6433  0.1411
  711TMC3    C410511   4.501   1.946  15.035 -1.4300 -1.2239 -0.8694
  711TMC3    C510512   4.633   1.928  15.069  0.3418  0.3587  0.5733
  711TMC3    C610513   4.689   1.991  15.175 -0.2268  0.0944  0.5414
  711TMC3     C10514   4.285   2.004  15.116  0.4379 -0.6459 -0.3881
  711TMC3     O10515   4.241   1.942  15.017 -0.2551  0.3679 -0.4989
  711TMC3     H10516   4.414   2.185  15.247  1.4300  0.9673 -0.6036
  711TMC3    H110517   4.447   1.892  14.959 -0.0636 -0.0021 -2.7230
  711TMC3    H210518   0.062   1.966  15.208 -0.8107 -3.6227 -0.4384
  711TMC3    C710519   4.684   1.790  15.047 -0.3622 -0.0527  0.6233
  711TMC3    C810520   4.656   2.155  15.358 -0.6657 -0.0691  0.4759
  711TMC3    O110521   0.027   1.740  15.132  0.0714 -0.2079  0.1529
  711TMC3    O210522   4.578   2.240  15.398 -0.6882  0.0989 -0.0397
  712MPD2     C10523   0.509   3.320  13.892  0.6705  0.5228  0.4575
  712MPD2    C110524   0.577   3.220  13.834  0.4385  0.1092  0.3529
  712MPD2    C210525   0.672   3.248  13.740 -0.0047  0.9069  0.6864
  712MPD2    C310526   0.720   3.380  13.721 -0.5326  0.0466  0.0107
  712MPD2    C410527   0.647   3.473  13.783 -0.5798  0.4395  0.3176
  712MPD2    C510528   0.545   3.444  13.870 -0.5874 -0.1168 -0.1930
  712MPD2     H10529   0.714   3.164  13.687 -2.9475 -0.1144 -0.0646
  712MPD2    H110530   0.666   3.577  13.758 -2.3541  0.1871 -2.0293
  712MPD2    H210531   0.427   3.311  13.963 -1.0479  2.6785 -1.2609
  712MPD2    H310532   0.496   3.519  13.931 -3.4880 -2.5451  0.4431
  712MPD2     N10533   0.826   3.417  13.638 -0.3377  0.6053  0.2666
  712MPD2    H510534   0.841   3.517  13.623 -1.0308  0.6370 -0.2236
  712MPD2    N110535   0.546   3.085  13.849 -0.0328  0.2339  0.3923
  712MPD2    H710536   0.608   3.024  13.796  0.9499  0.2688  1.5167
  713TMC3    C110537   1.029   3.395  13.528 -0.4730  0.5354  0.0914
  713TMC3    C210538   1.145   3.327  13.541 -0.2770 -0.3185 -0.0913
  713TMC3    C310539   1.216   3.321  13.424 -0.0026  0.0011 -0.6977
  713TMC3    C410540   0.993   3.472  13.418  0.0538  0.3692  0.1779
  713TMC3    C510541   1.073   3.463  13.310  1.1009 -1.0294  0.1683
  713TMC3    C610542   1.185   3.384  13.305  0.3622  0.6099 -0.4832
  713TMC3     C10543   0.919   3.327  13.590  0.0952 -0.3740 -0.5051
  713TMC3     O10544   0.935   3.208  13.607  0.9329 -0.1231  0.1368
  713TMC3     H10545   1.171   3.278  13.633  0.4786  2.9891  1.4774
  713TMC3    H110546   0.903   3.531  13.417 -0.2584 -0.0797  1.3026
  713TMC3    H210547   1.245   3.386  13.215  0.6291 -0.0656 -0.3243
  713TMC3    C710548   1.054   3.557  13.200 -0.0147  0.0128  0.3261
  713TMC3    C810549   1.325   3.224  13.417 -0.6559  0.7279  0.2422
  713TMC3    O110550   1.160   3.594  13.144  0.0259 -0.0430  0.5875
  713TMC3    O210551   1.387   3.217  13.311  0.2022  0.2794  0.1237
  714MPD2     C10552   3.173   1.454   1.348 -0.0802 -0.8599 -0.1070
  714MPD2    C110553   3.076   1.371   1.294 -0.1182  0.6512  0.2260
  714MPD2    C210554   2.967   1.428   1.229 -0.1814  0.4667 -0.2547
  714MPD2    C310555   2.954   1.570   1.220  0.4620  0.9451 -0.1330
  714MPD2    C410556   3.056   1.651   1.267 -0.2436 -0.3455 -0.0458
  714MPD2    C510557   3.166   1.586   1.328 -0.6492  0.2108 -0.6255
  714MPD2     H10558   2.891   1.361   1.192  0.6107 -0.5953  0.0144
  714MPD2    H110559   3.068   1.759   1.255 -2.9632 -0.1930 -1.2842
  714MPD2    H210560   3.260   1.412   1.397  0.6948  0.6851 -0.1872
  714MPD2    H310561   3.249   1.641   1.370  0.1958 -1.7851  0.3126
  714MPD2     N10562   2.841   1.615   1.150 -0.1307 -0.0285  0.1686
  714MPD2    H510563   2.787   1.542   1.104 -0.6388  0.7221 -0.4428
  714MPD2    N110564   3.109   1.237   1.311 -0.6517 -0.0012 -0.8134
  714MPD2    H710565   3.174   1.224   1.389 -0.4659  1.5797 -0.7120
  715TMC3    C110566   3.100   1.004   1.257 -0.1133  0.9870  0.3449
  715TMC3    C210567   3.051   0.900   1.180  0.4634  0.5595 -0.0145
  715TMC3    C310568   3.097   0.774   1.209  0.2642 -0.5357 -0.0666
  715TMC3    C410569   3.203   0.986   1.341  0.1835 -0.1401 -0.1366
  715TMC3    C510570   3.249   0.862   1.372  0.1424  0.5007 -0.5215
  715TMC3    C610571   3.196   0.751   1.304 -0.4843 -0.2813  0.5006
  715TMC3     C10572   3.054   1.136   1.233  0.1870 -0.5971  0.0189
  715TMC3     O10573   2.980   1.146   1.134  0.4051 -0.0331  0.3207
  715TMC3     H10574   2.987   0.924   1.095 -1.6136  1.7032  1.8399
  715TMC3    H110575   3.249   1.064   1.400  0.4876 -0.9633  0.6918
  715TMC3    H210576   3.235   0.652   1.327  0.0859 -0.3491 -0.7555
  715TMC3    C710577   3.387   0.852   1.435  0.1036 -0.2499  0.6744
  715TMC3    C810578   3.062   0.658   1.133  1.0335  0.9327 -0.1030
  715TMC3    O110579   3.409   0.915   1.542 -0.3562 -0.5346  0.4696
  715TMC3    O210580   3.134   0.561   1.133 -0.3212  0.1243  0.3674
  716MPD2     C10581   2.510   3.482  10.236  0.1107 -0.3539 -0.2188
  716MPD2    C110582   2.542   3.536  10.115 -0.5877  0.4811  0.7836
  716MPD2    C210583   2.675   3.531  10.079 -0.4330 -0.2789 -0.5485
  716MPD2    C310584   2.775   3.474  10.164 -0.2328 -0.1692  0.0384
  716MPD2    C410585   2.740   3.413  10.281  0.8346 -0.3943 -0.6040
  716MPD2    C510586   2.604   3.430  10.328  0.2383 -0.1742  0.0902
  716MPD2     H10587   2.714   3.572   9.987  2.4969 -2.0788 -0.1083
  716MPD2    H110588   2.799   3.349  10.346  0.2338 -0.5999 -0.2576
  716MPD2    H210589   2.408   3.483  10.273 -0.0540 -0.0517 -0.6855
  716MPD2    H310590   2.567   3.387  10.420 -0.9606  1.5269  0.4036
  716MPD2     N10591   2.909   3.462  10.119  0.4024  0.5071  0.1250
  716MPD2    H510592   2.932   3.512  10.034 -2.2166 -1.9148 -2.0325
  716MPD2    N110593   2.438   3.582  10.024  0.1362 -0.5559  0.2487
  716MPD2    H710594   2.345   3.566  10.060  0.6816  1.7871  2.7234
  717TMC3    C110595   3.114   3.356  10.082  0.4742 -0.1414 -0.8186
  717TMC3    C210596   3.084   3.348   9.950  0.2470  0.2786 -0.0263
  717TMC3    C310597   3.180   3.301   9.862  0.3271  0.0816 -0.2620
  717TMC3    C410598   3.232   3.293  10.131  0.0268 -0.1418 -0.2958
  717TMC3    C510599   3.320   3.244  10.039 -0.0480 -0.6166  0.7754
  717TMC3    C610600   3.294   3.243   9.905 -0.0674  0.4273 -0.2660
  717TMC3     C10601   3.013   3.400  10.183  0.0116  0.4950 -0.4125
  717TMC3     O10602   3.034   3.361  10.297  0.2667 -0.3235 -0.4292
  717TMC3     H10603   3.004   3.407   9.908  1.5685  2.4582  0.5317
  717TMC3    H110604   3.250   3.272  10.236  0.2172 -1.7588 -0.6454
  717TMC3    H210605   3.349   3.180   9.836  1.6531  0.8349  0.7235
  717TMC3    C710606   3.404   3.138  10.086 -0.0378 -1.0224 -0.1257
  717TMC3    C810607   3.141   3.305   9.721  0.2405 -0.4465  0.7392
  717TMC3    O110608   3.395   3.032  10.023 -1.1205 -0.1377  0.5933
  717TMC3    O210609   3.019   3.319   9.694 -0.6956  0.3414  0.4989
  718MPD2     C10610   2.597   2.698  13.763 -0.7550  0.0432  0.1467
  718MPD2    C110611   2.615   2.692  13.625 -0.0025  0.5611 -0.9119
  718MPD2    C210612   2.505   2.673  13.540  0.6274 -0.0307 -0.1127
  718MPD2    C310613   2.380   2.641  13.594  0.5586 -1.0997  0.3678
  718MPD2    C410614   2.368   2.640  13.727  0.5804 -0.5507  0.2945
  718MPD2    C510615   2.472   2.676  13.812 -0.5621 -0.0275 -0.0470
  718MPD2     H10616   2.515   2.670  13.432 -1.9835  1.3866 -0.3878
  718MPD2    H110617   2.272   2.629  13.777 -0.4890  0.4018 -1.5326
  718MPD2    H210618   2.674   2.734  13.831 -1.0187 -0.4939  0.7266
  718MPD2    H310619   2.450   2.688  13.918 -1.0471  0.6452 -0.2225
  718MPD2     N10620   2.269   2.606  13.515 -0.0395  0.5883  0.6547
  718MPD2    H510621   2.281   2.617  13.414 -0.6688 -0.6972  0.4398
  718MPD2    N110622   2.742   2.691  13.578 -0.3203 -0.7005  0.5051
  718MPD2    H710623   2.815   2.675  13.647  1.7581  0.8990 -1.3147
  719TMC3    C110624   2.888   2.650  13.382  0.7909 -0.2066 -0.8384
  719TMC3    C210625   2.887   2.512  13.390  0.5838 -0.1614  0.3153
  719TMC3    C310626   2.918   2.430  13.292  0.3665 -0.2168  0.0898
  719TMC3    C410627   2.924   2.703  13.262  0.9494 -0.1648  0.7546
  719TMC3    C510628   2.963   2.617  13.163  0.2612  0.3962 -0.4992
  719TMC3    C610629   2.960   2.476  13.170  0.1006 -0.2871 -0.0915
  719TMC3     C10630   2.774   2.716  13.444  0.2359  0.7221 -0.3718
  719TMC3     O10631   2.703   2.779  13.368 -0.5699 -0.3310  0.1437
  719TMC3     H10632   2.842   2.471  13.480  0.5862  0.7414  0.7332
  719TMC3    H110633   2.922   2.808  13.238  0.4546 -0.8707 -2.2339
  719TMC3    H210634   2.997   2.415  13.089 -0.5157 -0.5509 -0.1768
  719TMC3    C710635   2.943   2.662  13.026 -0.4276 -0.5401  0.2930
  719TMC3    C810636   2.821   2.329  13.278  0.0720  0.2952  0.4888
  719TMC3    O110637   2.989   2.769  13.003 -0.4551  0.3745 -0.3756
  719TMC3    O210638   2.742   2.315  13.369 -0.1156 -0.2111 -0.3375
  720MPD2     C10639   0.964   4.644  13.902  0.0638  0.2420 -0.8264
  720MPD2    C110640   1.067   4.607  13.818  0.1957  0.0505 -0.4499
  720MPD2    C210641   1.174   4.535  13.871  0.6438  0.2869  0.1123
  720MPD2    C310642   1.176   4.492  13.997  0.8816  0.4274  0.0871
  720MPD2    C410643   1.077   4.538  14.081 -0.5546 -0.4524 -0.1426
  720MPD2    C510644   0.975   4.615  14.036  1.0777  0.9932  0.3761
  720MPD2     H10645   1.255   4.522  13.800  1.2161  2.2068  0.4281
  720MPD2    H110646   1.074   4.521  14.188  2.1800 -0.9603 -0.1456
  720MPD2    H210647   0.885   4.707  13.864  0.6129  0.2465 -1.9817
  720MPD2    H310648   0.901   4.644  14.109  0.7507 -0.0422  0.4621
  720MPD2     N10649   1.295   4.425  14.036  0.3097 -0.2395 -0.1385
  720MPD2    H510650   1.365   4.387  13.973  1.1922 -0.1269  0.7611
  720MPD2    N110651   1.067   4.640  13.678  0.1758 -0.1227 -0.0983
  720MPD2    H710652   1.146   4.622  13.617  0.7733 -1.9987  1.2345
  721TMC3    C110653   1.445   4.332  14.199 -0.7054  0.0626  0.5866
  721TMC3    C210654   1.462   4.284  14.322 -0.2058  0.6741 -0.3094
  721TMC3    C310655   1.578   4.309  14.394  0.4017 -0.1361 -0.9196
  721TMC3    C410656   1.541   4.415  14.146 -0.6434 -0.6575 -0.9655
  721TMC3    C510657   1.651   4.441  14.218  0.5411 -0.5313  0.2107
  721TMC3    C610658   1.676   4.389  14.338  0.7709 -0.6434 -0.2172
  721TMC3     C10659   1.310   4.365  14.158  0.1928  0.3681 -0.2703
  721TMC3     O10660   1.224   4.332  14.240  0.0498 -0.1604  0.9232
  721TMC3     H10661   1.388   4.230  14.381 -0.2808 -1.3241 -2.2381
  721TMC3    H110662   1.534   4.484  14.063  4.4548  0.5004 -0.4381
  721TMC3    H210663   1.760   4.430  14.394 -0.8031 -1.4266  2.7546
  721TMC3    C710664   1.774   4.461  14.149  0.4249 -0.1745  0.2740
  721TMC3    C810665   1.563   4.318  14.533  0.5254  0.3478 -0.1577
  721TMC3    O110666   1.794   4.532  14.052 -0.0294 -0.6486 -0.1668
  721TMC3    O210667   1.502   4.222  14.582 -0.1338  0.5056  0.0961
  722MPD2     C10668   0.050   3.007  12.962 -0.4825 -0.7106  0.3071
  722MPD2    C110669   4.722   3.091  12.867 -0.5072 -0.3850 -0.0997
  722MPD2    C210670   4.594   3.079  12.821 -0.0346  0.1342 -0.1912
  722MPD2    C310671   4.507   2.983  12.882 -0.3475  0.3009  0.8106
  722MPD2    C410672   4.567   2.896  12.977  0.0790 -0.1637 -0.0347
  722MPD2    C510673   4.699   2.910  13.014 -0.0549 -0.5283  0.3105
  722MPD2     H10674   4.553   3.151  12.751 -2.2423 -2.2100 -1.2999
  722MPD2    H110675   4.503   2.822  13.025 -0.6438 -1.2709 -2.6707
  722MPD2    H210676   0.151   3.021  13.000 -0.5699  0.0609  0.2498
  722MPD2    H310677   0.018   2.845  13.089  0.0623 -1.3358 -0.4619
  722MPD2     N10678   4.373   2.976  12.846 -0.4110 -0.4519  0.1445
  722MPD2    H510679   4.337   3.049  12.786  3.9161  0.6172 -1.1088
  722MPD2    N110680   0.061   3.211  12.825 -0.6072 -0.4288  0.0810
  722MPD2    H710681   0.002   3.271  12.768  0.9835  0.0330 -1.0897
  723TMC3    C110682   4.138   2.921  12.871  0.1679  0.4932 -0.1931
  723TMC3    C210683   4.048   2.823  12.841 -0.1849 -0.5330 -0.6654
  723TMC3    C310684   3.920   2.866  12.817 -0.3943  0.0551 -0.2275
  723TMC3    C410685   4.106   3.054  12.884  0.8207 -0.2746  0.0747
  723TMC3    C510686   3.977   3.096  12.863 -0.1860 -0.6994 -0.4575
  723TMC3    C610687   3.885   3.002  12.835 -0.2876  0.0869  0.1147
  723TMC3     C10688   4.286   2.879  12.887 -0.3658 -0.5113 -0.2656
  723TMC3     O10689   4.312   2.766  12.929 -0.1800  0.2450 -0.0512
  723TMC3     H10690   4.075   2.718  12.852 -0.5284 -0.7268 -1.6257
  723TMC3    H110691   4.186   3.126  12.892  0.8103 -0.3957  1.2292
  723TMC3    H210692   3.787   3.038  12.803 -0.7861 -1.2380  0.1404
  723TMC3    C710693   3.964   3.224  12.802 -0.4108 -0.0597 -0.6053
  723TMC3    C810694   3.807   2.778  12.794  0.7116 -0.4681 -0.2837
  723TMC3    O110695   3.876   3.236  12.713 -0.2823 -0.6970  0.4303
  723TMC3    O210696   3.693   2.820  12.802 -0.5808 -0.3318 -0.1552
  724TMC3    C110697   0.076   0.057   9.559 -0.0720 -0.4209  0.1039
  724TMC3    C210698   0.073   0.130   9.678 -0.0848  0.0484 -0.2242
  724TMC3    C310699   0.161   0.230   9.699  0.9542  0.8308  0.3434
  724TMC3    C410700   0.183   0.064   9.475  0.1986 -0.5668 -0.3082
  724TMC3    C510701   0.272   0.162   9.499 -0.1166  0.2113 -1.0407
  724TMC3    C610702   0.266   0.248   9.606 -0.1863  0.2330  0.8039
  724TMC3     C10703   4.695   4.689   9.533 -0.0060 -0.4506 -0.0134
  724TMC3     O10704   4.654   4.620   9.627 -0.0421 -0.2559 -1.0023
  724TMC3     H10705   4.707   0.118   9.732 -0.6207 -1.1037 -1.4035
  724TMC3    H110706   0.182   0.012   9.380  0.7189  0.7455 -1.0303
  724TMC3    H210707   0.353   0.311   9.616 -0.0125 -0.2645  2.4041
  724TMC3    C710708   0.379   0.187   9.409 -0.0318 -0.4473  0.3555
  724TMC3    C810709   0.133   0.334   9.797  0.1446 -0.0156  0.6753
  724TMC3    O110710   0.448   0.284   9.419 -0.1438 -0.4649 -0.0396
  724TMC3    O210711   0.048   0.313   9.885 -0.7577 -0.2372 -0.0849
  725TMC3    C110712   1.773   0.248  12.383 -0.0359  0.4284 -0.7222
  725TMC3    C210713   1.788   0.244  12.245 -0.9284 -0.4143  0.5756
  725TMC3    C310714   1.867   0.140  12.200 -0.5063 -0.5259 -0.1837
  725TMC3    C410715   1.829   0.165  12.480  0.7926  0.0322  0.5697
  725TMC3    C510716   1.919   0.076  12.429  0.0912 -0.4630 -0.5858
  725TMC3    C610717   1.927   0.056  12.296 -0.9530  0.2682 -0.2745
  725TMC3     C10718   1.702   0.363  12.436  0.1295 -1.2375 -0.0708
  725TMC3     O10719   1.677   0.455  12.364 -0.8034 -0.6940  0.2094
  725TMC3     H10720   1.729   0.307  12.179  0.4543 -1.8185 -1.9574
  725TMC3    H110721   1.842   0.198  12.582 -0.4245 -0.3205  0.8354
  725TMC3    H210722   2.007   4.717  12.265 -1.2690  1.4768 -3.6924
  725TMC3    C710723   1.951   4.689  12.513  0.0796  0.4328  0.6190
  725TMC3    C810724   1.883   0.109  12.060  0.3636  0.2537 -0.2497
  725TMC3    O110725   1.997   4.594  12.448 -0.4882 -0.2361  0.1276
  725TMC3    O210726   1.912   4.715  12.042 -0.1654 -0.6459  0.0476
  726MPD2     C10727   0.122   1.338  10.617 -0.5125  0.4028 -0.1879
  726MPD2    C110728   0.158   1.207  10.640 -0.5904 -0.7548  0.3166
  726MPD2    C210729   0.060   1.120  10.686  0.9704  0.5185  0.5482
  726MPD2    C310730   4.655   1.170  10.698 -0.5494 -0.9539 -0.0283
  726MPD2    C410731   4.619   1.303  10.662  0.2658  0.2465  0.2379
  726MPD2    C510732   4.720   1.384  10.616  0.0970 -0.2870 -0.7780
  726MPD2     H10733   0.096   1.022  10.717  2.8264  0.4343 -1.8690
  726MPD2    H110734   4.514   1.329  10.665 -0.0800 -1.1423  0.4861
  726MPD2    H210735   0.197   1.409  10.582  0.6546 -0.8835 -0.2977
  726MPD2    H310736   4.693   1.485  10.585 -1.9795 -0.0034  1.8552
  726MPD2     N10737   4.549   1.093  10.746  0.3878 -0.1756  0.5424
  726MPD2    H510738   4.571   0.993  10.746 -0.8563 -0.4410 -1.9010
  726MPD2    N110739   0.289   1.149  10.625  0.0717  0.4286 -0.3484
  726MPD2    H710740   0.303   1.049  10.634  0.4041  0.5744  0.6825
  727TMC3    C110741   0.508   1.142  10.572 -0.3646  0.6021  0.1441
  727TMC3    C210742   0.631   1.196  10.609  0.6544  0.0376 -0.2078
  727TMC3    C310743   0.744   1.111  10.621  0.0612 -0.4888 -0.4335
  727TMC3    C410744   0.498   1.007  10.545 -0.0115 -0.0241  0.2001
  727TMC3    C510745   0.606   0.927  10.557 -0.0889  0.4230 -0.2312
  727TMC3    C610746   0.734   0.977  10.598  0.3737  0.8175  0.1653
  727TMC3     C10747   0.395   1.228  10.592 -0.4666  0.2029 -0.4547
  727TMC3     O10748   0.418   1.350  10.585  0.0932  0.2139 -0.5445
  727TMC3     H10749   0.647   1.299  10.640 -2.8508  0.8480 -1.1321
  727TMC3    H110750   0.405   0.964  10.507 -0.6024  2.4216 -1.1388
  727TMC3    H210751   0.819   0.910  10.601 -0.2360  0.0060 -0.6738
  727TMC3    C710752   0.579   0.787  10.516 -0.5693  0.6257  0.7484
  727TMC3    C810753   0.863   1.170  10.572 -0.4159 -0.1779 -0.0394
  727TMC3    O110754   0.465   0.741  10.526  0.9940 -0.1351 -0.0265
  727TMC3    O210755   0.926   1.105  10.492  0.0867 -0.3537  0.0414
  728TMC3    C110756   3.580   0.278  15.663  0.0960 -1.2757 -0.8695
  728TMC3    C210757   3.673   0.339  15.744 -0.2529 -0.7693 -0.1178
  728TMC3    C310758   3.730   0.453  15.707  0.2214  0.2306 -0.2257
  728TMC3    C410759   3.570   0.311  15.530 -0.2080 -0.6396  1.1182
  728TMC3    C510760   3.621   0.438  15.499  0.5747 -0.1967 -0.1751
  728TMC3    C610761   3.700   0.510  15.581  0.2043 -0.4080 -0.3176
  728TMC3     C10762   3.538   0.147  15.703  0.1452  0.1960 -0.1258
  728TMC3     O10763   3.599   0.107  15.796  0.3653 -0.1293 -0.4986
  728TMC3     H10764   3.687   0.310  15.848 -0.0312  0.8350  0.2995
  728TMC3    H110765   3.519   0.247  15.459 -0.6483  1.7007 -0.6774
  728TMC3    H210766   3.751   0.601  15.550  1.5377 -1.6731 -1.8379
  728TMC3    C710767   3.591   0.480  15.362 -1.1093  0.5487  0.0440
  728TMC3    C810768   3.850   0.515  15.761  0.7603 -0.1215  0.4268
  728TMC3    O110769   3.529   0.400  15.290  0.5961 -0.0838 -0.3560
  728TMC3    O210770   3.900   0.610  15.707 -0.3072 -0.5872 -0.0884
  729MPD2     C10771   0.914   1.100  16.923  0.9392  0.2719 -0.2843
  729MPD2    C110772   0.973   1.221  16.928 -0.7388  0.5178  0.3526
  729MPD2    C210773   0.951   1.309  17.034  0.5522 -0.5043 -0.2483
  729MPD2    C310774   0.868   1.267  17.138 -0.3068  0.1046  0.3756
  729MPD2    C410775   0.807   1.142  17.124  0.0621 -0.1747 -0.3760
  729MPD2    C510776   0.825   1.056  17.017 -0.5167  0.5246  0.2543
  729MPD2     H10777   1.005   1.403  17.044 -1.5872  0.8713 -1.6288
  729MPD2    H110778   0.734   1.097  17.190  1.3564 -0.1128  1.1005
  729MPD2    H210779   0.922   1.047  16.829  0.0433 -1.6521  0.7073
  729MPD2    H310780   0.777   0.959  17.011  1.1428 -0.2720  0.0707
  729MPD2     N10781   0.853   1.350  17.247  0.0060 -0.4626  0.0051
  729MPD2    H510782   0.915   1.430  17.251  0.6543 -0.9039 -1.2051
  729MPD2    N110783   1.052   1.249  16.814  0.3466 -0.0584 -0.0865
  729MPD2    H710784   1.058   1.176  16.744  1.6799  1.6462 -1.7583
  730TMC3    C110785   0.771   1.449  17.448  0.4842 -0.5140  0.6918
  730TMC3    C210786   0.778   1.407  17.575 -0.5436 -0.5278 -0.4791
  730TMC3    C310787   0.852   1.485  17.663 -1.2384 -0.4799 -0.0407
  730TMC3    C410788   0.832   1.559  17.407 -0.5242 -0.3152 -0.1717
  730TMC3    C510789   0.889   1.648  17.498  0.3247 -0.2866 -0.1067
  730TMC3    C610790   0.898   1.610  17.629 -0.3580  0.1133  0.0482
  730TMC3     C10791   0.764   1.335  17.353  0.3321  0.5008 -0.0944
  730TMC3     O10792   0.700   1.237  17.389  0.1065 -0.0550 -0.4492
  730TMC3     H10793   0.742   1.307  17.596 -0.0850 -0.7869 -0.9295
  730TMC3    H110794   0.837   1.585  17.302 -3.0538  0.3111 -0.1461
  730TMC3    H210795   0.946   1.672  17.704 -3.0933  2.7221 -0.3465
  730TMC3    C710796   0.986   1.747  17.451  0.8758  0.6312  0.2391
  730TMC3    C810797   0.950   1.417   0.041  0.2669  0.0242  0.0772
  730TMC3    O110798   1.036   1.724  17.342 -0.3712  0.9683  0.2999
  730TMC3    O210799   1.034   1.486   0.096  0.0973  0.1557 -0.3867
  731MPD2     C10800   0.770   4.012  12.340 -0.3971  0.0172  0.6312
  731MPD2    C110801   0.887   3.944  12.377 -0.6321  0.7181  0.5781
  731MPD2    C210802   0.933   3.940  12.505 -0.3592  0.6365  0.5792
  731MPD2    C310803   0.864   4.015  12.601  0.4074  0.7244  0.6809
  731MPD2    C410804   0.745   4.075  12.574  0.4337  0.9709  0.1805
  731MPD2    C510805   0.698   4.072  12.440 -0.4716 -0.7524  0.0511
  731MPD2     H10806   1.024   3.885  12.521  1.0506  2.8398  0.1495
  731MPD2    H110807   0.674   4.124  12.640 -1.7518  0.3533 -1.6836
  731MPD2    H210808   0.730   4.015  12.239 -0.0481 -2.4823  0.4294
  731MPD2    H310809   0.605   4.121  12.414  0.3176 -0.8292 -2.9301
  731MPD2     N10810   0.921   4.019  12.732  0.5301 -0.7390  0.0607
  731MPD2    H510811   1.015   3.982  12.742  1.6742  2.3145  0.2848
  731MPD2    N110812   0.959   3.895  12.274  0.0839 -0.4024  0.3224
  731MPD2    H710813   0.927   3.921  12.181 -0.2852  0.0341  0.5730
  732TMC3    C110814   1.130   3.789  12.139  0.5012  0.1500  0.4858
  732TMC3    C210815   1.041   3.788  12.037 -0.0781 -0.2763  0.3376
  732TMC3    C310816   1.096   3.780  11.908  0.1846 -0.0896 -0.0820
  732TMC3    C410817   1.265   3.770  12.124  0.9590 -0.4015 -0.3615
  732TMC3    C510818   1.310   3.764  12.000 -0.3751  0.0792 -0.7883
  732TMC3    C610819   1.231   3.766  11.890  0.5563  0.0565  0.4008
  732TMC3     C10820   1.079   3.822  12.270  0.9065  0.2903  0.0362
  732TMC3     O10821   1.144   3.796  12.366 -0.3847 -0.0691 -0.4765
  732TMC3     H10822   0.934   3.778  12.054  0.2451 -1.3275  1.7078
  732TMC3    H110823   1.335   3.769  12.206  0.5687  0.8177 -0.0108
  732TMC3    H210824   1.276   3.771  11.791  0.6886 -0.5814  0.4280
  732TMC3    C710825   1.449   3.731  11.971 -0.6487 -0.4174  0.0098
  732TMC3    C810826   1.010   3.754  11.792  0.4701 -0.6319 -0.2869
  732TMC3    O110827   1.467   3.675  11.866  0.0664 -0.9329 -0.1007
  732TMC3    O210828   1.073   3.748  11.692 -0.4585  0.3844 -0.7365
  733TMC3    C110829   1.897   2.354  13.375  0.5783 -0.1499 -0.6613
  733TMC3    C210830   1.956   2.429  13.473 -0.3842  0.0183 -0.4534
  733TMC3    C310831   2.090   2.469  13.453 -0.4210  0.2273 -0.0012
  733TMC3    C410832   1.963   2.311  13.266 -0.2127  0.1693  0.6036
  733TMC3    C510833   2.098   2.335  13.261 -0.0552 -0.2970 -0.0485
  733TMC3    C610834   2.163   2.408  13.352  0.1215 -0.2654 -0.0090
  733TMC3     C10835   1.750   2.332  13.375  0.0611 -0.2288  0.6069
  733TMC3     O10836   1.702   2.321  13.262  0.1386 -0.2532  0.4280
  733TMC3     H10837   1.895   2.461  13.556 -1.2215 -0.1737 -0.9852
  733TMC3    H110838   1.912   2.267  13.181  0.2041 -3.7943  2.3639
  733TMC3    H210839   2.266   2.440  13.349 -0.6384  2.4302  3.1317
  733TMC3    C710840   2.180   2.275  13.150 -0.1708 -0.4221  0.2184
  733TMC3    C810841   2.156   2.540  13.561 -0.1567  0.2041 -0.1159
  733TMC3    O110842   2.123   2.241  13.047 -1.3872 -0.1118 -0.4714
  733TMC3    O210843   2.115   2.512  13.674  0.3452  0.1102 -0.0700
  734MPD2     C10844   4.198   0.227  11.611  0.1571 -0.7153 -0.5553
  734MPD2    C110845   4.104   0.164  11.532  0.6829  0.1338  0.2058
  734MPD2    C210846   4.126   0.170  11.397 -0.4117  0.0553 -0.2694
  734MPD2    C310847   4.220   0.244  11.334  0.1668 -0.7054  0.2025
  734MPD2    C410848   4.311   0.301  11.418  0.5369  0.4502  0.0310
  734MPD2    C510849   4.303   0.293  11.551 -0.7315  0.5156  1.1560
  734MPD2     H10850   4.062   0.111  11.333  0.0372  0.9719 -1.5468
  734MPD2    H110851   4.394   0.353  11.372  0.9696 -0.3975 -0.1333
  734MPD2    H210852   4.186   0.229  11.719 -0.4601 -1.6829 -0.6082
  734MPD2    H310853   4.372   0.343  11.617  2.1043 -0.3181 -1.1872
  734MPD2     N10854   4.232   0.244  11.193 -0.1030  0.4876 -0.1110
  734MPD2    H510855   4.153   0.207  11.141  2.0022 -1.4470 -1.9661
  734MPD2    N110856   3.997   0.096  11.605 -0.0209 -1.0143 -0.2979
  734MPD2    H710857   4.013   0.066  11.701  2.5014  1.6686  0.0972
  735TMC3    C110858   3.814   4.678  11.595  0.3427  0.4406  0.0721
  735TMC3    C210859   3.689   4.654  11.543  0.4356  0.1816 -0.7664
  735TMC3    C310860   3.637   4.532  11.518 -0.1959 -0.4268 -0.3203
  735TMC3    C410861   3.886   4.569  11.633  0.0523  0.1484 -0.0640
  735TMC3    C510862   3.833   4.439  11.623  0.8092 -0.0626 -0.0054
  735TMC3    C610863   3.708   4.420  11.568  0.5305 -0.4368 -0.4212
  735TMC3     C10864   3.886   0.062  11.540 -0.1543  0.4395  0.2016
  735TMC3     O10865   3.849   0.093  11.427 -0.1580 -0.2313 -0.1080
  735TMC3     H10866   3.633   0.015  11.513 -1.6631 -0.4498  1.2348
  735TMC3    H110867   3.990   4.571  11.664 -0.5261  3.6386  1.6108
  735TMC3    H210868   3.674   4.323  11.533 -0.4741 -0.2673  0.0752
  735TMC3    C710869   3.932   4.343  11.584  0.1692  0.1140 -0.3961
  735TMC3    C810870   3.612   4.518  11.375  0.1746 -0.0568  0.1443
  735TMC3    O110871   4.035   4.383  11.531 -0.3104 -0.4546  0.1750
  735TMC3    O210872   3.585   4.407  11.331  0.1324 -0.2570  0.1065
  736MPD2     C10873   3.893   3.982  11.611 -0.5752  0.2626 -0.3396
  736MPD2    C110874   3.956   4.095  11.572  0.7134 -0.5763 -0.6208
  736MPD2    C210875   4.067   4.085  11.486 -0.0134 -0.3796  0.1017
  736MPD2    C310876   4.111   3.965  11.434 -0.0644  0.2761 -0.0814
  736MPD2    C410877   4.042   3.852  11.469  0.4228  0.6377  0.4324
  736MPD2    C510878   3.939   3.858  11.557  0.1914  0.9034 -0.6230
  736MPD2     H10879   4.111   4.178  11.452  2.9768 -2.0559 -0.5825
  736MPD2    H110880   4.085   3.761  11.429  0.8914  2.4015 -3.1100
  736MPD2    H210881   3.801   3.979  11.669 -0.5156 -0.1155 -0.2599
  736MPD2    H310882   3.886   3.766  11.580  0.6939  0.8086  0.1527
  736MPD2     N10883   4.211   3.953  11.336 -0.4739 -0.4038  0.5345
  736MPD2    H510884   4.221   3.858  11.303 -0.7299  0.0304 -0.8153
  736MPD2    N110885   3.892   4.216  11.614 -0.3043 -0.3493  0.4397
  736MPD2    H710886   3.806   4.210  11.668 -0.2789  0.7256  0.5922
  737TMC3    C110887   4.361   4.017  11.158 -0.9691 -0.0394 -0.4865
  737TMC3    C210888   4.353   4.106  11.051  0.5368  0.2303 -0.1788
  737TMC3    C310889   4.377   4.055  10.930  0.6604  0.0420 -0.7373
  737TMC3    C410890   4.418   3.892  11.142 -0.0876  0.3061  0.1270
  737TMC3    C510891   4.448   3.852  11.015  0.1931 -0.0995  0.2145
  737TMC3    C610892   4.429   3.927  10.905 -0.2793 -0.2083 -0.7591
  737TMC3     C10893   4.277   4.052  11.274  0.7046 -0.3364  0.5173
  737TMC3     O10894   4.263   4.173  11.283 -0.1707  0.3697 -0.8529
  737TMC3     H10895   4.319   4.208  11.065  0.5964  0.3360 -0.8250
  737TMC3    H110896   4.430   3.831  11.231  1.0854  2.9192  1.7675
  737TMC3    H210897   4.438   3.886  10.805  1.8307  0.4163 -0.8216
  737TMC3    C710898   4.493   3.711  11.000 -0.3203  0.1947  0.2858
  737TMC3    C810899   4.335   4.145  10.818 -0.1466 -0.2063 -0.4902
  737TMC3    O110900   4.446   3.626  11.076  0.2790  0.1248  0.2520
  737TMC3    O210901   4.271   4.249  10.842 -0.1599 -0.1909 -0.3844
  738MPD2     C10902   0.365   3.959  15.098  0.2617 -0.6751  0.6177
  738MPD2    C110903   0.286   3.958  14.982 -0.2399 -0.0433 -0.0983
  738MPD2    C210904   0.340   3.994  14.862 -0.3061  0.7782  0.4734
  738MPD2    C310905   0.476   4.031  14.856  0.0883  0.8013 -0.1744
  738MPD2    C410906   0.555   4.028  14.972  0.0962  0.2475  0.0223
  738MPD2    C510907   0.495   3.998  15.087 -0.1902  0.7259 -0.2974
  738MPD2     H10908   0.285   3.994  14.769  1.0454 -1.5251 -0.3068
  738MPD2    H110909   0.663   4.038  14.971  0.2700 -1.6858 -0.0901
  738MPD2    H210910   0.336   3.912  15.191  1.0993 -2.5340 -0.0748
  738MPD2    H310911   0.551   3.991  15.180  0.2906  0.1411 -0.6251
  738MPD2     N10912   0.545   4.054  14.734 -0.2233  0.4895 -0.1155
  738MPD2    H510913   0.646   4.053  14.743 -0.4718 -0.4435  2.4706
  738MPD2    N110914   0.163   3.886  14.994 -0.0063  0.1771  0.1470
  738MPD2    H710915   0.160   3.831  15.079 -2.1784  0.3877  0.1978
  739TMC3    C110916   0.607   4.061  14.514 -0.0413  0.0574  0.0981
  739TMC3    C210917   0.591   4.109  14.388  0.4377 -0.9077 -0.7465
  739TMC3    C310918   0.693   4.095  14.295 -1.1345  1.3902 -0.1896
  739TMC3    C410919   0.722   3.995  14.545  0.4504  0.4673 -0.4536
  739TMC3    C510920   0.826   3.987  14.448  0.4044 -0.0601  0.1650
  739TMC3    C610921   0.810   4.028  14.321  0.7375  0.8203  0.3520
  739TMC3     C10922   0.497   4.081  14.615  0.4683 -0.0940  0.3090
  739TMC3     O10923   0.379   4.097  14.581 -0.6226 -0.1002 -0.3279
  739TMC3     H10924   0.500   4.166  14.371  0.0516 -0.9840  0.9988
  739TMC3    H110925   0.732   3.943  14.640  0.8791 -0.1609 -0.8428
  739TMC3    H210926   0.886   4.015  14.245 -0.7671 -4.1570 -0.2995
  739TMC3    C710927   0.956   3.923  14.462 -0.2385 -0.4281  0.1990
  739TMC3    C810928   0.651   4.102  14.153 -0.2177  0.2278  0.6505
  739TMC3    O110929   1.012   3.879  14.361  0.2201  0.3326 -0.7413
  739TMC3    O210930   0.543   4.052  14.123  0.2532 -0.0060  0.3742
  740TMC3    C110931   1.100   0.181  14.214 -0.4331 -0.0616 -0.3098
  740TMC3    C210932   1.147   0.119  14.327 -0.2533 -0.4668 -0.2561
  740TMC3    C310933   1.274   0.066  14.320 -0.3374  0.0079  0.0664
  740TMC3    C410934   1.172   0.179  14.094  0.0119 -0.1869  0.8815
  740TMC3    C510935   1.287   0.109  14.092 -0.1072  0.1928  0.5716
  740TMC3    C610936   1.348   0.058  14.202 -0.4522 -0.1568 -0.4816
  740TMC3     C10937   0.982   0.261  14.221 -0.9588 -0.2663  0.6299
  740TMC3     O10938   0.915   0.260  14.117  0.4054  0.3214 -0.3257
  740TMC3     H10939   1.081   0.109  14.413  0.8060 -1.1609  0.4686
  740TMC3    H110940   1.124   0.202  14.000  2.0135 -0.7117 -0.2665
  740TMC3    H210941   1.444   0.009  14.195 -0.0669  0.5751 -0.3137
  740TMC3    C710942   1.359   0.084  13.969  0.5403 -0.5125 -0.0642
  740TMC3    C810943   1.310   4.701  14.426  0.0812 -0.5570  0.2266
  740TMC3    O110944   1.450   0.003  13.972 -0.4458  0.5028  0.2409
  740TMC3    O210945   1.404   4.624  14.410  0.1737  0.1914 -0.2256
  741TMC3    C110946   0.456   4.611  13.864 -0.5326  0.0598 -0.3728
  741TMC3    C210947   0.358   4.523  13.844 -0.0194  0.2462 -0.5336
  741TMC3    C310948   0.359   4.415  13.929  0.1019  0.9157 -0.4411
  741TMC3    C410949   0.540   4.613  13.969 -0.2764 -0.0092  0.1700
  741TMC3    C510950   0.519   4.519  14.066  0.6680  0.3390  1.0245
  741TMC3    C610951   0.435   4.417  14.045  0.4733  0.3975  0.1513
  741TMC3     C10952   0.493   4.702  13.753  0.1823 -0.8850 -0.0287
  741TMC3     O10953   0.444   4.664  13.647  0.5121 -0.4508  0.6751
  741TMC3     H10954   0.300   4.527  13.752 -1.7357  0.6631  0.5747
  741TMC3    H110955   0.629   4.673  13.983 -0.2756  0.5699 -2.3223
  741TMC3    H210956   0.423   4.333  14.113  0.2591  1.3949  1.3540
  741TMC3    C710957   0.602   4.510  14.186 -0.8361 -0.6438  0.3402
  741TMC3    C810958   0.244   4.327  13.928  0.6408 -0.3411 -0.0637
  741TMC3    O110959   0.608   4.407  14.253 -0.1072 -0.0790  0.5466
  741TMC3    O210960   0.156   4.368  13.854 -0.6558 -0.1576 -0.0288
  742TMC3    C110961   0.309   2.794  15.271 -0.8666  0.0339  0.0346
  742TMC3    C210962   0.219   2.758  15.178 -0.6126 -0.9147 -0.1867
  742TMC3    C310963   0.247   2.654  15.090 -0.5145  0.8953  0.6117
  742TMC3    C410964   0.434   2.731  15.269 -0.1881  0.5056 -0.1633
  742TMC3    C510965   0.454   2.627  15.179 -0.7619 -0.3334  0.1391
  742TMC3    C610966   0.364   2.592  15.081 -0.2593  0.3685 -0.0721
  742TMC3     C10967   0.260   2.872  15.382  0.3994  0.3475  0.2088
  742TMC3     O10968   0.145   2.912  15.376  0.0119  0.0275  0.1260
  742TMC3     H10969   0.135   2.826  15.174  0.0224 -0.1549 -0.4867
  742TMC3    H110970   0.511   2.755  15.341 -0.4254  1.3373 -0.1906
  742TMC3    H210971   0.382   2.515  15.007  2.9565  0.7074  0.3850
  742TMC3    C710972   0.561   2.528  15.214 -1.0710  0.0320 -0.2451
  742TMC3    C810973   0.160   2.630  14.978  0.1891 -0.4689 -0.1024
  742TMC3    O110974   0.558   2.417  15.160  0.0215  0.0257 -0.0544
  742TMC3    O210975   0.203   2.554  14.894 -0.0674 -0.1295  0.0749
  743MPD2     C10976   2.095   3.721   1.927  0.1551 -0.2279 -0.2204
  743MPD2    C110977   2.146   3.660   1.815  0.5810  0.7222  0.1125
  743MPD2    C210978   2.271   3.606   1.816 -0.6091  0.7442 -0.0225
  743MPD2    C310979   2.347   3.611   1.930 -0.3320  0.0647 -0.3586
  743MPD2    C410980   2.296   3.674   2.038 -0.4513 -0.8119  0.1903
  743MPD2    C510981   2.173   3.724   2.043  0.7255 -0.6160 -0.4992
  743MPD2     H10982   2.318   3.569   1.726  0.4114  0.0474  0.7979
  743MPD2    H110983   2.352   3.694   2.128  0.3220  1.0575 -0.7055
  743MPD2    H210984   1.994   3.759   1.925 -0.4925 -1.9027  0.9624
  743MPD2    H310985   2.137   3.788   2.123 -1.7640 -1.4878 -0.9077
  743MPD2     N10986   2.481   3.554   1.924  0.1164  0.3301  0.1022
  743MPD2    H510987   2.499   3.513   1.833 -1.6743  1.4027 -0.7481
  743MPD2    N110988   2.065   3.657   1.696  0.0124 -0.6244  0.3512
  743MPD2    H710989   1.977   3.707   1.692 -0.1224 -0.9674 -0.9171
  744TMC3    C110990   2.013   3.648   1.465 -0.5906 -0.9155 -0.0497
  744TMC3    C210991   1.967   3.773   1.447  0.5946  0.2759 -0.2062
  744TMC3    C310992   1.932   3.825   1.321  0.2675 -0.3217 -0.2903
  744TMC3    C410993   2.026   3.566   1.356 -0.3795  0.1381  0.2817
  744TMC3    C510994   1.993   3.617   1.234 -0.8521  0.7877  0.6140
  744TMC3    C610995   1.940   3.749   1.212  0.0504  0.5946 -0.0915
  744TMC3     C10996   2.103   3.605   1.576  0.7514 -0.2559 -0.1139
  744TMC3     O10997   2.189   3.520   1.551  0.0384 -0.1321 -0.1654
  744TMC3     H10998   1.971   3.837   1.533 -1.4273  1.3610 -0.9223
  744TMC3    H110999   2.087   3.478   1.368 -0.0579  0.3656  0.2992
  744TMC3    H211000   1.914   3.783   1.112 -0.9002 -0.9942 -0.3867
  744TMC3    C711001   2.039   3.551   1.115 -0.1654 -0.4017 -1.0970
  744TMC3    C811002   1.858   3.955   1.309 -0.1883 -0.4199 -0.0450
  744TMC3    O111003   2.033   3.628   1.020 -0.2008  0.2181 -0.3382
  744TMC3    O211004   1.839   3.995   1.195  0.1285  0.1570  0.1939
  745TMC3    C111005   0.446   2.892  13.924 -0.5974 -0.1551  0.0327
  745TMC3    C211006   0.453   2.808  14.032 -0.4677  0.9305  0.8200
  745TMC3    C311007   0.439   2.673  14.002 -0.3161 -0.1449  0.5800
  745TMC3    C411008   0.451   2.843  13.800  0.0639  0.2087  0.1275
  745TMC3    C511009   0.426   2.710  13.782  0.4860  0.2904  0.0544
  745TMC3    C611010   0.420   2.622  13.876 -0.0632  0.4656  0.1874
  745TMC3     C11011   0.453   3.034  13.937  0.3910 -0.0577  0.6080
  745TMC3     O11012   0.389   3.089  14.028 -0.3045  0.0245 -0.0110
  745TMC3     H11013   0.461   2.850  14.132  3.3029 -1.4380  1.5155
  745TMC3    H111014   0.438   2.907  13.714 -1.5621 -0.0385  0.2027
  745TMC3    H211015   0.403   2.516  13.862 -2.4367  0.5168  2.5948
  745TMC3    C711016   0.423   2.661  13.647 -0.3131  0.2685 -0.2730
  745TMC3    C811017   0.503   2.583  14.091  0.0950  0.4217 -0.2448
  745TMC3    O111018   0.326   2.595  13.614  0.0854  0.3360 -0.1986
  745TMC3    O211019   0.458   2.472  14.099 -0.2226 -0.0302 -0.0149
  746TMC3    C111020   2.801   3.884  11.232  0.0750  0.5005  0.8371
  746TMC3    C211021   2.881   3.836  11.136  0.2483 -0.1621 -0.1628
  746TMC3    C311022   2.843   3.767  11.029  0.4880 -0.0047 -0.7251
  746TMC3    C411023   2.668   3.864  11.217  0.4535 -0.5149  0.1638
  746TMC3    C511024   2.625   3.796  11.106  0.0331  1.2301 -0.0035
  746TMC3    C611025   2.710   3.751  11.009  1.0928 -0.7210  0.2374
  746TMC3     C11026   2.853   4.000  11.302 -0.1860  0.2020  0.6995
  746TMC3     O11027   2.782   4.049  11.387  0.1603 -0.6652 -0.2392
  746TMC3     H11028   2.986   3.835  11.164  0.2092  1.1429 -0.0065
  746TMC3    H111029   2.607   3.907  11.296  0.8994 -0.3435  0.4175
  746TMC3    H211030   2.673   3.687  10.929  0.3075  0.4155 -0.3009
  746TMC3    C711031   2.484   3.752  11.090  0.2770  0.3591 -0.2176
  746TMC3    C811032   2.938   3.778  10.919  0.4823  0.3338 -0.2666
  746TMC3    O111033   2.454   3.677  11.000  0.1910 -0.0792  0.6284
  746TMC3    O211034   3.057   3.775  10.948  0.8986 -0.0453  0.4035
  747TMC3    C111035   0.602   3.465  10.418 -0.3528 -0.5777  0.1815
  747TMC3    C211036   0.489   3.399  10.444  0.1799 -0.0225  0.0483
  747TMC3    C311037   0.411   3.438  10.551  0.1447  0.4725  0.1315
  747TMC3    C411038   0.646   3.565  10.499 -0.1207  0.3249 -0.5948
  747TMC3    C511039   0.573   3.592  10.612  0.5612 -0.6979  0.2126
  747TMC3    C611040   0.454   3.531  10.640  0.5203 -0.4781 -0.3479
  747TMC3     C11041   0.703   3.432  10.324  0.4449  0.0063 -0.2726
  747TMC3     O11042   0.763   3.527  10.274  0.3144  0.3544 -0.6950
  747TMC3     H11043   0.458   3.324  10.372 -0.4285 -0.3969  0.7001
  747TMC3    H111044   0.740   3.615  10.478  1.0170 -1.8495 -0.5879
  747TMC3    H211045   0.392   3.565  10.722  1.9886 -0.4189  0.7434
  747TMC3    C711046   0.587   3.715  10.697 -0.2422  0.4641 -0.0761
  747TMC3    C811047   0.268   3.389  10.566  0.4030 -0.2635  0.4978
  747TMC3    O111048   0.493   3.738  10.774  0.2784  0.2467  0.2680
  747TMC3    O211049   0.244   3.270  10.534  0.1035  0.3452  0.0111
  748MPD2     C11050   1.148   0.877   1.170  0.3600 -0.2080  0.3975
  748MPD2    C111051   1.212   0.881   1.291 -0.1245 -0.0616  0.6945
  748MPD2    C211052   1.334   0.822   1.314  0.1400  0.9183  0.0209
  748MPD2    C311053   1.398   0.759   1.208 -0.3779  0.1537 -0.2777
  748MPD2    C411054   1.339   0.757   1.079 -0.9088 -0.2185 -0.1861
  748MPD2    C511055   1.219   0.821   1.063  0.7169 -0.0507 -0.0080
  748MPD2     H11056   1.372   0.807   1.414  1.2943  3.5443 -0.0179
  748MPD2    H111057   1.383   0.710   0.991  0.5724  3.4507 -1.4094
  748MPD2    H211058   1.051   0.925   1.166  0.4057 -0.2347 -1.0887
  748MPD2    H311059   1.166   0.823   0.968  1.7684  0.6604 -0.5817
  748MPD2     N11060   1.524   0.693   1.229  0.3799 -0.1445  0.2363
  748MPD2    H511061   1.556   0.691   1.325 -2.9928  0.9821  1.3998
  748MPD2    N111062   1.141   0.946   1.401  0.0591  0.3665  0.1776
  748MPD2    H711063   1.048   0.983   1.385 -1.1097 -3.4782 -1.8284
  749TMC3    C111064   1.743   0.618   1.176  0.7074 -0.4456  0.2246
  749TMC3    C211065   1.747   0.521   1.276 -0.1213  0.6075  0.9436
  749TMC3    C311066   1.864   0.454   1.289 -0.2048 -0.4002  0.9598
  749TMC3    C411067   1.849   0.637   1.092 -0.8066  0.1895 -0.2320
  749TMC3    C511068   1.962   0.563   1.104 -0.2600  0.1248  0.2559
  749TMC3    C611069   1.973   0.476   1.208 -0.1617 -0.2327  0.9903
  749TMC3     C11070   1.611   0.664   1.125  0.3047 -0.3440  0.4189
  749TMC3     O11071   1.603   0.701   1.006 -0.9397 -0.2058 -0.1571
  749TMC3     H11072   1.666   0.513   1.348 -1.1885 -1.7673 -0.4954
  749TMC3    H111073   1.851   0.716   1.019 -1.1490  2.2579  1.9943
  749TMC3    H211074   2.065   0.420   1.219  0.8456  0.9113 -1.6639
  749TMC3    C711075   2.065   0.567   1.005 -0.2884 -0.4864 -0.8482
  749TMC3    C811076   1.886   0.380   1.407 -0.7615 -0.1438 -0.3953
  749TMC3    O111077   2.079   0.682   0.971 -0.0364 -0.1580 -0.4144
  749TMC3    O211078   1.809   0.404   1.499  0.7034 -0.1283  0.6538
  750MPD2     C11079   3.578   1.091  11.265 -0.3202  0.1492 -0.2404
  750MPD2    C111080   3.443   1.086  11.245 -0.6887 -0.3591 -1.0301
  750MPD2    C211081   3.393   0.969  11.198 -0.2561  0.3977  0.6302
  750MPD2    C311082   3.476   0.861  11.168 -0.4807 -0.0524  0.5365
  750MPD2    C411083   3.612   0.872  11.184 -0.3675 -0.2808 -1.0904
  750MPD2    C511084   3.656   0.988  11.224  0.0874 -0.5171 -0.3563
  750MPD2     H11085   3.285   0.963  11.190 -0.2542  1.3079 -0.0563
  750MPD2    H111086   3.685   0.795  11.159  1.0648 -0.4721  3.5726
  750MPD2    H211087   3.627   1.180  11.304  2.3195 -1.1829 -0.5589
  750MPD2    H311088   3.763   1.003  11.216 -0.0724  0.4612 -0.7804
  750MPD2     N11089   3.423   0.729  11.137 -0.4937  0.1889 -0.3766
  750MPD2    H511090   3.487   0.653  11.160  0.0944  1.1625  1.2396
  750MPD2    N111091   3.355   1.191  11.288 -0.1244  0.0181 -0.3022
  750MPD2    H711092   3.396   1.280  11.315  1.7664 -1.4592  1.7212
  751TMC3    C111093   3.264   0.562  11.095 -0.2400  0.1123 -0.2456
  751TMC3    C211094   3.134   0.530  11.111 -0.0816 -0.1550 -0.1396
  751TMC3    C311095   3.095   0.409  11.058 -0.4324  0.1181 -0.3284
  751TMC3    C411096   3.347   0.492  11.013  0.0012 -1.1672  0.2556
  751TMC3    C511097   3.302   0.379  10.961 -0.5491  0.7492  0.4862
  751TMC3    C611098   3.173   0.333  10.988  0.1785  0.2138 -0.0189
  751TMC3     C11099   3.287   0.699  11.118 -0.5033  0.1767 -0.1169
  751TMC3     O11100   3.190   0.768  11.097  0.2406 -0.8861 -0.2009
  751TMC3     H11101   3.068   0.584  11.178  1.3343  2.3404 -0.7588
  751TMC3    H111102   3.432   0.540  10.965 -0.8510 -1.0471 -1.1323
  751TMC3    H211103   3.119   0.250  10.945 -1.0094  0.8229  0.3101
  751TMC3    C711104   3.396   0.295  10.890 -0.2812  0.4872  0.1612
  751TMC3    C811105   2.959   0.368  11.082 -0.2564  0.1053  0.5971
  751TMC3    O111106   3.505   0.343  10.861  0.1391 -0.4563  0.4480
  751TMC3    O211107   2.929   0.251  11.081  0.5108  0.3061 -0.1300
  752TMC3    C111108   1.647   0.847  17.457 -0.5701 -0.4807 -0.8473
  752TMC3    C211109   1.599   0.755  17.545  0.1244 -0.0488 -0.4993
  752TMC3    C311110   1.573   0.795  17.675 -0.1501 -0.2304  0.4734
  752TMC3    C411111   1.678   0.972  17.499  0.0411 -0.3894  0.0986
  752TMC3    C511112   1.661   1.004  17.634 -0.2373 -0.1799 -0.0434
  752TMC3    C611113   1.601   0.921   0.018  0.2945  0.2467  0.3188
  752TMC3     C11114   1.677   0.808  17.324  0.1688 -0.2162 -0.1604
  752TMC3     O11115   1.750   0.714  17.298  0.2591  0.0756 -0.3857
  752TMC3     H11116   1.565   0.658  17.511 -2.0188  0.6135 -0.2138
  752TMC3    H111117   1.729   1.037  17.429 -1.0991 -0.3989 -0.7205
  752TMC3    H211118   1.607   0.940   0.125  3.1935  1.3600 -0.0631
  752TMC3    C711119   1.696   1.144  17.671 -1.2057  0.5257  0.7408
  752TMC3    C811120   1.498   0.698   0.042  0.1718  0.8410 -0.7727
  752TMC3    O111121   1.789   1.189  17.606  0.0871 -0.2773 -0.3265
  752TMC3    O211122   1.514   0.579   0.005  0.1934  0.6023  0.2813
  753TMC3    C111123   3.873   2.702  13.168  0.6009  0.3010  0.2813
  753TMC3    C211124   3.991   2.673  13.232  0.4865 -0.5131  0.3110
  753TMC3    C311125   4.031   2.548  13.239  0.4767 -0.0847 -0.1163
  753TMC3    C411126   3.787   2.607  13.117 -0.2511  0.4344 -0.1283
  753TMC3    C511127   3.845   2.488  13.109 -0.0409 -0.3758 -0.7910
  753TMC3    C611128   3.960   2.454  13.171 -0.1969  0.3769  0.1622
  753TMC3     C11129   3.809   2.834  13.183  0.3911 -0.1853  0.4478
  753TMC3     O11130   3.715   2.859  13.106  0.3974 -0.1457  0.6055
  753TMC3     H11131   4.055   2.736  13.292 -2.2511  1.7068  0.9132
  753TMC3    H111132   3.693   2.630  13.069  0.2518 -0.0842 -1.3820
  753TMC3    H211133   4.003   2.356  13.158  0.5672  0.8634 -0.9832
  753TMC3    C711134   3.749   2.379  13.088  0.3588 -0.0833  0.3603
  753TMC3    C811135   4.122   2.498  13.338 -0.2172  0.7195  0.5742
  753TMC3    O111136   3.630   2.413  13.093  0.3169 -0.2954 -0.5329
  753TMC3    O211137   4.103   2.382  13.371 -0.3823  0.3821 -0.2492
  754MPD2     C11138   2.019   1.444  13.204  0.1041 -0.4129 -1.1044
  754MPD2    C111139   1.996   1.306  13.176 -0.2529  0.0336 -0.1501
  754MPD2    C211140   1.936   1.268  13.061  0.0578 -0.1168 -0.2318
  754MPD2    C311141   1.893   1.365  12.977  0.1261  0.1010 -0.4366
  754MPD2    C411142   1.900   1.500  13.002 -0.6582  0.1683 -0.0256
  754MPD2    C511143   1.969   1.538  13.115 -0.9726  0.3144  0.0649
  754MPD2     H11144   1.927   1.163  13.037 -0.5371  0.2739 -1.7258
  754MPD2    H111145   1.868   1.571  12.927 -0.5315  1.0890  0.7901
  754MPD2    H211146   2.084   1.479  13.283 -3.0143 -0.5915  1.5298
  754MPD2    H311147   1.994   1.641  13.138  0.6938 -0.1665  0.4116
  754MPD2     N11148   1.823   1.326  12.860  0.8705 -0.3692  0.0540
  754MPD2    H511149   1.774   1.400  12.810 -1.7601 -2.3878 -0.3540
  754MPD2    N111150   2.042   1.217  13.274 -0.1427  0.1344 -0.3593
  754MPD2    H711151   2.079   1.258  13.359  1.5889 -0.7663 -0.6759
  755MPD2     C11152   1.117   1.479  13.220  0.9746 -0.1808 -0.1417
  755MPD2    C111153   1.246   1.466  13.262  0.4760  0.0725  0.5793
  755MPD2    C211154   1.328   1.386  13.180  0.0011  0.1097  0.3053
  755MPD2    C311155   1.289   1.344  13.056 -0.1975 -0.5136  0.1592
  755MPD2    C411156   1.159   1.358  13.020  0.0410  0.3200  0.0741
  755MPD2    C511157   1.073   1.429  13.101 -0.2792  0.3551  0.1244
  755MPD2     H11158   1.435   1.377  13.198  0.2615  1.6253 -0.5029
  755MPD2    H111159   1.112   1.318  12.931 -0.7417  1.3139  0.0417
  755MPD2    H211160   1.034   1.528  13.269 -1.6525 -2.2792 -2.4520
  755MPD2    H311161   0.969   1.443  13.073 -0.0103  3.0000  0.4163
  755MPD2     N11162   1.385   1.284  12.965  0.4968  0.7813 -0.2346
  755MPD2    H511163   1.478   1.277  13.004 -0.0138 -1.1497  0.6281
  755MPD2    N111164   1.286   1.526  13.382  0.0969 -0.4316 -0.6747
  755MPD2    H711165   1.219   1.586  13.431  0.3713  0.2345 -1.1114
  756MPD2     C11166   3.241   1.223   9.362 -0.7942 -0.3399  0.3819
  756MPD2    C111167   3.149   1.177   9.452 -0.0250 -0.7109 -0.4829
  756MPD2    C211168   3.114   1.045   9.450 -0.6936  0.1958  0.5867
  756MPD2    C311169   3.176   0.958   9.361 -0.0968 -0.2818  0.2637
  756MPD2    C411170   3.265   1.009   9.272  0.4890 -0.0870  0.0001
  756MPD2    C511171   3.298   1.139   9.274 -0.1475 -0.4033  0.1066
  756MPD2     H11172   3.047   1.011   9.529 -1.6806 -0.3075 -0.4691
  756MPD2    H111173   3.298   0.950   9.187 -0.4979 -2.9680  1.5973
  756MPD2    H211174   3.276   1.325   9.366  0.3766 -0.7015 -0.5186
  756MPD2    H311175   3.369   1.179   9.202 -2.3590  1.7172 -0.9188
  756MPD2     N11176   3.136   0.820   9.366  0.2460 -1.0286 -0.6043
  756MPD2    H511177   3.059   0.799   9.429  0.7416  3.5217  1.4926
  756MPD2    N111178   3.091   1.258   9.553  0.1289 -0.2697  0.3530
  756MPD2    H711179   3.032   1.208   9.618 -1.1082  1.7205  0.7815
  757MPD2     C11180   2.321   0.282   9.302  0.2627  0.1704 -0.0982
  757MPD2    C111181   2.404   0.184   9.349  0.8741  0.5816 -0.9575
  757MPD2    C211182   2.542   0.207   9.350 -0.5012  0.5500  0.3385
  757MPD2    C311183   2.594   0.324   9.298 -0.8080  0.0169 -0.0673
  757MPD2    C411184   2.506   0.424   9.250 -0.1174  0.0632  0.8781
  757MPD2    C511185   2.371   0.397   9.253  0.2079 -0.2926 -0.0609
  757MPD2     H11186   2.610   0.133   9.391 -2.4061 -2.0709 -1.3221
  757MPD2    H111187   2.532   0.525   9.223  0.4404 -0.2712  0.1422
  757MPD2    H211188   2.216   0.258   9.298  0.5632 -1.1798  0.1566
  757MPD2    H311189   2.296   0.471   9.226  0.8746 -1.2487 -4.5931
  757MPD2     N11190   2.735   0.342   9.298 -0.3334 -0.1225 -0.6737
  757MPD2    H511191   2.801   0.268   9.320  0.6346  0.5175 -1.4402
  757MPD2    N111192   2.338   0.063   9.398  0.0814 -0.5680 -0.3210
  757MPD2    H711193   2.237   0.059   9.404  0.0267 -0.0590 -0.9475
  758MPD2     C11194   2.514   0.148  16.042 -0.1041  0.4609 -0.6193
  758MPD2    C111195   2.620   0.223  16.016  0.1072  0.1044  0.7327
  758MPD2    C211196   2.592   0.345  15.969 -0.2457  0.0050 -0.3801
  758MPD2    C311197   2.465   0.403  15.977 -0.0115 -0.5674  0.2767
  758MPD2    C411198   2.358   0.327  16.017 -0.7105  0.3218  0.1373
  758MPD2    C511199   2.387   0.199  16.055 -0.1322  0.0274  0.3256
  758MPD2     H11200   2.683   0.399  15.947  0.2959 -1.9059 -2.7800
  758MPD2    H111201   2.256   0.363  16.025 -0.9557  0.1408 -2.1669
  758MPD2    H211202   2.508   0.044  16.070  2.2055  0.6013  0.4435
  758MPD2    H311203   2.299   0.141  16.080  0.5115 -1.0030  0.2184
  758MPD2     N11204   2.441   0.543  15.941  0.5235  0.3402 -0.1982
  758MPD2    H511205   2.355   0.592  15.964 -0.0261  0.1229 -1.7843
  758MPD2    N111206   2.753   0.179  16.019 -0.3738 -0.1462 -0.0016
  758MPD2    H711207   2.816   0.247  15.978 -1.1358 -0.1871 -1.2462
  759MPD2     C11208   1.195   2.869  10.212 -0.3386  0.4989 -0.1763
  759MPD2    C111209   1.307   2.802  10.242 -0.4927  0.1694  0.0279
  759MPD2    C211210   1.404   2.782  10.147  0.6988  0.4396  0.3830
  759MPD2    C311211   1.377   2.814  10.014  0.0201  0.3144 -0.2507
  759MPD2    C411212   1.267   2.889   9.986  0.3429 -0.1671 -0.2789
  759MPD2    C511213   1.172   2.913  10.082  0.5257 -0.3086 -0.1529
  759MPD2     H11214   1.474   2.701  10.169 -2.1919 -1.7147  1.6728
  759MPD2    H111215   1.246   2.927   9.886  3.2128 -2.8561 -1.8981
  759MPD2    H211216   1.120   2.905  10.282  1.2065  1.6703  0.8803
  759MPD2    H311217   1.093   2.978  10.046  2.2809  2.8868  1.7500
  759MPD2     N11218   1.471   2.772   9.921  0.2242  0.6026  0.1364
  759MPD2    H511219   1.544   2.713   9.959  0.6192  1.1886  0.2879
  759MPD2    N111220   1.332   2.754  10.372 -0.1586 -0.4310 -0.4198
  759MPD2    H711221   1.415   2.699  10.386 -0.1294 -0.1703  0.4055
  760MPD2     C11222   1.180   0.948  11.680 -0.2535  0.2403 -0.4484
  760MPD2    C111223   1.281   1.035  11.625  1.4946  0.2249 -1.2990
  760MPD2    C211224   1.374   0.976  11.544  0.0060 -0.4870 -0.2185
  760MPD2    C311225   1.375   0.834  11.530 -0.4792  0.1644  0.1525
  760MPD2    C411226   1.292   0.757  11.608  0.0445 -0.3569  0.4066
  760MPD2    C511227   1.190   0.812  11.680  0.1299 -0.3276  0.1997
  760MPD2     H11228   1.445   1.034  11.487 -0.4292 -0.0608 -0.3245
  760MPD2    H111229   1.295   0.649  11.600 -1.1775 -0.8203  6.0259
  760MPD2    H211230   1.100   0.990  11.740  0.1489  1.0154 -0.4600
  760MPD2    H311231   1.122   0.756  11.743  1.5140 -1.3613  0.7822
  760MPD2     N11232   1.471   0.764  11.447 -0.9425 -0.1456  0.0883
  760MPD2    H511233   1.458   0.663  11.447 -1.4466 -0.0868  1.6692
  760MPD2    N111234   1.286   1.172  11.630 -0.3820  0.1211 -0.6978
  760MPD2    H711235   1.363   1.210  11.575  1.3220 -1.3875  0.6397
  761MPD2     C11236   2.453   0.450  11.095 -0.0943  0.1399  0.2376
  761MPD2    C111237   2.519   0.332  11.102  0.0066  0.7488 -0.5978
  761MPD2    C211238   2.662   0.327  11.096 -1.0843 -0.1788  0.2936
  761MPD2    C311239   2.729   0.451  11.088 -0.3157  0.4471 -0.1353
  761MPD2    C411240   2.655   0.565  11.074  0.3149 -0.8760  0.5951
  761MPD2    C511241   2.519   0.572  11.080  0.7200  0.4018  0.8334
  761MPD2     H11242   2.706   0.230  11.117 -0.5284 -0.8051 -3.8346
  761MPD2    H111243   2.714   0.656  11.064  0.8744 -1.3462 -0.4702
  761MPD2    H211244   2.345   0.454  11.092 -0.1439 -1.0638  0.4224
  761MPD2    H311245   2.466   0.667  11.076  1.6052  0.9229  1.4724
  761MPD2     N11246   2.870   0.472  11.075  0.3759 -0.6220 -0.0492
  761MPD2    H511247   2.896   0.569  11.062 -0.0958 -0.0755  3.1913
  761MPD2    N111248   2.435   0.217  11.096  0.2163 -0.7196 -0.4186
  761MPD2    H711249   2.337   0.241  11.087 -0.0492 -2.7583 -2.8917
  762MPD2     C11250   2.306   0.059  10.523  0.0245  0.5815 -0.0178
  762MPD2    C111251   2.329   4.664  10.590 -0.0363 -0.2847  0.1282
  762MPD2    C211252   2.402   4.565  10.526 -0.3538  0.1730  0.1311
  762MPD2    C311253   2.451   4.592  10.392 -0.0889  0.3765 -0.5232
  762MPD2    C411254   2.437   4.715  10.332  0.1611  0.0914  0.0324
  762MPD2    C511255   2.363   0.080  10.395  0.1824 -0.2167 -0.4259
  762MPD2     H11256   2.432   4.473  10.577  0.8463  0.6595  0.3105
  762MPD2    H111257   2.483   0.018  10.239 -0.0434  3.0878  0.9043
  762MPD2    H211258   2.256   0.138  10.577  2.9293  1.3220  1.5807
  762MPD2    H311259   2.345   0.174  10.344  0.1790  0.1419  0.2253
  762MPD2     N11260   2.524   4.487  10.329  0.0176 -0.0503  0.0350
  762MPD2    H511261   2.552   4.408  10.385  1.3429 -0.4032 -1.1389
  762MPD2    N111262   2.280   4.658  10.720  0.1311 -0.0215  0.4958
  762MPD2    H711263   2.211   4.726  10.751  0.1660  0.0221  0.4778
  763MPD2     C11264   4.029   0.965  15.863  0.2377 -0.0095  0.2044
  763MPD2    C111265   4.145   1.036  15.871 -0.0532 -0.7720  0.2702
  763MPD2    C211266   4.179   1.090  15.993  0.2368  0.5314 -0.3440
  763MPD2    C311267   4.095   1.064  16.106  0.5998 -0.6810  0.8414
  763MPD2    C411268   3.984   0.985  16.095  0.6318 -0.2264 -0.5451
  763MPD2    C511269   3.946   0.951  15.969 -0.1410 -0.2482  0.5485
  763MPD2     H11270   4.268   1.150  16.002  1.2517 -1.1677  1.1355
  763MPD2    H111271   3.950   0.939  16.187  1.0928  0.9586  0.2090
  763MPD2    H211272   3.990   0.921  15.772  3.3724 -1.8911 -0.2451
  763MPD2    H311273   3.866   0.879  15.956  2.2972 -2.6571 -1.0243
  763MPD2     N11274   4.147   1.090  16.234 -0.2241 -0.0920 -0.2617
  763MPD2    H511275   4.097   1.037  16.304 -2.7758  0.8441 -1.3864
  763MPD2    N111276   4.245   1.050  15.770 -0.3545 -0.3310  0.2866
  763MPD2    H711277   4.325   1.110  15.786  0.0465 -0.1998 -2.1659
  764MPD2     C11278   2.469   2.591  17.071  0.4829  0.2071 -0.3548
  764MPD2    C111279   2.382   2.489  17.054 -0.3918 -0.1072  0.1885
  764MPD2    C211280   2.361   2.403  17.160  0.7500 -0.0900 -0.8132
  764MPD2    C311281   2.422   2.420  17.285  0.0945  0.3545  0.1019
  764MPD2    C411282   2.528   2.508  17.293  0.3079 -0.4013 -0.3194
  764MPD2    C511283   2.549   2.598  17.184 -0.4483 -0.0304 -0.2168
  764MPD2     H11284   2.282   2.329  17.166  0.3121  0.4942  0.7200
  764MPD2    H111285   2.596   2.519  17.377 -0.4769  0.3976  0.2035
  764MPD2    H211286   2.492   2.654  16.986  0.3428 -0.7138 -1.0773
  764MPD2    H311287   2.621   2.678  17.196 -1.2489  0.6595 -0.0536
  764MPD2     N11288   2.371   2.341  17.388  0.2614 -0.1124 -0.4798
  764MPD2    H511289   2.293   2.281  17.364  1.4922 -0.5017 -3.5009
  764MPD2    N111290   2.314   2.468  16.933  0.0182 -0.6307 -0.3722
  764MPD2    H711291   2.328   2.543  16.866  0.0127  0.8384  1.2672
  765MPD2     C11292   2.317   4.342  15.599  0.5770 -0.3174  0.8241
  765MPD2    C111293   2.384   4.459  15.572  0.7014 -0.0709 -0.0687
  765MPD2    C211294   2.508   4.459  15.510  0.0818  0.2721  0.2171
  765MPD2    C311295   2.569   4.341  15.468 -0.8114 -0.5455  0.3608
  765MPD2    C411296   2.500   4.221  15.493  0.8738  0.5378  0.6086
  765MPD2    C511297   2.375   4.226  15.551 -0.9923  0.5610 -0.4503
  765MPD2     H11298   2.568   4.545  15.482 -1.0498  0.6072 -1.1571
  765MPD2    H111299   2.541   4.130  15.452 -0.0299  1.7787 -3.1177
  765MPD2    H211300   2.217   4.324  15.636 -0.2405 -0.0021 -1.2227
  765MPD2    H311301   2.317   4.136  15.567  0.5298 -0.6471 -1.7583
  765MPD2     N11302   2.695   4.342  15.394  0.3024 -0.1648  0.0218
  765MPD2    H511303   2.752   4.425  15.404 -0.6034  0.3248  1.0692
  765MPD2    N111304   2.325   4.576  15.627 -0.0038  0.2361  0.6028
  765MPD2    H711305   2.236   4.565  15.673  0.7817  2.1550  2.5786
  766MPD2     C11306   1.857   4.462  15.352  0.0643  0.0469 -0.6585
  766MPD2    C111307   1.893   4.599  15.353 -0.2682  0.4734 -0.4511
  766MPD2    C211308   1.923   4.659  15.231 -0.1255 -0.0302  1.1679
  766MPD2    C311309   1.945   4.575  15.119  0.3803  0.4050 -0.1078
  766MPD2    C411310   1.919   4.440  15.126 -0.1855  0.0897  0.2739
  766MPD2    C511311   1.867   4.383  15.242  0.7885  0.6667 -0.1374
  766MPD2     H11312   1.960   0.034  15.228 -2.2551  0.7424  0.9597
  766MPD2    H111313   1.934   4.370  15.045 -2.1825 -1.4006  1.1880
  766MPD2    H211314   1.812   4.422  15.442  1.1428 -1.0853 -0.6099
  766MPD2    H311315   1.835   4.279  15.242  0.8671  0.6283 -1.9805
  766MPD2     N11316   2.004   4.626  14.998 -0.5106 -0.5195 -0.4321
  766MPD2    H511317   2.051   4.716  14.997 -1.3880 -0.0653 -0.5801
  766MPD2    N111318   1.913   4.661  15.480 -0.0348 -0.2674  0.1718
  766MPD2    H711319   1.918   4.607  15.566  0.8646  1.0099  0.9316
  767MPD2     C11320   1.489   0.279  15.012  0.2722 -0.5237 -0.5364
  767MPD2    C111321   1.623   0.286  14.981 -0.5096  0.5422 -0.4522
  767MPD2    C211322   1.649   0.277  14.842 -0.2642  0.5311 -0.6773
  767MPD2    C311323   1.551   0.261  14.747 -0.3934  0.2488 -0.3282
  767MPD2    C411324   1.418   0.247  14.782 -0.5226 -0.4254  1.1120
  767MPD2    C511325   1.390   0.255  14.917  0.0819  0.2102 -0.7979
  767MPD2     H11326   1.751   0.284  14.805 -1.0714  1.4903 -2.7382
  767MPD2    H111327   1.338   0.215  14.716 -0.2702 -1.8847  1.5022
  767MPD2    H211328   1.455   0.291  15.114 -0.4019  1.5824 -1.0033
  767MPD2    H311329   1.287   0.242  14.946  0.6771  0.8379  1.5492
  767MPD2     N11330   1.587   0.246  14.610 -0.4294 -0.3547 -0.3979
  767MPD2    H511331   1.687   0.254  14.597 -0.3122 -0.5101  0.3651
  767MPD2    N111332   1.713   0.314  15.086 -0.4070  0.3542  0.1249
  767MPD2    H711333   1.672   0.344  15.174 -1.9584  0.6125 -0.6951
  768MPD2     C11334   2.132   2.927  11.077  0.5262 -0.3962  0.6563
  768MPD2    C111335   2.162   3.058  11.064  0.0799 -0.7455  0.1840
  768MPD2    C211336   2.283   3.103  11.117 -0.5642  0.0356 -0.1183
  768MPD2    C311337   2.374   3.014  11.175  0.0230 -0.8142 -0.2704
  768MPD2    C411338   2.341   2.881  11.182 -0.0318  0.2966 -0.1563
  768MPD2    C511339   2.223   2.839  11.130 -0.2527 -0.5442 -0.2770
  768MPD2     H11340   2.296   3.210  11.120 -2.2539  0.2615 -0.5001
  768MPD2    H111341   2.412   2.805  11.213 -2.3382 -0.2808  3.7894
  768MPD2    H211342   2.041   2.880  11.041  0.6174 -0.7834  0.9303
  768MPD2    H311343   2.188   2.736  11.129 -2.3198  0.1508  0.0997
  768MPD2     N11344   2.500   3.057  11.225  0.6632  0.3972 -0.3906
  768MPD2    H511345   2.543   2.998  11.295 -2.2917 -0.5036  0.6739
  768MPD2    N111346   2.065   3.152  11.009  0.3125  0.0617  0.1793
  768MPD2    H711347   2.105   3.245  11.004 -0.4061  0.3384 -0.4114
  769MPD2     C11348   3.696   1.824  14.937  0.7495 -0.1535  0.7040
  769MPD2    C111349   3.589   1.865  15.010  0.6328  0.7164 -0.2692
  769MPD2    C211350   3.615   1.957  15.110  0.3851 -0.0076  0.3793
  769MPD2    C311351   3.733   2.017  15.136  0.0162 -0.4949 -0.2087
  769MPD2    C411352   3.841   1.970  15.059  0.5457 -0.0550 -0.1340
  769MPD2    C511353   3.814   1.879  14.965  0.7244  0.1334 -0.1241
  769MPD2     H11354   3.536   1.991  15.176 -0.3907 -0.3254 -0.3775
  769MPD2    H111355   3.942   2.010  15.070  0.1985  0.9370 -0.5459
  769MPD2    H211356   3.687   1.755  14.855  1.8328  0.1234  0.3471
  769MPD2    H311357   3.901   1.846  14.909  1.1316  0.7936  0.1100
  769MPD2     N11358   3.750   2.099  15.247  0.1081 -0.2416  0.4570
  769MPD2    H511359   3.677   2.110  15.317  1.0349 -0.1563  1.4146
  769MPD2    N111360   3.455   1.812  14.988 -0.5424 -0.0116  0.2631
  769MPD2    H711361   3.457   1.740  14.917 -1.6221 -2.1604  2.4138
  770MPD2     C11362   2.819   1.158  15.318  0.5653 -0.1737  0.1221
  770MPD2    C111363   2.931   1.145  15.232 -0.1018 -0.7631 -0.7337
  770MPD2    C211364   2.978   1.262  15.176 -0.2092 -0.4952  0.9506
  770MPD2    C311365   2.921   1.385  15.192  0.0828 -0.2120  0.1838
  770MPD2    C411366   2.804   1.387  15.266  0.3640 -0.1482 -0.8789
  770MPD2    C511367   2.753   1.277  15.325 -0.8126  0.2186 -0.6991
  770MPD2     H11368   3.066   1.258  15.113  0.0021  0.9006  1.1524
  770MPD2    H111369   2.746   1.478  15.267 -1.0350 -1.0756  1.4078
  770MPD2    H211370   2.756   1.078  15.355  2.1289 -0.9361  1.1269
  770MPD2    H311371   2.658   1.290  15.374 -0.2357 -0.3604  0.5769
  770MPD2     N11372   2.981   1.495  15.129  0.2736  0.2698 -0.6886
  770MPD2    H511373   3.066   1.477  15.077  0.7553  0.4439  0.0351
  770MPD2    N111374   2.997   1.020  15.202  0.1860 -0.0913  0.1781
  770MPD2    H711375   3.092   1.024  15.169  0.6342 -1.8865  1.2942
  771MPD2     C11376   4.670   4.168  13.678 -0.2045  0.3487 -0.0763
  771MPD2    C111377   4.587   4.267  13.650 -0.2961  0.3687  0.7130
  771MPD2    C211378   4.473   4.237  13.578  0.4894 -0.5960 -0.3174
  771MPD2    C311379   4.430   4.113  13.541 -0.1023  0.2361  0.5831
  771MPD2    C411380   4.520   4.016  13.578  0.3123  0.4611 -0.5630
  771MPD2    C511381   4.632   4.042  13.643 -0.1284  0.1263  0.3721
  771MPD2     H11382   4.407   4.320  13.559  0.8558 -0.0155  0.9430
  771MPD2    H111383   4.504   3.909  13.570 -2.3309  0.8229 -0.0632
  771MPD2    H211384   0.030   4.180  13.742  0.5864 -1.3376 -0.8090
  771MPD2    H311385   4.695   3.960  13.675 -0.0444 -0.2745 -0.8192
  771MPD2     N11386   4.303   4.094  13.475  0.6697  0.6201  0.1351
  771MPD2    H511387   4.238   4.171  13.465  0.9861  0.8152 -0.4557
  771MPD2    N111388   4.627   4.396  13.688  0.3826 -0.5227  0.3800
  771MPD2    H711389   4.723   4.417  13.712  1.2341 -1.6791 -2.1125
  772MPD2     C11390   4.384   0.454  13.926 -0.6245 -0.1661  0.3407
  772MPD2    C111391   4.332   0.331  13.873 -0.6696 -0.4329 -0.2833
  772MPD2    C211392   4.196   0.310  13.873  0.0444  0.4719  1.0604
  772MPD2    C311393   4.114   0.403  13.944 -0.7883  0.2562 -0.7021
  772MPD2    C411394   4.166   0.514  14.001 -0.5355 -0.8009  0.7858
  772MPD2    C511395   4.303   0.535  13.994  0.3431  0.2294  0.0837
  772MPD2     H11396   4.155   0.217  13.835 -2.1564  1.8398  0.0928
  772MPD2    H111397   4.105   0.596  14.037 -0.9157 -0.3252 -0.9738
  772MPD2    H211398   4.487   0.479  13.901 -0.9806  0.2256 -0.7286
  772MPD2    H311399   4.348   0.626  14.032 -1.2115  1.0843 -0.0836
  772MPD2     N11400   3.978   0.392  13.953  0.3953  0.2238  0.7404
  772MPD2    H511401   3.937   0.464  14.013 -1.1995 -0.3706  0.3538
  772MPD2    N111402   4.417   0.231  13.816  0.4921 -0.0371  0.0458
  772MPD2    H711403   4.363   0.151  13.785  0.5802 -0.7658  1.7682
  773MPD2     C11404   2.945   0.635  17.457 -0.0700  0.5187 -0.0083
  773MPD2    C111405   2.873   0.526  17.436  0.1295  0.8049  0.4195
  773MPD2    C211406   2.906   0.411  17.504 -0.2660  0.5216 -0.0521
  773MPD2    C311407   3.005   0.409  17.603  0.6192  0.0560 -0.1328
  773MPD2    C411408   3.072   0.525  17.620  0.5143 -0.0594  0.2963
  773MPD2    C511409   3.054   0.634  17.544 -0.0090  0.1964  0.3942
  773MPD2     H11410   2.856   0.317  17.484  1.3586 -0.3161 -0.2061
  773MPD2    H111411   3.159   0.532  17.683  1.6238 -1.0624 -1.1254
  773MPD2    H211412   2.919   0.730  17.413 -0.4584  0.9799  1.2184
  773MPD2    H311413   3.114   0.722  17.563  1.3336 -0.6877  0.2510
  773MPD2     N11414   3.025   0.290  17.679 -0.1158  0.3331  0.2704
  773MPD2    H511415   2.962   0.213  17.660 -0.8518  0.2596  3.0726
  773MPD2    N111416   2.761   0.534  17.354 -0.2945  0.4075  0.6382
  773MPD2    H711417   2.718   0.447  17.324  1.1159 -0.0313 -0.1174
  774MPD2     C11418   2.089   0.191  13.680 -0.8924  0.2275  0.2663
  774MPD2    C111419   2.174   0.275  13.742  0.0323  0.0135  0.0345
  774MPD2    C211420   2.173   0.415  13.711  0.2172 -0.4241 -0.1756
  774MPD2    C311421   2.072   0.459  13.627 -0.1256  0.1977  0.2510
  774MPD2    C411422   1.990   0.373  13.558 -0.4490  0.5873  0.0215
  774MPD2    C511423   1.998   0.239  13.583  0.2154 -0.1372 -0.4073
  774MPD2     H11424   2.241   0.479  13.767 -0.6308  1.5596 -1.4035
  774MPD2    H111425   1.924   0.403  13.477 -1.7412 -1.1359  0.4325
  774MPD2    H211426   2.090   0.083  13.685 -2.8477  0.1730 -0.5817
  774MPD2    H311427   1.931   0.175  13.527  0.9516 -1.6345  0.4099
  774MPD2     N11428   2.074   0.598  13.597  0.1014  0.1555  0.6737
  774MPD2    H511429   2.146   0.653  13.643  0.2473 -0.0211  0.6603
  774MPD2    N111430   2.277   0.217  13.816  0.4240  0.4930  0.2694
  774MPD2    H711431   2.277   0.116  13.809  0.0455  0.3629  1.9926
  775MPD2     C11432   4.294   1.966  15.763  0.3941 -0.8221  0.1489
  775MPD2    C111433   4.228   2.079  15.813  0.7727  0.5974  0.2012
  775MPD2    C211434   4.269   2.200  15.765 -0.1832  0.5807 -0.4355
  775MPD2    C311435   4.387   2.211  15.690  0.1733  0.2633 -0.2208
  775MPD2    C411436   4.462   2.099  15.651  0.3686  0.2310 -0.2844
  775MPD2    C511437   4.402   1.980  15.677  0.1005 -0.3193  0.4982
  775MPD2     H11438   4.216   2.291  15.789  0.5301  1.0929 -0.7930
  775MPD2    H111439   4.558   2.101  15.601 -0.1435  2.4191 -1.2113
  775MPD2    H211440   4.265   1.864  15.783  0.4821 -0.6765  1.0207
  775MPD2    H311441   4.447   1.888  15.641 -2.3074 -0.7605 -1.4055
  775MPD2     N11442   4.429   2.339  15.649 -0.6570 -0.1646 -1.2673
  775MPD2    H511443   4.481   2.341  15.562  1.5688 -1.4918  0.0154
  775MPD2    N111444   4.117   2.056  15.896 -0.5684  0.0504  0.5435
  775MPD2    H711445   4.100   1.958  15.917  0.9635 -0.3161  0.0488
  776MPD2     C11446   2.994   1.772  10.875 -0.5680 -0.9520 -0.0009
  776MPD2    C111447   3.055   1.765  11.000  0.7365  0.0427  0.0849
  776MPD2    C211448   3.111   1.878  11.059  0.4785 -0.7275 -0.1333
  776MPD2    C311449   3.107   2.002  10.992 -0.2768 -0.5203 -0.6521
  776MPD2    C411450   3.040   2.003  10.875 -0.3047  0.8246 -0.5718
  776MPD2    C511451   2.994   1.889  10.813  0.0421 -0.3498 -0.0407
  776MPD2     H11452   3.148   1.878  11.161 -0.0556 -0.9067  0.0631
  776MPD2    H111453   3.033   2.091  10.812 -1.1655  0.8812 -0.3980
  776MPD2    H211454   2.964   1.679  10.828  0.5838 -0.9280 -0.7689
  776MPD2    H311455   2.949   1.903  10.715 -1.2343 -0.7334  0.4862
  776MPD2     N11456   3.153   2.128  11.041  0.2723 -0.1641 -0.0706
  776MPD2    H511457   3.129   2.206  10.981  0.8668  1.1309  1.3411
  776MPD2    N111458   3.038   1.644  11.076 -0.5150 -0.3297 -1.2706
  776MPD2    H711459   2.975   1.569  11.050 -0.4632 -0.6952 -0.3282
  777MPD2     C11460   2.457   4.376   0.840 -0.2341 -0.1038 -0.3464
  777MPD2    C111461   2.487   4.288   0.936 -0.2629 -0.4914  0.1686
  777MPD2    C211462   2.521   4.157   0.898 -0.1711 -0.2193  0.2983
  777MPD2    C311463   2.526   4.129   0.764  0.1359  0.3768 -0.1724
  777MPD2    C411464   2.502   4.224   0.665  0.2238  0.0063 -0.2035
  777MPD2    C511465   2.468   4.353   0.704  0.1903  0.0985 -0.2908
  777MPD2     H11466   2.536   4.082   0.975 -0.3599 -0.6098 -0.0488
  777MPD2    H111467   2.522   4.213   0.559  1.4574  1.2434 -0.0965
  777MPD2    H211468   2.425   4.477   0.862 -0.2405  0.4479 -2.8294
  777MPD2    H311469   2.462   4.437   0.635 -0.5641  1.1942  1.1070
  777MPD2     N11470   2.567   4.000   0.726  0.1274 -0.3790 -0.1407
  777MPD2    H511471   2.585   3.933   0.800  0.6888 -0.5420 -0.4248
  777MPD2    N111472   2.463   4.313   1.072  0.4390 -0.3306  0.0366
  777MPD2    H711473   2.431   4.406   1.098 -1.2825 -0.2269 -2.4105
  778MPD2     C11474   4.196   0.158  15.012 -0.1680  0.1112 -0.1203
  778MPD2    C111475   4.287   0.078  14.948 -0.1651  0.6238  0.5305
  778MPD2    C211476   4.420   0.125  14.944  0.3752 -0.5171  0.4505
  778MPD2    C311477   4.456   0.250  14.988  0.0625 -0.2028 -0.1973
  778MPD2    C411478   4.359   0.333  15.042 -0.4262  0.3269 -0.1989
  778MPD2    C511479   4.228   0.285  15.057 -0.7696  0.0931 -0.9942
  778MPD2     H11480   4.496   0.062  14.898 -0.3183 -1.0133 -0.0050
  778MPD2    H111481   4.376   0.426  15.096  1.4559 -0.8626  1.2623
  778MPD2    H211482   4.094   0.121  15.015 -0.0854 -0.0789  0.4544
  778MPD2    H311483   4.150   0.346  15.101  0.8907  0.5575  1.2859
  778MPD2     N11484   4.591   0.282  14.992 -0.4035  0.6742  0.2476
  778MPD2    H511485   4.656   0.206  14.975 -1.0719 -0.1736  1.4847
  778MPD2    N111486   4.260   4.676  14.888 -0.6640 -0.3568 -0.3721
  778MPD2    H711487   4.335   4.625  14.842 -1.4320 -1.7432 -0.0910
  779MPD2     C11488   4.074   3.461  13.631  0.4671 -0.3121  0.1468
  779MPD2    C111489   4.167   3.477  13.728 -0.1822 -0.2684 -0.5403
  779MPD2    C211490   4.193   3.606  13.769  0.6627 -0.4170 -0.1501
  779MPD2    C311491   4.126   3.716  13.718  0.9180  0.1042  0.8523
  779MPD2    C411492   4.040   3.699  13.613 -0.8717 -0.1426 -0.4358
  779MPD2    C511493   4.009   3.571  13.574  0.0604  0.2514  0.3968
  779MPD2     H11494   4.262   3.631  13.849  0.8862 -1.1480 -0.1174
  779MPD2    H111495   3.998   3.787  13.566 -0.8392 -0.4434 -1.0443
  779MPD2    H211496   4.040   3.364  13.595 -2.2640  0.8686 -0.4399
  779MPD2    H311497   3.937   3.556  13.493  0.2427 -0.4966  0.3767
  779MPD2     N11498   4.160   3.835  13.778  0.5599 -0.0433  0.1550
  779MPD2    H511499   4.246   3.839  13.832  0.1065  1.8718  0.7387
  779MPD2    N111500   4.237   3.368  13.771 -0.0133  0.4546  0.5976
  779MPD2    H711501   4.219   3.278  13.727 -1.9220  1.1284  0.0178
  780MPD2     C11502   3.133   3.160   0.979  0.0716  0.0747 -0.0188
  780MPD2    C111503   3.123   3.101   0.858 -0.3774  0.1599  0.3943
  780MPD2    C211504   3.235   3.110   0.782 -0.5034  0.7185 -0.4502
  780MPD2    C311505   3.352   3.188   0.806 -0.5583  0.1310  0.6882
  780MPD2    C411506   3.352   3.256   0.921 -0.2345  0.1444  0.1538
  780MPD2    C511507   3.243   3.240   0.999 -0.1307  0.4442 -0.3146
  780MPD2     H11508   3.232   3.061   0.685 -0.5576 -0.9777  0.4030
  780MPD2    H111509   3.432   3.317   0.962  0.8265 -1.0405 -0.1870
  780MPD2    H211510   3.070   3.128   1.061  0.4216  0.2205  0.3062
  780MPD2    H311511   3.245   3.278   1.101  0.2440 -0.2695 -0.0556
  780MPD2     N11512   3.468   3.170   0.723 -0.7109  0.1033 -0.4654
  780MPD2    H511513   3.461   3.097   0.654 -3.4647 -0.1546  0.0713
  780MPD2    N111514   3.016   3.008   0.826 -0.1960 -0.1382 -0.2816
  780MPD2    H711515   2.968   2.970   0.907  0.9240 -0.7306  0.1099
  781MPD2     C11516   1.179   4.458  11.860  0.2181 -0.1770  0.1890
  781MPD2    C111517   1.047   4.437  11.910 -0.2683 -0.6015 -0.5490
  781MPD2    C211518   0.956   4.391  11.817  0.1210  0.1207 -1.3873
  781MPD2    C311519   0.987   4.348  11.689  0.1622  0.0783 -0.1151
  781MPD2    C411520   1.119   4.351  11.652  0.1517 -0.3462  0.4019
  781MPD2    C511521   1.203   4.411  11.732 -0.1681  0.5364 -0.3077
  781MPD2     H11522   0.851   4.397  11.845  0.7754  1.1661  0.8548
  781MPD2    H111523   1.144   4.325  11.550  1.4535 -0.1159  0.6574
  781MPD2    H211524   1.266   4.498  11.911 -0.8530  1.9310  0.3268
  781MPD2    H311525   1.303   4.428  11.692  0.2891  1.5007  1.2493
  781MPD2     N11526   0.888   4.304  11.590  0.3543  0.0552  0.0876
  781MPD2    H511527   0.926   4.298  11.496  0.4221 -1.1886  0.2016
  781MPD2    N111528   1.002   4.476  12.039  0.1519  0.2606 -0.8080
  781MPD2    H711529   0.906   4.449  12.060  0.7675 -1.7744 -0.5903
  782MPD2     C11530   4.447   0.328  10.394 -0.1183  0.4956  0.7361
  782MPD2    C111531   4.322   0.347  10.437 -0.0171 -0.0597  0.1155
  782MPD2    C211532   4.295   0.444  10.540 -0.3202 -0.1572 -0.3438
  782MPD2    C311533   4.393   0.534  10.578  0.2884  0.1522  0.1721
  782MPD2    C411534   4.512   0.530  10.513  0.1289  0.3704 -0.2417
  782MPD2    C511535   4.537   0.432  10.423  0.1972  0.0275  0.4221
  782MPD2     H11536   4.206   0.440  10.602 -0.0524  0.5922  0.0828
  782MPD2    H111537   4.586   0.606  10.537  1.3449 -0.9284  0.1211
  782MPD2    H211538   4.474   0.254  10.319  1.2682  2.4851 -0.7386
  782MPD2    H311539   4.640   0.435  10.389  0.2194  0.3761  0.5097
  782MPD2     N11540   4.380   0.643  10.674 -0.0731 -0.4861 -0.0102
  782MPD2    H511541   4.461   0.704  10.688  0.2255 -0.7132 -0.7349
  782MPD2    N111542   4.224   0.253  10.397 -0.0376  0.5894  0.1215
  782MPD2    H711543   4.237   0.177  10.331  1.1022  0.4320  0.5366
  783MPD2     C11544   3.330   4.676  10.747  0.4615  0.0432 -0.2946
  783MPD2    C111545   3.396   0.072  10.764  0.1049 -0.3615  0.0743
  783MPD2    C211546   3.522   0.078  10.709  0.3612 -0.2303 -0.1859
  783MPD2    C311547   3.564   4.703  10.622 -0.1728  1.5538 -0.1584
  783MPD2    C411548   3.471   4.612  10.573  0.1401  0.2399  0.0733
  783MPD2    C511549   3.361   4.588  10.655  0.0097  0.3085 -0.3404
  783MPD2     H11550   3.587   0.161  10.733 -1.1963  1.0425 -0.3623
  783MPD2    H111551   3.493   4.539  10.496 -0.0034  2.0488 -1.6690
  783MPD2    H211552   3.238   4.652  10.799  0.6323  2.3101  1.0812
  783MPD2    H311553   3.303   4.498  10.638  0.1029  0.7188 -2.7614
  783MPD2     N11554   3.694   4.713  10.568 -0.1787 -0.0820  0.0280
  783MPD2    H511555   3.764   0.037  10.620  1.6961 -0.3873 -2.2131
  783MPD2    N111556   3.335   0.175  10.848  0.3946  0.0781  0.5410
  783MPD2    H711557   3.245   0.149  10.887 -2.0342  1.0071 -4.5367
  784MPD2     C11558   0.962   1.051   0.766  0.6576  0.2418  0.4759
  784MPD2    C111559   0.936   1.158   0.853  0.4465 -0.2705 -0.5687
  784MPD2    C211560   0.815   1.223   0.859 -0.4063  0.1307  0.4606
  784MPD2    C311561   0.716   1.185   0.768 -0.5065 -0.4614 -0.7765
  784MPD2    C411562   0.749   1.101   0.663  0.0235 -0.3415  0.5512
  784MPD2    C511563   0.865   1.031   0.670  0.4219  0.4354  0.0725
  784MPD2     H11564   0.793   1.300   0.932  2.2718  1.8547 -0.5425
  784MPD2    H111565   0.690   1.079   0.575  0.6868  0.4440 -0.0924
  784MPD2    H211566   1.048   0.985   0.759  0.5133  0.1714 -0.6498
  784MPD2    H311567   0.902   0.976   0.584  0.5279  0.1730  0.2853
  784MPD2     N11568   0.594   1.258   0.771 -0.3647 -0.0801 -0.3141
  784MPD2    H511569   0.588   1.337   0.835 -0.1369 -0.0389 -0.3460
  784MPD2    N111570   1.026   1.190   0.955  0.2385  0.3162 -0.1367
  784MPD2    H711571   0.998   1.256   1.027 -1.9633  0.5932 -1.2615
  785MPD2     C11572   1.442   3.287  11.014 -0.0028 -0.4001  0.1806
  785MPD2    C111573   1.358   3.387  10.960  0.7339 -0.0663 -0.1612
  785MPD2    C211574   1.294   3.355  10.845 -0.8702 -0.3145 -0.3160
  785MPD2    C311575   1.310   3.235  10.779  0.1430 -0.3158 -0.0616
  785MPD2    C411576   1.386   3.135  10.844 -0.0022 -1.0855 -0.2127
  785MPD2    C511577   1.457   3.166  10.955 -0.4668 -0.8982  0.2893
  785MPD2     H11578   1.219   3.415  10.796 -0.1791  0.3347 -0.5717
  785MPD2    H111579   1.394   3.033  10.808  0.3374 -1.0151 -0.3371
  785MPD2    H211580   1.487   3.305  11.111 -2.5509  2.5679  0.8204
  785MPD2    H311581   1.511   3.089  11.008  1.3988 -0.6487 -1.2153
  785MPD2     N11582   1.245   3.222  10.657 -0.2434 -0.2755 -0.1797
  785MPD2    H511583   1.192   3.307  10.640  0.9258 -0.1947 -3.4663
  785MPD2    N111584   1.346   3.509  11.037  0.5127 -0.4676 -0.7257
  785MPD2    H711585   1.394   3.508  11.126 -2.8207 -0.0460  1.0978
  786MPD2     C11586   4.441   2.655  14.741 -0.4270 -0.5456  0.0322
  786MPD2    C111587   4.562   2.618  14.695 -0.3253 -0.4238 -0.0519
  786MPD2    C211588   4.677   2.623  14.768  0.0057 -0.1396  0.0136
  786MPD2    C311589   4.661   2.684  14.895  0.3130 -0.3281  0.4872
  786MPD2    C411590   4.539   2.724  14.941 -0.2401  0.6258  0.4311
  786MPD2    C511591   4.432   2.705  14.865 -1.1623  0.5286  0.3892
  786MPD2     H11592   0.048   2.599  14.727 -0.5509  0.7276 -1.7972
  786MPD2    H111593   4.539   2.777  15.036 -3.4750 -0.7583  1.1908
  786MPD2    H211594   4.344   2.630  14.700 -0.7460  1.7077 -0.5659
  786MPD2    H311595   4.334   2.731  14.902 -0.3307  3.9338  0.1397
  786MPD2     N11596   0.042   2.702  14.976 -0.4812 -0.1008  0.0723
  786MPD2    H511597   0.030   2.765  15.055 -2.5667  0.0044 -0.3347
  786MPD2    N111598   4.583   2.599  14.559 -0.2624 -0.0279 -0.1823
  786MPD2    H711599   4.676   2.569  14.530 -0.4197  1.3108 -2.0411
  787MPD2     C11600   0.428   2.646  14.458 -0.0645 -0.7481 -0.3099
  787MPD2    C111601   0.346   2.541  14.438 -0.8910  0.1574 -0.6891
  787MPD2    C211602   0.367   2.422  14.506  0.7206  1.0066 -0.0982
  787MPD2    C311603   0.465   2.420  14.609 -0.1006 -0.7309 -0.3476
  787MPD2    C411604   0.531   2.533  14.645 -0.2389 -0.1161  0.5285
  787MPD2    C511605   0.517   2.644  14.564  0.6801  1.0105  1.1828
  787MPD2     H11606   0.323   2.326  14.480  2.6100  0.5634 -1.7050
  787MPD2    H111607   0.616   2.537  14.713  0.6133 -0.6528 -0.4934
  787MPD2    H211608   0.434   2.737  14.399  0.5067 -0.1966  0.6145
  787MPD2    H311609   0.591   2.721  14.584  1.6281  0.4044 -0.0268
  787MPD2     N11610   0.509   2.290  14.658  0.1168 -0.3802  0.8340
  787MPD2    H511611   0.483   2.209  14.602  2.6411 -0.4861 -0.1707
  787MPD2    N111612   0.237   2.562  14.359 -0.2138  0.5555 -0.0237
  787MPD2    H711613   0.206   2.657  14.346 -1.3163  0.1695 -0.2265
  788MPD2     C11614   2.125   0.880   0.484  0.1364 -0.2110  0.0117
  788MPD2    C111615   2.142   0.766   0.410 -0.3240  0.0158  0.0159
  788MPD2    C211616   2.190   0.774   0.281 -0.2208 -0.5750  0.1211
  788MPD2    C311617   2.237   0.891   0.228  0.7537 -0.4949  0.1155
  788MPD2    C411618   2.218   1.010   0.301  0.4473 -0.3712  0.3234
  788MPD2    C511619   2.153   1.003   0.423 -0.3771 -0.7661  0.1001
  788MPD2     H11620   2.186   0.679   0.230 -1.2070  1.2209 -3.1280
  788MPD2    H111621   2.242   1.107   0.260  3.4667 -1.5738 -0.7769
  788MPD2    H211622   2.092   0.879   0.587 -0.6141  1.0513 -0.2215
  788MPD2    H311623   2.140   1.098   0.473 -0.2866 -0.5609 -0.2717
  788MPD2     N11624   2.274   0.908   0.090  0.1994  0.2722 -0.0915
  788MPD2    H511625   2.260   0.998   0.045  0.9596  0.3189 -0.2350
  788MPD2    N111626   2.100   0.639   0.449  0.5443  0.6152 -0.4701
  788MPD2    H711627   2.127   0.556   0.398 -1.2703 -0.7654  0.8351
  789MPD2     C11628   1.597   4.621  16.783 -0.0881 -0.2243 -0.6626
  789MPD2    C111629   1.575   4.705  16.678 -0.0063  0.1806  0.0707
  789MPD2    C211630   1.535   0.106  16.712  0.4192  1.4331 -0.3224
  789MPD2    C311631   1.532   0.156  16.836 -0.0862 -0.1764  0.1337
  789MPD2    C411632   1.546   0.066  16.941  0.1586 -0.0081  0.1507
  789MPD2    C511633   1.583   4.661  16.915  0.2561  0.8176  0.9289
  789MPD2     H11634   1.511   0.165  16.625  2.0878  1.4803 -0.7658
  789MPD2    H111635   1.547   0.104  17.043  1.9267  0.6132 -0.0958
  789MPD2    H211636   1.633   4.520  16.765  2.5037  0.5927 -0.1447
  789MPD2    H311637   1.602   4.594  16.997  0.8152  0.9011  0.8682
  789MPD2     N11638   1.517   0.287  16.873  0.2355 -0.0480 -0.0047
  789MPD2    H511639   1.515   0.294  16.974 -1.2214 -0.4202 -0.0033
  789MPD2    N111640   1.571   4.662  16.541  0.2525 -0.1638  0.5089
  789MPD2    H711641   1.542   0.011  16.481  1.0465  0.5500  1.0208
  790MPD2     C11642   3.373   2.224  13.406  0.1083 -0.9448  0.0819
  790MPD2    C111643   3.326   2.098  13.436 -0.6491 -0.5502 -0.0619
  790MPD2    C211644   3.250   2.040  13.345 -0.2518  0.1016 -0.4442
  790MPD2    C311645   3.210   2.102  13.225  0.3497  0.6174  0.5149
  790MPD2    C411646   3.258   2.226  13.194 -0.5402  0.2547  0.6653
  790MPD2    C511647   3.341   2.284  13.282  0.3883  0.8976 -0.3071
  790MPD2     H11648   3.226   1.937  13.368  2.9012 -0.4545  0.3658
  790MPD2    H111649   3.243   2.279  13.101 -0.0879 -0.6917  0.0578
  790MPD2    H211650   3.438   2.269  13.480 -1.3603 -0.2864  0.9858
  790MPD2    H311651   3.370   2.386  13.256  1.4901  0.8673  0.8394
  790MPD2     N11652   3.146   2.017  13.139  0.1282 -0.5837 -0.0885
  790MPD2    H511653   3.153   1.920  13.168  2.0767 -0.1364  0.9720
  790MPD2    N111654   3.336   2.050  13.571 -0.1515 -0.8003  0.0655
  790MPD2    H711655   3.392   2.102  13.639 -1.2275 -0.9481  1.0681
  791MPD2     C11656   2.378   1.911  13.043 -0.1274 -0.2602 -0.4004
  791MPD2    C111657   2.461   1.818  12.979  0.1363  0.2179  0.0026
  791MPD2    C211658   2.408   1.722  12.889  0.5837 -0.1055 -0.5394
  791MPD2    C311659   2.277   1.709  12.868  0.0924 -0.0473 -0.8629
  791MPD2    C411660   2.198   1.800  12.934 -0.7408 -0.2285 -0.3730
  791MPD2    C511661   2.246   1.894  13.012  0.0288 -1.0567  0.1582
  791MPD2     H11662   2.469   1.657  12.828  0.5448 -0.0589 -0.6288
  791MPD2    H111663   2.090   1.792  12.926 -0.9284  1.1266  0.9119
  791MPD2    H211664   2.422   1.987  13.107 -0.6487 -1.3357  1.2276
  791MPD2    H311665   2.180   1.957  13.072 -0.0149 -0.2514 -0.7291
  791MPD2     N11666   2.224   1.605  12.794  0.0450  0.5149 -0.0443
  791MPD2    H511667   2.286   1.535  12.754  1.3384  1.6240  0.0383
  791MPD2    N111668   2.598   1.822  13.002 -0.9425 -0.2729 -0.6725
  791MPD2    H711669   2.635   1.888  13.070 -0.4066  0.9887 -2.1888
  792MPD2     C11670   3.643   1.392  10.994 -0.5837 -0.7124  0.3249
  792MPD2    C111671   3.516   1.418  10.962 -0.1033 -0.6012 -0.0331
  792MPD2    C211672   3.437   1.313  10.908  0.3084 -0.6532  0.3515
  792MPD2    C311673   3.490   1.194  10.873 -0.0083  0.0899  0.4485
  792MPD2    C411674   3.619   1.169  10.915  0.0294 -0.1472 -0.1621
  792MPD2    C511675   3.694   1.271  10.965 -0.4714 -0.0597 -0.0091
  792MPD2     H11676   3.332   1.337  10.902  0.9742  2.7770  2.0107
  792MPD2    H111677   3.666   1.073  10.897  1.0294  0.7339 -2.2645
  792MPD2    H211678   3.712   1.471  11.023 -0.5102 -0.5026 -0.4207
  792MPD2    H311679   3.799   1.251  10.983 -0.4594 -1.5379 -1.7311
  792MPD2     N11680   3.421   1.086  10.818 -0.1902  0.1650 -0.2462
  792MPD2    H511681   3.474   1.002  10.798  0.0318 -0.2043  1.9246
  792MPD2    N111682   3.478   1.547  10.996 -0.0901  0.0074  0.2533
  792MPD2    H711683   3.529   1.597  11.068  0.2181  0.9539 -0.6306
  793MPD2     C11684   2.775   1.022  10.119 -0.0655 -0.3170 -0.1276
  793MPD2    C111685   2.896   1.088  10.148  0.5568  0.3632  0.5592
  793MPD2    C211686   2.975   1.052  10.257 -0.2899  0.3193  0.5672
  793MPD2    C311687   2.935   0.956  10.349  0.3957  0.0471 -0.0230
  793MPD2    C411688   2.815   0.893  10.316 -1.0351  0.1927 -0.0579
  793MPD2    C511689   2.739   0.922  10.208  0.4966  0.1752 -0.2324
  793MPD2     H11690   3.072   1.096  10.275  0.8748 -0.5157 -3.6764
  793MPD2    H111691   2.775   0.808  10.370 -1.6081 -0.3827 -1.3949
  793MPD2    H211692   2.704   1.043  10.040 -1.6214  0.1674  1.4153
  793MPD2    H311693   2.642   0.874  10.202  0.5830  0.0665 -0.7689
  793MPD2     N11694   3.021   0.918  10.452 -0.3154 -0.6664  0.7612
  793MPD2    H511695   3.105   0.975  10.456 -0.0836 -0.9581 -0.0646
  793MPD2    N111696   2.949   1.180  10.057 -0.0696  0.5546 -0.1611
  793MPD2    H711697   3.045   1.210  10.074  0.3063 -1.5881  1.4737
  794MPD2     C11698   2.333   1.163  17.008  0.2082 -0.7269 -0.4861
  794MPD2    C111699   2.383   1.077  16.913 -0.1096  0.0034 -0.1114
  794MPD2    C211700   2.400   1.128  16.783 -0.1600  0.1707 -0.0937
  794MPD2    C311701   2.357   1.251  16.740 -0.6879 -0.0216 -0.3049
  794MPD2    C411702   2.311   1.335  16.840 -0.2306  0.1445  0.5396
  794MPD2    C511703   2.306   1.295  16.971  0.7001 -0.4218  0.3471
  794MPD2     H11704   2.434   1.064  16.702 -1.4205 -2.6159  1.5556
  794MPD2    H111705   2.277   1.435  16.816 -0.8809 -0.6148 -1.6995
  794MPD2    H211706   2.319   1.133  17.111  1.3792  1.9445  0.4692
  794MPD2    H311707   2.281   1.366  17.049 -0.1077 -1.0196  0.6290
  794MPD2     N11708   2.348   1.302  16.611 -0.0317  0.1292  0.7007
  794MPD2    H511709   2.307   1.394  16.602 -0.2480 -0.1209 -0.9277
  794MPD2    N111710   2.422   0.944  16.951 -0.7512 -0.2419  0.1987
  794MPD2    H711711   2.474   0.896  16.879 -0.1732  0.5295  0.1079
  795MPD2     C11712   0.767   3.693  12.801 -0.1744 -0.0128  0.0429
  795MPD2    C111713   0.677   3.641  12.892 -0.3087 -0.0534 -0.5185
  795MPD2    C211714   0.740   3.593  13.010 -0.3903  0.2882 -0.2649
  795MPD2    C311715   0.870   3.610  13.040  0.8088  0.0388 -0.8106
  795MPD2    C411716   0.952   3.669  12.951  1.0286 -0.0821 -0.6223
  795MPD2    C511717   0.900   3.707  12.827  0.3855 -0.6958 -0.2457
  795MPD2     H11718   0.676   3.534  13.075  2.3705 -0.2486  1.9686
  795MPD2    H111719   1.059   3.680  12.958  0.8742 -0.0193  1.6256
  795MPD2    H211720   0.723   3.726  12.707  1.2530  1.9043  0.0444
  795MPD2    H311721   0.981   3.744  12.764 -0.5799  1.8275 -0.0148
  795MPD2     N11722   0.920   3.556  13.157 -0.2537 -0.0022  0.4819
  795MPD2    H511723   0.848   3.515  13.216 -0.2308 -1.3741 -0.4313
  795MPD2    N111724   0.540   3.608  12.860 -0.2579 -0.3820 -0.4324
  795MPD2    H711725   0.479   3.573  12.933 -0.7451 -0.4681 -0.8780
  796MPD2     C11726   0.763   0.471  15.549 -0.5186 -0.0144  0.7939
  796MPD2    C111727   0.682   0.388  15.625  0.3433  0.4618 -0.0830
  796MPD2    C211728   0.547   0.423  15.647  0.3212 -0.3771 -0.3690
  796MPD2    C311729   0.494   0.539  15.591  0.0069 -0.7178 -0.7460
  796MPD2    C411730   0.570   0.607  15.497  0.1131 -0.0837 -0.1285
  796MPD2    C511731   0.703   0.573  15.483  0.2601 -0.2591 -0.2929
  796MPD2     H11732   0.487   0.365  15.716 -0.2666  0.5763 -0.0865
  796MPD2    H111733   0.529   0.693  15.444 -0.3098 -1.3853 -1.8981
  796MPD2    H211734   0.867   0.452  15.525 -0.9840  0.6780 -1.8313
  796MPD2    H311735   0.763   0.630  15.414 -0.7361  2.5109  1.1576
  796MPD2     N11736   0.366   0.574  15.638 -0.1838 -1.1009 -0.0292
  796MPD2    H511737   0.320   0.505  15.696 -0.0676 -0.1209  1.2342
  796MPD2    N111738   0.751   0.292  15.704 -0.2691  0.1403  0.6104
  796MPD2    H711739   0.852   0.297  15.694 -0.3893  1.1028 -0.1929
  797MPD2     C11740   0.475   4.585  17.178  0.3368  0.1113 -0.3389
  797MPD2    C111741   0.514   4.697  17.237  0.6709 -0.0163  0.0360
  797MPD2    C211742   0.454   0.088  17.202  0.3097 -0.0601  0.1973
  797MPD2    C311743   0.363   0.100  17.104  0.3293  0.4078  0.6484
  797MPD2    C411744   0.320   4.709  17.044  0.1486 -0.3868 -0.0839
  797MPD2    C511745   0.371   4.589  17.087 -0.2433  0.0965 -0.1047
  797MPD2     H11746   0.497   0.171  17.256 -1.5738  1.0807 -0.0771
  797MPD2    H111747   0.260   4.723  16.955  0.4589  2.5028  0.1614
  797MPD2    H211748   0.520   4.488  17.190 -0.9426 -0.4136  0.2629
  797MPD2    H311749   0.340   4.496  17.040  1.6061 -0.0561 -1.0132
  797MPD2     N11750   0.326   0.229  17.067  0.3886 -0.2104 -0.3544
  797MPD2    H511751   0.366   0.303  17.123  0.6208 -0.6757  0.0950
  797MPD2    N111752   0.613   4.699  17.339 -0.5069  0.1648 -0.0006
  797MPD2    H711753   0.623   0.060  17.389 -0.7090 -0.2128  0.6955
  798MPD2     C11754   0.858   0.623  17.145  0.2745  0.2268  0.0803
  798MPD2    C111755   0.737   0.571  17.187  0.0462  0.5022  0.2143
  798MPD2    C211756   0.739   0.489  17.300  0.6234 -0.4532  0.0987
  798MPD2    C311757   0.860   0.435  17.353 -0.3258 -0.0814 -0.4641
  798MPD2    C411758   0.976   0.484  17.296 -0.3120 -0.8498 -0.7228
  798MPD2    C511759   0.977   0.576  17.199  0.6892 -0.4387 -0.1767
  798MPD2     H11760   0.646   0.469  17.352  0.6653  1.8442  1.0965
  798MPD2    H111761   1.069   0.460  17.346 -0.6424 -1.9745 -0.6474
  798MPD2    H211762   0.868   0.699  17.068 -0.9493  0.0008 -0.2967
  798MPD2    H311763   1.073   0.622  17.178 -0.1188  2.4622  2.4598
  798MPD2     N11764   0.854   0.331  17.451  0.4724 -0.1765 -0.0257
  798MPD2    H511765   0.765   0.302  17.489  0.7311 -0.6647  0.2103
  798MPD2    N111766   0.613   0.608  17.125 -0.1345  0.4211 -0.4953
  798MPD2    H711767   0.619   0.675  17.049 -0.4946  1.4921  0.4264
  799MPD2     C11768   0.271   1.806  14.772  0.4158  0.3852 -0.2719
  799MPD2    C111769   0.198   1.729  14.687  0.0508  0.1626  0.5318
  799MPD2    C211770   0.120   1.788  14.598  0.3706  0.2793 -0.6751
  799MPD2    C311771   0.124   1.925  14.578  0.0205 -0.2930 -0.7857
  799MPD2    C411772   0.209   1.998  14.649 -0.3667  1.3829  0.1378
  799MPD2    C511773   0.283   1.940  14.746 -0.5790  0.4132  0.6192
  799MPD2     H11774   0.055   1.737  14.528 -0.3349  0.1458  0.0795
  799MPD2    H111775   0.205   2.106  14.635 -1.6286  1.3692  0.3358
  799MPD2    H211776   0.323   1.761  14.855 -1.2192  0.7135  0.9251
  799MPD2    H311777   0.336   1.996  14.821 -1.9593  0.2666  1.7051
  799MPD2     N11778   0.054   2.001  14.478 -1.1512 -0.5393  0.4536
  799MPD2    H511779   0.082   2.097  14.460 -0.1106 -1.0050 -0.4392
  799MPD2    N111780   0.192   1.587  14.687  0.2196 -0.1062  0.5053
  799MPD2    H711781   0.148   1.543  14.607 -0.1168 -2.6379  2.0606
  800MPD2     C11782   0.875   2.467  14.427  0.4508 -0.0361  0.0339
  800MPD2    C111783   0.902   2.584  14.370 -0.1876 -0.4196  0.4780
  800MPD2    C211784   0.814   2.636  14.277  0.5159  0.8519  0.4566
  800MPD2    C311785   0.700   2.569  14.240  0.4541  0.0013 -0.2060
  800MPD2    C411786   0.678   2.446  14.296 -0.1838 -0.0321  0.3032
  800MPD2    C511787   0.772   2.393  14.384  0.5893  0.0125 -0.0316
  800MPD2     H11788   0.837   2.727  14.222  1.4374 -0.2149 -0.9096
  800MPD2    H111789   0.594   2.385  14.267 -0.0177  0.3045 -0.8854
  800MPD2    H211790   0.940   2.429  14.505 -1.2677 -0.5914  1.2214
  800MPD2    H311791   0.744   2.306  14.444  1.2595 -0.0418  0.1972
  800MPD2     N11792   0.618   2.637  14.147 -0.0329 -0.1474  0.4809
  800MPD2    H511793   0.650   2.728  14.115 -0.9821  0.6969  1.9417
  800MPD2    N111794   1.001   2.667  14.439  0.5804 -0.2372  0.2088
  800MPD2    H711795   1.032   2.625  14.526 -0.6649  0.9881  1.2446
  801MPD2     C11796   0.799   3.149  14.903  0.4740 -0.3649 -0.5161
  801MPD2    C111797   0.795   3.089  14.777 -0.0248 -0.0656 -0.4161
  801MPD2    C211798   0.676   3.093  14.705  0.1398  0.3568 -0.0044
  801MPD2    C311799   0.576   3.170  14.754  0.3097 -0.2513 -0.4445
  801MPD2    C411800   0.578   3.227  14.873  1.0642  0.2506  0.4037
  801MPD2    C511801   0.690   3.212  14.945  0.3276  0.2893 -0.4294
  801MPD2     H11802   0.680   3.028  14.618  3.1597  1.8590 -0.9865
  801MPD2    H111803   0.493   3.284  14.910 -0.3349 -0.8939 -1.0317
  801MPD2    H211804   0.888   3.160  14.964 -0.1747  0.9634  0.1909
  801MPD2    H311805   0.701   3.271  15.036 -0.5787 -0.6557  0.3008
  801MPD2     N11806   0.449   3.173  14.685 -0.3466 -0.4043 -0.7883
  801MPD2    H511807   0.378   3.237  14.720 -0.7186 -2.1287  1.5575
  801MPD2    N111808   0.908   3.036  14.706 -0.0920  0.3268 -0.1747
  801MPD2    H711809   0.889   3.004  14.612  0.8058  1.1460 -0.6347
  802MPD2     C11810   0.257   2.676   0.016  0.7632 -0.0019  0.5083
  802MPD2    C111811   0.232   2.809  17.690 -0.2921  0.0500 -0.0999
  802MPD2    C211812   0.250   2.845  17.555  0.4132  0.2052  0.1636
  802MPD2    C311813   0.265   2.754  17.464 -0.1999 -0.3656 -0.1216
  802MPD2    C411814   0.282   2.620  17.499 -0.0148  0.3851 -0.0362
  802MPD2    C511815   0.274   2.582  17.628 -0.2617 -0.1209 -0.0282
  802MPD2     H11816   0.234   2.947  17.521 -2.6521 -1.1539 -2.4918
  802MPD2    H111817   0.297   2.539  17.428  1.2882  0.3121  0.3210
  802MPD2    H211818   0.243   2.640   0.117 -0.1826 -0.2094  0.3036
  802MPD2    H311819   0.277   2.477  17.654 -0.9773  0.1808  1.2613
  802MPD2     N11820   0.271   2.808  17.335 -0.5486  0.5974  0.1297
  802MPD2    H511821   0.265   2.909  17.324  0.8974  0.7748  0.8905
  802MPD2    N111822   0.195   2.907   0.077 -0.4696  0.1693 -0.0543
  802MPD2    H711823   0.195   3.004   0.048 -0.5881 -0.1284 -1.0563
  803MPD2     C11824   0.295   1.749  12.402 -0.5818  0.3004  0.2643
  803MPD2    C111825   0.397   1.676  12.338 -0.1852 -0.4566  0.1108
  803MPD2    C211826   0.496   1.618  12.408  0.3666 -0.0174  0.7544
  803MPD2    C311827   0.494   1.633  12.547  0.1096  0.0274  0.3842
  803MPD2    C411828   0.382   1.694  12.607  0.4361  0.6030  0.1742
  803MPD2    C511829   0.278   1.746  12.535  0.5159 -0.2459  0.2738
  803MPD2     H11830   0.578   1.570  12.356 -3.2397 -2.5994 -2.4297
  803MPD2    H111831   0.387   1.708  12.714  0.5117 -2.5460  0.5787
  803MPD2    H211832   0.215   1.786  12.340 -1.6151 -0.0913  1.3607
  803MPD2    H311833   0.196   1.798  12.583  0.8279  0.9059 -0.4364
  803MPD2     N11834   0.597   1.600  12.634 -0.0819  0.1346  0.0259
  803MPD2    H511835   0.600   1.650  12.722  1.9956  3.0165 -1.7071
  803MPD2    N111836   0.412   1.693  12.197  0.3185 -0.2781 -0.2107
  803MPD2    H711837   0.504   1.681  12.156  0.4624  1.2828 -0.3451
  804MPD2     C11838   0.724   3.193  17.041 -0.1207 -0.5124 -0.7361
  804MPD2    C111839   0.759   3.186  17.173  0.3055  0.3397  0.3097
  804MPD2    C211840   0.820   3.292  17.235 -0.6407  0.0113 -0.1877
  804MPD2    C311841   0.846   3.411  17.169  0.1764  0.1835  0.3306
  804MPD2    C411842   0.789   3.428  17.046 -0.0080 -0.5220  1.0722
  804MPD2    C511843   0.741   3.319  16.977 -0.3091  0.5086  0.1300
  804MPD2     H11844   0.850   3.281  17.339  2.2176 -1.1440 -1.1409
  804MPD2    H111845   0.779   3.523  16.994  0.3174 -1.6819 -1.1112
  804MPD2    H211846   0.689   3.109  16.983  1.2435 -1.2462 -0.5034
  804MPD2    H311847   0.722   3.331  16.871  2.8548  0.0175 -0.4844
  804MPD2     N11848   0.914   3.523  17.226 -0.4064  0.1153 -0.0004
  804MPD2    H511849   0.925   3.531  17.327 -1.0855 -2.8486  0.2864
  804MPD2    N111850   0.748   3.064  17.239 -0.3497  0.3094 -0.2171
  804MPD2    H711851   0.789   3.059  17.332 -0.6133 -0.3630 -0.1343
  805MPD2     C11852   0.062   2.275  15.595  0.3637 -0.0025  0.5437
  805MPD2    C111853   0.103   2.153  15.538 -0.3611  0.0410  0.3276
  805MPD2    C211854   0.191   2.076  15.614 -0.1236  0.3922 -0.0810
  805MPD2    C311855   0.228   2.116  15.741  0.1335 -0.1543  0.3882
  805MPD2    C411856   0.185   2.237  15.787  0.5848 -1.3425  0.2422
  805MPD2    C511857   0.102   2.310  15.715 -0.0825 -0.3983 -0.3017
  805MPD2     H11858   0.216   1.979  15.574  3.1670  0.4750  1.7914
  805MPD2    H111859   0.216   2.258  15.889  0.7975 -1.1718  0.1423
  805MPD2    H211860   4.721   2.342  15.542 -0.3240 -0.0864  1.3069
  805MPD2    H311861   0.068   2.407  15.750  1.4426  0.0532 -0.0951
  805MPD2     N11862   0.306   2.033  15.825 -0.4186 -0.0900 -0.1729
  805MPD2    H511863   0.328   2.059  15.921 -0.1722  0.5274 -0.3968
  805MPD2    N111864   0.040   2.096  15.421 -0.3022 -0.8268 -0.4090
  805MPD2    H711865   0.084   2.015  15.380  2.3657  0.3442  0.1130
  806MPD2     C11866   4.578   0.791   0.397  0.2370 -0.5123 -0.3492
  806MPD2    C111867   4.669   0.891   0.438  0.3395 -0.2083 -0.0194
  806MPD2    C211868   0.036   0.946   0.353 -0.1062 -0.5847  0.3294
  806MPD2    C311869   0.039   0.909   0.223  1.0295  0.0806 -0.3301
  806MPD2    C411870   4.685   0.809   0.181  0.0505  0.3385  0.3366
  806MPD2    C511871   4.600   0.748   0.268 -0.7339 -0.2737 -0.4259
  806MPD2     H11872   0.101   1.023   0.393 -1.1303  1.5798 -2.2296
  806MPD2    H111873   4.692   0.771   0.079 -2.0164  1.5312 -0.2563
  806MPD2    H211874   4.498   0.748   0.456  0.4488  0.8163  0.8968
  806MPD2    H311875   4.540   0.663   0.236  1.3853 -2.2580  0.8650
  806MPD2     N11876   0.144   0.966   0.141 -0.2237 -0.5725  0.2030
  806MPD2    H511877   0.216   1.024   0.182  1.6424 -3.2633  0.7635
  806MPD2    N111878   4.662   0.934   0.576 -0.3962 -0.2312 -0.9351
  806MPD2    H711879   4.579   0.896   0.620  0.5814  1.7805  2.6311
  807MPD2     C11880   4.162   0.839   1.024  0.4900 -0.7552  0.2650
  807MPD2    C111881   4.285   0.806   0.979  0.5036  0.0278  0.0604
  807MPD2    C211882   4.336   0.676   0.984  0.3463 -0.1447 -0.0138
  807MPD2    C311883   4.251   0.578   1.019 -0.2896  0.1777 -0.4659
  807MPD2    C411884   4.120   0.609   1.053 -0.0148 -0.3203 -0.6247
  807MPD2    C511885   4.077   0.736   1.058  0.3769 -0.0789  0.4906
  807MPD2     H11886   4.435   0.652   0.947  1.4077  0.0423  2.7026
  807MPD2    H111887   4.044   0.537   1.082 -3.5209  4.2766  1.6033
  807MPD2    H211888   4.120   0.938   1.032 -0.8410 -1.4435  1.9042
  807MPD2    H311889   3.974   0.759   1.080  0.3265 -0.6499  0.8512
  807MPD2     N11890   4.295   0.442   1.014 -0.1286  0.1412  0.7176
  807MPD2    H511891   4.386   0.427   0.971  0.3470  2.9661  0.7527
  807MPD2    N111892   4.374   0.909   0.945 -0.3051  0.2022  0.7290
  807MPD2    H711893   4.467   0.880   0.915 -1.3006 -2.2616  0.0682
  808MPD2     C11894   1.118   1.278   9.547  0.2432  0.3947 -0.2648
  808MPD2    C111895   1.067   1.334   9.663 -0.1987  0.1092 -0.4084
  808MPD2    C211896   1.137   1.438   9.727  0.1486  0.1139 -0.3058
  808MPD2    C311897   1.263   1.481   9.681  0.3961 -0.1816 -0.1021
  808MPD2    C411898   1.307   1.424   9.565  0.4823  0.1433  0.9080
  808MPD2    C511899   1.238   1.324   9.501  0.2527 -0.3308 -0.1835
  808MPD2     H11900   1.106   1.474   9.824  2.9843  2.1400 -0.1691
  808MPD2    H111901   1.404   1.449   9.522  1.0905 -0.9614  1.6310
  808MPD2    H211902   1.078   1.201   9.483 -2.8691  1.7215  0.0797
  808MPD2    H311903   1.272   1.276   9.410 -0.3330 -1.0643 -0.0094
  808MPD2     N11904   1.337   1.586   9.735  0.9538 -0.0164 -0.1836
  808MPD2    H511905   1.431   1.590   9.696  0.0145 -0.0416 -2.4877
  808MPD2    N111906   0.942   1.290   9.714 -0.0817 -0.2372  0.2838
  808MPD2    H711907   0.908   1.326   9.802  1.2267  2.3223 -0.2496
  809MPD2     C11908   1.726   2.085   9.210 -0.2662  0.5146  1.2502
  809MPD2    C111909   1.822   2.055   9.304  0.1828  0.6744 -0.2394
  809MPD2    C211910   1.780   2.013   9.427 -0.3697  0.6258 -0.3626
  809MPD2    C311911   1.648   2.001   9.458  0.5925 -0.4113 -0.3684
  809MPD2    C411912   1.553   2.024   9.361  0.4864  0.5876  0.6491
  809MPD2    C511913   1.597   2.068   9.236 -0.4551 -0.4743  0.0465
  809MPD2     H11914   1.850   1.981   9.503 -1.6984 -0.0432  0.5716
  809MPD2    H111915   1.447   2.017   9.380  0.2398 -0.4034 -1.1657
  809MPD2    H211916   1.754   2.115   9.109  2.4169 -2.8464  1.0032
  809MPD2    H311917   1.529   2.103   9.160 -1.0176  0.3446  0.9374
  809MPD2     N11918   1.603   1.957   9.586  0.4949  0.1538  0.5907
  809MPD2    H511919   1.503   1.945   9.597  0.6659 -1.1612  0.7452
  809MPD2    N111920   1.967   2.066   9.280  0.4135  0.9088  0.8452
  809MPD2    H711921   2.027   2.044   9.359 -0.0196 -0.3317  0.8371
  810MPD2     C11922   0.975   0.774   9.678  0.7223 -0.5528  0.8491
  810MPD2    C111923   0.980   0.798   9.812  1.0338  0.1317 -0.5361
  810MPD2    C211924   1.082   0.884   9.863 -0.0962  0.0662  0.5079
  810MPD2    C311925   1.156   0.962   9.775  0.4583 -0.1124  1.0057
  810MPD2    C411926   1.133   0.942   9.633  0.0057 -0.3271  0.7853
  810MPD2    C511927   1.050   0.847   9.587 -0.6532  1.1098 -0.6604
  810MPD2     H11928   1.073   0.906   9.969 -0.6858  0.5886  0.3471
  810MPD2    H111929   1.195   1.001   9.566 -1.3621  0.8543  0.5743
  810MPD2    H211930   0.897   0.711   9.636  0.7895 -0.3362  0.4000
  810MPD2    H311931   1.044   0.833   9.480  1.8519  2.0894 -0.9444
  810MPD2     N11932   1.236   1.072   9.812  0.2036  0.6139 -1.1903
  810MPD2    H511933   1.278   1.124   9.735  1.9834  2.4304  1.0074
  810MPD2    N111934   0.881   0.737   9.894  0.1731 -0.2278  0.3429
  810MPD2    H711935   0.812   0.678   9.848 -2.5171  0.2955  3.6913
  811MPD2     C11936   0.109   0.977  10.320 -0.7081  0.0586 -0.3992
  811MPD2    C111937   0.234   0.995  10.254  0.2335 -0.5489 -0.2912
  811MPD2    C211938   0.257   1.127  10.222  0.7760  1.1202 -0.0050
  811MPD2    C311939   0.182   1.236  10.259 -0.2590  0.1810 -1.0356
  811MPD2    C411940   0.062   1.215  10.322  0.2756 -0.4053 -0.4906
  811MPD2    C511941   0.034   1.084  10.347 -0.0182 -0.2301 -1.3728
  811MPD2     H11942   0.335   1.150  10.151 -0.0850 -0.2707 -1.4116
  811MPD2    H111943   4.717   1.290  10.353  0.1318 -0.2593 -1.1741
  811MPD2    H211944   0.078   0.875  10.340 -1.5448  0.2299 -0.8113
  811MPD2    H311945   4.672   1.078  10.409  0.8392 -0.5252 -0.1624
  811MPD2     N11946   0.235   1.364  10.227  0.8732  0.0007 -0.2775
  811MPD2    H511947   0.316   1.362  10.167 -0.2849  1.1075 -1.8876
  811MPD2    N111948   0.317   0.882  10.227 -0.2673 -0.4052 -0.7474
  811MPD2    H711949   0.279   0.790  10.247 -0.1690 -0.3272 -0.1965
  812MPD2     C11950   4.011   1.517  12.116 -0.3405 -0.6720 -0.2435
  812MPD2    C111951   3.940   1.584  12.210  0.0599  0.4193  0.2590
  812MPD2    C211952   3.941   1.528  12.338 -0.7379 -0.4362 -0.1327
  812MPD2    C311953   4.006   1.406  12.371  0.5627  0.2625  0.4438
  812MPD2    C411954   4.074   1.344  12.268 -0.6741 -0.5570 -0.0675
  812MPD2    C511955   4.077   1.400  12.144 -0.4944  0.2843  0.1063
  812MPD2     H11956   3.896   1.580  12.423  0.5040  2.0956 -1.0239
  812MPD2    H111957   4.113   1.243  12.272  1.1394  0.0926 -1.3361
  812MPD2    H211958   4.020   1.547  12.013 -0.2707  0.0985 -0.0085
  812MPD2    H311959   4.134   1.352  12.064  0.3149 -1.3659  1.6785
  812MPD2     N11960   3.976   1.350  12.494  1.1012  0.3994  0.0608
  812MPD2    H511961   3.921   1.407  12.558  1.6416  1.1397 -0.1288
  812MPD2    N111962   3.871   1.699  12.166  0.5985 -0.7867  0.2589
  812MPD2    H711963   3.890   1.721  12.068  2.9373  0.7520  1.0461
  813MPD2     C11964   2.910   3.455  13.146  0.3549 -0.0522 -0.7503
  813MPD2    C111965   2.950   3.586  13.121 -0.3184  0.3777  0.9356
  813MPD2    C211966   2.925   3.680  13.224 -0.1241  0.1923 -0.1954
  813MPD2    C311967   2.880   3.643  13.349  0.4599  0.3843 -0.2034
  813MPD2    C411968   2.847   3.513  13.362 -0.7467  0.0482  0.2241
  813MPD2    C511969   2.857   3.423  13.266  0.8532  0.3987 -0.1596
  813MPD2     H11970   2.953   3.784  13.213 -1.4650  0.7879  2.0231
  813MPD2    H111971   2.806   3.480  13.457 -1.5971  0.6776  0.0843
  813MPD2    H211972   2.919   3.383  13.065 -0.2377 -0.8321 -0.1216
  813MPD2    H311973   2.829   3.320  13.284 -0.2831  0.5550 -1.0464
  813MPD2     N11974   2.857   3.735  13.457  0.3780 -0.4309  0.7652
  813MPD2    H511975   2.864   3.834  13.438 -1.7179 -0.5375 -0.4571
  813MPD2    N111976   3.004   3.608  12.994 -0.1388  0.1394 -0.1972
  813MPD2    H711977   2.974   3.540  12.925 -0.8768  0.5433 -0.2790
  814MPD2     C11978   3.665   0.165  12.452  0.2601 -0.4520  0.1358
  814MPD2    C111979   3.613   0.237  12.350 -0.2180 -0.4041 -0.1344
  814MPD2    C211980   3.669   0.362  12.316  0.3393  0.2638 -0.1200
  814MPD2    C311981   3.782   0.405  12.381  0.2230 -0.3718 -0.7049
  814MPD2    C411982   3.845   0.322  12.472 -0.4469 -0.0931 -0.3077
  814MPD2    C511983   3.782   0.204  12.510  0.5179  0.7217 -1.0358
  814MPD2     H11984   3.634   0.412  12.227  2.8286  0.1671 -1.1611
  814MPD2    H111985   3.927   0.365  12.528  0.6517 -2.0671 -0.4365
  814MPD2    H211986   3.614   0.074  12.481 -0.2163 -0.2445 -0.0648
  814MPD2    H311987   3.816   0.153  12.600  1.9801  1.4493 -1.1758
  814MPD2     N11988   3.839   0.525  12.348  0.0143 -0.1004 -0.3066
  814MPD2    H511989   3.930   0.535  12.394  0.1517  0.6350 -0.7487
  814MPD2    N111990   3.515   0.199  12.260  0.7128 -0.6816  0.1306
  814MPD2    H711991   3.498   0.253  12.176  0.2457 -0.9438  0.0517
  815MPD2     C11992   3.831   2.878  12.309 -0.2990 -0.3380  0.2044
  815MPD2    C111993   3.775   2.930  12.192  0.0358  0.3736 -0.6456
  815MPD2    C211994   3.640   2.955  12.184 -0.0214  0.0399  0.2226
  815MPD2    C311995   3.554   2.943  12.292 -0.4502 -0.5317  0.0144
  815MPD2    C411996   3.609   2.877  12.405 -0.1584  0.3909 -0.0128
  815MPD2    C511997   3.746   2.848  12.411  0.0191 -0.1509  0.0699
  815MPD2     H11998   3.591   3.004  12.101  0.6933  0.0345 -0.1984
  815MPD2    H111999   3.540   2.855  12.486  0.7528  0.4494  0.7789
  815MPD2    H212000   3.935   2.848  12.316 -0.5802 -1.5211 -0.7024
  815MPD2    H312001   3.785   2.816  12.506  1.2976  1.5511  0.1240
  815MPD2     N12002   3.419   2.965  12.265 -0.0744 -0.1683 -0.6955
  815MPD2    H512003   3.396   2.974  12.166 -1.1306 -1.1171 -0.5344
  815MPD2    N112004   3.861   2.944  12.078 -0.2283  0.1607  0.4584
  815MPD2    H712005   3.959   2.918  12.088  0.5119  2.3430 -1.2225
  816MPD2     C12006   3.825   2.323  17.124  0.3045 -0.9957  0.7803
  816MPD2    C112007   3.853   2.447  17.069  0.3228 -0.4485 -1.0626
  816MPD2    C212008   3.965   2.460  16.986  0.3891  0.4067 -0.2314
  816MPD2    C312009   4.049   2.352  16.963 -0.6481 -0.1666 -0.0022
  816MPD2    C412010   4.021   2.230  17.027 -0.2605 -0.0559 -0.4341
  816MPD2    C512011   3.916   2.221  17.113  0.0466  0.1431  0.2138
  816MPD2     H12012   3.996   2.556  16.947  0.6753  0.0060 -0.9879
  816MPD2    H112013   4.084   2.143  17.019 -1.4346 -0.7260 -2.3509
  816MPD2    H212014   3.738   2.321  17.189  0.5793 -0.2241  1.1736
  816MPD2    H312015   3.905   2.130  17.171  0.6773  0.0687  0.2165
  816MPD2     N12016   4.144   2.376  16.873  0.0753 -0.0951  0.3395
  816MPD2    H512017   4.139   2.469  16.832 -0.3835  0.3501  1.3895
  816MPD2    N112018   3.762   2.556  17.088 -0.6240 -0.1050 -0.3027
  816MPD2    H712019   3.681   2.546  17.149 -1.2176 -0.9076 -1.2110
  817MPD2     C12020   4.012   3.688   9.962  0.1697  0.7918 -0.5526
  817MPD2    C112021   3.995   3.647   9.829  0.7222  0.0739  0.0348
  817MPD2    C212022   3.959   3.742   9.736  0.5024  0.8117  0.4819
  817MPD2    C312023   3.930   3.873   9.765  0.8401  0.3851 -0.4727
  817MPD2    C412024   3.946   3.918   9.890 -0.2089 -0.2600  0.2882
  817MPD2    C512025   3.983   3.822   9.985  0.0329  0.3527  0.4363
  817MPD2     H12026   3.946   3.716   9.631 -1.3755  1.3124  0.5848
  817MPD2    H112027   3.935   4.020   9.925  1.6615 -0.3623  1.1429
  817MPD2    H212028   4.063   3.630  10.039  1.5266  2.9551  0.1621
  817MPD2    H312029   4.013   3.848  10.086 -2.3320  0.1709  1.1698
  817MPD2     N12030   3.877   3.955   9.664 -0.0555 -0.1283  0.1190
  817MPD2    H512031   3.876   3.920   9.569 -0.3052  0.7929 -0.2162
  817MPD2    N112032   4.015   3.513   9.799  0.5367 -0.4921  1.0225
  817MPD2    H712033   4.003   3.486   9.702 -2.1048  0.8836  0.9684
  818MPD2     C12034   1.780   4.045   9.681 -0.7759 -0.1831 -0.5477
  818MPD2    C112035   1.760   3.926   9.753  0.4163 -1.0903  0.3688
  818MPD2    C212036   1.782   3.808   9.694  0.2660 -0.9867  0.1975
  818MPD2    C312037   1.801   3.794   9.555 -0.2662  0.1544 -0.8045
  818MPD2    C412038   1.814   3.911   9.475 -0.0050  0.6167 -0.2027
  818MPD2    C512039   1.811   4.035   9.541  0.4720  0.0045 -0.5353
  818MPD2     H12040   1.769   3.721   9.758 -0.2419 -0.9150  0.1890
  818MPD2    H112041   1.837   3.913   9.369  0.6932 -1.2460 -0.0799
  818MPD2    H212042   1.779   4.144   9.727 -0.0205 -0.6729  0.5270
  818MPD2    H312043   1.838   4.120   9.478  0.6778 -0.8717 -1.6202
  818MPD2     N12044   1.810   3.672   9.488  0.3636 -0.1774 -0.2660
  818MPD2    H512045   1.830   3.669   9.389 -2.4521  0.0239 -0.8565
  818MPD2    N112046   1.711   3.932   9.885  0.4762  0.0439 -0.1104
  818MPD2    H712047   1.702   3.838   9.924  2.2977 -0.3595 -0.6864
  819MPD2     C12048   0.518   1.491  15.666 -0.4627  0.4207  0.5117
  819MPD2    C112049   0.494   1.356  15.666 -0.1078  0.0521  0.0735
  819MPD2    C212050   0.543   1.281  15.774 -0.5419 -0.0293 -0.1863
  819MPD2    C312051   0.607   1.337  15.882  1.3884  0.8963 -0.0454
  819MPD2    C412052   0.620   1.474  15.893 -0.0931  0.0534 -0.4109
  819MPD2    C512053   0.587   1.543  15.778  0.0404 -0.2348 -0.2213
  819MPD2     H12054   0.518   1.176  15.779  2.1324 -0.6610 -0.1314
  819MPD2    H112055   0.678   1.521  15.971  0.2169 -1.3415  0.1955
  819MPD2    H212056   0.502   1.554  15.579  0.0089 -0.1940 -0.0207
  819MPD2    H312057   0.616   1.647  15.777  2.4489 -0.8947  1.2971
  819MPD2     N12058   0.639   1.249  15.986 -0.0616  0.2457  0.0996
  819MPD2    H512059   0.629   1.151  15.963 -3.3635  0.1685  1.8511
  819MPD2    N112060   0.427   1.300  15.552  0.1873  0.2369  0.3204
  819MPD2    H712061   0.430   1.364  15.473  1.4568  1.1517  1.1177
  820MPD2     C12062   4.531   1.530  14.833  0.0528 -0.5051 -0.5342
  820MPD2    C112063   4.627   1.582  14.919 -0.2364 -0.3223 -0.5178
  820MPD2    C212064   4.718   1.496  14.977 -1.0455  1.0193  0.0758
  820MPD2    C312065   4.708   1.362  14.973  0.0116 -0.0131 -1.0613
  820MPD2    C412066   4.621   1.305  14.893 -0.2246  0.5318  0.1482
  820MPD2    C512067   4.529   1.391  14.827 -0.6821  0.3678 -0.6043
  820MPD2     H12068   0.070   1.539  15.039  0.4776 -1.3864 -0.1829
  820MPD2    H112069   4.605   1.199  14.878  2.0611 -0.2157  3.1072
  820MPD2    H212070   4.462   1.591  14.776 -1.6616 -0.6755  1.3552
  820MPD2    H312071   4.462   1.341  14.759 -0.7054 -1.8279  1.0387
  820MPD2     N12072   0.074   1.278  15.041 -0.4397  0.2542  0.0130
  820MPD2    H512073   0.059   1.177  15.035  2.9119 -0.2281 -0.1519
  820MPD2    N112074   4.622   1.724  14.941 -0.5787  0.3688 -0.1896
  820MPD2    H712075   4.562   1.778  14.881  0.0384 -0.4903 -1.5750
  821MPD2     C12076   0.442   2.641  13.347 -0.9353  0.2578 -0.6234
  821MPD2    C112077   0.533   2.693  13.430 -0.5443 -0.1610 -0.5413
  821MPD2    C212078   0.650   2.732  13.381 -0.1838 -0.7776  1.1451
  821MPD2    C312079   0.681   2.733  13.247 -0.2698  0.8951  0.2876
  821MPD2    C412080   0.592   2.676  13.163  0.6646 -0.3901 -0.2887
  821MPD2    C512081   0.471   2.628  13.212  0.4672  0.0703 -0.1619
  821MPD2     H12082   0.718   2.784  13.449 -1.8467  0.4575  1.8631
  821MPD2    H112083   0.612   2.649  13.059  0.5930 -0.3903 -0.3027
  821MPD2    H212084   0.344   2.609  13.381 -0.3330  0.6194  1.4587
  821MPD2    H312085   0.390   2.595  13.148 -0.4414 -0.2352  1.1426
  821MPD2     N12086   0.810   2.753  13.190  0.1761 -0.6127  0.0553
  821MPD2    H512087   0.825   2.727  13.093  0.1956 -1.4147  0.2738
  821MPD2    N112088   0.515   2.720  13.567  0.0709 -0.4026  0.6231
  821MPD2    H712089   0.595   2.766  13.610 -0.6815  1.3062  0.2000
  822MPD2     C12090   1.288   2.415  15.850 -0.5336 -0.2450  0.2073
  822MPD2    C112091   1.394   2.457  15.930  0.2965  0.8692 -0.5563
  822MPD2    C212092   1.378   2.580  15.989  0.0736  0.0225 -0.3371
  822MPD2    C312093   1.251   2.651  15.982 -0.0956  0.3128 -0.8497
  822MPD2    C412094   1.141   2.593  15.925  0.4220  0.8773 -0.5038
  822MPD2    C512095   1.164   2.479  15.849 -0.4386 -0.1742 -0.0305
  822MPD2     H12096   1.451   2.630  16.051 -0.8819 -0.4579  1.1747
  822MPD2    H112097   1.045   2.643  15.927  0.9003  1.7393  1.4490
  822MPD2    H212098   1.295   2.326  15.789  0.0116 -0.3854  0.4808
  822MPD2    H312099   1.086   2.440  15.785  1.6543 -2.7012 -1.0538
  822MPD2     N12100   1.222   2.762  16.061 -0.0829 -0.2507 -0.1359
  822MPD2    H512101   1.127   2.791  16.080  0.3470  1.1294 -0.0958
  822MPD2    N112102   1.521   2.388  15.966 -0.5125 -0.1409 -1.1273
  822MPD2    H712103   1.574   2.424  16.045 -1.0994  2.3918 -1.8724
  823MPD2     C12104   0.978   3.003  16.850 -0.6523  0.0537  0.7128
  823MPD2    C112105   1.034   2.922  16.748 -0.1509 -0.0982 -0.1738
  823MPD2    C212106   1.109   2.813  16.784 -0.6792  0.2352 -0.2775
  823MPD2    C312107   1.131   2.780  16.914 -0.0780  0.2362  0.5340
  823MPD2    C412108   1.065   2.843  17.012 -0.1159  0.2387 -1.0684
  823MPD2    C512109   0.983   2.953  16.978  0.2526 -0.4333 -0.0776
  823MPD2     H12110   1.159   2.754  16.708 -0.3852 -0.7154  0.6676
  823MPD2    H112111   1.066   2.814  17.117 -0.6726  3.8035 -0.0441
  823MPD2    H212112   0.920   3.091  16.829 -0.0156  0.0947 -0.9260
  823MPD2    H312113   0.935   3.002  17.061  0.2472  0.2835 -0.5063
  823MPD2     N12114   1.206   2.665  16.949  0.0524 -0.3612  0.0767
  823MPD2    H512115   1.219   2.655  17.049  0.1847  0.0156  0.0963
  823MPD2    N112116   1.043   2.982  16.616 -0.3147 -0.1711  0.4376
  823MPD2    H712117   1.024   3.081  16.602 -0.6663 -0.3000  0.0067
  824MPD2     C12118   1.906   1.566  16.146  0.0290 -0.3349  0.2749
  824MPD2    C112119   1.895   1.652  16.040  0.1892  0.1317 -0.6951
  824MPD2    C212120   1.953   1.618  15.915 -1.3183  0.1991 -0.4849
  824MPD2    C312121   2.002   1.490  15.892  0.7384  0.7373 -0.4981
  824MPD2    C412122   2.009   1.405  15.999  0.5392 -0.8764  0.4716
  824MPD2    C512123   1.965   1.445  16.122  0.3631 -0.6516  0.4522
  824MPD2     H12124   1.957   1.692  15.835 -0.8750 -0.1730 -0.8088
  824MPD2    H112125   2.057   1.308  15.991  1.6886 -0.2514 -0.1959
  824MPD2    H212126   1.885   1.583  16.251  0.2703  0.6972  0.1570
  824MPD2    H312127   1.974   1.372  16.202 -0.8649  1.5080  2.5726
  824MPD2     N12128   2.047   1.456  15.761 -0.6610 -0.3100 -0.4282
  824MPD2    H512129   2.050   1.528  15.689 -2.3423  0.5214  0.3226
  824MPD2    N112130   1.832   1.782  16.063  0.2089  0.4106 -0.1829
  824MPD2    H712131   1.801   1.798  16.158 -1.2582  0.9809 -0.7515
  825MPD2     C12132   2.577   1.489  15.076 -0.3005  0.2950 -0.5756
  825MPD2    C112133   2.480   1.545  15.155 -0.1416 -0.2537  0.5610
  825MPD2    C212134   2.458   1.681  15.138  0.5902 -0.4695 -0.3474
  825MPD2    C312135   2.537   1.756  15.050  0.0469  0.0350 -0.1203
  825MPD2    C412136   2.634   1.699  14.970 -0.2115 -0.0719 -0.1541
  825MPD2    C512137   2.641   1.563  14.979 -0.1367 -0.0035 -0.3129
  825MPD2     H12138   2.385   1.741  15.191 -0.8570 -0.8385 -1.9139
  825MPD2    H112139   2.698   1.753  14.902  1.2416 -0.0115  1.2721
  825MPD2    H212140   2.591   1.381  15.080  1.5082  0.5703  0.2743
  825MPD2    H312141   2.711   1.510  14.914 -1.1441 -0.4729 -1.0105
  825MPD2     N12142   2.524   1.894  15.039  0.1834 -0.0255  0.5988
  825MPD2    H512143   2.600   1.938  14.988 -0.7437 -1.4592 -2.0019
  825MPD2    N112144   2.411   1.464  15.253  0.0286  0.7710 -0.8008
  825MPD2    H712145   2.424   1.363  15.251 -0.3842  0.6526  2.8775
  826MPD2     C12146   1.953   2.293  14.335 -0.1797  0.0614  0.0374
  826MPD2    C112147   1.922   2.235  14.218  0.3693  0.2252  0.0082
  826MPD2    C212148   1.789   2.249  14.181 -0.4945  0.2545  0.0712
  826MPD2    C312149   1.695   2.319  14.258  0.0219 -0.4800 -0.4502
  826MPD2    C412150   1.737   2.381  14.373  0.5067 -0.6518  0.5544
  826MPD2    C512151   1.865   2.370  14.415  0.5774 -0.4395  0.0961
  826MPD2     H12152   1.766   2.220  14.079  0.8374 -1.5443  0.2808
  826MPD2    H112153   1.674   2.448  14.430 -0.9716 -1.3303 -0.2976
  826MPD2    H212154   2.058   2.290  14.359 -0.0860 -0.0687 -0.4011
  826MPD2    H312155   1.912   2.432  14.491  0.8280 -1.3231  0.6709
  826MPD2     N12156   1.559   2.336  14.210 -0.0854 -0.0207  0.1264
  826MPD2    H512157   1.501   2.399  14.264  1.3977  1.7572 -0.3432
  826MPD2    N112158   2.016   2.147  14.151  0.4958 -0.2826 -0.2941
  826MPD2    H712159   2.109   2.147  14.192  0.3084 -0.3723  0.1327
  827MPD2     C12160   3.229   2.646  10.148  0.0861 -0.5193  0.2699
  827MPD2    C112161   3.116   2.618  10.219  0.8706  0.2233  0.8757
  827MPD2    C212162   3.033   2.525  10.166 -0.1799 -0.0528 -0.1546
  827MPD2    C312163   3.059   2.457  10.051 -0.3667 -0.7945  0.1968
  827MPD2    C412164   3.169   2.495   9.974  0.6517 -0.2299  0.1868
  827MPD2    C512165   3.254   2.589  10.025 -0.3923  0.1673 -0.4206
  827MPD2     H12166   2.938   2.504  10.214 -0.3832 -0.2728 -0.6436
  827MPD2    H112167   3.217   2.449   9.888  1.0397  1.8202 -0.7047
  827MPD2    H212168   3.295   2.723  10.185  0.3279 -0.7974  0.4179
  827MPD2    H312169   3.339   2.615   9.964  0.8576 -0.6713  0.9655
  827MPD2     N12170   2.973   2.357  10.013 -0.0737 -0.1991  0.3096
  827MPD2    H512171   2.891   2.348  10.071 -0.7202 -0.5552 -0.6652
  827MPD2    N112172   3.088   2.692  10.341 -0.3103 -0.0847  0.1215
  827MPD2    H712173   3.152   2.768  10.360  2.7547 -2.6746  0.1254
  828MPD2     C12174   1.297   2.670  12.026 -0.2883 -0.4819  0.1137
  828MPD2    C112175   1.158   2.678  12.017 -0.4234  0.0866  1.4482
  828MPD2    C212176   1.093   2.580  11.942 -0.2757  0.1331  0.0158
  828MPD2    C312177   1.165   2.488  11.864  0.2246 -0.1888  0.6903
  828MPD2    C412178   1.302   2.484  11.879  0.5249 -0.2579 -0.7389
  828MPD2    C512179   1.366   2.566  11.960 -0.2579 -0.4834  0.1513
  828MPD2     H12180   0.985   2.581  11.929 -0.1502  0.0415 -1.0691
  828MPD2    H112181   1.367   2.409  11.835 -0.1204 -0.9642 -0.4909
  828MPD2    H212182   1.353   2.723  12.102 -0.1488  2.5677 -2.1018
  828MPD2    H312183   1.471   2.548  11.977 -0.3360 -1.6536 -0.6728
  828MPD2     N12184   1.101   2.401  11.776 -0.1978  0.1474  0.2914
  828MPD2    H512185   1.175   2.355  11.724 -1.5693 -1.6607 -0.0637
  828MPD2    N112186   1.078   2.767  12.093 -0.3312 -0.3780 -0.3932
  828MPD2    H712187   0.979   2.752  12.077 -0.6923  0.8843  0.6806
  829MPD2     C12188   0.549   3.082  11.584 -0.0995  0.9242  0.4287
  829MPD2    C112189   0.486   3.105  11.707 -0.1885 -0.0162 -0.1032
  829MPD2    C212190   0.558   3.108  11.821 -0.3563 -0.2518  0.2255
  829MPD2    C312191   0.699   3.088  11.822  0.1549  0.3041 -0.2048
  829MPD2    C412192   0.765   3.076  11.702 -0.0498  0.1557 -0.0488
  829MPD2    C512193   0.688   3.071  11.585  0.0586 -0.0788  0.6275
  829MPD2     H12194   0.508   3.110  11.917 -0.1630 -1.2697  0.3487
  829MPD2    H112195   0.873   3.076  11.700 -0.0161  1.3180  2.0294
  829MPD2    H212196   0.500   3.068  11.489 -0.8101 -0.3813  0.9799
  829MPD2    H312197   0.747   3.058  11.495 -0.9095 -0.1979  0.0084
  829MPD2     N12198   0.773   3.093  11.945  0.0700 -0.2918  0.1392
  829MPD2    H512199   0.873   3.089  11.929 -0.0848 -1.6761 -0.4397
  829MPD2    N112200   0.342   3.126  11.693  0.2485 -0.3441  0.1929
  829MPD2    H712201   0.304   3.116  11.599 -0.9137  1.4916  0.4921
  830MPD2     C12202   1.246   0.730  16.228  1.2201 -0.1217 -0.1840
  830MPD2    C112203   1.194   0.815  16.139 -0.0907 -0.4755 -0.0048
  830MPD2    C212204   1.283   0.878  16.052  1.1855  0.2532 -0.6483
  830MPD2    C312205   1.413   0.855  16.057  0.0575 -0.5719  0.8694
  830MPD2    C412206   1.469   0.770  16.145  0.3841 -0.4693  0.1984
  830MPD2    C512207   1.382   0.707  16.233  0.2298 -0.1586  0.0345
  830MPD2     H12208   1.248   0.956  15.985 -1.2222 -1.8856 -1.8927
  830MPD2    H112209   1.574   0.744  16.160  0.3861 -0.0280  0.9433
  830MPD2    H212210   1.179   0.675  16.293  0.6455  2.2311  1.2246
  830MPD2    H312211   1.419   0.638  16.307 -1.4838 -0.3763  0.6776
  830MPD2     N12212   1.503   0.938  15.983  0.1505  0.0744  1.1438
  830MPD2    H512213   1.601   0.933  16.007  0.2404  0.2242  0.8115
  830MPD2    N112214   1.058   0.838  16.159  0.4716 -0.3943 -0.1803
  830MPD2    H712215   1.014   0.782  16.232  3.5325  0.3485  2.2256
  831MPD2     C12216   1.614   2.881  16.363  0.1065  0.6049  0.2247
  831MPD2    C112217   1.624   2.760  16.299  0.9069 -0.0340  0.1460
  831MPD2    C212218   1.541   2.653  16.334 -0.4345 -0.5045 -0.4590
  831MPD2    C312219   1.435   2.671  16.413 -0.0275  0.3490 -0.7177
  831MPD2    C412220   1.425   2.798  16.480 -0.0437  0.9385  0.2251
  831MPD2    C512221   1.523   2.895  16.460 -0.4444  0.1713  0.2973
  831MPD2     H12222   1.560   2.556  16.289 -1.2783 -1.2793  0.8374
  831MPD2    H112223   1.352   2.819  16.557 -1.0927 -1.1227 -0.2280
  831MPD2    H212224   1.680   2.960  16.329  0.7802 -0.1580 -0.2336
  831MPD2    H312225   1.526   2.982  16.524 -0.4519  0.6597 -0.3701
  831MPD2     N12226   1.333   2.573  16.422  0.1678  0.0070  0.3992
  831MPD2    H512227   1.258   2.599  16.486 -0.3138  0.4021 -0.3318
  831MPD2    N112228   1.707   2.755  16.183 -0.0744  0.4375  0.4351
  831MPD2    H712229   1.731   2.844  16.142  1.0185  1.0559  2.4254
  832MPD2     C12230   4.337   3.775  17.556  0.9983 -0.1120 -0.1989
  832MPD2    C112231   4.240   3.865  17.516  0.1850  0.5905 -0.2570
  832MPD2    C212232   4.200   3.851  17.387 -0.4085 -0.0639  0.4972
  832MPD2    C312233   4.243   3.755  17.293 -0.6450  0.8434 -0.1671
  832MPD2    C412234   4.343   3.665  17.337 -0.4391 -0.2927 -0.4092
  832MPD2    C512235   4.388   3.690  17.462  0.6717 -0.3667  0.4962
  832MPD2     H12236   4.117   3.918  17.370 -0.6164 -0.1220  1.2748
  832MPD2    H112237   4.404   3.602  17.273 -1.2500  0.0271 -1.5069
  832MPD2    H212238   4.377   3.776  17.657  2.5836  1.3693 -0.8457
  832MPD2    H312239   4.451   3.612  17.505  0.3512 -1.2083 -0.5642
  832MPD2     N12240   4.197   3.745  17.164  0.2573  0.6522 -0.1329
  832MPD2    H512241   4.225   3.670  17.101 -1.8362 -0.6330  0.4719
  832MPD2    N112242   4.187   3.963  17.604  0.3500  0.2984  0.0319
  832MPD2    H712243   4.103   4.015  17.579  0.6637 -0.1827 -2.0602
  833MPD2     C12244   1.970   0.562  12.516  0.0256 -0.8135  0.3833
  833MPD2    C112245   1.968   0.620  12.396 -0.1613 -0.3438  0.5338
  833MPD2    C212246   2.041   0.567  12.292  0.4565  0.0275  0.7618
  833MPD2    C312247   2.117   0.455  12.304 -0.0145  0.1021 -0.3813
  833MPD2    C412248   2.135   0.401  12.430  0.1146  0.5210  0.3220
  833MPD2    C512249   2.063   0.458  12.535  0.1566 -0.2589 -0.2522
  833MPD2     H12250   2.043   0.617  12.196  2.0625  0.1409  0.8461
  833MPD2    H112251   2.209   0.325  12.449  0.0780  0.2066 -0.7693
  833MPD2    H212252   1.921   0.607  12.601  0.5720 -0.5190  0.5406
  833MPD2    H312253   2.080   0.419  12.635  1.1493 -0.8926 -0.6594
  833MPD2     N12254   2.183   0.390  12.196  0.2158 -0.2465 -0.5886
  833MPD2    H512255   2.247   0.315  12.221 -0.1175 -0.0345  0.9179
  833MPD2    N112256   1.880   0.730  12.378 -0.3847 -0.2343  0.1533
  833MPD2    H712257   1.810   0.739  12.451 -1.5627  0.5531 -1.0834
  834MPD2     C12258   2.059   4.248  11.764  0.8732 -0.2190  0.1797
  834MPD2    C112259   1.997   4.315  11.664  0.3208  0.1666 -0.1201
  834MPD2    C212260   2.015   4.456  11.658 -0.1604  0.3750  0.0592
  834MPD2    C312261   2.096   4.527  11.751 -0.3923 -0.1787  0.6688
  834MPD2    C412262   2.168   4.448  11.833 -0.6818 -0.0835 -0.0493
  834MPD2    C512263   2.148   4.314  11.843  0.4552  0.2662 -0.9699
  834MPD2     H12264   1.961   4.507  11.579 -2.2075 -0.0445  1.1671
  834MPD2    H112265   2.249   4.481  11.898  1.9508 -0.0535 -3.3620
  834MPD2    H212266   2.036   4.142  11.778 -1.1183  0.4443  1.9501
  834MPD2    H312267   2.199   4.255  11.918 -0.5574  0.8245  0.1592
  834MPD2     N12268   2.106   4.672  11.763  0.1463 -0.4058 -0.3018
  834MPD2    H512269   2.065   0.006  11.692 -0.0131 -0.5932 -0.3709
  834MPD2    N112270   1.924   4.243  11.564  0.3124 -0.7004  0.6564
  834MPD2    H712271   1.915   4.143  11.573  0.4555 -0.6211  1.6357
  835MPD2     C12272   2.265   2.522  11.603 -0.3148 -0.1022  0.7642
  835MPD2    C112273   2.148   2.504  11.543 -0.2224 -0.4992 -0.6088
  835MPD2    C212274   2.086   2.379  11.542  0.0696 -0.3953  0.6241
  835MPD2    C312275   2.145   2.265  11.594 -1.1584  0.2305 -1.0079
  835MPD2    C412276   2.263   2.285  11.664 -0.0117  0.7203 -0.2332
  835MPD2    C512277   2.315   2.412  11.668 -0.3971  0.4830  0.6779
  835MPD2     H12278   1.981   2.373  11.515  0.7114  1.9634 -2.3528
  835MPD2    H112279   2.324   2.208  11.711  1.9996  1.9715 -0.8107
  835MPD2    H212280   2.319   2.616  11.606  1.0545 -0.8342 -0.7572
  835MPD2    H312281   2.398   2.428  11.736  0.2781 -2.3975  0.5685
  835MPD2     N12282   2.086   2.142  11.607  0.3483 -0.0077  0.1753
  835MPD2    H512283   2.137   2.074  11.663  0.8655 -0.2864 -0.6377
  835MPD2    N112284   2.090   2.620  11.490  0.0941 -0.3541 -0.3697
  835MPD2    H712285   2.125   2.710  11.519  1.4778 -1.0558  0.1663
  836MPD2     C12286   1.396   2.000  12.109  0.1593 -0.2154 -0.6606
  836MPD2    C112287   1.466   2.069  12.016  0.3121 -0.4586  0.0279
  836MPD2    C212288   1.506   2.197  12.047  0.1260 -0.9403 -0.5180
  836MPD2    C312289   1.485   2.259  12.171 -0.1074  0.8786 -0.5489
  836MPD2    C412290   1.414   2.187  12.266 -0.8325  0.2959 -0.5956
  836MPD2    C512291   1.371   2.061  12.229  0.6791  0.3468  0.4530
  836MPD2     H12292   1.572   2.246  11.976  1.2278 -2.2630 -0.4086
  836MPD2    H112293   1.408   2.219  12.370 -0.8995  2.2380 -1.1895
  836MPD2    H212294   1.375   1.894  12.100  2.2216 -0.5197 -1.9341
  836MPD2    H312295   1.314   2.019  12.311  0.4399  0.0697  0.1447
  836MPD2     N12296   1.542   2.387  12.217 -0.1871  0.4971  0.9187
  836MPD2    H512297   1.531   2.408  12.316 -0.5192  1.2291  0.7300
  836MPD2    N112298   1.513   1.996  11.899  0.0258 -0.2310 -0.7505
  836MPD2    H712299   1.494   1.897  11.894  0.4220 -0.3493  0.1702
  837MPD2     C12300   0.478   1.772   9.591 -0.5689 -0.0217  0.3210
  837MPD2    C112301   0.482   1.844   9.705 -0.5544  0.5925  0.1081
  837MPD2    C212302   0.511   1.976   9.700 -0.7446 -0.3544 -0.2525
  837MPD2    C312303   0.548   2.036   9.573 -0.2274  0.3089  0.1579
  837MPD2    C412304   0.543   1.964   9.458 -0.3689 -0.1261  0.0703
  837MPD2    C512305   0.508   1.831   9.467  0.6754 -0.4185  0.6300
  837MPD2     H12306   0.519   2.039   9.788  0.4974 -0.2561 -0.4473
  837MPD2    H112307   0.544   2.015   9.363  0.2562 -1.7666 -0.8161
  837MPD2    H212308   0.460   1.665   9.582 -1.6175  0.4757 -3.5706
  837MPD2    H312309   0.500   1.780   9.372 -2.3526  0.6587  0.3154
  837MPD2     N12310   0.543   2.180   9.570 -0.3207  0.4170 -1.0749
  837MPD2    H512311   0.531   2.230   9.658 -1.2766 -0.3128 -0.7859
  837MPD2    N112312   0.448   1.792   9.829  0.0238  0.2381 -0.2138
  837MPD2    H712313   0.470   1.863   9.898 -0.2107  0.1983 -0.1006
  838MPD2     C12314   3.298   1.171  12.028  0.0247 -0.0545 -0.2002
  838MPD2    C112315   3.248   1.096  11.927 -0.1021 -0.4428  0.5979
  838MPD2    C212316   3.139   1.013  11.961  0.4534 -0.6449 -0.1530
  838MPD2    C312317   3.075   1.017  12.081  0.0972 -0.2114  0.3474
  838MPD2    C412318   3.122   1.106  12.178  0.1063 -0.6972  0.6090
  838MPD2    C512319   3.238   1.181  12.151 -0.2298 -0.1589 -0.3618
  838MPD2     H12320   3.103   0.945  11.884  0.2591 -0.2688 -0.3998
  838MPD2    H112321   3.088   1.112  12.281  1.9376  2.1788  1.0433
  838MPD2    H212322   3.375   1.247  12.018 -0.8470  1.1206  1.9521
  838MPD2    H312323   3.271   1.261  12.217 -0.1370 -0.0963 -0.4848
  838MPD2     N12324   2.960   0.940  12.099  0.2460 -0.1286  0.4799
  838MPD2    H512325   2.935   0.900  12.008 -0.7775 -0.5758  0.9576
  838MPD2    N112326   3.301   1.075  11.803 -0.0652 -0.0035  0.2913
  838MPD2    H712327   3.244   1.023  11.737 -1.0927  1.7043 -0.1626
  839MPD2     C12328   2.814   0.608  11.378  0.1460  0.4856  0.2981
  839MPD2    C112329   2.915   0.526  11.422  0.0136 -0.2268 -0.1328
  839MPD2    C212330   3.032   0.580  11.459 -0.6587 -0.8175  0.2651
  839MPD2    C312331   3.053   0.716  11.441  0.3432 -0.0611  0.0097
  839MPD2    C412332   2.948   0.791  11.391 -0.3588 -0.2742  0.4861
  839MPD2    C512333   2.832   0.738  11.353 -0.1593 -0.9191  0.1921
  839MPD2     H12334   3.113   0.521  11.499 -0.9729  0.6821  3.0910
  839MPD2    H112335   2.962   0.898  11.377  0.7825 -0.8065 -2.3516
  839MPD2    H212336   2.721   0.568  11.339  1.3374 -0.4959 -1.5114
  839MPD2    H312337   2.749   0.795  11.313 -1.4377 -2.2557  0.8951
  839MPD2     N12338   3.174   0.779  11.460  0.1867 -0.3827 -0.0081
  839MPD2    H512339   3.178   0.879  11.446  1.0593 -0.2760  0.9525
  839MPD2    N112340   2.890   0.391  11.453  0.4347 -0.5175  0.1585
  839MPD2    H712341   2.960   0.336  11.502 -1.1211 -1.4969  1.3205
  840MPD2     C12342   3.316   3.237  10.492 -0.6902  0.1372  0.4567
  840MPD2    C112343   3.324   3.163  10.603 -0.2204  0.6367 -0.7608
  840MPD2    C212344   3.433   3.187  10.684 -0.1342  0.3217 -0.0509
  840MPD2    C312345   3.524   3.290  10.665 -0.3429  0.2626  0.3416
  840MPD2    C412346   3.509   3.366  10.552 -0.9948 -0.0280  0.7006
  840MPD2    C512347   3.401   3.344  10.468 -0.5925  0.3327 -0.2628
  840MPD2     H12348   3.454   3.121  10.766 -0.1199 -1.3431 -1.3899
  840MPD2    H112349   3.577   3.447  10.526 -1.2046  0.1918  0.8349
  840MPD2    H212350   3.231   3.223  10.427  0.6043  0.8633 -1.3945
  840MPD2    H312351   3.385   3.405  10.380 -2.8764  1.6715  1.0733
  840MPD2     N12352   3.627   3.329  10.752 -0.0313 -0.1685 -0.1463
  840MPD2    H512353   3.683   3.411  10.731 -0.1315 -0.1241 -0.2388
  840MPD2    N112354   3.229   3.065  10.626  0.0500 -0.0207 -0.3134
  840MPD2    H712355   3.162   3.057  10.551 -0.2490  1.1362 -0.1642
  841MPD2     C12356   3.593   3.232  14.217  0.0220 -0.7875 -0.2367
  841MPD2    C112357   3.608   3.204  14.354 -0.1507  0.7280 -0.2450
  841MPD2    C212358   3.729   3.229  14.420 -0.5480 -0.3521  0.2985
  841MPD2    C312359   3.838   3.276  14.353 -0.0915 -0.1960  0.3404
  841MPD2    C412360   3.813   3.322  14.222 -0.1511  0.1922  0.5052
  841MPD2    C512361   3.697   3.296  14.156  0.2644 -0.3605 -0.1693
  841MPD2     H12362   3.741   3.187  14.519  2.4552  0.6030  0.3364
  841MPD2    H112363   3.885   3.387  14.173  1.8118 -0.4611  2.5135
  841MPD2    H212364   3.497   3.218  14.168 -0.3204 -0.6158  0.3705
  841MPD2    H312365   3.690   3.326  14.052  0.7338  1.9335  0.4696
  841MPD2     N12366   3.960   3.282  14.427 -0.5094  0.1973 -0.0151
  841MPD2    H512367   3.965   3.239  14.519  0.6758 -2.6828 -1.4319
  841MPD2    N112368   3.517   3.127  14.424 -0.2322  0.1939 -0.2675
  841MPD2    H712369   3.536   3.100  14.521  1.4786  1.9224 -0.1236
  842MPD2     C12370   3.758   4.006  17.078 -0.1744  0.7246 -0.0898
  842MPD2    C112371   3.645   4.030  17.003  0.2728 -0.1949  0.8117
  842MPD2    C212372   3.529   3.956  17.024  0.2559 -0.8896  0.4859
  842MPD2    C312373   3.522   3.852  17.104 -0.0930  0.7722  0.7268
  842MPD2    C412374   3.644   3.821  17.163 -0.5056 -0.1195  0.1502
  842MPD2    C512375   3.762   3.896  17.156  0.6831  0.2991 -0.2946
  842MPD2     H12376   3.450   3.965  16.951 -0.3512 -0.2715  1.2174
  842MPD2    H112377   3.645   3.750  17.245 -1.4228  0.4111  0.6225
  842MPD2    H212378   3.849   4.061  17.062  1.8162 -2.5628 -0.0701
  842MPD2    H312379   3.858   3.871  17.199 -0.5937  0.3500  2.5928
  842MPD2     N12380   3.408   3.777  17.124 -0.3219  0.3644 -0.1041
  842MPD2    H512381   3.418   3.685  17.165  1.8324  1.0101  0.7896
  842MPD2    N112382   3.650   4.141  16.911 -1.0060 -0.1486 -0.9057
  842MPD2    H712383   3.740   4.187  16.907 -2.0630  2.0726  0.9717
  843MPD2     C12384   0.811   0.183   0.221 -0.3074 -0.0335  0.3446
  843MPD2    C112385   0.829   0.051   0.261  0.4622 -0.3354 -0.0346
  843MPD2    C212386   0.958   4.726   0.243 -0.6309 -0.5424  0.3625
  843MPD2    C312387   1.063   0.067   0.176  0.2007  0.4860  0.4328
  843MPD2    C412388   1.035   0.196   0.145 -0.1867 -0.2221 -0.0365
  843MPD2    C512389   0.920   0.249   0.181 -0.3469 -0.0365  0.4036
  843MPD2     H12390   0.971   4.624   0.278 -2.3429 -0.7124  0.4660
  843MPD2    H112391   1.102   0.270   0.102  1.4037 -0.8679  1.3414
  843MPD2    H212392   0.720   0.235   0.248 -0.3692  0.2832 -0.4777
  843MPD2    H312393   0.912   0.357   0.187  0.2371 -0.0566  1.5866
  843MPD2     N12394   1.195   0.024   0.163  0.1388  0.0754  0.1007
  843MPD2    H512395   1.262   0.085   0.118 -0.0779  0.4427  0.2747
  843MPD2    N112396   0.727   4.714   0.333  0.2532  0.1885  0.4046
  843MPD2    H712397   0.648   0.046   0.356  1.6185  2.7376 -1.4228
  844MPD2     C12398   4.214   3.764  16.314 -0.2342  0.3647  0.0359
  844MPD2    C112399   4.257   3.648  16.375  0.8038  0.2396  0.2830
  844MPD2    C212400   4.325   3.658  16.494  0.3259  0.0240  0.2276
  844MPD2    C312401   4.335   3.776  16.565  0.2574 -0.4744  0.3671
  844MPD2    C412402   4.284   3.892  16.502  0.0987  0.3616  0.5793
  844MPD2    C512403   4.230   3.891  16.375 -0.3744 -0.2607 -0.2061
  844MPD2     H12404   4.369   3.564  16.527 -2.0886 -1.7688 -1.6143
  844MPD2    H112405   4.314   3.982  16.554  0.2242 -0.3819  1.7923
  844MPD2    H212406   4.166   3.778  16.218 -0.5640  0.9491  0.2856
  844MPD2    H312407   4.192   3.981  16.327  1.0396  0.0218 -0.7998
  844MPD2     N12408   4.406   3.781  16.692  0.4177 -0.0052  0.3861
  844MPD2    H512409   4.445   3.695  16.730  1.0357  1.7307  3.6557
  844MPD2    N112410   4.259   3.525  16.316 -0.3121 -0.0641  0.2749
  844MPD2    H712411   4.296   3.450  16.373 -0.0968  0.8295  1.2969
  845MPD2     C12412   4.324   4.377  17.496 -0.0739  0.0195 -0.8752
  845MPD2    C112413   4.234   4.288  17.458 -0.2208  0.6385 -0.3214
  845MPD2    C212414   4.271   4.193  17.364  0.0029  0.1665 -0.5245
  845MPD2    C312415   4.401   4.174  17.333  0.6700 -0.4139 -0.0715
  845MPD2    C412416   4.501   4.256  17.387 -0.2594  0.4728 -0.2017
  845MPD2    C512417   4.455   4.364  17.461  0.1634  0.0117  0.0086
  845MPD2     H12418   4.194   4.135  17.314  0.0809 -0.2970 -0.1082
  845MPD2    H112419   4.605   4.233  17.366 -0.5282 -0.6278 -0.3349
  845MPD2    H212420   4.306   4.462  17.561  0.7329  0.0946 -0.7444
  845MPD2    H312421   4.520   4.448  17.486 -1.1951  0.7152  1.1343
  845MPD2     N12422   4.430   4.064  17.248  0.2718  0.0005  0.2173
  845MPD2    H512423   4.352   4.026  17.195  0.5429 -0.0607 -0.1387
  845MPD2    N112424   4.097   4.318  17.484 -0.2644 -0.1664 -0.1515
  845MPD2    H712425   4.076   4.402  17.537 -0.0006 -0.2966  0.1598
  846MPD2     C12426   1.443   0.157  13.463  0.9043 -0.9250  0.3848
  846MPD2    C112427   1.334   0.231  13.506  0.2140  0.4167 -0.4175
  846MPD2    C212428   1.286   0.234  13.637 -0.1303 -0.0322  0.7551
  846MPD2    C312429   1.352   0.159  13.731 -0.8775  0.4866  0.4656
  846MPD2    C412430   1.457   0.072  13.688  0.5957 -0.3506 -0.0284
  846MPD2    C512431   1.501   0.069  13.557  0.7017  0.4897 -1.2363
  846MPD2     H12432   1.203   0.290  13.678 -0.6195 -0.3985  0.2695
  846MPD2    H112433   1.506   0.011  13.762 -2.5400 -2.1939  0.5522
  846MPD2    H212434   1.477   0.148  13.361 -2.7918 -0.2336 -0.9002
  846MPD2    H312435   1.589   0.013  13.528  0.0548 -0.8026 -0.7122
  846MPD2     N12436   1.304   0.156  13.864 -0.4117 -0.7812  0.0431
  846MPD2    H512437   1.227   0.218  13.883 -0.0999 -0.7603  1.2486
  846MPD2    N112438   1.274   0.325  13.415  0.1161  0.9344 -0.0635
  846MPD2    H712439   1.198   0.382  13.450 -1.4124 -2.0436  1.4886
  847MPD2     C12440   1.473   0.866  14.199 -0.1186 -0.2745 -0.2878
  847MPD2    C112441   1.532   0.970  14.269 -0.0176 -0.3930  0.2402
  847MPD2    C212442   1.615   0.940  14.373  0.1459  0.1889 -0.2012
  847MPD2    C312443   1.637   0.806  14.417  0.4166 -0.1804 -0.4379
  847MPD2    C412444   1.577   0.705  14.341 -0.0436 -0.4335 -0.8490
  847MPD2    C512445   1.507   0.737  14.227  0.4983  0.3006  0.1298
  847MPD2     H12446   1.656   1.023  14.429 -1.7299 -0.7261  2.5282
  847MPD2    H112447   1.581   0.600  14.369  1.3391  0.0464  0.8046
  847MPD2    H212448   1.405   0.881  14.116 -0.3545  0.1849 -0.0133
  847MPD2    H312449   1.464   0.657  14.168 -1.3863  1.0367  0.5121
  847MPD2     N12450   1.711   0.780  14.539 -0.0679 -0.1814  0.2490
  847MPD2    H512451   1.758   0.856  14.587 -2.6707  0.7703  1.2552
  847MPD2    N112452   1.498   1.106  14.249  0.4200  0.3409  0.6065
  847MPD2    H712453   1.558   1.174  14.294  1.6514 -1.5939  1.8970
  848MPD2     C12454   4.007   4.197  16.470 -0.2109 -0.5285  0.0356
  848MPD2    C112455   4.088   4.179  16.580 -0.2364 -0.2764  0.7488
  848MPD2    C212456   4.197   4.257  16.601 -0.1267  0.6691  0.2378
  848MPD2    C312457   4.229   4.349  16.500  0.5663  0.1592  0.0779
  848MPD2    C412458   4.149   4.371  16.391  0.1334 -0.1041  0.7095
  848MPD2    C512459   4.037   4.295  16.378  0.4524  0.1757  0.6658
  848MPD2     H12460   4.261   4.245  16.688  0.2498  1.5710  0.0949
  848MPD2    H112461   4.173   4.441  16.312 -1.1956  0.8204  1.1231
  848MPD2    H212462   3.923   4.130  16.462 -0.2839 -0.3915 -0.3183
  848MPD2    H312463   3.978   4.315  16.290  0.7991  1.0939  0.6446
  848MPD2     N12464   4.318   4.458  16.522  0.4273 -0.2003 -0.6522
  848MPD2    H512465   4.324   4.534  16.456  1.3511 -0.2026 -0.5814
  848MPD2    N112466   4.069   4.068  16.667 -0.2798  0.1198 -0.0578
  848MPD2    H712467   4.146   4.059  16.732 -1.6622 -1.5877  1.3635
  849MPD2     C12468   3.799   3.574  14.564 -0.8889 -0.7516  0.4535
  849MPD2    C112469   3.739   3.661  14.475  0.0887 -0.7261  0.2786
  849MPD2    C212470   3.817   3.757  14.419  0.1150 -0.7991 -0.3675
  849MPD2    C312471   3.940   3.792  14.473  0.1827  0.7920  0.1914
  849MPD2    C412472   3.991   3.717  14.578  0.1808  0.2355  0.4880
  849MPD2    C512473   3.930   3.597  14.605 -0.1114 -0.0539  0.3414
  849MPD2     H12474   3.800   3.827  14.338 -0.5230 -1.1133 -0.5022
  849MPD2    H112475   4.087   3.740  14.622  1.5220 -2.3945 -1.0920
  849MPD2    H212476   3.746   3.489  14.605 -2.8334 -0.1527 -0.8268
  849MPD2    H312477   3.974   3.538  14.684 -1.2330 -1.1276  0.1561
  849MPD2     N12478   4.006   3.903  14.415  0.0098  0.1628 -0.5711
  849MPD2    H512479   3.956   3.949  14.340 -1.6752  0.7305  0.8776
  849MPD2    N112480   3.605   3.636  14.425  0.9395 -0.7324  0.1557
  849MPD2    H712481   3.557   3.556  14.464  0.2396 -0.3231  0.1342
  850MPD2     C12482   1.300   2.254  14.860  0.0225 -0.1352  0.3581
  850MPD2    C112483   1.337   2.152  14.944  0.8814 -0.1601 -0.4163
  850MPD2    C212484   1.473   2.116  14.930  1.1249 -0.8800 -0.3001
  850MPD2    C312485   1.564   2.173  14.837 -0.2064 -0.2438 -0.0247
  850MPD2    C412486   1.520   2.268  14.759  0.0864  0.8106 -0.7645
  850MPD2    C512487   1.388   2.305  14.766 -0.2347  0.5304  0.1702
  850MPD2     H12488   1.519   2.045  14.997  2.8348  0.1806 -0.3503
  850MPD2    H112489   1.590   2.314  14.691  1.1691 -0.5685 -0.5836
  850MPD2    H212490   1.194   2.274  14.849 -0.3367 -1.4756  1.3644
  850MPD2    H312491   1.347   2.363  14.684 -0.2915  0.2976  0.0345
  850MPD2     N12492   1.698   2.136  14.830 -0.4255  0.0486  0.8270
  850MPD2    H512493   1.757   2.201  14.779  1.4912 -1.7826  0.7293
  850MPD2    N112494   1.247   2.093  15.046 -0.0971 -0.5541 -0.8370
  850MPD2    H712495   1.157   2.137  15.061  0.5626 -0.8035  3.8677
  851MPD2     C12496   1.400   1.820  15.890 -0.0048  0.2335  0.3807
  851MPD2    C112497   1.407   1.761  15.766 -0.0465  0.5806  0.3680
  851MPD2    C212498   1.483   1.644  15.750  0.6611  0.9819 -0.0574
  851MPD2    C312499   1.558   1.591  15.860 -0.2520 -0.0660  0.5179
  851MPD2    C412500   1.540   1.647  15.985 -0.3650  0.7385  0.4307
  851MPD2    C512501   1.472   1.766  15.993 -0.0586  0.2557 -0.3591
  851MPD2     H12502   1.485   1.585  15.659  0.3242 -0.4949  0.8824
  851MPD2    H112503   1.582   1.607  16.076  1.0494  0.7693 -0.2097
  851MPD2    H212504   1.335   1.907  15.902 -3.0267 -2.0858  0.7576
  851MPD2    H312505   1.468   1.811  16.092  0.1980  0.8277 -0.6063
  851MPD2     N12506   1.634   1.476  15.846 -0.0937  0.3550  0.5021
  851MPD2    H512507   1.640   1.446  15.750 -0.7684 -2.5022  1.3700
  851MPD2    N112508   1.305   1.795  15.670 -0.0905  0.0003 -0.1166
  851MPD2    H712509   1.248   1.874  15.696 -1.1070 -0.2316 -1.6438
  852MPD2     C12510   1.272   3.563  10.020 -0.1748 -0.4883 -0.1084
  852MPD2    C112511   1.215   3.592  10.141  0.1176 -0.8165 -0.5099
  852MPD2    C212512   1.202   3.724  10.180  0.5996 -0.5826  0.2680
  852MPD2    C312513   1.258   3.826  10.097  0.0883 -0.4917 -0.3362
  852MPD2    C412514   1.325   3.791   9.979  0.5065  0.8168 -0.1405
  852MPD2    C512515   1.332   3.659   9.938  0.1248  0.0038 -0.1643
  852MPD2     H12516   1.166   3.755  10.278  1.0231  0.7293  0.0124
  852MPD2    H112517   1.374   3.861   9.911  1.5757 -0.2128 -0.4379
  852MPD2    H212518   1.270   3.465   9.975  0.0040 -0.2712 -0.5849
  852MPD2    H312519   1.381   3.634   9.845 -0.5139 -1.6382 -0.0514
  852MPD2     N12520   1.253   3.955  10.153  0.2874 -0.0055 -0.9657
  852MPD2    H512521   1.182   3.964  10.225  2.3258  3.1547  0.6645
  852MPD2    N112522   1.166   3.490  10.234  0.2193 -0.6664 -0.3518
  852MPD2    H712523   1.132   3.528  10.322  0.7963 -0.0204 -0.4029
  853MPD2     C12524   2.842   4.038  12.594 -0.3365 -0.4091  1.1462
  853MPD2    C112525   2.817   4.161  12.542 -0.3754 -0.0762 -0.0929
  853MPD2    C212526   2.819   4.179  12.406  0.7308 -0.3481 -0.2585
  853MPD2    C312527   2.863   4.074  12.315 -0.0905  0.3868 -0.4642
  853MPD2    C412528   2.890   3.951  12.373  0.2617 -0.1786 -0.6977
  853MPD2    C512529   2.886   3.936  12.512  0.0434  0.3112  0.2720
  853MPD2     H12530   2.797   4.274  12.360  1.2084 -0.5744 -0.9530
  853MPD2    H112531   2.918   3.862  12.319 -3.9531 -0.8853 -1.7229
  853MPD2    H212532   2.846   4.032  12.702 -0.6137  1.2936  1.2501
  853MPD2    H312533   2.920   3.842  12.555  0.9461  0.6684  0.3391
  853MPD2     N12534   2.869   4.095  12.178  0.1768  0.2050  0.4223
  853MPD2    H512535   2.849   4.186  12.138 -0.3242  0.7230  1.8328
  853MPD2    N112536   2.798   4.266  12.643  0.0932 -0.5941  0.6733
  853MPD2    H712537   2.807   4.237  12.740  0.2213 -2.0189  0.2444
  854MPD2     C12538   4.580   0.140  12.240 -0.2201  0.3172 -0.5366
  854MPD2    C112539   4.526   0.029  12.174 -0.1799 -0.0565 -0.0072
  854MPD2    C212540   4.460   4.657  12.243 -0.3968  0.3080 -0.0178
  854MPD2    C312541   4.441   4.664  12.380  0.0328 -0.0194  0.3969
  854MPD2    C412542   4.490   0.052  12.438  0.1510  0.4498  0.3093
  854MPD2    C512543   4.548   0.149  12.371  0.0004  0.3649  0.6412
  854MPD2     H12544   4.434   4.563  12.195  1.5442  0.1159 -0.7261
  854MPD2    H112545   4.466   0.068  12.543 -1.2778  1.3409 -0.1580
  854MPD2    H212546   4.631   0.222  12.191  1.2233  0.1821  0.7014
  854MPD2    H312547   4.573   0.246  12.414  1.1623 -0.5880  2.1271
  854MPD2     N12548   4.388   4.565  12.465 -0.0783 -0.4593 -0.4103
  854MPD2    H512549   4.381   4.583  12.564 -0.6283  3.5208 -1.1969
  854MPD2    N112550   4.549   0.026  12.037  0.1106 -0.0480  0.0006
  854MPD2    H712551   4.620   0.091  12.007 -1.7306  0.6746 -2.7646
  855MPD2     C12552   4.628   4.496  13.266  0.5470  0.0314 -0.7905
  855MPD2    C112553   4.630   4.367  13.228  0.0966  0.6909 -0.7095
  855MPD2    C212554   4.550   4.320  13.127  0.2888 -0.1715 -0.2635
  855MPD2    C312555   4.487   4.411  13.045 -0.1676 -0.2068 -0.8789
  855MPD2    C412556   4.492   4.542  13.081  1.3099 -0.5819  0.0192
  855MPD2    C512557   4.548   4.582  13.194  0.7603  0.0162 -0.2915
  855MPD2     H12558   4.542   4.212  13.113 -1.3821 -0.2378  1.2564
  855MPD2    H112559   4.446   4.616  13.016  1.5186  1.1276  1.8361
  855MPD2    H212560   4.695   4.536  13.340 -1.2472  0.8170  0.4081
  855MPD2    H312561   4.545   4.690  13.208 -1.4875  0.1514 -1.7521
  855MPD2     N12562   4.419   4.383  12.921 -0.2681  0.3678 -0.0477
  855MPD2    H512563   4.387   4.460  12.863 -4.0195 -0.3168  1.1282
  855MPD2    N112564   4.706   4.271  13.293 -0.4734 -0.2876 -0.1639
  855MPD2    H712565   4.681   4.176  13.268  0.3565  0.3233 -3.3327
  856MPD2     C12566   1.910   0.662  13.863  0.3608  0.0407  0.3533
  856MPD2    C112567   1.951   0.761  13.954  0.2270  0.1907  0.5784
  856MPD2    C212568   1.873   0.876  13.959 -0.2977 -0.1393  0.3501
  856MPD2    C312569   1.762   0.890  13.874 -0.2485  0.2077  0.0791
  856MPD2    C412570   1.732   0.788  13.793  0.0412  0.4259 -0.3957
  856MPD2    C512571   1.806   0.679  13.785  0.2788 -0.4674 -0.8065
  856MPD2     H12572   1.900   0.940  14.042  0.3400 -1.4486  1.1504
  856MPD2    H112573   1.657   0.800  13.715 -1.1690 -0.3387  0.6609
  856MPD2    H212574   1.969   0.572  13.851 -0.8611 -0.8138  0.7231
  856MPD2    H312575   1.788   0.596  13.718  1.5103 -0.5884 -0.9941
  856MPD2     N12576   1.679   1.004  13.868 -0.4070 -0.9223 -0.6026
  856MPD2    H512577   1.597   0.999  13.809 -2.8121  1.1487  2.5962
  856MPD2    N112578   2.070   0.746  14.029  0.5429  0.2179  0.3087
  856MPD2    H712579   2.099   0.836  14.068 -1.3093  0.1177  1.8861
  857MPD2     C12580   3.634   2.317  12.640 -0.8275  0.4647 -0.2177
  857MPD2    C112581   3.770   2.303  12.663  0.1941 -0.3176  0.7234
  857MPD2    C212582   3.843   2.419  12.700  0.2742  0.8105 -0.7068
  857MPD2    C312583   3.776   2.542  12.717 -0.2153 -0.0744  0.9066
  857MPD2    C412584   3.644   2.552  12.695 -0.2323 -0.1779  1.2243
  857MPD2    C512585   3.576   2.446  12.650  0.1551  0.1277 -0.2242
  857MPD2     H12586   3.948   2.416  12.726  0.8048  0.4479 -2.8794
  857MPD2    H112587   3.602   2.651  12.705 -3.4903 -1.5001  0.6003
  857MPD2    H212588   3.572   2.231  12.619  0.0901 -0.2604  0.0453
  857MPD2    H312589   3.471   2.458  12.626  0.3660 -0.6186 -1.5062
  857MPD2     N12590   3.854   2.648  12.761 -0.1763  0.3129  0.3734
  857MPD2    H512591   3.954   2.629  12.760  0.0744  1.6912 -1.3697
  857MPD2    N112592   3.820   2.169  12.663 -0.5419 -0.0818  0.2647
  857MPD2    H712593   3.749   2.100  12.645 -2.5737  1.1346  3.5108
  858MPD2     C12594   0.086   1.227  16.880 -0.3346  0.3469 -0.0279
  858MPD2    C112595   4.722   1.305  16.806  1.0029  0.1774  0.1774
  858MPD2    C212596   4.715   1.444  16.835  0.0017 -0.3180 -0.3099
  858MPD2    C312597   0.071   1.500  16.931 -0.5052  0.1793 -0.4161
  858MPD2    C412598   0.162   1.420  16.997 -0.1682  0.3526  0.0623
  858MPD2    C512599   0.166   1.287  16.975  1.0603 -0.4213 -0.5979
  858MPD2     H12600   4.640   1.499  16.780 -1.0719 -1.3432  0.1411
  858MPD2    H112601   0.238   1.443  17.071 -0.4214  0.9858  0.1243
  858MPD2    H212602   0.091   1.121  16.861 -1.8013 -0.2550  2.9435
  858MPD2    H312603   0.230   1.218  17.028 -0.0410 -1.2918 -0.4079
  858MPD2     N12604   0.076   1.639  16.966  0.0771 -0.1796  0.4551
  858MPD2    H512605   0.148   1.654  17.035 -0.0718  0.9553  0.3639
  858MPD2    N112606   4.639   1.235  16.717  0.2700 -0.4962  0.3969
  858MPD2    H712607   4.630   1.135  16.728 -0.4866 -0.4575  0.1138
  859MPD2     C12608   3.190   3.596  14.585 -0.7124  0.4925 -0.1734
  859MPD2    C112609   3.276   3.592  14.691  0.5292 -0.1305  0.7774
  859MPD2    C212610   3.302   3.475  14.762 -0.2239  0.0083 -0.3997
  859MPD2    C312611   3.245   3.357  14.718  1.0722 -0.0750  0.1442
  859MPD2    C412612   3.171   3.355  14.602  0.0173  0.8496  0.0739
  859MPD2    C512613   3.137   3.474  14.540 -0.3761 -0.1800  0.4280
  859MPD2     H12614   3.358   3.474  14.856  0.5385  0.5147 -0.8487
  859MPD2    H112615   3.142   3.260  14.557 -0.9797  1.2529 -0.1367
  859MPD2    H212616   3.158   3.684  14.530  1.6886  0.0897 -2.2190
  859MPD2    H312617   3.075   3.468  14.451 -0.5600 -0.7161  0.5937
  859MPD2     N12618   3.262   3.245  14.795  0.0305  0.0923  0.4560
  859MPD2    H512619   3.327   3.245  14.874  0.2260 -0.5761  0.2992
  859MPD2    N112620   3.330   3.718  14.731  0.1852  0.0231  0.1646
  859MPD2    H712621   3.291   3.805  14.695  0.9502  0.5402  0.6040
  860MPD2     C12622   0.788   3.779  11.600 -0.2082  0.0512 -0.1681
  860MPD2    C112623   0.771   3.790  11.738  0.6422  0.5205 -0.7015
  860MPD2    C212624   0.646   3.815  11.793 -0.6978 -0.3448  0.0681
  860MPD2    C312625   0.535   3.812  11.706  0.9436 -0.4471 -0.1027
  860MPD2    C412626   0.551   3.794  11.571  0.6622 -0.6481  0.1590
  860MPD2    C512627   0.674   3.790  11.523  0.9056 -0.2646 -0.1154
  860MPD2     H12628   0.635   3.836  11.899 -1.4240  2.5234 -0.5586
  860MPD2    H112629   0.465   3.810  11.506  1.3770  0.0539 -0.6170
  860MPD2    H212630   0.887   3.787  11.558  0.4955 -0.6073  1.3795
  860MPD2    H312631   0.688   3.780  11.416  0.3430 -2.1214 -0.0061
  860MPD2     N12632   0.415   3.841  11.764 -0.3953 -0.7869  0.3909
  860MPD2    H512633   0.423   3.855  11.864 -0.0381 -3.1325  0.7045
  860MPD2    N112634   0.877   3.761  11.826  0.8760  0.4199 -0.4533
  860MPD2    H712635   0.863   3.768  11.927  1.8923  3.2721 -0.5228
  861MPD2     C12636   3.896   1.781  11.081  0.6254 -0.4812  0.2622
  861MPD2    C112637   3.965   1.877  11.149 -0.6596  0.4754 -0.6056
  861MPD2    C212638   4.002   1.993  11.077 -0.1111  0.1054 -0.0127
  861MPD2    C312639   3.957   2.015  10.950 -0.1048  0.1627  0.6646
  861MPD2    C412640   3.880   1.919  10.884 -0.4005  0.2311 -0.1743
  861MPD2    C512641   3.855   1.801  10.953 -1.1005  0.3121 -0.1174
  861MPD2     H12642   4.074   2.064  11.116  1.3445 -1.4769  0.1847
  861MPD2    H112643   3.838   1.939  10.786 -0.3225  0.4262 -0.1677
  861MPD2    H212644   3.850   1.688  11.113 -0.5482 -0.4025 -1.1736
  861MPD2    H312645   3.787   1.730  10.907 -1.7821  0.9970 -0.1742
  861MPD2     N12646   3.981   2.127  10.875  0.2903  0.4618 -0.1305
  861MPD2    H512647   3.935   2.134  10.785  1.1862 -0.8530 -0.6942
  861MPD2    N112648   4.008   1.875  11.282 -0.4315 -0.2132 -0.2267
  861MPD2    H712649   4.029   1.963  11.327 -2.3718  0.1416  0.0010
  862MPD2     C12650   3.984   2.313  10.192  0.0228  0.2127  0.3824
  862MPD2    C112651   3.998   2.240  10.310 -0.1526  0.2210  0.3667
  862MPD2    C212652   4.017   2.107  10.300 -0.1673  0.2428  0.0028
  862MPD2    C312653   4.039   2.046  10.177 -0.1915 -0.6820 -0.3634
  862MPD2    C412654   4.020   2.110  10.058 -0.2937 -0.4083  0.0160
  862MPD2    C512655   4.007   2.248  10.068  0.2587  0.2257  0.4900
  862MPD2     H12656   4.023   2.050  10.392 -0.2604 -0.7387 -0.5938
  862MPD2    H112657   4.042   2.066   9.961  0.7789  1.0507 -0.4139
  862MPD2    H212658   3.970   2.421  10.196 -1.3396  0.0947 -1.2229
  862MPD2    H312659   4.010   2.314   9.983  2.0464 -1.7946 -1.0196
  862MPD2     N12660   4.079   1.912  10.185 -0.2306  0.6793  0.1380
  862MPD2    H512661   4.099   1.882  10.280  0.6956  3.0077  0.6861
  862MPD2    N112662   4.004   2.294  10.436  0.3000  0.0457 -0.3780
  862MPD2    H712663   3.991   2.226  10.510 -0.2868  0.9095  0.3073
  863MPD2     C12664   2.743   0.414  16.300  0.2054  0.0343  0.0469
  863MPD2    C112665   2.762   0.546  16.328 -0.0183  0.4445 -0.2265
  863MPD2    C212666   2.802   0.581  16.456  0.3549  0.4120  1.0302
  863MPD2    C312667   2.836   0.493  16.553 -0.1708 -1.0109 -0.3073
  863MPD2    C412668   2.808   0.360  16.531 -0.3932  0.3863  0.3984
  863MPD2    C512669   2.756   0.320  16.404 -0.6603 -0.1061 -0.1162
  863MPD2     H12670   2.833   0.684  16.475  1.3265  0.3412 -0.2050
  863MPD2    H112671   2.815   0.291  16.614 -1.5614  0.2863  0.4044
  863MPD2    H212672   2.707   0.374  16.206 -1.0567 -0.3319  0.6868
  863MPD2    H312673   2.745   0.216  16.373 -1.3782 -0.2633  0.6766
  863MPD2     N12674   2.881   0.529  16.684  0.4488  0.2404  0.7619
  863MPD2    H512675   2.912   0.454  16.744  1.5241  0.6925  0.7832
  863MPD2    N112676   2.733   0.639  16.220 -0.3288 -0.4907 -0.1325
  863MPD2    H712677   2.708   0.595  16.132  4.9599 -1.4852 -1.1466
  864MPD2     C12678   3.551   1.733  17.203 -0.1482  0.6665 -0.2806
  864MPD2    C112679   3.575   1.695  17.070 -0.5454  0.0963  0.3701
  864MPD2    C212680   3.635   1.787  16.986  0.5958 -0.4955  0.1565
  864MPD2    C312681   3.689   1.905  17.035 -0.2153 -0.1241 -0.3920
  864MPD2    C412682   3.660   1.941  17.165  0.7704  0.3360  0.0897
  864MPD2    C512683   3.590   1.852  17.252  0.0279  0.7475  0.0688
  864MPD2     H12684   3.639   1.761  16.881 -0.5214  2.0256 -0.5163
  864MPD2    H112685   3.688   2.038  17.204  3.0972 -0.6721  0.9114
  864MPD2    H212686   3.507   1.661  17.271  0.9284 -0.2216 -0.5396
  864MPD2    H312687   3.568   1.870  17.357  2.3635  0.0849  0.6601
  864MPD2     N12688   3.758   1.995  16.954 -0.4529  0.7486 -0.2467
  864MPD2    H512689   3.779   2.077  17.010 -0.5089  1.8311 -1.8114
  864MPD2    N112690   3.533   1.569  17.033  0.4361 -0.3620 -0.2481
  864MPD2    H712691   3.460   1.523  17.087  0.6298  1.5749  1.6480
  865MPD2     C12692   3.619   2.589  16.277  0.0102 -0.3910 -0.7010
  865MPD2    C112693   3.633   2.462  16.332 -0.0032 -0.3565 -0.4664
  865MPD2    C212694   3.618   2.445  16.468  0.4681 -0.2981  0.3181
  865MPD2    C312695   3.591   2.553  16.553 -0.3635 -0.1418 -0.0367
  865MPD2    C412696   3.562   2.671  16.497  0.0918 -0.0250 -0.1043
  865MPD2    C512697   3.588   2.687  16.361 -0.4316 -0.1126 -0.4985
  865MPD2     H12698   3.639   2.345  16.506  0.7163 -0.6969 -0.8655
  865MPD2    H112699   3.526   2.750  16.561 -0.0986  0.2783 -0.5905
  865MPD2    H212700   3.622   2.612  16.171  4.0647 -0.7643 -0.6718
  865MPD2    H312701   3.564   2.782  16.314 -0.0044 -0.1019 -0.6927
  865MPD2     N12702   3.588   2.547  16.696  0.3621 -0.0201 -0.5699
  865MPD2    H512703   3.554   2.628  16.746  1.1310 -0.0004 -0.0861
  865MPD2    N112704   3.698   2.364  16.253 -0.2476 -0.4364  0.2252
  865MPD2    H712705   3.739   2.386  16.163 -0.7718 -2.6998 -0.5686
  866MPD2     C12706   0.058   2.640  11.885  0.0285 -0.0389 -0.1081
  866MPD2    C112707   0.141   2.613  11.776  0.2301 -0.5855  0.3905
  866MPD2    C212708   0.089   2.544  11.670 -0.3431 -0.1029 -0.3991
  866MPD2    C312709   4.683   2.491  11.679  0.1436 -0.1233  0.0437
  866MPD2    C412710   4.611   2.523  11.783 -0.2430  0.5969 -0.2807
  866MPD2    C512711   4.661   2.585  11.894  0.0286  0.1845  0.1859
  866MPD2     H12712   0.145   2.527  11.579 -2.7170 -2.6492 -1.3811
  866MPD2    H112713   4.512   2.480  11.793 -0.5235  1.1851 -0.5463
  866MPD2    H212714   0.106   2.677  11.974 -0.7668  1.5071 -0.3265
  866MPD2    H312715   4.598   2.589  11.982 -2.0415 -0.4083 -1.3001
  866MPD2     N12716   4.607   2.425  11.583 -0.1057 -0.0054 -0.5296
  866MPD2    H512717   4.510   2.401  11.602 -0.3441  0.4264 -1.2333
  866MPD2    N112718   0.273   2.663  11.773  0.4350 -0.0457 -0.5758
  866MPD2    H712719   0.297   2.739  11.835  0.1370  1.1350 -1.9061
  867MPD2     C12720   2.182   1.926  16.038  0.9835  0.0486  0.5020
  867MPD2    C112721   2.189   1.870  16.163 -0.2212  0.8835  0.0358
  867MPD2    C212722   2.159   1.957  16.270 -0.3282 -0.7941  0.1817
  867MPD2    C312723   2.125   2.088  16.247  0.4594  0.1308  0.2804
  867MPD2    C412724   2.103   2.135  16.123  0.3762  0.3520  0.1748
  867MPD2    C512725   2.141   2.055  16.015 -0.0601 -0.4641 -0.3327
  867MPD2     H12726   2.170   1.916  16.370  0.2520  1.2539  0.9593
  867MPD2    H112727   2.055   2.231  16.105  1.9181  1.3563  1.4224
  867MPD2    H212728   2.215   1.865  15.955  0.5133  1.1789 -0.5091
  867MPD2    H312729   2.126   2.086  15.912 -0.3709 -0.0439 -0.1626
  867MPD2     N12730   2.120   2.185  16.351  0.0682 -0.2503 -0.4104
  867MPD2    H512731   2.096   2.281  16.327  0.7036  0.3446  1.3268
  867MPD2    N112732   2.230   1.740  16.166 -0.5137 -0.1100  0.1489
  867MPD2    H712733   2.251   1.699  16.075  1.7506 -2.1473  1.5857
  868MPD2     C12734   0.442   0.933  13.463  0.8651 -0.3926 -0.1978
  868MPD2    C112735   0.407   0.933  13.327 -0.0963 -0.1449  0.5640
  868MPD2    C212736   0.312   1.031  13.297  0.6246  0.0576 -0.3141
  868MPD2    C312737   0.258   1.121  13.386 -0.1904 -0.4530 -0.1188
  868MPD2    C412738   0.289   1.109  13.519  0.1342  0.1051 -0.0336
  868MPD2    C512739   0.383   1.023  13.556 -0.0086 -0.5133  0.1218
  868MPD2     H12740   0.261   1.034  13.202  2.3578 -1.2381 -1.2910
  868MPD2    H112741   0.244   1.165  13.600  0.3392 -0.4682  0.4746
  868MPD2    H212742   0.516   0.865  13.501  1.4584 -0.3616 -1.2927
  868MPD2    H312743   0.420   1.038  13.656  0.7270  2.8250 -0.6429
  868MPD2     N12744   0.159   1.210  13.335 -0.6196 -0.1562 -0.0807
  868MPD2    H512745   0.137   1.203  13.236  2.0232 -1.5990 -0.5670
  868MPD2    N112746   0.471   0.845  13.231  0.3719  0.1337  0.1055
  868MPD2    H712747   0.540   0.782  13.272 -0.1238  0.1376  0.9447
  869MPD2     C12748   0.825   3.423   1.586  0.9006  0.0395 -0.6671
  869MPD2    C112749   0.703   3.362   1.576  0.1615 -0.0232 -0.3752
  869MPD2    C212750   0.601   3.434   1.517 -0.4555  0.6847 -0.2382
  869MPD2    C312751   0.621   3.559   1.458  0.2639 -0.3405  0.2653
  869MPD2    C412752   0.744   3.623   1.463 -0.4585  0.2706 -0.5573
  869MPD2    C512753   0.840   3.552   1.532  0.4819 -0.2826 -0.2358
  869MPD2     H12754   0.515   3.371   1.498 -0.3596  0.2583  0.7444
  869MPD2    H112755   0.752   3.717   1.410  0.3791  0.8956  0.6796
  869MPD2    H212756   0.910   3.360   1.612 -0.8395 -2.5343 -1.2175
  869MPD2    H312757   0.944   3.581   1.528  0.4412 -0.2249 -0.7930
  869MPD2     N12758   0.516   3.636   1.401 -0.0059 -0.1669  0.3362
  869MPD2    H512759   0.536   3.728   1.363  1.4800 -0.8603 -0.5663
  869MPD2    N112760   0.685   3.236   1.646  0.4903  0.5356 -0.0477
  869MPD2    H712761   0.764   3.189   1.688 -0.8878 -0.8705  1.0028
  870MPD2     C12762   4.225   2.679   1.751 -0.3010 -0.6363  0.1088
  870MPD2    C112763   4.320   2.654   1.660  0.0855 -0.1427 -1.3083
  870MPD2    C212764   4.294   2.682   1.527  0.4480  0.5482 -0.3344
  870MPD2    C312765   4.169   2.725   1.489  0.3773 -0.2212 -0.2278
  870MPD2    C412766   4.068   2.740   1.585  0.7194  0.4492 -0.2759
  870MPD2    C512767   4.102   2.717   1.718  0.5299  0.7067  1.0082
  870MPD2     H12768   4.362   2.640   1.454 -1.1904  0.0251 -1.5711
  870MPD2    H112769   3.965   2.772   1.574  0.1065 -0.7803  1.8680
  870MPD2    H212770   4.247   2.672   1.857 -0.2759  0.2614  0.1658
  870MPD2    H312771   4.025   2.733   1.792  2.0637 -0.8010  2.9421
  870MPD2     N12772   4.142   2.738   1.352  0.2921 -0.4618 -0.5717
  870MPD2    H512773   4.216   2.714   1.287  0.1278  1.0363 -1.2958
  870MPD2    N112774   4.445   2.615   1.702  0.4129 -0.9476 -0.2604
  870MPD2    H712775   4.451   2.576   1.796 -0.1491  0.0566  0.1930
  871MPD2     C12776   1.431   2.078  16.493 -0.8746 -0.1875  0.6018
  871MPD2    C112777   1.425   2.039  16.629 -0.0156  0.3826  0.0072
  871MPD2    C212778   1.429   1.903  16.649  0.3058 -0.5559  0.4832
  871MPD2    C312779   1.419   1.807  16.546 -0.1590 -0.2722 -0.1718
  871MPD2    C412780   1.410   1.854  16.417 -0.2406  0.1302  0.7657
  871MPD2    C512781   1.420   1.990  16.396 -0.2959 -0.7867 -0.0162
  871MPD2     H12782   1.429   1.861  16.748  0.0734  0.5929  0.9712
  871MPD2    H112783   1.407   1.800  16.323  2.2553  1.3847 -0.0468
  871MPD2    H212784   1.445   2.182  16.467  0.0175 -0.8312 -1.4658
  871MPD2    H312785   1.400   2.029  16.297 -0.4357  3.2709  1.5909
  871MPD2     N12786   1.405   1.670  16.576  0.6327 -0.4237  0.0636
  871MPD2    H512787   1.383   1.646  16.672 -1.5537 -2.8756 -1.0350
  871MPD2    N112788   1.442   2.143  16.728  0.3588  0.1945 -0.4938
  871MPD2    H712789   1.460   2.240  16.701 -2.5614  0.6653 -0.6600
  872MPD2     C12790   2.270   4.338  14.163  0.0270  0.0134 -0.4851
  872MPD2    C112791   2.212   4.460  14.136 -0.1210  0.4298  0.0675
  872MPD2    C212792   2.070   4.469  14.136  0.5995  0.4144 -0.3603
  872MPD2    C312793   1.998   4.362  14.180  0.2899  0.3272  0.0925
  872MPD2    C412794   2.060   4.245  14.221  0.3509  0.4189  0.1287
  872MPD2    C512795   2.194   4.231  14.207  0.0992  0.3205 -0.1058
  872MPD2     H12796   2.020   4.564  14.116 -0.2940  0.4018  1.8191
  872MPD2    H112797   2.006   4.156  14.250  2.8926 -0.7587  1.2945
  872MPD2    H212798   2.377   4.325  14.156 -0.0827 -0.2849 -1.5963
  872MPD2    H312799   2.251   4.143  14.236  0.2421  0.4441 -0.0125
  872MPD2     N12800   1.862   4.374  14.199 -0.4494  0.1487 -0.1051
  872MPD2    H512801   1.830   4.298  14.259  0.6035 -0.9687 -0.9661
  872MPD2    N112802   2.290   4.580  14.112  0.2511 -0.0440  0.1365
  872MPD2    H712803   2.232   4.664  14.109 -0.4735 -0.5612 -0.3591
  873MPD2     C12804   2.967   3.873   0.525 -0.0762 -0.6139 -0.2510
  873MPD2    C112805   2.919   3.878   0.655  0.4292 -0.0034 -0.2742
  873MPD2    C212806   2.877   3.761   0.716  0.8026  0.1302  0.4613
  873MPD2    C312807   2.891   3.637   0.655  0.3632  0.0674 -0.2611
  873MPD2    C412808   2.941   3.635   0.527 -0.2107  0.0265  0.2625
  873MPD2    C512809   2.979   3.755   0.465  0.2236  0.3297  0.0414
  873MPD2     H12810   2.828   3.765   0.813 -1.7047  1.4326 -0.8496
  873MPD2    H112811   2.941   3.546   0.465  0.8075 -1.0482  1.8177
  873MPD2    H212812   2.995   3.960   0.467  0.3763 -1.3514 -1.1370
  873MPD2    H312813   3.018   3.755   0.364  0.8969 -0.2516  0.3052
  873MPD2     N12814   2.842   3.511   0.710 -0.4715 -0.4401 -0.3936
  873MPD2    H512815   2.869   3.434   0.650  2.1297 -0.1240  0.3971
  873MPD2    N112816   2.917   3.997   0.723  0.4286 -0.3173 -0.4297
  873MPD2    H712817   2.930   4.079   0.664 -1.8444 -1.8577 -3.1207
  874MPD2     C12818   3.867   4.674  16.237  0.2321  0.0865 -0.1406
  874MPD2    C112819   3.885   4.630  16.366 -0.5122 -0.5854 -0.0631
  874MPD2    C212820   3.990   4.682  16.439  0.3357  0.0992  1.1680
  874MPD2    C312821   4.081   0.042  16.390  0.1074  0.1233 -0.4460
  874MPD2    C412822   4.061   0.093  16.260  0.5077  0.2563  0.4756
  874MPD2    C512823   3.950   0.046  16.190 -0.3009 -0.2354 -0.3559
  874MPD2     H12824   4.008   4.654  16.543 -0.5960 -0.6839  1.1231
  874MPD2    H112825   4.123   0.170  16.215 -1.5759  0.9169 -1.3088
  874MPD2    H212826   3.781   4.641  16.179  0.6685 -1.7115  0.2626
  874MPD2    H312827   3.933   0.073  16.086  2.1739  0.6948 -0.5164
  874MPD2     N12828   4.201   0.064  16.462 -0.7337  0.7992 -0.0002
  874MPD2    H512829   4.203   0.024  16.556 -1.2994  2.3977  0.6917
  874MPD2    N112830   3.791   4.532  16.411  0.1531 -0.3377  0.8042
  874MPD2    H712831   3.721   4.497  16.347  1.0628 -0.7783  0.0672
  875MPD2     C12832   4.581   3.010  14.493 -0.2717  0.3004  0.0411
  875MPD2    C112833   4.555   3.134  14.434  0.1158 -0.6354  0.0602
  875MPD2    C212834   4.580   3.248  14.505 -0.2640 -0.2533  0.1297
  875MPD2    C312835   4.605   3.228  14.643 -0.5867 -0.3092  0.1280
  875MPD2    C412836   4.602   3.105  14.703  0.8925  0.2229  0.1223
  875MPD2    C512837   4.577   2.992  14.623  0.4753  0.0947 -0.9188
  875MPD2     H12838   4.585   3.345  14.459 -1.8897 -0.7424 -1.0628
  875MPD2    H112839   4.650   3.104  14.800  0.2495 -1.9983  0.4104
  875MPD2    H212840   4.577   2.930  14.421 -1.1929 -0.6898  1.2000
  875MPD2    H312841   4.578   2.892  14.665  0.2868 -0.0084 -1.1618
  875MPD2     N12842   4.622   3.335  14.732  0.0946  0.2640 -0.4390
  875MPD2    H512843   4.606   3.312  14.830  3.3249  1.1761  0.2958
  875MPD2    N112844   4.530   3.154  14.295 -0.1732 -0.2764 -0.3931
  875MPD2    H712845   4.513   3.252  14.273  0.6508  0.0713  0.5169
  876MPD2     C12846   3.823   4.450  15.954 -0.1047 -0.0394 -0.7063
  876MPD2    C112847   3.916   4.378  15.877  0.3627  0.2674  0.0094
  876MPD2    C212848   3.936   4.245  15.908 -0.0265  0.3350  0.2740
  876MPD2    C312849   3.874   4.187  16.017  0.7844 -0.0779 -0.4119
  876MPD2    C412850   3.784   4.263  16.085 -0.2453 -0.2898 -0.0687
  876MPD2    C512851   3.752   4.392  16.052  0.3574  0.0475 -0.4359
  876MPD2     H12852   3.989   4.165  15.857 -2.1516 -0.0926 -1.2442
  876MPD2    H112853   3.728   4.218  16.166  0.2599 -2.6232 -1.0340
  876MPD2    H212854   3.816   4.555  15.929  0.1499  0.1722  0.1182
  876MPD2    H312855   3.683   4.443  16.118  0.6514  0.4350 -0.4236
  876MPD2     N12856   3.903   4.053  16.055  0.0248 -0.4481 -0.3224
  876MPD2    H512857   3.971   4.011  15.992 -2.1569  0.8249 -3.5389
  876MPD2    N112858   3.975   4.444  15.769 -0.2461 -0.5448 -0.5208
  876MPD2    H712859   3.938   4.537  15.751 -1.2279 -0.9014 -0.3414
  877MPD2     C12860   3.946   0.367  15.374 -0.0689 -0.7540 -0.3715
  877MPD2    C112861   3.906   0.255  15.309  0.2979  0.3949 -0.7228
  877MPD2    C212862   3.868   0.263  15.173 -0.3633  0.9150 -0.7155
  877MPD2    C312863   3.875   0.387  15.105  0.3454  0.0578  0.8403
  877MPD2    C412864   3.926   0.499  15.179  0.0436 -0.4826 -0.3958
  877MPD2    C512865   3.949   0.495  15.312  0.6071 -0.1632 -0.3091
  877MPD2     H12866   3.833   0.174  15.122 -1.4416  1.5625 -1.1078
  877MPD2    H112867   3.954   0.590  15.127  1.1829 -0.0164  1.0310
  877MPD2    H212868   3.982   0.360  15.476  1.6360 -0.1877 -0.9288
  877MPD2    H312869   3.992   0.579  15.364  1.4025 -1.3609  0.9808
  877MPD2     N12870   3.862   0.396  14.966  0.2690  0.4550  0.1174
  877MPD2    H512871   3.902   0.479  14.923  1.2685  0.2797  0.7245
  877MPD2    N112872   3.940   0.124  15.353  0.0563 -0.5387 -0.0889
  877MPD2    H712873   3.920   0.050  15.287 -0.8144 -0.1098 -0.3003
  878MPD2     C12874   3.172   3.410  13.531  0.0785 -0.1848  0.0548
  878MPD2    C112875   3.200   3.543  13.541 -0.4774  0.8111  0.7510
  878MPD2    C212876   3.234   3.587  13.668 -0.2770  0.3554  0.0139
  878MPD2    C312877   3.243   3.498  13.775 -0.1004  0.6588 -0.1358
  878MPD2    C412878   3.199   3.372  13.771  0.2096 -0.5170 -0.8732
  878MPD2    C512879   3.166   3.328  13.647 -0.2177 -0.4213 -0.7050
  878MPD2     H12880   3.257   3.689  13.695  0.2235  0.0171  0.8771
  878MPD2    H112881   3.190   3.305  13.855 -3.6207  2.1329  0.8573
  878MPD2    H212882   3.139   3.366  13.438 -1.3194  0.0901  0.4204
  878MPD2    H312883   3.131   3.226  13.641 -2.1608 -0.0473  4.0951
  878MPD2     N12884   3.265   3.567  13.898 -0.3225  0.3102 -0.0502
  878MPD2    H512885   3.264   3.669  13.890  1.0379  0.2774 -0.4764
  878MPD2    N112886   3.212   3.626  13.421 -0.1610 -0.1473  0.3525
  878MPD2    H712887   3.186   3.580  13.335  0.4549 -2.7139  1.5560
  879MPD2     C12888   3.790   0.507  17.352 -0.4905 -0.2621  0.2616
  879MPD2    C112889   3.763   0.409  17.446 -0.1363  0.3732  0.0076
  879MPD2    C212890   3.688   0.293  17.415  0.6467  0.5896  0.5112
  879MPD2    C312891   3.644   0.279  17.286  0.2083  0.8353 -0.2801
  879MPD2    C412892   3.683   0.374  17.192  0.2027  0.4065 -0.3713
  879MPD2    C512893   3.756   0.484  17.223 -0.1959 -0.3304  0.4240
  879MPD2     H12894   3.650   0.230  17.494  1.5734  2.0557  2.1100
  879MPD2    H112895   3.659   0.357  17.087  1.3068 -0.1907 -0.5184
  879MPD2    H212896   3.850   0.594  17.376  0.3137 -0.2953 -1.6227
  879MPD2    H312897   3.792   0.548  17.144  0.4043  0.2418  1.1611
  879MPD2     N12898   3.563   0.177  17.246 -0.4581 -0.3566 -0.3792
  879MPD2    H512899   3.522   0.189  17.154 -1.2148 -2.8198 -0.3594
  879MPD2    N112900   3.813   0.430  17.577 -0.6651 -0.2915 -0.5100
  879MPD2    H712901   3.853   0.522  17.592 -0.7296 -0.3163 -0.2002
  880MPD2     C12902   0.400   2.049   0.284  0.2675 -0.0432  0.5856
  880MPD2    C112903   0.368   2.064   0.418  0.1199 -0.2366  0.4047
  880MPD2    C212904   0.333   1.957   0.493 -0.6682  0.0148 -0.6028
  880MPD2    C312905   0.334   1.832   0.434 -0.0153  0.3820  0.6432
  880MPD2    C412906   0.353   1.819   0.296  0.1774  0.4118  0.5504
  880MPD2    C512907   0.387   1.926   0.223  0.3097  0.5498  0.4043
  880MPD2     H12908   0.310   1.974   0.598 -1.3962 -0.0460 -0.7509
  880MPD2    H112909   0.354   1.728   0.237  0.7264 -0.7304  2.3168
  880MPD2    H212910   0.439   2.136   0.233 -1.5878  1.3776  1.6091
  880MPD2    H312911   0.413   1.913   0.118 -1.1053 -3.5022  0.5313
  880MPD2     N12912   0.316   1.721   0.513  0.1245 -0.0425  0.5373
  880MPD2    H512913   0.296   1.733   0.611 -1.5544  1.9369 -0.0346
  880MPD2    N112914   0.371   2.194   0.476 -0.1943 -0.2342  0.3759
  880MPD2    H712915   0.388   2.276   0.417  1.0728 -0.3786  0.5461
  881MPD2     C12916   0.615   3.045   0.129  0.1886  0.5451 -0.1032
  881MPD2    C112917   0.605   2.910   0.104  0.4841 -0.0297  0.1014
  881MPD2    C212918   0.529   2.827   0.183 -0.2311 -0.2966  0.6227
  881MPD2    C312919   0.482   2.873   0.303 -0.5127  0.6612 -0.5376
  881MPD2    C412920   0.507   3.005   0.329 -0.1847  0.6406 -0.0645
  881MPD2    C512921   0.570   3.086   0.247  0.2013 -0.1809 -0.4625
  881MPD2     H12922   0.506   2.727   0.149 -0.7093 -0.2884  0.9125
  881MPD2    H112923   0.467   3.045   0.422 -1.5714  1.6411 -1.0993
  881MPD2    H212924   0.672   3.108   0.061  0.5380 -0.9297 -1.1706
  881MPD2    H312925   0.587   3.186   0.285  0.8322 -1.0794  1.6070
  881MPD2     N12926   0.415   2.789   0.395  0.1033  0.2237 -0.5164
  881MPD2    H512927   0.379   2.832   0.479 -0.6315  3.1458 -2.3390
  881MPD2    N112928   0.631   2.875  17.677  0.2167  0.5982  0.0915
  881MPD2    H712929   0.648   2.942  17.603  1.2648  0.7720  0.4969
  882MPD2     C12930   3.730   4.654  14.316 -0.0474 -0.6317 -0.1574
  882MPD2    C112931   3.636   0.003  14.371  0.7635 -0.0364 -0.3577
  882MPD2    C212932   3.506   4.693  14.371 -0.1044  0.2843  0.7134
  882MPD2    C312933   3.469   4.572  14.323 -0.3801  0.4138  0.3471
  882MPD2    C412934   3.563   4.479  14.276  0.3473  0.5796  0.7154
  882MPD2    C512935   3.693   4.530  14.270 -0.4863  0.9045 -0.5545
  882MPD2     H12936   3.434   0.032  14.417  1.2611  1.0534  1.7602
  882MPD2    H112937   3.540   4.382  14.234  2.1013  0.2100  0.6250
  882MPD2    H212938   3.830   4.695  14.303  0.0974 -0.7919  0.4020
  882MPD2    H312939   3.770   4.465  14.229 -1.0813  0.2059 -0.5566
  882MPD2     N12940   3.335   4.535  14.311 -0.2410  0.1959  0.0747
  882MPD2    H512941   3.335   4.437  14.282  0.2492 -0.3336  1.8719
  882MPD2    N112942   3.683   0.125  14.414 -0.6517 -0.1608  0.4499
  882MPD2    H712943   3.784   0.127  14.411 -0.7738  1.5361 -2.4571
  883MPD2     C12944   0.520   4.484  16.671 -0.3926  0.5516  0.2795
  883MPD2    C112945   0.623   4.517  16.582 -0.3450  0.0383 -0.3817
  883MPD2    C212946   0.681   4.644  16.583 -0.7806  0.5984 -0.5358
  883MPD2    C312947   0.627   0.021  16.664 -0.8330  0.3381  0.9816
  883MPD2    C412948   0.530   4.709  16.757  0.1009 -0.5778  0.9768
  883MPD2    C512949   0.471   4.585  16.756 -0.1239  0.7992 -0.2269
  883MPD2     H12950   0.758   4.668  16.511  0.4902  1.7414  1.2032
  883MPD2    H112951   0.482   0.058  16.818  0.8976  0.6819  0.0352
  883MPD2    H212952   0.461   4.393  16.671 -1.6176  1.3485 -0.2261
  883MPD2    H312953   0.386   4.567  16.821 -1.6019  0.8435 -2.1578
  883MPD2     N12954   0.681   0.155  16.651  0.5204 -0.2975  0.7930
  883MPD2    H512955   0.762   0.158  16.590  1.6891  0.0928  2.3591
  883MPD2    N112956   0.665   4.415  16.495 -0.3057 -0.0160 -0.0325
  883MPD2    H712957   0.620   4.325  16.506  0.3371 -0.1409  1.4231
  884MPD2     C12958   2.790   0.235  15.295 -0.3896  0.0420  0.0034
  884MPD2    C112959   2.763   0.362  15.247 -0.2130  0.3063  0.9556
  884MPD2    C212960   2.632   0.411  15.237  0.7091  0.0313 -0.2520
  884MPD2    C312961   2.524   0.334  15.279 -0.2738  0.0280 -0.1360
  884MPD2    C412962   2.552   0.210  15.327 -0.5402  0.7730  0.4733
  884MPD2    C512963   2.680   0.163  15.339  0.2839  0.3773 -0.4352
  884MPD2     H12964   2.604   0.501  15.185  3.2286  0.6619 -0.5132
  884MPD2    H112965   2.483   0.136  15.366  1.8122 -1.4012  0.4940
  884MPD2    H212966   2.888   0.197  15.321  0.4993  1.1848 -1.6541
  884MPD2    H312967   2.693   0.067  15.388  1.3906  0.0902 -1.2895
  884MPD2     N12968   2.395   0.378  15.250 -0.0964 -0.7102  0.0986
  884MPD2    H512969   2.387   0.476  15.226  1.8544 -0.9224 -1.4640
  884MPD2    N112970   2.863   0.448  15.201  0.0229 -0.0127  0.7984
  884MPD2    H712971   2.822   0.534  15.166 -1.2390 -0.9982 -0.1414
  885MPD2     C12972   0.408   0.712   0.557  0.4874 -0.0024  0.8302
  885MPD2    C112973   0.546   0.707   0.543  0.0361  0.1944  0.4742
  885MPD2    C212974   0.591   0.709   0.416 -0.1522  0.9229 -0.4093
  885MPD2    C312975   0.503   0.730   0.312 -0.4202  0.4818 -0.1134
  885MPD2    C412976   0.368   0.734   0.327 -0.1131 -0.3995  0.2884
  885MPD2    C512977   0.323   0.715   0.449  0.0933  0.3568  0.4078
  885MPD2     H12978   0.697   0.716   0.396  0.1482 -0.9335  0.6087
  885MPD2    H112979   0.305   0.766   0.245 -1.4258  0.3872  1.6213
  885MPD2    H212980   0.365   0.704   0.656 -0.7121  1.4266  0.4296
  885MPD2    H312981   0.216   0.719   0.470 -0.0300 -1.9267  0.1539
  885MPD2     N12982   0.566   0.746   0.187 -0.5530  0.3188  0.6197
  885MPD2    H512983   0.668   0.744   0.192 -0.5005 -1.0704 -1.4513
  885MPD2    N112984   0.623   0.681   0.656  0.3375 -0.0398 -0.0498
  885MPD2    H712985   0.569   0.683   0.742 -1.3828 -0.9721 -1.1141
  886MPD2     C12986   2.041   3.686  15.075 -0.2542  0.1242 -0.1809
  886MPD2    C112987   2.146   3.645  14.993 -0.1646 -0.3701 -0.4138
  886MPD2    C212988   2.187   3.724  14.886 -0.3349 -0.0620 -0.2462
  886MPD2    C312989   2.133   3.848  14.875 -0.9708  0.0050  0.5353
  886MPD2    C412990   2.030   3.883  14.958  0.5059  0.1141 -0.5422
  886MPD2    C512991   1.980   3.807  15.055  0.7140  0.0833  0.3522
  886MPD2     H12992   2.271   3.689  14.827  0.7530  0.9411  0.7144
  886MPD2    H112993   1.980   3.979  14.961 -2.1975 -1.3162 -0.0589
  886MPD2    H212994   2.001   3.626  15.156  2.7493  0.0818  1.2485
  886MPD2    H312995   1.895   3.830  15.117 -0.2382 -0.3473 -0.7919
  886MPD2     N12996   2.186   3.937  14.778 -0.1436 -0.4328 -0.3417
  886MPD2    H512997   2.152   4.032  14.786 -1.0262 -0.6928 -0.9836
  886MPD2    N112998   2.228   3.532  15.020  0.6962 -0.2186  0.0348
  886MPD2    H712999   2.303   3.513  14.955  0.9661  3.4745 -0.7501
  887MPD2     C13000   2.947   3.481  14.995 -0.8530  0.2484 -0.2280
  887MPD2    C113001   2.830   3.549  15.036  0.4181 -0.5019  0.0213
  887MPD2    C213002   2.837   3.687  15.039 -0.1849  0.5762  0.3143
  887MPD2    C313003   2.957   3.756  15.041 -0.0454  0.6147  1.1612
  887MPD2    C413004   3.072   3.683  15.006 -0.1298  0.2380  0.4796
  887MPD2    C513005   3.060   3.551  14.987  0.3174  0.2235 -0.1814
  887MPD2     H13006   2.745   3.740  15.063  0.5094  1.7667  0.3082
  887MPD2    H113007   3.172   3.725  14.999  0.0999  0.0631  2.9215
  887MPD2    H213008   2.957   3.375  14.981 -0.6770  0.4077 -1.2819
  887MPD2    H313009   3.136   3.482  14.951 -0.8380 -1.4230  0.5340
  887MPD2     N13010   2.952   3.887  15.087 -0.3468  0.0562  0.2616
  887MPD2    H513011   2.865   3.935  15.109 -1.1563 -0.0964 -2.5763
  887MPD2    N113012   2.706   3.485  15.058  0.4870  0.1242  0.0094
  887MPD2    H713013   2.627   3.549  15.053 -1.1729 -1.7248  2.6771
  888MPD2     C13014   0.908   4.630  15.599 -0.1516 -0.3488  0.3882
  888MPD2    C113015   0.781   4.625  15.576 -0.1730  0.8138 -0.6224
  888MPD2    C213016   0.724   4.723  15.495  0.1655 -0.2143 -0.1453
  888MPD2    C313017   0.802   0.096  15.434 -0.2961  0.0182 -0.1937
  888MPD2    C413018   0.936   0.092  15.460 -0.8823 -0.4898 -0.2138
  888MPD2    C513019   0.986   0.006  15.555 -0.3423  0.0047 -0.1289
  888MPD2     H13020   0.617   4.713  15.477 -0.1963  2.8769  0.2846
  888MPD2    H113021   1.011   0.162  15.426 -0.6142 -0.1437  1.1072
  888MPD2    H213022   0.955   4.579  15.682 -0.8410  0.7843  1.4699
  888MPD2    H313023   1.091   0.012  15.579  0.1645  2.0534 -2.9545
  888MPD2     N13024   0.741   0.182  15.341 -0.0560  0.3591  0.0058
  888MPD2    H513025   0.642   0.167  15.322 -0.0221 -0.4021  0.4618
  888MPD2    N113026   0.702   4.528  15.632  0.3025 -0.1239  0.4236
  888MPD2    H713027   0.601   4.535  15.622  0.4904  0.0995 -1.4451
  889MPD2     C13028   4.004   3.497  12.710  0.5417  0.2488  0.6724
  889MPD2    C113029   4.009   3.461  12.844 -0.3080 -0.1113  0.2294
  889MPD2    C213030   4.054   3.551  12.942  0.0054 -0.3053 -0.0689
  889MPD2    C313031   4.056   3.681  12.902  0.0048 -0.2208  0.0847
  889MPD2    C413032   4.051   3.720  12.772  0.5093 -1.0086  0.4591
  889MPD2    C513033   4.032   3.626  12.676  0.3777 -0.4816 -0.8259
  889MPD2     H13034   4.041   3.528  13.047 -0.5179 -1.2815 -0.3421
  889MPD2    H113035   4.080   3.821  12.744 -0.5514 -0.9906 -0.5772
  889MPD2    H213036   4.000   3.421  12.632  1.5830  0.6866  0.1998
  889MPD2    H313037   4.027   3.654  12.571 -0.1065  0.0246 -0.6710
  889MPD2     N13038   4.063   3.777  13.004  0.0169 -0.0031 -0.0997
  889MPD2    H513039   4.094   3.737  13.092  0.9565  1.8747  0.4088
  889MPD2    N113040   4.013   3.322  12.879  0.4540 -0.5867  0.3106
  889MPD2    H713041   4.042   3.287  12.970 -0.2438 -1.6153  0.1323
  890MPD2     C13042   3.461   0.875  15.056 -0.0804  0.3344  0.2686
  890MPD2    C113043   3.540   0.922  15.160 -0.0627  0.4985  0.6440
  890MPD2    C213044   3.592   0.832  15.247  0.6099 -0.3710 -0.0980
  890MPD2    C313045   3.554   0.696  15.249  0.1480  0.2356  0.3342
  890MPD2    C413046   3.463   0.653  15.153 -0.1668  0.7417  0.2695
  890MPD2    C513047   3.422   0.746  15.053  0.2929 -0.6970  0.4853
  890MPD2     H13048   3.665   0.868  15.318  0.0674  0.7175 -0.0935
  890MPD2    H113049   3.426   0.551  15.151 -2.6804  1.6596  0.7414
  890MPD2    H213050   3.430   0.941  14.976 -0.3747  1.1514  1.0632
  890MPD2    H313051   3.357   0.712  14.974  2.0171 -0.8665 -0.8746
  890MPD2     N13052   3.609   0.616  15.354 -0.3076 -0.1745 -0.4223
  890MPD2    H513053   3.668   0.664  15.421 -0.4371  1.5583 -1.5283
  890MPD2    N113054   3.567   1.057  15.154 -0.2248  0.5804  0.2873
  890MPD2    H713055   3.519   1.114  15.086 -1.5752 -0.2333  0.5489
  891MPD2     C13056   1.617   3.277  16.775 -0.9651  0.2381 -0.1716
  891MPD2    C113057   1.561   3.397  16.797 -0.2090 -0.4551  0.2004
  891MPD2    C213058   1.643   3.505  16.801  0.1254 -0.0887  0.2123
  891MPD2    C313059   1.776   3.500  16.771  0.6382 -0.0358  0.4688
  891MPD2    C413060   1.841   3.380  16.739  0.3043 -0.1666 -0.0266
  891MPD2    C513061   1.755   3.271  16.744  0.1158  0.4022  0.6381
  891MPD2     H13062   1.605   3.599  16.840  0.7259  0.1957  0.1123
  891MPD2    H113063   1.946   3.367  16.714  0.4916  0.0220  0.6757
  891MPD2    H213064   1.543   3.199  16.763 -0.7694 -0.1701  1.2254
  891MPD2    H313065   1.788   3.172  16.713  0.0939  0.6249 -0.1054
  891MPD2     N13066   1.847   3.620  16.788  0.3849  0.2014  0.2189
  891MPD2    H513067   1.797   3.691  16.840 -0.7393 -0.1733 -0.3687
  891MPD2    N113068   1.421   3.418  16.797  0.0856  0.4932 -0.2358
  891MPD2    H713069   1.353   3.354  16.758  1.8186 -1.4191 -0.1700
  892MPD2     C13070   2.659   0.173  14.917  0.8312  0.3760  0.4604
  892MPD2    C113071   2.584   0.079  14.848 -0.2183  0.0933 -0.0167
  892MPD2    C213072   2.646   0.016  14.741 -0.5337 -0.4724  0.3462
  892MPD2    C313073   2.782   0.037  14.713 -0.3990 -0.0079 -0.2369
  892MPD2    C413074   2.857   0.120  14.793 -0.1920  0.0388  0.4678
  892MPD2    C513075   2.795   0.193  14.892 -0.8119 -0.2463 -0.0199
  892MPD2     H13076   2.586   4.671  14.687  0.2103  0.4682 -1.7449
  892MPD2    H113077   2.962   0.133  14.771 -0.4617  2.7692  0.7723
  892MPD2    H213078   2.622   0.237  14.997 -0.7649 -0.2447  0.2082
  892MPD2    H313079   2.851   0.264  14.952 -0.2009 -0.6396 -0.1233
  892MPD2     N13080   2.848   4.691  14.612  0.3484  0.2391 -0.2128
  892MPD2    H513081   2.945   4.718  14.608  1.1871 -3.0839 -2.3768
  892MPD2    N113082   2.446   0.047  14.866 -0.1768  0.7406  0.4369
  892MPD2    H713083   2.414   4.688  14.822  1.1812  0.1798  0.5437
  893MPD2     C13084   3.905   3.120   1.997 -0.2371 -0.1931 -0.2105
  893MPD2    C113085   3.901   3.136   1.859 -0.1968  0.3620 -0.0962
  893MPD2    C213086   3.778   3.176   1.808  0.1917  0.8206 -0.1117
  893MPD2    C313087   3.663   3.176   1.880 -0.8005 -0.8182 -0.5065
  893MPD2    C413088   3.670   3.155   2.012 -0.0813 -0.0074 -0.2951
  893MPD2    C513089   3.790   3.132   2.069 -0.1793  0.2033 -0.1849
  893MPD2     H13090   3.768   3.198   1.702  0.2791 -0.9722 -0.4871
  893MPD2    H113091   3.586   3.163   2.079  0.3390 -0.7304  0.3204
  893MPD2    H213092   3.998   3.101   2.048 -0.8532 -0.2665  0.8906
  893MPD2    H313093   3.790   3.122   2.177  0.9209  0.5233 -0.1572
  893MPD2     N13094   3.537   3.207   1.832  0.4253 -0.4052 -0.2669
  893MPD2    H513095   3.460   3.204   1.898 -0.1000  0.4829 -0.8329
  893MPD2    N113096   4.026   3.122   1.786  0.2321 -0.1477  0.1725
  893MPD2    H713097   4.105   3.083   1.835 -0.0703 -1.4356 -0.3549
  894MPD2     C13098   2.396   1.098   0.693  0.6734  0.4944  0.3640
  894MPD2    C113099   2.400   1.136   0.825 -0.8738 -0.5206 -0.5660
  894MPD2    C213100   2.437   1.261   0.864 -0.6254  0.0241 -0.5007
  894MPD2    C313101   2.470   1.358   0.771 -0.2382  0.2480  0.1518
  894MPD2    C413102   2.473   1.321   0.640 -0.6458 -0.4578 -0.2130
  894MPD2    C513103   2.443   1.191   0.602 -0.2830 -0.6061  0.1480
  894MPD2     H13104   2.446   1.285   0.969 -0.1182  1.9708 -0.9809
  894MPD2    H113105   2.498   1.383   0.555  0.3012  1.3235  1.3652
  894MPD2    H213106   2.369   1.001   0.653 -1.1500  0.4413  1.7071
  894MPD2    H313107   2.448   1.158   0.499 -0.5965  0.4310 -0.2020
  894MPD2     N13108   2.505   1.492   0.821 -0.2486  0.0530 -0.5837
  894MPD2    H513109   2.501   1.510   0.921  0.6594 -2.2197 -0.1470
  894MPD2    N113110   2.373   1.056   0.938  0.3548  0.4820 -0.1126
  894MPD2    H713111   2.372   1.090   1.033  0.1337  0.0236  0.0499
  895MPD2     C13112   2.126   4.014  13.841  0.3735  0.3086 -0.1213
  895MPD2    C113113   2.040   3.987  13.739 -0.4153 -0.3543 -0.4152
  895MPD2    C213114   2.048   3.869  13.676 -0.0045  0.4287  0.3283
  895MPD2    C313115   2.136   3.768  13.719 -0.2578 -0.7674  0.0165
  895MPD2    C413116   2.220   3.793  13.825 -0.4016 -0.2950 -0.5157
  895MPD2    C513117   2.206   3.912  13.893 -0.2338 -0.7401 -0.1736
  895MPD2     H13118   1.995   3.856  13.582  1.0205  0.9083 -0.3169
  895MPD2    H113119   2.278   3.710  13.863 -0.5223  1.0619  2.6480
  895MPD2    H213120   2.116   4.100  13.906 -1.9424  0.3931 -0.5857
  895MPD2    H313121   2.268   3.931  13.980 -0.8520  2.0484 -0.3600
  895MPD2     N13122   2.153   3.647  13.658 -0.1648  0.0483 -0.6786
  895MPD2    H513123   2.203   3.574  13.708 -1.4139  0.1075  0.6783
  895MPD2    N113124   1.948   4.077  13.687  0.1929 -0.6959  0.1425
  895MPD2    H713125   1.891   4.044  13.610 -0.9378  1.6330 -0.0304
  896MPD2     C13126   3.989   1.356   1.539  0.1367 -0.3481  0.0870
  896MPD2    C113127   3.961   1.446   1.431 -0.4043 -0.2304 -0.3040
  896MPD2    C213128   3.845   1.422   1.354 -0.4803 -0.4991 -0.2512
  896MPD2    C313129   3.765   1.314   1.379  0.4316 -0.2969  0.5813
  896MPD2    C413130   3.799   1.220   1.473  0.7145 -0.1682 -0.2245
  896MPD2    C513131   3.913   1.247   1.552 -0.0174  0.2319  0.0396
  896MPD2     H13132   3.806   1.495   1.283 -1.0572 -0.9584 -0.4075
  896MPD2    H113133   3.735   1.137   1.502  0.1567 -0.3639 -1.9876
  896MPD2    H213134   4.067   1.370   1.613  1.0379 -2.0169 -0.5519
  896MPD2    H313135   3.913   1.171   1.629 -2.0000  2.6223  2.4106
  896MPD2     N13136   3.648   1.293   1.301 -0.3448  0.3819  0.6160
  896MPD2    H513137   3.637   1.364   1.229 -2.2599 -0.4916  0.0553
  896MPD2    N113138   4.056   1.549   1.400  0.3947  0.3643 -0.1178
  896MPD2    H713139   4.142   1.554   1.455  1.3205 -1.0718 -1.4155
  897MPD2     C13140   0.198   2.257  10.440 -0.4249 -0.2251 -0.2799
  897MPD2    C113141   0.229   2.383  10.408  0.7543 -1.1072  0.0376
  897MPD2    C213142   0.132   2.481  10.445 -0.3287 -0.6885 -0.2009
  897MPD2    C313143   0.008   2.444  10.510 -0.1324 -0.2506 -0.1214
  897MPD2    C413144   4.708   2.310  10.530  0.1687  0.2361  0.0590
  897MPD2    C513145   0.073   2.220  10.494  0.2945  0.2797 -0.1565
  897MPD2     H13146   0.138   2.584  10.412 -3.5990 -0.8003 -1.0971
  897MPD2    H113147   4.623   2.267  10.581 -0.7293 -0.8592 -2.3707
  897MPD2    H213148   0.260   2.173  10.412  1.1121  0.9942 -0.5196
  897MPD2    H313149   0.058   2.113  10.492 -1.1494  0.4261  2.8377
  897MPD2     N13150   4.651   2.545  10.560  0.5515 -0.2699 -0.2196
  897MPD2    H513151   4.695   2.636  10.562  0.4083 -0.1993 -0.2921
  897MPD2    N113152   0.357   2.410  10.348 -0.6649  0.0711  0.2927
  897MPD2    H713153   0.427   2.337  10.354 -1.4590 -0.5242  2.1179
  898MPD2     C13154   1.801   3.809  17.440  0.7755 -0.7529 -0.3293
  898MPD2    C113155   1.936   3.843  17.433  0.8384 -0.2670 -0.0428
  898MPD2    C213156   1.964   3.967  17.374  0.0827 -0.4079 -0.1986
  898MPD2    C313157   1.871   4.058  17.320 -0.3260 -0.5959  0.3446
  898MPD2    C413158   1.741   4.021  17.338  0.2856 -0.6374  0.0087
  898MPD2    C513159   1.710   3.898  17.395 -0.1762  0.8430  0.3105
  898MPD2     H13160   2.068   3.996  17.363 -0.0173 -0.2417 -0.7183
  898MPD2    H113161   1.665   4.095  17.316  1.1596  0.3225  0.2244
  898MPD2    H213162   1.762   3.722  17.491  2.2728 -0.9519  0.4628
  898MPD2    H313163   1.607   3.871  17.418  0.3260 -1.3889 -0.0704
  898MPD2     N13164   1.921   4.175  17.257 -0.3562  0.1748 -0.5058
  898MPD2    H513165   2.021   4.176  17.241 -0.4927  0.7008 -1.2990
  898MPD2    N113166   2.040   3.752  17.462 -0.0936  0.0973 -0.9891
  898MPD2    H713167   2.133   3.786  17.438 -0.6324  1.7502 -0.7415
  899MPD2     C13168   3.242   0.302  17.381 -0.0847 -0.9863  0.5016
  899MPD2    C113169   3.132   0.309  17.293 -0.6435 -0.2979  0.0743
  899MPD2    C213170   3.043   0.197  17.298  0.1003 -0.2409  0.1572
  899MPD2    C313171   3.067   0.087  17.379 -0.2419  0.0871 -0.6004
  899MPD2    C413172   3.177   0.080  17.455  0.2363 -0.7122 -0.4226
  899MPD2    C513173   3.264   0.190  17.466 -0.0373 -0.4119 -0.0069
  899MPD2     H13174   2.955   0.195  17.236 -0.9612  0.6740  1.6205
  899MPD2    H113175   3.198   4.717  17.512  1.7939  1.2422  2.0734
  899MPD2    H213176   3.313   0.382  17.399 -2.7666  2.3844 -4.0570
  899MPD2    H313177   3.355   0.189  17.525 -0.6355 -0.5320  0.9233
  899MPD2     N13178   2.988   4.692  17.383 -0.0623 -0.6003  0.3429
  899MPD2    H513179   3.031   4.622  17.443  1.4260  1.2223  1.4357
  899MPD2    N113180   3.108   0.422  17.217  0.2647  0.4932 -0.1283
  899MPD2    H713181   3.171   0.500  17.235  4.0364 -3.4163  3.7553
  900MPD2     C13182   2.824   1.751  12.599 -0.1728  0.2317 -0.6607
  900MPD2    C113183   2.772   1.624  12.604  0.1065 -0.5876  0.6695
  900MPD2    C213184   2.641   1.608  12.568  0.6370  0.3462 -0.1161
  900MPD2    C313185   2.566   1.706  12.507 -0.1374 -0.0324 -0.4120
  900MPD2    C413186   2.614   1.834  12.509  0.3335  0.1913 -0.4396
  900MPD2    C513187   2.744   1.849  12.551 -0.2211  0.0951  0.3015
  900MPD2     H13188   2.606   1.506  12.570  2.8908 -0.3846  2.3045
  900MPD2    H113189   2.549   1.920  12.496  0.2279 -0.0261 -1.3810
  900MPD2    H213190   2.922   1.777  12.638 -0.9985  1.8631  0.3163
  900MPD2    H313191   2.787   1.948  12.549  0.7162 -0.3217 -0.2840
  900MPD2     N13192   2.441   1.666  12.469 -0.0117  0.1702 -0.6131
  900MPD2    H513193   2.428   1.567  12.453 -1.6986  0.1121  1.0946
  900MPD2    N113194   2.859   1.517  12.644 -0.1142 -0.1082  0.2815
  900MPD2    H713195   2.959   1.531  12.640  0.0776 -2.2494 -1.9537
  901MPD2     C13196   2.964   0.484  13.016  0.2998 -0.0568  0.1941
  901MPD2    C113197   3.062   0.516  12.915  0.0107 -0.4784 -0.1815
  901MPD2    C213198   3.073   0.650  12.877  0.2057 -0.1520 -0.2466
  901MPD2    C313199   2.988   0.750  12.917 -0.1008  0.0870  0.0854
  901MPD2    C413200   2.895   0.717  13.016  0.0894  0.1540  0.6946
  901MPD2    C513201   2.890   0.589  13.064  0.0870  0.8102 -0.1389
  901MPD2     H13202   3.154   0.668  12.807  0.2190 -0.2988 -0.2696
  901MPD2    H113203   2.820   0.788  13.049  0.2261  1.2814 -1.3998
  901MPD2    H213204   2.935   0.382  13.037 -1.9950  0.2334 -1.5779
  901MPD2    H313205   2.806   0.563  13.128  0.6489 -0.6146  0.0272
  901MPD2     N13206   3.008   0.878  12.860  0.1765  0.4828 -0.0669
  901MPD2    H513207   3.077   0.877  12.785 -0.8144 -3.1073 -0.9452
  901MPD2    N113208   3.142   0.411  12.875  0.2909  0.0105 -0.1997
  901MPD2    H713209   3.128   0.326  12.927 -1.6387 -0.4337 -1.4245
  902MPD2     C13210   2.029   4.624  12.856  0.0485 -0.0563  0.2499
  902MPD2    C113211   1.985   4.597  12.732 -0.2751  0.7491  0.3508
  902MPD2    C213212   1.960   4.466  12.695  0.7006 -0.2953 -0.9010
  902MPD2    C313213   2.006   4.365  12.776  0.9260  0.0777 -0.0423
  902MPD2    C413214   2.058   4.399  12.901  0.0774 -0.0024  0.6561
  902MPD2    C513215   2.073   4.528  12.945  0.6059  0.4440 -0.6666
  902MPD2     H13216   1.927   4.439  12.596 -1.2233  1.6317 -0.7745
  902MPD2    H113217   2.095   4.319  12.964  0.6704 -0.0948  0.1835
  902MPD2    H213218   2.051   4.725  12.890  0.0949  0.7652 -2.2546
  902MPD2    H313219   2.124   4.559  13.035 -0.5740  0.5438 -0.0325
  902MPD2     N13220   1.993   4.234  12.727  0.9038  0.1831 -0.1922
  902MPD2    H513221   1.943   4.232  12.639 -0.9255 -0.4171  0.8706
  902MPD2    N113222   1.951   4.706  12.652 -0.0030  0.2826 -0.5772
  902MPD2    H713223   1.945   0.072  12.693 -1.8255  0.3689 -1.0595
  903MPD2     C13224   1.940   3.678  12.102 -0.2824  0.4283  0.3921
  903MPD2    C113225   1.868   3.748  12.201 -0.2464 -0.4750 -0.1462
  903MPD2    C213226   1.736   3.784  12.179  0.5123  0.3931  0.1750
  903MPD2    C313227   1.672   3.739  12.069  0.6249  0.2436 -0.3392
  903MPD2    C413228   1.741   3.662  11.974  0.0646 -0.3281  0.2643
  903MPD2    C513229   1.873   3.642  11.995 -0.3500 -0.2681  0.2248
  903MPD2     H13230   1.676   3.825  12.260 -0.6056 -1.7283  0.4148
  903MPD2    H113231   1.691   3.617  11.890 -0.9053 -0.5118  0.9398
  903MPD2    H213232   2.042   3.641  12.113 -0.4481 -0.3504 -0.7132
  903MPD2    H313233   1.918   3.590  11.911 -0.3025 -1.3909  0.9531
  903MPD2     N13234   1.535   3.765  12.073 -0.4938 -0.6608 -0.4741
  903MPD2    H513235   1.496   3.820  12.148  2.3880  0.4993  0.1403
  903MPD2    N113236   1.928   3.779  12.321  0.2560  0.1793  0.4499
  903MPD2    H713237   2.021   3.740  12.330  0.1810 -0.2299 -0.4627
  904MPD2     C13238   1.489   3.551  13.354  0.4283  0.0055  0.1341
  904MPD2    C113239   1.417   3.603  13.461  0.0212  0.2832  1.0501
  904MPD2    C213240   1.461   3.584  13.598 -0.4349  0.0421  0.2377
  904MPD2    C313241   1.587   3.532  13.620 -0.5695  0.1230 -0.5639
  904MPD2    C413242   1.662   3.487  13.510  0.2991  0.2511 -0.1592
  904MPD2    C513243   1.612   3.494  13.389  0.6609 -0.4582  0.0099
  904MPD2     H13244   1.407   3.619  13.685 -1.0403  1.7992 -0.8501
  904MPD2    H113245   1.760   3.443  13.522  0.5386  1.3333  1.7859
  904MPD2    H213246   1.453   3.541  13.252  2.8417 -0.8860 -0.6238
  904MPD2    H313247   1.676   3.452  13.312 -0.4361 -0.5591 -0.8387
  904MPD2     N13248   1.635   3.532  13.754 -0.1802  0.1673  0.0881
  904MPD2    H513249   1.565   3.564  13.820 -0.9361 -1.8486  0.2563
  904MPD2    N113250   1.300   3.681  13.434 -0.1192 -0.2842  0.4253
  904MPD2    H713251   1.255   3.650  13.348  0.4826  2.7633 -0.9848
  905MPD2     C13252   1.648   3.829  13.116 -0.2022 -0.6601 -0.1388
  905MPD2    C113253   1.691   3.827  13.245  0.0635  0.3208  0.0163
  905MPD2    C213254   1.793   3.751  13.287  0.0048  0.2104 -0.3954
  905MPD2    C313255   1.838   3.653  13.194 -0.0206 -0.1882 -0.1331
  905MPD2    C413256   1.788   3.647  13.067  0.4530 -0.6470  0.2279
  905MPD2    C513257   1.702   3.745  13.022  0.6450 -0.4866 -0.3654
  905MPD2     H13258   1.828   3.753  13.390 -2.2195 -2.1261  0.4097
  905MPD2    H113259   1.830   3.582  12.992 -0.6232  0.2838 -1.1883
  905MPD2    H213260   1.565   3.895  13.089 -0.3670  0.0029  1.9297
  905MPD2    H313261   1.675   3.742  12.917  2.0622 -3.8599 -0.6384
  905MPD2     N13262   1.947   3.572  13.231 -0.0264 -0.6357 -0.2331
  905MPD2    H513263   2.005   3.615  13.302 -2.0891 -0.9748  1.6203
  905MPD2    N113264   1.629   3.913  13.334  0.4217  0.4299 -0.1443
  905MPD2    H713265   1.549   3.960  13.293 -0.8876 -1.3164  0.4333
  906MPD2     C13266   3.823   3.413  11.538  0.8527  0.9454 -0.7021
  906MPD2    C113267   3.816   3.307  11.447 -0.8263  0.6992  0.8724
  906MPD2    C213268   3.748   3.192  11.484  0.1535  0.8743 -0.5431
  906MPD2    C313269   3.686   3.175  11.607  0.5357  0.1004  0.5519
  906MPD2    C413270   3.683   3.283  11.688  0.4070 -0.6314 -0.1507
  906MPD2    C513271   3.753   3.398  11.657 -0.0995 -0.1441  0.3783
  906MPD2     H13272   3.723   3.126  11.402  1.9217  0.7001 -0.9602
  906MPD2    H113273   3.636   3.281  11.786  1.7698  0.1083  0.5030
  906MPD2    H213274   3.882   3.502  11.519  0.4084  0.7681 -2.8933
  906MPD2    H313275   3.740   3.480  11.727  1.0813  0.2246  0.1782
  906MPD2     N13276   3.603   3.063  11.639  0.4107 -0.4649  0.4292
  906MPD2    H513277   3.542   3.072  11.719 -1.6443 -1.3189 -1.0602
  906MPD2    N113278   3.857   3.314  11.311  0.4839  0.1337 -0.0901
  906MPD2    H713279   3.826   3.236  11.255 -1.2925  0.2871  0.6767
  907MPD2     C13280   2.540   2.516  15.562  0.1186 -0.0648  0.0571
  907MPD2    C113281   2.598   2.398  15.519 -0.2504 -1.2808 -1.0750
  907MPD2    C213282   2.677   2.315  15.603  0.3504 -0.0830  0.0910
  907MPD2    C313283   2.713   2.364  15.723  0.4260  0.2993 -0.6247
  907MPD2    C413284   2.663   2.482  15.765  0.0012 -0.1593  0.8650
  907MPD2    C513285   2.575   2.553  15.689 -0.0628  0.7788  0.2551
  907MPD2     H13286   2.713   2.224  15.557 -0.9561 -0.4747 -0.1568
  907MPD2    H113287   2.702   2.525  15.856  2.5712 -2.4303  0.8585
  907MPD2    H213288   2.460   2.567  15.510  1.3989  0.3231 -1.5579
  907MPD2    H313289   2.526   2.640  15.731 -1.1574  0.8757 -1.2470
  907MPD2     N13290   2.791   2.286  15.797 -0.3349  0.3836 -0.3051
  907MPD2    H513291   2.837   2.213  15.744 -1.4993 -0.0718 -0.6760
  907MPD2    N113292   2.564   2.348  15.394  0.1526 -0.7098  0.0753
  907MPD2    H713293   2.588   2.253  15.364 -1.1441 -0.5168 -1.6096
  908MPD2     C13294   1.197   2.028   9.967 -0.0958 -0.5804 -0.1087
  908MPD2    C113295   1.070   2.020   9.917  0.0602  0.4192 -0.6779
  908MPD2    C213296   0.964   2.083   9.983  0.4705 -0.1445 -0.3890
  908MPD2    C313297   0.981   2.156  10.097 -0.3408 -0.4035 -0.3677
  908MPD2    C413298   1.105   2.151  10.153  0.5063  0.0283  0.3852
  908MPD2    C513299   1.209   2.091  10.085 -1.1837  0.0902  0.1928
  908MPD2     H13300   0.874   2.094   9.923 -1.6378 -0.5728  2.6351
  908MPD2    H113301   1.136   2.213  10.237 -1.8191 -1.4936  2.3817
  908MPD2    H213302   1.284   1.992   9.912 -0.8143 -0.0342 -1.6150
  908MPD2    H313303   1.306   2.113  10.130  0.3657 -1.4600 -2.3625
  908MPD2     N13304   0.893   2.258  10.149 -0.2173  0.0162  0.4070
  908MPD2    H513305   0.941   2.318  10.215  0.7185 -1.6905  1.2804
  908MPD2    N113306   1.051   1.951   9.791  0.6916  0.0368  0.0134
  908MPD2    H713307   1.131   1.922   9.735  2.2400  2.0559  1.1800
  909MPD2     C13308   0.770   0.903  11.705 -0.2450  0.0477  0.1072
  909MPD2    C113309   0.793   1.031  11.664  0.2140  0.0401 -0.2453
  909MPD2    C213310   0.738   1.133  11.742  0.0965  0.1815  0.4423
  909MPD2    C313311   0.666   1.119  11.857 -0.0727  0.5157  0.3099
  909MPD2    C413312   0.647   0.990  11.896  0.3325  0.1231 -0.3407
  909MPD2    C513313   0.693   0.880  11.819  0.4093 -0.7650  0.7223
  909MPD2     H13314   0.766   1.236  11.723 -2.4028  0.0014 -4.3299
  909MPD2    H113315   0.587   0.981  11.986 -0.6939 -0.5949 -1.0873
  909MPD2    H213316   0.805   0.813  11.656 -0.7532  0.6003 -1.2852
  909MPD2    H313317   0.671   0.780  11.853  2.1666 -1.1128  0.8441
  909MPD2     N13318   0.601   1.228  11.925 -0.2400 -0.8834  0.2280
  909MPD2    H513319   0.612   1.318  11.879 -1.1239 -0.7577  0.2765
  909MPD2    N113320   0.861   1.062  11.540  0.4157 -0.4425  0.1801
  909MPD2    H713321   0.875   1.160  11.515  1.3350 -1.0420 -1.6485
  910MPD2     C13322   2.004   2.859  15.851 -0.0493 -0.8991 -0.2053
  910MPD2    C113323   2.071   2.776  15.758  0.2440 -0.1878  0.3106
  910MPD2    C213324   2.072   2.811  15.619 -0.5803  0.1721 -0.2160
  910MPD2    C313325   2.006   2.928  15.579 -0.3186 -0.7676 -0.5025
  910MPD2    C413326   1.948   3.005  15.678 -0.2701  0.5731 -0.6223
  910MPD2    C513327   1.941   2.975  15.815  1.0011  0.7755 -0.7641
  910MPD2     H13328   2.123   2.745  15.549  0.6947  1.8078 -0.8497
  910MPD2    H113329   1.897   3.097  15.651 -0.5095  0.4285 -0.6660
  910MPD2    H213330   2.022   2.834  15.955 -0.0685 -1.9627 -0.4558
  910MPD2    H313331   1.906   3.053  15.883  1.9576  2.0169 -1.7127
  910MPD2     N13332   1.978   2.965  15.443 -0.1962 -0.2516  0.9425
  910MPD2    H513333   1.922   3.047  15.421  1.8109  0.6019 -1.1345
  910MPD2    N113334   2.150   2.664  15.801  0.1755 -0.0455  0.4782
  910MPD2    H713335   2.212   2.624  15.732 -0.4843  0.2901 -0.3117
  911MPD2     C13336   4.586   3.653  16.239  0.0742 -0.4429  0.0487
  911MPD2    C113337   4.625   3.757  16.322 -0.1564  0.1690 -0.5539
  911MPD2    C213338   4.582   3.882  16.291  0.6192  0.1759  0.3035
  911MPD2    C313339   4.509   3.901  16.174  0.5184  0.3515  0.9988
  911MPD2    C413340   4.471   3.795  16.098  0.2415  0.2999  0.7263
  911MPD2    C513341   4.528   3.673  16.122  0.3454  0.2241  0.3302
  911MPD2     H13342   4.598   3.966  16.357  0.1913  1.1431 -0.8185
  911MPD2    H113343   4.419   3.801  16.003  1.6602  0.4860 -0.0575
  911MPD2    H213344   4.616   3.554  16.270  0.1177 -0.1539  0.9355
  911MPD2    H313345   4.518   3.591  16.052  1.0163  0.1376  0.3273
  911MPD2     N13346   4.458   4.027  16.132  0.1816  0.5068 -0.3765
  911MPD2    H513347   4.378   4.020  16.070  0.3787 -2.0149 -0.3442
  911MPD2    N113348   4.691   3.722  16.443 -0.5169 -0.4995 -1.1652
  911MPD2    H713349   4.703   3.622  16.458 -0.7211 -0.6019 -1.7080
  912MPD2     C13350   4.288   3.848  15.570  0.6409  0.0363  0.9777
  912MPD2    C113351   4.249   3.871  15.704  0.4305  0.0706 -0.1197
  912MPD2    C213352   4.236   3.759  15.785  0.2388  0.1686  0.5641
  912MPD2    C313353   4.249   3.631  15.736  0.1571  0.9611 -0.1237
  912MPD2    C413354   4.270   3.606  15.602 -0.8827 -0.3287 -0.1392
  912MPD2    C513355   4.303   3.719  15.524 -0.5878  0.2462  0.6515
  912MPD2     H13356   4.222   3.775  15.892  1.5255 -0.2992  0.8103
  912MPD2    H113357   4.290   3.505  15.569 -1.4346  0.6924 -3.5805
  912MPD2    H213358   4.299   3.929  15.499 -0.9859  0.0173  0.7020
  912MPD2    H313359   4.326   3.709  15.418 -0.8778 -0.5312  0.6611
  912MPD2     N13360   4.250   3.521  15.821 -0.7284  0.1040 -0.1986
  912MPD2    H513361   4.238   3.546  15.919 -0.6202 -0.1325 -0.1251
  912MPD2    N113362   4.250   4.003  15.753 -0.5388  0.4568  0.1050
  912MPD2    H713363   4.255   4.070  15.677 -1.1934 -0.2525 -0.5654
  913MPD2     C13364   0.209   4.145   9.997 -0.2421  0.1107 -0.6339
  913MPD2    C113365   0.272   4.223  10.093  0.4307  1.2802  0.1387
  913MPD2    C213366   0.386   4.301  10.069 -0.1881  0.2350  0.1398
  913MPD2    C313367   0.431   4.295   9.938  0.7211 -0.2892  0.0243
  913MPD2    C413368   0.366   4.230   9.834  0.2924 -0.2402  0.1585
  913MPD2    C513369   0.253   4.155   9.865 -0.3015  0.3722 -0.1323
  913MPD2     H13370   0.433   4.368  10.140 -0.2324 -0.4944  0.8628
  913MPD2    H113371   0.402   4.233   9.732  1.6963 -0.3680  0.6534
  913MPD2    H213372   0.131   4.077  10.030  0.7044 -1.5241 -1.7313
  913MPD2    H313373   0.198   4.100   9.790  1.3394 -1.2598 -0.1375
  913MPD2     N13374   0.554   4.363   9.900 -0.0791 -0.0825  0.8289
  913MPD2    H513375   0.590   4.328   9.811  0.9836  0.5730  0.9909
  913MPD2    N113376   0.212   4.214  10.218 -0.1602 -0.9688 -0.1885
  913MPD2    H713377   0.144   4.140  10.230  0.2150 -0.9335  2.1345
  914MPD2     C13378   2.727   0.215  12.279  0.2724  0.1522 -0.3381
  914MPD2    C113379   2.808   0.327  12.310 -0.6958 -0.1788  0.4210
  914MPD2    C213380   2.913   0.302  12.382  0.5968  0.2315 -0.0744
  914MPD2    C313381   2.956   0.174  12.423 -0.3749  0.6479 -0.1199
  914MPD2    C413382   2.881   0.064  12.390  0.4048 -0.1465 -0.1263
  914MPD2    C513383   2.768   0.085  12.314  0.9114 -0.2114 -0.6123
  914MPD2     H13384   2.979   0.387  12.396 -0.3951  1.3887 -2.5271
  914MPD2    H113385   2.915   4.695  12.426  0.5782 -0.0914 -0.1415
  914MPD2    H213386   2.650   0.224  12.203  0.0319 -0.1885 -0.1359
  914MPD2    H313387   2.716   4.725  12.274  1.6636 -2.1943  2.6839
  914MPD2     N13388   3.082   0.174  12.489 -0.1824  0.0918  0.1629
  914MPD2    H513389   3.125   0.264  12.507 -1.8629  0.9642 -0.2029
  914MPD2    N113390   2.777   0.457  12.261  0.3038  0.2334  0.0855
  914MPD2    H713391   2.844   0.532  12.271 -1.3726  1.2832  3.3469
  915MPD2     C13392   1.150   0.759  15.749  0.2002  0.4539 -0.4178
  915MPD2    C113393   1.064   0.837  15.677  0.2493  0.2258  0.2585
  915MPD2    C213394   0.928   0.835  15.698 -0.5514  0.4059 -0.1135
  915MPD2    C313395   0.876   0.740  15.782  0.0037 -0.6071  0.1343
  915MPD2    C413396   0.960   0.658  15.857 -0.3509  0.2492  0.3433
  915MPD2    C513397   1.094   0.672  15.845  0.1981 -0.0061 -0.2352
  915MPD2     H13398   0.860   0.884  15.629 -1.9600 -0.1139  0.8948
  915MPD2    H113399   0.933   0.589  15.936  1.7147 -0.3577  0.5256
  915MPD2    H213400   1.257   0.771  15.741  0.3051  0.0685  0.3834
  915MPD2    H313401   1.165   0.621  15.909 -2.1393 -2.0512  0.7112
  915MPD2     N13402   0.738   0.737  15.807 -0.3331  0.4159 -0.2262
  915MPD2    H513403   0.677   0.788  15.745  0.1601 -0.3817 -1.3747
  915MPD2    N113404   1.133   0.912  15.575  0.2633  0.4627 -0.1580
  915MPD2    H713405   1.233   0.901  15.560  0.4274 -0.7295  1.8541
  916MPD2     C13406   3.800   3.749  15.557  0.8296  0.4949 -0.2242
  916MPD2    C113407   3.854   3.664  15.648 -0.1589 -0.0429 -0.4501
  916MPD2    C213408   3.926   3.557  15.601 -0.1404 -0.1239 -0.4954
  916MPD2    C313409   3.937   3.521  15.467  0.2177 -0.0393 -0.4158
  916MPD2    C413410   3.873   3.607  15.377 -0.2753 -0.5862  0.3155
  916MPD2    C513411   3.801   3.714  15.424  0.2048 -0.1399 -0.3892
  916MPD2     H13412   3.973   3.495  15.676 -1.9238 -2.8049 -1.5853
  916MPD2    H113413   3.880   3.599  15.270  1.9420  0.5437  0.3774
  916MPD2    H213414   3.757   3.839  15.599  0.2031 -0.9278  2.1990
  916MPD2    H313415   3.741   3.766  15.351 -0.0959  0.4000  0.2487
  916MPD2     N13416   4.024   3.418  15.425  0.9129  0.4950 -0.6510
  916MPD2    H513417   4.074   3.370  15.498  0.5319  1.1166  0.0211
  916MPD2    N113418   3.845   3.692  15.789 -0.0458 -0.2556 -0.0842
  916MPD2    H713419   3.821   3.785  15.821 -1.3510 -0.5391 -0.2256
  917MPD2     C13420   4.397   0.656  11.110  0.1390 -0.4769 -0.1498
  917MPD2    C113421   4.372   0.753  11.202  0.0296 -0.5499 -0.6502
  917MPD2    C213422   4.443   0.868  11.198  0.3538 -0.0194 -0.0148
  917MPD2    C313423   4.526   0.902  11.100  0.0542  0.6804  0.1037
  917MPD2    C413424   4.556   0.803  11.006 -0.2289 -0.6686  0.6642
  917MPD2    C513425   4.490   0.680  11.015  0.5277 -0.8502 -0.6848
  917MPD2     H13426   4.415   0.944  11.270 -3.4794 -0.6842 -0.8243
  917MPD2    H113427   4.614   0.828  10.919  0.5065  0.3766  1.4571
  917MPD2    H213428   4.336   0.568  11.124 -0.5325  0.0124  0.0168
  917MPD2    H313429   4.505   0.609  10.934 -2.5126 -0.9912 -1.1287
  917MPD2     N13430   4.585   1.031  11.086  1.0252 -0.2410 -0.5359
  917MPD2    H513431   4.669   1.038  11.030  1.3399 -1.5520 -0.2158
  917MPD2    N113432   4.293   0.740  11.318  0.2757  0.0991  0.4545
  917MPD2    H713433   4.316   0.814  11.384  3.3283  0.9259 -1.5176
  918MPD2     C13434   4.586   1.068  11.982  0.7106  0.2238 -0.0216
  918MPD2    C113435   4.633   0.951  11.920  0.7285 -0.3832 -0.6897
  918MPD2    C213436   4.554   0.858  11.866 -0.1246  0.2081 -0.0522
  918MPD2    C313437   4.416   0.888  11.863  0.7971  0.7896  0.1366
  918MPD2    C413438   4.371   1.003  11.925  0.5259 -0.7492  0.5278
  918MPD2    C513439   4.452   1.098  11.973 -0.2221 -0.5383  0.5212
  918MPD2     H13440   4.589   0.766  11.821 -1.1636 -0.3577  0.2811
  918MPD2    H113441   4.263   1.011  11.920  0.6004 -1.0584 -1.4643
  918MPD2    H213442   4.659   1.143  12.009 -0.2729  1.4247 -0.6723
  918MPD2    H313443   4.410   1.187  12.018  1.7539 -0.3112  1.8992
  918MPD2     N13444   4.322   0.791  11.799  0.0611 -1.1481  0.2078
  918MPD2    H513445   4.365   0.711  11.755  1.5201 -0.0241 -0.4453
  918MPD2    N113446   0.050   0.925  11.925 -0.4779 -0.1691  0.1473
  918MPD2    H713447   0.083   0.849  11.866 -1.7434  1.1059 -2.2329
  919MPD2     C13448   4.377   4.310  10.577 -0.3367 -0.0446 -0.1467
  919MPD2    C113449   4.381   4.169  10.580  0.1711  0.2661 -0.0521
  919MPD2    C213450   4.382   4.104  10.456 -0.7125 -0.3752  0.7776
  919MPD2    C313451   4.373   4.178  10.340 -0.1636  0.0395  0.6561
  919MPD2    C413452   4.385   4.316  10.341  0.5641  0.1632  0.2715
  919MPD2    C513453   4.389   4.380  10.463 -0.7174 -0.0022  0.0854
  919MPD2     H13454   4.384   3.996  10.447  0.1225 -0.2033 -1.0272
  919MPD2    H113455   4.383   4.381  10.254 -2.0656 -1.6558 -1.0219
  919MPD2    H213456   4.375   4.373  10.665  2.8970 -1.1891  0.7600
  919MPD2    H313457   4.361   4.485  10.466  1.8987  0.6700  0.6361
  919MPD2     N13458   4.353   4.122  10.204 -0.1213  0.6113  0.6021
  919MPD2    H513459   4.386   4.185  10.131  2.0796 -1.7389 -0.4385
  919MPD2    N113460   4.378   4.092  10.697 -0.0629 -0.3324  0.3882
  919MPD2    H713461   4.401   3.993  10.695 -1.5293 -0.6631  0.0675
  920MPD2     C13462   3.984   4.480   9.489 -0.0685  0.4236  0.3574
  920MPD2    C113463   3.919   4.456   9.606  0.5804  0.2573 -0.1239
  920MPD2    C213464   3.973   4.358   9.690 -0.3500 -0.6157  0.2939
  920MPD2    C313465   4.083   4.282   9.650 -0.4278 -0.0264  0.2200
  920MPD2    C413466   4.146   4.321   9.532  0.5078  0.5099 -0.3319
  920MPD2    C513467   4.094   4.417   9.446  0.0406  0.9028  0.3405
  920MPD2     H13468   3.935   4.349   9.791 -0.8837 -0.3873  0.1101
  920MPD2    H113469   4.230   4.268   9.489  0.5088 -1.0360  1.6015
  920MPD2    H213470   3.950   4.552   9.416  0.0093  0.8024  0.6932
  920MPD2    H313471   4.146   4.449   9.356 -0.2509 -0.1071 -0.1913
  920MPD2     N13472   4.148   4.192   9.741 -0.0449 -0.9866 -0.9140
  920MPD2    H513473   4.106   4.181   9.833  0.0005  0.8782 -0.6584
  920MPD2    N113474   3.809   4.522   9.658  0.1582  0.2419 -0.0358
  920MPD2    H713475   3.747   4.482   9.728  0.0445 -1.8340 -1.3322
  921MPD2     C13476   0.842   3.928  17.033 -0.3684  0.6527  0.7253
  921MPD2    C113477   0.852   3.867  16.906  0.0159  0.1858 -0.5695
  921MPD2    C213478   0.741   3.838  16.838 -0.5795  0.1237  0.0100
  921MPD2    C313479   0.616   3.856  16.899  0.2345 -0.5181 -0.1088
  921MPD2    C413480   0.605   3.919  17.027  0.3780 -0.0588  0.5287
  921MPD2    C513481   0.717   3.953  17.096  0.4044  0.0656  0.4930
  921MPD2     H13482   0.733   3.802  16.736  0.9343 -0.3111  0.0497
  921MPD2    H113483   0.515   3.938  17.085  0.7468 -0.6753  1.3088
  921MPD2    H213484   0.935   3.953  17.083  0.5836 -1.2463 -0.0946
  921MPD2    H313485   0.707   3.984  17.199  0.9377 -0.3803  0.6796
  921MPD2     N13486   0.507   3.801  16.832  0.2194 -0.0122 -0.2953
  921MPD2    H513487   0.527   3.762  16.741 -1.0602 -1.4595  0.0653
  921MPD2    N113488   0.979   3.856  16.841  0.3160 -0.8481 -0.4337
  921MPD2    H713489   1.057   3.907  16.881  0.1179  0.5061 -1.7531
  922MPD2     C13490   1.309   1.117  17.577 -0.3290 -0.8655 -0.6073
  922MPD2    C113491   1.291   1.258  17.561 -0.6863 -0.4831 -0.5701
  922MPD2    C213492   1.181   1.316  17.617  0.6466  0.2006  0.9775
  922MPD2    C313493   1.085   1.234  17.673 -0.1226 -0.0330 -0.1791
  922MPD2    C413494   1.098   1.102  17.690  0.3446 -0.1409 -0.1408
  922MPD2    C513495   1.216   1.047  17.651 -0.6948  0.5817 -0.5843
  922MPD2     H13496   1.160   1.421  17.598 -1.5229 -0.2185  1.0546
  922MPD2    H113497   1.028   1.037   0.033  0.9042 -0.2823  0.4560
  922MPD2    H213498   1.400   1.066  17.547  0.2093 -0.9340  1.1236
  922MPD2    H313499   1.227   0.940  17.669  2.1265  0.7626 -1.2944
  922MPD2     N13500   0.962   1.290  17.707 -0.5292 -0.5758  0.2933
  922MPD2    H513501   0.877   1.235   0.012 -0.3977 -0.8132  0.1421
  922MPD2    N113502   1.388   1.341  17.492  0.5557 -0.1380 -0.3063
  922MPD2    H713503   1.369   1.440  17.491  2.2582  0.2718  3.6393
  923MPD2     C13504   3.190   3.177   9.219 -0.0982 -0.7038 -0.4508
  923MPD2    C113505   3.079   3.175   9.303  0.1774  0.2913  0.0372
  923MPD2    C213506   3.090   3.208   9.438  0.2742  0.3152  0.2535
  923MPD2    C313507   3.211   3.246   9.494  0.4786 -0.6608  0.8845
  923MPD2    C413508   3.313   3.255   9.407 -0.8185  0.8262 -0.0512
  923MPD2    C513509   3.310   3.221   9.272  0.1388 -0.6368  0.1714
  923MPD2     H13510   2.998   3.202   9.495  1.5670 -1.2214  2.1944
  923MPD2    H113511   3.410   3.291   9.439 -0.8460 -1.0183  2.1694
  923MPD2    H213512   3.175   3.143   9.117 -0.8962 -1.5828 -0.0469
  923MPD2    H313513   3.388   3.216   9.198 -0.9457 -1.1347 -0.9416
  923MPD2     N13514   3.239   3.271   9.631 -0.1211  0.5354 -0.4262
  923MPD2    H513515   3.336   3.274   9.662 -1.1783 -0.8408  3.0028
  923MPD2    N113516   2.966   3.126   9.247 -0.2494 -0.4141  0.4880
  923MPD2    H713517   2.966   3.099   9.150 -0.2939 -2.4693  1.0572
  924MPD2     C13518   3.167   1.706  15.472  0.7752  0.1931 -0.1201
  924MPD2    C113519   3.132   1.660  15.598 -0.0565 -0.2332 -0.1260
  924MPD2    C213520   3.151   1.740  15.704 -0.7645  0.0689  0.8886
  924MPD2    C313521   3.187   1.873  15.694 -0.2369 -0.7150  0.4453
  924MPD2    C413522   3.233   1.910  15.568  1.0288  0.1481  0.0242
  924MPD2    C513523   3.228   1.829  15.459  0.0269  0.8352 -0.0046
  924MPD2     H13524   3.107   1.709  15.799  1.2496  0.0755  1.8410
  924MPD2    H113525   3.261   2.013  15.546  0.1809  0.9409  2.7082
  924MPD2    H213526   3.149   1.642  15.386  2.5984 -0.2306 -0.1825
  924MPD2    H313527   3.269   1.869  15.367 -1.1969 -0.2024 -0.9932
  924MPD2     N13528   3.172   1.975  15.793  0.3561  0.2482  0.3031
  924MPD2    H513529   3.220   2.060  15.766 -0.3315 -0.0828 -1.9618
  924MPD2    N113530   3.058   1.533  15.604 -0.2681  0.1560 -0.0172
  924MPD2    H713531   3.015   1.501  15.517 -0.8680  0.9687 -0.0074
  925MPD2     C13532   1.659   4.609  14.737  0.7887  0.1374 -0.0196
  925MPD2    C113533   1.608   4.484  14.709  0.4661 -0.1002 -0.0213
  925MPD2    C213534   1.572   4.403  14.813  0.1371  0.1372  0.3098
  925MPD2    C313535   1.572   4.453  14.941  0.0830 -0.6438  0.0120
  925MPD2    C413536   1.634   4.572  14.971  1.2994 -0.2848 -0.7670
  925MPD2    C513537   1.676   4.653  14.867 -0.3561  0.2897  0.3819
  925MPD2     H13538   1.511   4.316  14.793  1.8434 -1.0132  0.1615
  925MPD2    H113539   1.660   4.610  15.069  2.5127 -1.3979 -0.6470
  925MPD2    H213540   1.699   4.668  14.655 -0.5061  1.5400  0.3790
  925MPD2    H313541   1.728   0.020  14.886 -0.7515  0.3901  0.9639
  925MPD2     N13542   1.519   4.367  15.040 -0.4435 -0.8826 -0.1925
  925MPD2    H513543   1.503   4.269  15.019 -1.7267 -0.5377 -0.8269
  925MPD2    N113544   1.597   4.443  14.577  0.2591 -0.5334 -0.1161
  925MPD2    H713545   1.612   4.514  14.506 -0.9109 -0.8516 -0.6889
  926MPD2     C13546   0.739   3.131  13.271  0.1785 -0.3096 -1.0190
  926MPD2    C113547   0.639   3.145  13.172 -0.0968 -0.6566 -0.3189
  926MPD2    C213548   0.678   3.193  13.044  0.6325  0.2203 -0.8632
  926MPD2    C313549   0.812   3.235  13.024 -0.6529  0.3720 -0.0197
  926MPD2    C413550   0.912   3.209  13.117 -0.1527 -0.1296 -0.8249
  926MPD2    C513551   0.872   3.160  13.241 -0.0388 -0.0568 -0.1693
  926MPD2     H13552   0.606   3.196  12.963 -2.2064  0.7193  1.6869
  926MPD2    H113553   1.017   3.229  13.100 -0.1477  1.0685  0.6781
  926MPD2    H213554   0.723   3.075  13.362 -0.0982  0.7377 -0.4232
  926MPD2    H313555   0.945   3.128  13.314  0.5830  1.4406 -0.1388
  926MPD2     N13556   0.860   3.298  12.908 -0.2751  0.3528 -0.0896
  926MPD2    H513557   0.960   3.313  12.899 -0.4972  1.3883 -0.7442
  926MPD2    N113558   0.506   3.105  13.200  0.5261 -0.5995  0.3275
  926MPD2    H713559   0.437   3.121  13.128 -0.7565 -0.2439  1.6301
  927MPD2     C13560   4.279   0.744   0.197 -0.0331  0.1424  0.1082
  927MPD2    C113561   4.236   0.616   0.211 -0.4328 -0.4590  0.1877
  927MPD2    C213562   4.248   0.526   0.105 -0.2365 -0.1060  0.0210
  927MPD2    C313563   4.293   0.555  17.686  0.0725  0.3180  0.0787
  927MPD2    C413564   4.315   0.691  17.665 -0.4642  0.0722 -0.5171
  927MPD2    C513565   4.327   0.777   0.066 -0.1535 -0.0530  0.3043
  927MPD2     H13566   4.222   0.422   0.118  0.8510 -0.4035 -0.1412
  927MPD2    H113567   4.338   0.728  17.566  1.3040  2.2353  0.6772
  927MPD2    H213568   4.294   0.810   0.282  1.4970 -0.2393  0.1353
  927MPD2    H313569   4.345   0.883   0.052 -0.6844  0.0939  0.7548
  927MPD2     N13570   4.281   0.455  17.583  0.4038  0.0981  0.3326
  927MPD2    H513571   4.259   0.360  17.610 -0.5280  0.6179  1.4143
  927MPD2    N113572   4.197   0.583   0.339 -0.4806 -0.4466  0.0466
  927MPD2    H713573   4.197   0.660   0.405  0.2242  0.6477 -1.2188
  928MPD2     C13574   2.154   3.215   1.051 -0.2690  0.7200  0.2988
  928MPD2    C113575   2.151   3.350   1.041  0.0073 -0.4064  0.1079
  928MPD2    C213576   2.230   3.413   0.946 -0.0701  0.6287  0.3702
  928MPD2    C313577   2.314   3.338   0.855 -0.4861  0.9767 -0.2826
  928MPD2    C413578   2.304   3.199   0.862 -0.2002 -0.1357  0.2056
  928MPD2    C513579   2.230   3.139   0.964  0.1919 -0.1888  0.2250
  928MPD2     H13580   2.241   3.521   0.945 -0.4457  0.6670  0.1102
  928MPD2    H113581   2.360   3.134   0.795 -0.9424  1.5256 -2.0429
  928MPD2    H213582   2.104   3.163   1.131  1.5622 -0.9731  0.3386
  928MPD2    H313583   2.228   3.031   0.955 -2.3358 -0.1283 -0.0678
  928MPD2     N13584   2.402   3.399   0.760 -0.4864  0.4409 -1.4016
  928MPD2    H513585   2.427   3.350   0.674  1.8825  1.4463 -1.2764
  928MPD2    N113586   2.047   3.414   1.118  0.1703  0.9093  0.5687
  928MPD2    H713587   2.004   3.370   1.198  0.5226  0.9818  0.8012
  929MPD2     C13588   2.662   3.343   9.504  0.0491 -0.7693 -0.6885
  929MPD2    C113589   2.574   3.325   9.606 -0.9167 -0.5149 -0.4420
  929MPD2    C213590   2.439   3.337   9.582 -0.3194  0.2195 -0.3358
  929MPD2    C313591   2.390   3.367   9.453  0.6974 -0.0341 -0.2146
  929MPD2    C413592   2.481   3.404   9.357  0.4686 -0.6018 -0.1014
  929MPD2    C513593   2.614   3.388   9.383 -0.9508  0.2769 -0.4322
  929MPD2     H13594   2.363   3.336   9.659  0.2334  2.5524  0.2312
  929MPD2    H113595   2.447   3.440   9.261  1.1208 -0.0750 -0.1367
  929MPD2    H213596   2.770   3.345   9.516  0.0264  3.1953 -0.8720
  929MPD2    H313597   2.686   3.419   9.309 -0.3426  2.6339  1.1339
  929MPD2     N13598   2.248   3.384   9.432 -0.5557  0.5392 -0.3443
  929MPD2    H513599   2.216   3.444   9.357  0.3412 -1.9376 -2.7172
  929MPD2    N113600   2.626   3.295   9.733 -0.1264  0.3883 -0.0203
  929MPD2    H713601   2.727   3.304   9.728 -0.1419  0.6676  0.1180
  930MPD2     C13602   0.546   1.516  14.570 -0.0005  0.3164  0.2109
  930MPD2    C113603   0.470   1.575  14.472 -0.5280  0.9892  0.2425
  930MPD2    C213604   0.390   1.497  14.397  0.4583  0.4602 -0.6581
  930MPD2    C313605   0.388   1.360  14.396 -0.0713  0.1620 -0.1701
  930MPD2    C413606   0.480   1.302  14.476 -0.4949 -0.4346 -0.7323
  930MPD2    C513607   0.554   1.379  14.573  0.0156 -0.3000 -1.0013
  930MPD2     H13608   0.311   1.553  14.349  1.6012  2.2657 -0.4165
  930MPD2    H113609   0.490   1.194  14.481  1.6461 -0.1755  0.4821
  930MPD2    H213610   0.602   1.564  14.649  1.4372 -0.0161 -0.6072
  930MPD2    H313611   0.624   1.337  14.644  1.4031  1.8779 -1.0662
  930MPD2     N13612   0.310   1.284  14.305  0.4850 -0.4476  0.5600
  930MPD2    H513613   0.318   1.183  14.316  2.5943 -0.3386 -0.0483
  930MPD2    N113614   0.459   1.712  14.468  0.4026 -0.3816 -0.4446
  930MPD2    H713615   0.492   1.767  14.546  1.1142  0.0673 -1.0536
  931MPD2     C13616   4.336   4.631   0.660  0.4572 -0.5645  0.2510
  931MPD2    C113617   4.225   4.679   0.727  0.2224  0.4303 -0.1547
  931MPD2    C213618   4.165   4.592   0.823 -0.3297  0.3291  0.8838
  931MPD2    C313619   4.215   4.466   0.847 -0.0721  0.6322  0.1385
  931MPD2    C413620   4.326   4.434   0.781 -0.0381  0.3018  0.5659
  931MPD2    C513621   4.389   4.512   0.689 -0.1832 -0.7117  0.5193
  931MPD2     H13622   4.092   4.640   0.888  1.0078  0.7642  2.0603
  931MPD2    H113623   4.380   4.347   0.818 -0.7048 -0.0962  0.6128
  931MPD2    H213624   4.385   4.695   0.588  1.6961 -1.8427 -0.0486
  931MPD2    H313625   4.483   4.483   0.643  0.4254  0.0773  1.2856
  931MPD2     N13626   4.161   4.383   0.949 -0.4641 -0.5287 -0.0009
  931MPD2    H513627   4.210   4.296   0.968 -0.0712 -0.3849 -0.3351
  931MPD2    N113628   4.190   0.084   0.694  0.4361 -0.2340 -0.9735
  931MPD2    H713629   4.246   0.125   0.620  0.8431  1.7022  0.4021
  932MPD2     C13630   1.607   3.598  11.562 -0.4304 -0.2796 -0.3323
  932MPD2    C113631   1.723   3.672  11.556 -0.0768 -0.1728 -0.6806
  932MPD2    C213632   1.843   3.612  11.595  0.2102 -0.0422  0.1551
  932MPD2    C313633   1.854   3.475  11.638 -0.0502 -0.6132 -0.1230
  932MPD2    C413634   1.733   3.403  11.626 -0.6594  0.8033  0.1146
  932MPD2    C513635   1.615   3.463  11.587 -0.4648  0.8706 -0.3751
  932MPD2     H13636   1.927   3.681  11.597 -0.2494  0.4655  1.7807
  932MPD2    H113637   1.730   3.296  11.639  0.3873  0.9041  1.1815
  932MPD2    H213638   1.511   3.637  11.529 -1.0955 -1.6805 -0.0434
  932MPD2    H313639   1.525   3.403  11.581  0.7663 -1.0891  0.9440
  932MPD2     N13640   1.970   3.414  11.696 -0.1700  0.5432 -0.1615
  932MPD2    H513641   1.960   3.320  11.733  0.3591  0.7390  0.4720
  932MPD2    N113642   1.729   3.804  11.499  0.5758 -0.4624  0.2095
  932MPD2    H713643   1.810   3.864  11.515 -1.3268  1.3467  3.1082
  933MPD2     C13644   1.663   4.100   1.588 -0.1109  0.7328  0.6572
  933MPD2    C113645   1.703   4.092   1.461  0.3381 -0.0070 -0.5632
  933MPD2    C213646   1.651   4.183   1.367 -0.0202 -0.4766  0.2060
  933MPD2    C313647   1.567   4.291   1.399 -0.2470  0.0625  0.4062
  933MPD2    C413648   1.522   4.296   1.525  0.4390 -0.2682 -0.7882
  933MPD2    C513649   1.576   4.205   1.617 -0.3293 -0.1158 -0.3783
  933MPD2     H13650   1.695   4.169   1.269  1.5693 -1.2798  1.0296
  933MPD2    H113651   1.457   4.374   1.564  0.9116  1.0626 -2.6711
  933MPD2    H213652   1.694   4.037   1.670  1.4191 -0.4713 -0.8358
  933MPD2    H313653   1.550   4.226   1.721  2.6541  0.2408  0.2814
  933MPD2     N13654   1.538   4.381   1.297  0.3980  0.2044  0.0047
  933MPD2    H513655   1.590   4.377   1.210  0.7241 -1.2099  0.2591
  933MPD2    N113656   1.803   3.988   1.427 -0.6407 -0.5609 -0.1129
  933MPD2    H713657   1.833   3.937   1.509  3.3540  1.2968 -0.4127
  934MPD2     C13658   3.872   0.688   1.406 -0.3162 -0.1776  0.5924
  934MPD2    C113659   3.812   0.771   1.495  0.3806 -0.0691 -0.2933
  934MPD2    C213660   3.677   0.798   1.493  0.0794  1.1910 -0.4440
  934MPD2    C313661   3.604   0.744   1.387  0.5369 -0.0248 -0.9101
  934MPD2    C413662   3.664   0.657   1.298 -0.0051  0.3732 -0.2075
  934MPD2    C513663   3.796   0.628   1.310 -0.2008  0.1455  0.1688
  934MPD2     H13664   3.630   0.867   1.561 -2.5724 -0.3684 -0.7016
  934MPD2    H113665   3.608   0.609   1.218 -1.5476  0.6044  0.7525
  934MPD2    H213666   3.977   0.661   1.402 -0.0652  0.6983  1.3934
  934MPD2    H313667   3.840   0.550   1.249  0.7219  1.1613 -0.4678
  934MPD2     N13668   3.468   0.765   1.366 -0.2610 -0.2442 -0.2318
  934MPD2    H513669   3.423   0.724   1.285  1.2910  0.7093 -1.5728
  934MPD2    N113670   3.884   0.832   1.599  0.5692  1.1046  0.1050
  934MPD2    H713671   3.831   0.888   1.664  1.7373  2.4989 -0.1306
  935MPD2     C13672   2.751   0.452   0.785 -0.0746 -0.0406 -0.0582
  935MPD2    C113673   2.881   0.417   0.821 -0.2684 -0.4846  0.0345
  935MPD2    C213674   2.943   0.499   0.916 -0.0362  0.0913 -0.3546
  935MPD2    C313675   2.875   0.604   0.974  0.6471  1.1201  0.8873
  935MPD2    C413676   2.746   0.635   0.933 -0.4195  0.1815  0.7319
  935MPD2    C513677   2.690   0.561   0.830  0.1054 -0.8602 -0.4132
  935MPD2     H13678   3.044   0.472   0.946  0.4593  1.3866 -0.8330
  935MPD2    H113679   2.680   0.711   0.972  1.4151  2.0829  0.0919
  935MPD2    H213680   2.676   0.408   0.720 -1.0228 -0.1771  1.1220
  935MPD2    H313681   2.585   0.567   0.805 -0.1757 -1.7400  0.5763
  935MPD2     N13682   2.937   0.687   1.067 -0.2304 -0.6724 -0.1590
  935MPD2    H513683   2.881   0.760   1.111  0.7559 -0.1580  0.2485
  935MPD2    N113684   2.946   0.309   0.758  0.3364 -0.5198 -0.4528
  935MPD2    H713685   2.891   0.261   0.687  2.8832 -2.7949 -0.8688
  936MPD2     C13686   2.434   2.215  12.963  0.0939  0.5858 -0.3390
  936MPD2    C113687   2.427   2.258  13.097  0.0639  0.1792  0.3033
  936MPD2    C213688   2.550   2.291  13.150  0.2853 -0.4402  1.0941
  936MPD2    C313689   2.676   2.269  13.093 -0.0179 -0.9862 -0.6769
  936MPD2    C413690   2.676   2.230  12.961 -0.3939 -0.7417 -0.8027
  936MPD2    C513691   2.555   2.200  12.904  0.7086  0.0206  0.0396
  936MPD2     H13692   2.550   2.344  13.245  1.0336  0.1052  0.7877
  936MPD2    H113693   2.769   2.217  12.907  1.3398  0.0391  2.0063
  936MPD2    H213694   2.345   2.200  12.903  0.6708 -2.3622 -0.4609
  936MPD2    H313695   2.556   2.176  12.798  0.2153 -1.5086  0.3824
  936MPD2     N13696   2.800   2.285  13.147 -0.1862 -0.6827  0.6258
  936MPD2    H513697   2.881   2.276  13.086  0.0041 -1.2916  0.9583
  936MPD2    N113698   2.310   2.279  13.179 -0.0604  0.3479  0.1149
  936MPD2    H713699   2.324   2.298  13.278  2.1583 -0.5887 -0.0143
  937MPD2     C13700   4.580   3.469  10.855 -0.2654  0.4558  0.3322
  937MPD2    C113701   4.658   3.580  10.861  0.3600 -0.1506  0.2186
  937MPD2    C213702   0.035   3.597  10.773 -0.0655  0.2907 -0.2102
  937MPD2    C313703   0.080   3.485  10.705  0.6956  0.3068  0.2112
  937MPD2    C413704   0.005   3.368  10.708 -0.6334  0.3371 -0.3203
  937MPD2    C513705   4.626   3.358  10.791 -0.1006  0.1918 -1.1797
  937MPD2     H13706   0.077   3.697  10.775 -0.5027  0.4981 -1.4861
  937MPD2    H113707   0.039   3.278  10.658  1.6000  1.1479 -0.2498
  937MPD2    H213708   4.483   3.465  10.901 -0.2080 -3.2714  0.0877
  937MPD2    H313709   4.565   3.268  10.795  0.0039  0.2779  2.6548
  937MPD2     N13710   0.199   3.493  10.631  0.7972 -0.4672 -0.4518
  937MPD2    H513711   0.245   3.582  10.614 -0.2745  0.5779  1.9621
  937MPD2    N113712   4.603   3.703  10.911  0.2168 -0.9636 -0.0094
  937MPD2    H713713   4.670   3.779  10.908 -0.9087 -0.0065 -0.9346
  938MPD2     C13714   2.352   0.373   0.619 -0.5393 -0.2400  0.0084
  938MPD2    C113715   2.341   0.504   0.664 -0.3044  0.0272  0.8733
  938MPD2    C213716   2.262   0.533   0.781  0.0973  0.4048  0.3464
  938MPD2    C313717   2.199   0.425   0.853  0.2802 -0.1770  0.0194
  938MPD2    C413718   2.227   0.295   0.801 -0.6418  0.2049  0.0683
  938MPD2    C513719   2.300   0.269   0.690 -0.9885 -0.0131 -0.2077
  938MPD2     H13720   2.259   0.631   0.825 -0.3589  0.5836 -0.0876
  938MPD2    H113721   2.191   0.207   0.852 -0.2053 -1.0623 -1.8420
  938MPD2    H213722   2.404   0.351   0.526 -1.4026 -0.1476 -0.4967
  938MPD2    H313723   2.311   0.168   0.652 -0.5010 -0.3224  0.7708
  938MPD2     N13724   2.120   0.444   0.971  0.3016 -0.1294  0.4643
  938MPD2    H513725   2.088   0.364   1.023  0.0148 -0.3789 -0.0914
  938MPD2    N113726   2.402   0.609   0.605  0.1732  0.1399 -0.2662
  938MPD2    H713727   2.383   0.701   0.644  0.5927  0.6112 -1.1638
  939MPD2     C13728   3.934   2.591   0.564  0.3040 -0.3959 -0.5287
  939MPD2    C113729   3.995   2.513   0.662  0.0335  0.0658 -0.4240
  939MPD2    C213730   4.104   2.438   0.621 -0.7058  0.2285  0.1889
  939MPD2    C313731   4.165   2.456   0.500 -0.3066 -0.2794 -0.3293
  939MPD2    C413732   4.115   2.539   0.411 -0.7161  0.1602 -0.7129
  939MPD2    C513733   3.996   2.599   0.442 -0.2910  0.7010  0.6384
  939MPD2     H13734   4.145   2.364   0.689  0.5190  1.3079  0.6177
  939MPD2    H113735   4.157   2.554   0.312  0.8028  3.9318  0.5133
  939MPD2    H213736   3.841   2.647   0.570  0.6728  0.2517 -0.8544
  939MPD2    H313737   3.958   2.661   0.361 -0.7880  1.0979  1.1762
  939MPD2     N13738   4.278   2.383   0.483  0.5778  0.5681  0.1854
  939MPD2    H513739   4.311   2.331   0.564 -3.6267 -0.7100  1.1114
  939MPD2    N113740   3.938   2.515   0.790  0.1013 -0.4528  0.5154
  939MPD2    H713741   3.852   2.569   0.795  2.6751  3.4248  2.7745
  940MPD2     C13742   3.338   2.677  13.592 -0.5400  0.5376  0.5124
  940MPD2    C113743   3.267   2.588  13.513 -0.1298 -0.0567  0.2985
  940MPD2    C213744   3.259   2.618  13.373  0.3893 -0.5091  0.3673
  940MPD2    C313745   3.340   2.713  13.312 -0.3793  0.0944  0.8706
  940MPD2    C413746   3.410   2.795  13.399  0.0883 -0.0209 -0.8120
  940MPD2    C513747   3.413   2.778  13.529  0.1736 -0.6283  0.2759
  940MPD2     H13748   3.196   2.555  13.311 -0.6444  0.3594  0.5301
  940MPD2    H113749   3.472   2.873  13.355 -0.3306  1.6651  1.5970
  940MPD2    H213750   3.332   2.676  13.700 -0.5558 -1.1155  0.4965
  940MPD2    H313751   3.472   2.853  13.580 -0.7089 -0.6683  1.3631
  940MPD2     N13752   3.336   2.745  13.175  0.1681  0.3125 -0.3697
  940MPD2    H513753   3.382   2.831  13.147 -2.8692  2.5287  1.4569
  940MPD2    N113754   3.199   2.474  13.558 -0.2910 -0.3200  0.2881
  940MPD2    H713755   3.143   2.424  13.491  1.2535 -0.6181 -0.7694
  941MPD2     C13756   2.833   1.208   9.297 -0.4909 -0.1216 -0.0156
  941MPD2    C113757   2.781   1.319   9.358  0.6971 -0.2771  0.1453
  941MPD2    C213758   2.703   1.305   9.467 -0.4839 -0.0446  0.1967
  941MPD2    C313759   2.663   1.178   9.510 -0.2714  0.6549 -0.3056
  941MPD2    C413760   2.702   1.071   9.439 -0.2362 -0.2389  0.0715
  941MPD2    C513761   2.792   1.088   9.336  0.2574  0.6801  0.1817
  941MPD2     H13762   2.680   1.393   9.526  1.1596  0.2726  0.3480
  941MPD2    H113763   2.686   0.972   9.479  1.5773 -1.2101 -1.6234
  941MPD2    H213764   2.895   1.227   9.210  0.2696 -2.9140 -0.0743
  941MPD2    H313765   2.833   1.002   9.284  0.1535  0.0979  1.0720
  941MPD2     N13766   2.586   1.159   9.627 -0.8171 -0.1745  0.2335
  941MPD2    H513767   2.573   1.060   9.646 -2.6002 -0.3821 -2.0717
  941MPD2    N113768   2.811   1.453   9.321 -0.4580  0.6162  0.2829
  941MPD2    H713769   2.757   1.534   9.351 -0.7515  0.1500  1.0059
  942MPD2     C13770   2.498   2.725   9.470 -0.4018  0.0169  0.0438
  942MPD2    C113771   2.506   2.653   9.358 -0.4231 -0.1712 -0.6528
  942MPD2    C213772   2.631   2.624   9.304 -0.3922  0.3942 -0.0343
  942MPD2    C313773   2.745   2.663   9.370 -0.5356 -0.4985  0.5678
  942MPD2    C413774   2.734   2.733   9.487  0.4028 -0.0063 -0.6043
  942MPD2    C513775   2.610   2.755   9.539  0.9365 -0.0462  0.3109
  942MPD2     H13776   2.632   2.560   9.217  3.1265  2.1768 -1.2916
  942MPD2    H113777   2.823   2.757   9.545  1.2066 -3.5297 -0.3488
  942MPD2    H213778   2.399   2.745   9.509 -0.4214  1.0518 -0.5445
  942MPD2    H313779   2.597   2.795   9.639  1.9550  1.0550  0.0057
  942MPD2     N13780   2.878   2.632   9.325  0.5249 -0.4010 -0.1381
  942MPD2    H513781   2.956   2.657   9.384  0.2088 -0.7688  0.4388
  942MPD2    N113782   2.393   2.604   9.283  0.0793 -0.1845 -0.1821
  942MPD2    H713783   2.422   2.560   9.196 -0.7006 -1.3790  0.1504
  943MPD2     C13784   1.320   1.055   9.052  0.2480  1.0595  0.3899
  943MPD2    C113785   1.273   0.948   9.115 -0.6938  0.4542 -0.2293
  943MPD2    C213786   1.166   0.876   9.058  0.1176  0.1121 -0.1910
  943MPD2    C313787   1.096   0.919   8.946 -0.4748  0.4217  0.1489
  943MPD2    C413788   1.148   1.030   8.890  0.2372 -0.0539  0.5733
  943MPD2    C513789   1.259   1.100   8.936  0.0479  0.3658 -0.2894
  943MPD2     H13790   1.131   0.791   9.115  0.9126  0.7605  1.2436
  943MPD2    H113791   1.106   1.068   8.797  0.9219  0.5421  0.5058
  943MPD2    H213792   1.404   1.113   9.089 -0.1577  0.0252  2.9301
  943MPD2    H313793   1.295   1.184   8.878  0.4743  0.0121 -0.5430
  943MPD2     N13794   0.984   0.854   8.897 -0.0162 -0.4466 -0.6183
  943MPD2    H513795   0.938   0.892   8.814 -0.6053 -1.9762 -0.9826
  943MPD2    N113796   1.343   0.896   9.229  0.5291 -1.2036  0.5363
  943MPD2    H713797   1.405   0.962   9.273 -1.1264 -0.1688  1.3343
  944MPD2     C13798   0.297   4.170  10.950 -0.3839 -0.6115 -0.1720
  944MPD2    C113799   0.383   4.247  10.871 -0.2787  0.2807  0.0857
  944MPD2    C213800   0.433   4.362  10.928 -0.4236 -0.2252  0.3733
  944MPD2    C313801   0.390   4.400  11.050  0.6734  0.3676 -0.2171
  944MPD2    C413802   0.308   4.323  11.132 -0.4286  0.1455  0.0924
  944MPD2    C513803   0.264   4.202  11.078 -0.3790  0.6950  0.2465
  944MPD2     H13804   0.503   4.428  10.878  3.0056 -2.2878  2.4604
  944MPD2    H113805   0.288   4.349  11.235 -1.9742  0.8080 -0.3892
  944MPD2    H213806   0.263   4.079  10.902  0.2729 -1.2333  0.5426
  944MPD2    H313807   0.208   4.133  11.139  0.1980  2.5955  2.8973
  944MPD2     N13808   0.458   4.518  11.101  0.4051  0.2357 -0.3186
  944MPD2    H513809   0.527   4.579  11.059 -1.2926  1.1729 -1.7073
  944MPD2    N113810   0.419   4.200  10.742 -0.0284 -0.8058 -0.2536
  944MPD2    H713811   0.384   4.107  10.723  1.7808 -1.4946 -0.2653
    1TCq1    O113812   3.562   1.680  14.251 -0.2271 -0.2024  0.1134
    1TCq1    C113813   3.631   1.567  14.237 -0.3524 -0.2941 -0.2448
    1TCq1    O213814   3.624   1.481  14.153  0.4959 -0.8505  0.3628
    1TCq1    C213815   3.754   1.589  14.318  0.2409 -0.2226  0.5182
    1TCq1    C313816   3.866   1.527  14.270 -0.1354  0.3634 -0.2332
    1TCq1    C413817   3.992   1.557  14.322  0.2145 -0.8301  0.0202
    1TCq1    C513818   4.000   1.625  14.432  0.1004 -0.7580  0.1167
    1TCq1    C613819   3.888   1.680  14.486 -0.6173  0.0253  1.0350
    1TCq1    C713820   3.759   1.667  14.428 -0.0104 -0.1668 -0.6648
    1TCq1    C813821   3.911   1.778  14.589  0.3595  0.2015 -0.2447
    1TCq1    O413822   3.993   1.742  14.675  0.0285 -0.3172  0.4229
    1TCq1    C913823   4.114   1.493  14.268 -0.0194 -0.5397 -0.0682
    1TCq1    O513824   4.215   1.509  14.341 -0.6830  0.4002  0.4341
    1TCq1    O613825   4.109   1.405  14.175  0.1867 -0.0263  0.4266
    1TCq1    H113826   3.616   1.750  14.291 -1.2958  1.3786 -1.1972
    1TCq1    H213827   3.862   1.455  14.189  4.2772  0.0080 -0.1395
    1TCq1    H313828   4.094   1.650  14.481  0.8870 -0.3887 -1.5803
    1TCq1    H413829   3.673   1.709  14.478 -1.3861 -0.3251 -2.9129
    2MPD2     C13830   3.906   2.257  14.776 -0.3620 -0.2482  0.3942
    2MPD2    C113831   3.818   2.256  14.665 -0.5004 -0.0756  0.2410
    2MPD2    C213832   3.805   2.134  14.596  0.3600 -0.3319  0.3287
    2MPD2    C313833   3.868   2.017  14.637 -0.3970  0.1142  0.9766
    2MPD2    C413834   3.969   2.025  14.740 -0.0438 -0.8785 -0.5642
    2MPD2    C513835   3.974   2.145  14.812 -0.4777 -0.7026 -0.1531
    2MPD2     H13836   3.741   2.121  14.510  1.0586  2.2010 -0.5445
    2MPD2    H113837   4.031   1.940  14.766 -1.3124 -1.2085  1.3976
    2MPD2    H213838   3.926   2.344  14.837 -0.7696  1.0499 -1.3331
    2MPD2    H313839   4.044   2.164  14.893 -1.0727  1.1471 -0.0763
    2MPD2     N13840   3.837   1.891  14.572 -0.2456  1.0293  0.4203
    2MPD2    H513841   3.768   1.896  14.497  1.8897 -0.8686 -1.6601
    2MPD2    N113842   3.767   2.381  14.626  0.1404 -0.2293  0.5841
    2MPD2    H713843   3.799   2.458  14.684  1.0657 -1.6781  2.0154
    3TMC2    C113844   3.669   2.538  14.485  0.0376 -0.2796 -0.1010
    3TMC2    C213845   3.771   2.625  14.516  0.1080 -0.5433 -0.1191
    3TMC2    C313846   3.769   2.743  14.444 -0.5432 -0.6769 -0.7793
    3TMC2    C413847   3.577   2.569  14.394 -0.2020 -0.2392 -0.1783
    3TMC2    C513848   3.580   2.690  14.321 -0.7324  0.3681 -0.3006
    3TMC2    C613849   3.679   2.780  14.347  0.5960  0.5612 -0.6795
    3TMC2     C13850   3.682   2.402  14.526  0.6530 -0.2306 -0.4676
    3TMC2     O13851   3.624   2.322  14.457  0.1396  0.4383 -0.2842
    3TMC2     H13852   3.847   2.605  14.591  0.0231  1.8587  0.5891
    3TMC2    H113853   3.495   2.500  14.374  1.5402 -2.0779 -0.9947
    3TMC2    H213854   3.675   2.885  14.319  2.9074 -0.1119 -3.6158
    3TMC2    C713855   3.490   2.708  14.208 -0.3233 -0.2494  0.0855
    3TMC2    C813856   3.878   2.837  14.481 -0.4416 -0.6263  0.8219
    3TMC2    O113857   3.416   2.611  14.182 -0.3225  0.4801  0.2003
    3TMC2    O213858   3.967   2.856  14.399 -0.1206  0.2281 -0.9216
    3TMC2    O513859   3.811   2.935  14.551 -0.7055 -0.6622  0.4853
    3TMC2    H513860   3.753   2.891  14.616 -0.2233 -1.0394  0.6599
    4MPD2     C13861   3.190   3.272  12.955 -0.0834 -0.2442  0.2239
    4MPD2    C113862   3.156   3.193  13.063  0.2190 -0.5142  0.6416
    4MPD2    C213863   3.230   3.204  13.179 -0.0248  0.7867  0.6369
    4MPD2    C313864   3.335   3.291  13.186 -0.9696  0.4196  0.4160
    4MPD2    C413865   3.360   3.378  13.081  0.1213 -0.1068  0.1758
    4MPD2    C513866   3.287   3.363  12.963  0.1806 -0.5861 -0.4092
    4MPD2     H13867   3.205   3.143  13.265 -0.7953  0.7985  0.4182
    4MPD2    H113868   3.442   3.449  13.071  0.3375 -0.3496  0.2255
    4MPD2    H213869   3.128   3.263  12.866  2.9098  0.4978 -1.9540
    4MPD2    H313870   3.297   3.436  12.883  0.8647  1.5749  1.6543
    4MPD2     N13871   3.398   3.310  13.312 -0.0111 -0.2037  0.2743
    4MPD2    H513872   3.371   3.242  13.383 -0.1431 -0.3024  0.1308
    4MPD2    N113873   3.037   3.116  13.051 -0.7872 -0.1234  0.0658
    4MPD2    H713874   2.994   3.112  12.959 -1.0084 -0.2373  0.1741
    5TCq2    C113875   3.460   3.422  13.351  0.4833 -0.0557 -0.2869
    5TCq2    O213876   3.480   3.522  13.289 -0.7071  0.0149  0.7645
    5TCq2    C213877   3.502   3.418  13.487 -0.4433  0.5014  0.3902
    5TCq2    C313878   3.563   3.539  13.532  0.4141  0.2812 -0.3371
    5TCq2    C413879   3.623   3.541  13.656 -0.0264  0.6470 -0.1763
    5TCq2    C513880   3.627   3.434  13.738  0.2678 -0.2061 -0.1630
    5TCq2    C613881   3.565   3.320  13.689  0.2840 -1.0088 -0.2483
    5TCq2    C713882   3.511   3.307  13.569  0.2871 -0.0682  0.6672
    5TCq2    C813883   3.549   3.205  13.786  1.0191 -0.9763  0.6987
    5TCq2    O413884   3.647   3.190  13.859  0.0559 -0.1774 -0.2541
    5TCq2    C913885   3.695   3.659  13.688 -0.4240 -0.5163 -0.8130
    5TCq2    O513886   3.750   3.669  13.800 -0.1555 -0.1616 -0.2464
    5TCq2    O613887   3.704   3.758  13.611  0.0256 -0.0121 -1.0006
    5TCq2    H213888   3.554   3.633  13.480 -2.4701 -1.1777 -2.4838
    5TCq2    H313889   3.675   3.438  13.835 -0.8046 -0.7700  0.3955
    5TCq2    H413890   3.485   3.216  13.515 -2.0094  0.1192  1.4870
    6MPD1     C13891   2.419   4.707  12.969  0.5251 -1.0113  0.2002
    6MPD1    C113892   2.418   4.686  13.107 -0.0354 -0.2526 -0.9771
    6MPD1    C213893   2.440   4.564  13.156 -0.1040 -0.0018 -0.1287
    6MPD1    C313894   2.455   4.455  13.071 -0.1970  0.0076  0.6230
    6MPD1    C413895   2.452   4.471  12.938  0.0792 -0.3049  0.0026
    6MPD1    C513896   2.439   4.601  12.888  0.4032  0.5039 -0.3929
    6MPD1     H13897   2.451   4.549  13.263  0.9138 -0.0239 -0.2408
    6MPD1    H113898   2.478   4.390  12.870 -1.2798 -0.8948  0.1908
    6MPD1    H213899   2.410   0.081  12.929  0.8834 -0.3559  1.7523
    6MPD1    H313900   2.448   4.619  12.781  2.6780 -1.1234 -0.4766
    6MPD1     N13901   2.483   4.324  13.115  0.2015  0.5214  0.6026
    6MPD1    H513902   2.494   4.256  13.040 -0.0712  2.3764 -1.0958
    6MPD1    N113903   2.429   0.074  13.188 -0.0640  0.1965 -0.6701
    6MPD1    H613904   2.404   0.064  13.286 -2.0178  2.0480 -1.0022
    6MPD1    H713905   2.383   0.154  13.145  1.0646  0.4644 -1.3749
    7MPD2     C13906   2.534   3.580  13.579  0.0608  0.1243  0.2081
    7MPD2    C113907   2.505   3.589  13.441  0.3749 -0.1121 -0.0600
    7MPD2    C213908   2.504   3.478  13.369 -0.0402 -0.1705  0.4251
    7MPD2    C313909   2.544   3.359  13.420  0.5864  0.8497  0.2760
    7MPD2    C413910   2.568   3.345  13.557 -0.2866  0.9035 -0.6598
    7MPD2    C513911   2.560   3.459  13.630  0.2295 -0.4784 -0.2011
    7MPD2     H13912   2.489   3.483  13.262  1.2902  0.6763  0.2598
    7MPD2    H113913   2.606   3.256  13.605  1.5397  1.8252 -0.3800
    7MPD2    H213914   2.538   3.673  13.634  1.4368  0.1136  0.1216
    7MPD2    H313915   2.577   3.453  13.737 -0.6781 -0.3817 -0.0559
    7MPD2     N13916   2.571   3.237  13.347  0.1925  0.4734  0.2798
    7MPD2    H513917   2.606   3.157  13.397  1.4084  0.1671 -1.0452
    7MPD2    N113918   2.476   3.713  13.378  0.4612  0.5955  0.6112
    7MPD2    H713919   2.455   3.709  13.278  2.5143 -1.7204  0.2584
    8TMC3    C113920   2.613   3.105  13.150  0.6499 -0.1216 -0.8261
    8TMC3    C213921   2.731   3.065  13.201 -0.3948 -0.1644 -0.1741
    8TMC3    C313922   2.830   3.029  13.114  0.7395  0.5023  0.6367
    8TMC3    C413923   2.595   3.103  13.011  0.5528 -0.3477  0.6196
    8TMC3    C513924   2.702   3.079  12.930 -0.2920  0.0461  0.1767
    8TMC3    C613925   2.811   3.018  12.979  0.8011 -0.1216 -0.0781
    8TMC3     C13926   2.544   3.217  13.215 -0.3155  0.1199  0.8953
    8TMC3     O13927   2.485   3.289  13.136  0.3531 -0.1765  0.2029
    8TMC3     H13928   2.747   3.073  13.308 -0.6571  1.4233 -0.2512
    8TMC3    H113929   2.506   3.145  12.965  1.5082  0.7875 -0.1766
    8TMC3    H213930   2.873   2.972  12.903  1.1188  0.2216 -0.0282
    8TMC3    C713931   2.738   3.195  12.861 -0.3283 -0.1594  0.9164
    8TMC3    C813932   2.961   3.069  13.154 -0.6043  0.7506  1.0198
    8TMC3    O113933   2.843   3.184  12.797  0.3384 -0.4471  0.6547
    8TMC3    O213934   2.983   3.081  13.274 -0.3102 -0.2515 -0.0980
    9TMC3    C113935   2.557   4.134  13.237 -0.2143  0.0686 -0.1212
    9TMC3    C213936   2.622   4.094  13.123 -0.1286  0.2147  0.2814
    9TMC3    C313937   2.646   3.961  13.113  0.4912  0.2423  0.8474
    9TMC3    C413938   2.516   4.058  13.335 -0.5599 -0.0418  0.4640
    9TMC3    C513939   2.554   3.925  13.322  1.0752  0.8156 -0.7772
    9TMC3    C613940   2.616   3.876  13.213 -0.0658 -0.2081  0.0778
    9TMC3     C13941   2.508   4.274  13.239 -0.1496  0.1551 -0.3771
    9TMC3     O13942   2.480   4.324  13.346 -0.2325 -0.1492 -0.0947
    9TMC3     H13943   2.653   4.156  13.040 -1.5400 -0.3952 -0.7191
    9TMC3    H113944   2.475   4.102  13.425 -0.4779 -0.7530  0.8461
    9TMC3    H213945   2.651   3.773  13.210 -2.0384 -0.8220 -2.2867
    9TMC3    C713946   2.516   3.839  13.423  0.7343  0.3144  0.3606
    9TMC3    C813947   2.684   3.908  12.981  0.3015  0.2059  0.0910
    9TMC3    O113948   2.547   3.875  13.537 -0.4224  0.3406  0.3343
    9TMC3    O213949   2.765   3.968  12.919 -0.7099 -0.3504 -0.3148
   10MPD2     C13950   2.802   3.465  12.760  0.1003 -0.5974 -0.1501
   10MPD2    C113951   2.712   3.442  12.856  0.4378 -0.3744  0.7489
   10MPD2    C213952   2.656   3.551  12.917 -0.2943 -0.0937  0.3244
   10MPD2    C313953   2.687   3.680  12.887 -0.3973  0.1496 -0.1368
   10MPD2    C413954   2.774   3.699  12.788 -0.6877 -0.0186  0.5690
   10MPD2    C513955   2.826   3.593  12.729  0.0166 -0.2585 -0.6893
   10MPD2     H13956   2.580   3.542  12.994  1.3663  3.9993  2.3994
   10MPD2    H113957   2.823   3.792  12.762  0.8152 -0.7809  0.6763
   10MPD2    H213958   2.867   3.390  12.717 -0.3860 -1.0902 -0.0144
   10MPD2    H313959   2.908   3.607  12.659  0.1912 -0.1102 -0.4520
   10MPD2     N13960   2.638   3.782  12.969 -1.2507  0.3457 -0.3804
   10MPD2    H513961   2.564   3.760  13.035 -0.6714  1.0465  0.4996
   10MPD2    N113962   2.674   3.316  12.900 -0.0091 -0.8657 -0.1878
   10MPD2    H713963   2.591   3.307  12.957  0.6003 -1.2612  0.6304
   11MPD2     C13964   3.307   2.807  13.989 -0.4911  1.0709  0.1468
   11MPD2    C113965   3.426   2.863  14.034 -0.4411  0.5837 -0.2220
   11MPD2    C213966   3.465   2.970  13.955 -0.0861  0.0764 -0.1596
   11MPD2    C313967   3.397   3.015  13.842 -0.3711 -0.0342  0.4355
   11MPD2    C413968   3.281   2.955  13.807 -0.7238 -0.9701 -0.3486
   11MPD2    C513969   3.239   2.850  13.878  0.3109  0.2038  0.3125
   11MPD2     H13970   3.556   3.021  13.985 -0.2116  0.6420 -0.7340
   11MPD2    H113971   3.227   2.991  13.720  0.4106  0.9371 -0.2682
   11MPD2    H213972   3.261   2.718  14.030  2.3618  0.5410  2.2273
   11MPD2    H313973   3.151   2.800  13.840  1.0828 -1.4724  0.7065
   11MPD2     N13974   3.436   3.124  13.766 -0.0697 -0.2346  0.2125
   11MPD2    H513975   3.378   3.153  13.688 -0.8078  0.6028  1.0714
   11MPD2    N113976   3.518   2.818  14.133  0.2420 -0.7259 -0.0734
   11MPD2    H713977   3.604   2.873  14.144  0.6116 -1.5441  1.1925
    1MPD1     C13978   4.687   4.200  16.924  0.1828  0.3978 -0.0581
    1MPD1    C113979   0.031   4.288  17.001 -0.3317  0.3154 -0.2077
    1MPD1    C213980   0.169   4.279  16.983 -0.3604  0.3832 -0.0804
    1MPD1    C313981   0.224   4.210  16.877 -0.2626 -0.1164  0.2074
    1MPD1    C413982   0.143   4.142  16.789  0.4435  0.3221 -0.7239
    1MPD1    C513983   0.007   4.140  16.811 -0.9968  0.5580 -0.0771
    1MPD1     H13984   0.227   4.323  17.063  1.4948 -0.3185 -1.0399
    1MPD1    H113985   0.178   4.081  16.706  0.6113  0.5130 -0.7954
    1MPD1    H213986   4.579   4.205  16.935 -0.0150 -1.0413 -1.2421
    1MPD1    H313987   4.674   4.087  16.738 -0.8885  0.6089 -0.2023
    1MPD1     N13988   0.355   4.206  16.847  0.2205  0.6637 -0.4851
    1MPD1    H513989   0.382   4.182  16.752 -2.9941 -1.4630 -0.8558
    1MPD1    N113990   4.698   4.338  17.117  0.1540 -0.9758  0.3780
    1MPD1    H613991   0.017   4.424  17.145  0.7386 -0.6203 -1.7067
    1MPD1    H713992   4.600   4.366  17.108  0.4929  0.4067  1.0873
    2MPD1     C13993   0.949   0.154  17.152 -0.2017  0.5237 -0.0258
    2MPD1    C113994   0.845   0.154  17.065 -0.4460 -0.1303 -0.0817
    2MPD1    C213995   0.804   0.029  17.012 -0.5947 -0.0351  0.0797
    2MPD1    C313996   0.850   4.636  17.050 -0.0507  0.4777  0.0294
    2MPD1    C413997   0.960   4.641  17.134  0.3325  0.4931  0.2733
    2MPD1    C513998   1.008   0.036  17.179 -0.4185 -0.6141  0.7016
    2MPD1     H13999   0.732   0.034  16.931 -1.5774 -1.1495  0.8921
    2MPD1    H114000   1.010   4.552  17.170  0.3533  0.1515 -0.5987
    2MPD1    H214001   0.998   0.246  17.182 -0.0540  1.4471 -3.1196
    2MPD1    H314002   1.102   0.044  17.232 -0.2462 -0.6087  0.3957
    2MPD1     N14003   0.808   4.525  16.979  0.1733  0.3344  0.0344
    2MPD1    H514004   0.719   4.530  16.931 -1.0947 -0.3410  2.2782
    2MPD1    N114005   0.795   0.274  17.021  0.1071  0.0164  0.0753
    2MPD1    H614006   0.703   0.272  16.978  0.3638  0.9255 -0.5056
    2MPD1    H714007   0.812   0.355  17.080 -2.3936  1.2247 -0.8659
    3TMC3    C114008   0.803   4.307  16.920  0.3249  0.2632  0.4921
    3TMC3    C214009   0.841   4.237  16.811 -0.2200 -0.5058 -0.4407
    3TMC3    C314010   0.754   4.160  16.741  0.9740  0.0249  0.0649
    3TMC3    C414011   0.671   4.309  16.959  0.2055 -0.7914 -0.1816
    3TMC3    C514012   0.585   4.242  16.877  0.2608  0.2704  0.0279
    3TMC3    C614013   0.620   4.170  16.766  0.3263 -0.1515  0.0877
    3TMC3     C14014   0.881   4.417  16.963  0.5548  0.6008 -0.9733
    3TMC3     O14015   1.001   4.403  16.986 -0.3112  0.4071  0.0568
    3TMC3     H14016   0.947   4.227  16.796 -0.2112 -1.6991  0.5068
    3TMC3    H114017   0.635   4.373  17.039 -0.1543 -0.9744 -0.1985
    3TMC3    H214018   0.540   4.116  16.716  0.8393  0.3727 -1.3039
    3TMC3    C714019   0.451   4.223  16.937  0.1381  0.0903  1.3235
    3TMC3    C814020   0.780   4.093  16.619 -0.2278  0.1984 -0.2289
    3TMC3    O114021   0.441   4.269  17.053  0.2019 -0.2703 -0.4984
    3TMC3    O214022   0.691   4.031  16.568  0.1237 -0.1766 -0.0918
    4MPD1     C14023   1.129   3.938  16.274  0.3635  0.2309  0.2512
    4MPD1    C114024   1.181   4.033  16.358 -0.4583 -0.1167  0.6025
    4MPD1    C214025   1.107   4.089  16.464 -1.1503 -0.6896 -0.1808
    4MPD1    C314026   0.977   4.055  16.475  0.3627  0.6238  0.4755
    4MPD1    C414027   0.920   3.970  16.384  0.0442  0.3705  0.6679
    4MPD1    C514028   0.996   3.901  16.291 -0.2010 -0.5219  0.3838
    4MPD1     H14029   1.146   4.172  16.523 -2.0724  0.1499 -0.7371
    4MPD1    H114030   0.814   3.951  16.400  0.4809 -1.9042  0.9123
    4MPD1    H214031   1.191   3.891  16.199 -0.8230 -1.5452  0.4004
    4MPD1    H314032   0.943   3.835  16.223  1.1135 -1.4841  0.2847
    4MPD1     N14033   0.905   4.110  16.581 -0.5799 -0.0278 -0.0391
    4MPD1    H514034   0.958   4.179  16.633  0.6886 -0.4195 -0.8036
    4MPD1    N114035   1.306   4.091  16.330 -0.1794 -0.1170 -0.8274
    4MPD1    H614036   1.366   4.030  16.274 -0.1372  2.1490 -3.2675
    4MPD1    H714037   1.366   4.122  16.406  0.6306 -0.9730 -1.1210
    1TCq1    O114038   2.985   3.449  12.286 -0.2382  0.3221 -0.1189
    1TCq1    C114039   2.931   3.557  12.343  0.0227  0.1635 -0.3917
    1TCq1    O214040   2.995   3.640  12.407 -0.6026  0.0378 -0.3485
    1TCq1    C214041   2.804   3.582  12.285 -1.0104 -0.3254 -0.5664
    1TCq1    C314042   2.787   3.555  12.150 -0.4309 -0.0668  0.1069
    1TCq1    C414043   2.698   3.627  12.082  0.3527  0.3639  0.5338
    1TCq1    C514044   2.610   3.715  12.139  0.3432  0.3006 -0.0568
    1TCq1    C614045   2.627   3.739  12.274  0.2236 -0.0376  0.0492
    1TCq1    C714046   2.716   3.673  12.348 -0.5640  0.7641 -0.1992
    1TCq1    C814047   2.551   3.854  12.325 -0.2838  0.3239 -0.0642
    1TCq1    O414048   2.463   3.897  12.253  0.0109 -0.0175 -0.6470
    1TCq1    C914049   2.733   3.660  11.945 -0.6542  0.5211  0.7074
    1TCq1    O514050   2.639   3.702  11.870  0.0151  0.5610 -0.2809
    1TCq1    O614051   2.836   3.606  11.898 -0.4547 -0.2422 -0.0552
    1TCq1    H114052   2.907   3.396  12.258  1.1957 -2.1882  0.7558
    1TCq1    H214053   2.878   3.525  12.098  1.0238  0.3685  2.3992
    1TCq1    H314054   2.537   3.771  12.082 -0.4757  0.6631  1.3355
    1TCq1    H414055   2.732   3.701  12.452 -1.1996 -3.3246  1.0092
    2MPD1     C14056   2.379   4.205  12.658 -0.7127  0.1403  0.4124
    2MPD1    C114057   2.427   4.099  12.727  0.0336 -0.3887  0.5650
    2MPD1    C214058   2.497   4.001  12.660 -0.3120  0.3401 -0.0988
    2MPD1    C314059   2.496   3.993  12.521  0.5063 -0.0100 -0.7883
    2MPD1    C414060   2.430   4.086  12.455 -0.0848 -0.4501 -0.2432
    2MPD1    C514061   2.368   4.190  12.520  0.9332  0.1804  0.6610
    2MPD1     H14062   2.543   3.916  12.708  1.4068  0.2268 -1.9618
    2MPD1    H114063   2.438   4.093  12.347 -3.6619 -2.9118 -0.6559
    2MPD1    H214064   2.333   4.283  12.716  1.3824  1.1565  0.7336
    2MPD1    H314065   2.315   4.262  12.459 -0.8226 -1.6277  0.0689
    2MPD1     N14066   2.562   3.889  12.456  0.6070  0.3368 -0.4184
    2MPD1    H514067   2.628   3.844  12.519  2.0160 -0.1218 -2.2399
    2MPD1    N114068   2.443   4.106  12.861  0.3858 -0.7088 -0.2913
    2MPD1    H614069   2.371   4.167  12.900  1.4449  0.4777 -0.1920
    2MPD1    H714070   2.428   4.010  12.891  0.5799 -0.7731 -0.4030
    1TCq1    O114071   0.097   4.102   1.355 -0.0441 -0.0923 -0.0467
    1TCq1    C114072   0.134   4.179   1.254  0.1783  0.3265  0.7145
    1TCq1    O214073   0.060   4.212   1.164 -0.0881  0.0683  0.1820
    1TCq1    C214074   0.281   4.193   1.251  0.3781 -0.3293  0.7565
    1TCq1    C314075   0.365   4.113   1.321 -0.3162 -0.1643 -0.6320
    1TCq1    C414076   0.492   4.105   1.273 -0.2322  0.0980 -0.2217
    1TCq1    C514077   0.541   4.184   1.174 -0.4016  0.3340  0.3508
    1TCq1    C614078   0.454   4.269   1.106  0.8674  0.4902  0.2133
    1TCq1    C714079   0.327   4.275   1.151 -0.2801  0.1334 -0.0604
    1TCq1    C814080   0.506   4.349   1.001  0.2517 -0.7814 -0.1500
    1TCq1    O414081   0.421   4.422   0.957 -0.0273  0.6200 -0.4048
    1TCq1    C914082   0.559   3.977   1.300 -0.3139 -0.2286 -0.2701
    1TCq1    O514083   0.639   3.933   1.212 -0.1528  0.0760  0.3373
    1TCq1    O614084   0.529   3.918   1.407 -0.8062 -0.0486 -0.0793
    1TCq1    H114085   0.167   4.095   1.424 -1.3531 -0.3413  1.2417
    1TCq1    H214086   0.321   4.022   1.360 -1.4353  1.3945  1.7556
    1TCq1    H314087   0.648   4.184   1.154 -0.2502 -2.2517  1.0973
    1TCq1    H414088   0.255   4.344   1.108 -0.4558 -0.4937 -0.7795
    2MPD1     C14089   0.887   4.529   0.704 -0.8430 -0.8320  0.9692
    2MPD1    C114090   0.917   4.392   0.731  0.6434 -0.0345  0.6394
    2MPD1    C214091   0.831   4.326   0.819  0.0184  0.2757 -0.4929
    2MPD1    C314092   0.719   4.388   0.881  0.7870 -0.1014 -0.6673
    2MPD1    C414093   0.696   4.524   0.852  0.1174  0.0660  0.3200
    2MPD1    C514094   0.774   4.590   0.756 -0.2128  0.7107 -0.1588
    2MPD1     H14095   0.836   4.220   0.839 -1.0239  0.0354 -1.4672
    2MPD1    H114096   0.607   4.574   0.887  2.6301  2.1261  3.7552
    2MPD1    H214097   0.933   4.580   0.620 -3.7869  0.9583  0.4365
    2MPD1    H314098   0.758   4.696   0.740  1.4890  0.6277 -2.3141
    2MPD1     N14099   0.636   4.316   0.965 -0.2611  0.4929  0.0480
    2MPD1    H514100   0.674   4.228   0.997 -1.7094  0.0042  0.4088
    2MPD1    N114101   1.021   4.330   0.667  0.2891 -1.0945 -0.3370
    2MPD1    H614102   1.045   4.247   0.720 -1.2755 -1.3681 -0.0472
    2MPD1    H714103   1.104   4.388   0.653 -1.6409  1.6376 -0.4949
    1MPD1     C14104   3.335   3.425  11.532 -0.6141 -0.5420  0.0210
    1MPD1    C114105   3.332   3.549  11.594  0.3706  0.1020  0.2495
    1MPD1    C214106   3.422   3.654  11.552  0.4736  0.4682  0.3843
    1MPD1    C314107   3.499   3.630  11.440 -0.1823 -0.2446 -0.1136
    1MPD1    C414108   3.505   3.503  11.383 -0.4016 -0.3390  0.7476
    1MPD1    C514109   3.418   3.410  11.422 -0.3175 -0.0957 -0.9628
    1MPD1     H14110   3.435   3.745  11.609 -2.1080  0.6444  0.7109
    1MPD1    H114111   3.567   3.479  11.297 -0.6158  1.2101  0.1545
    1MPD1    H214112   3.275   3.341  11.565 -1.5970  1.4345  3.2531
    1MPD1    H314113   3.418   3.311  11.378 -0.7960 -0.3218 -0.4628
    1MPD1     N14114   3.599   3.731  11.409  1.0039 -0.3421  0.0101
    1MPD1    H514115   3.608   3.810  11.473 -1.8548 -0.9578  1.1843
    1MPD1    N114116   3.253   3.563  11.709  0.5343  0.0838 -0.5597
    1MPD1    H614117   3.167   3.509  11.703 -0.2364  1.1062  1.1956
    1MPD1    H714118   3.222   3.661  11.713  0.5608  0.1609 -2.1003
    2MPD1     C14119   3.374   3.367  11.079  0.0368 -0.4050 -0.0078
    2MPD1    C114120   3.260   3.302  11.015 -0.3173  0.6622  0.4049
    2MPD1    C214121   3.210   3.343  10.893  0.1999 -0.1391  0.1338
    2MPD1    C314122   3.248   3.474  10.846 -0.4226 -0.9015  0.0866
    2MPD1    C414123   3.353   3.535  10.912 -0.4589 -0.0873 -0.0036
    2MPD1    C514124   3.421   3.479  11.018 -0.4414  0.4493  0.3872
    2MPD1     H14125   3.132   3.289  10.841  0.3951 -1.5360  1.2894
    2MPD1    H114126   3.391   3.628  10.872 -0.0381 -0.2210  0.0795
    2MPD1    H214127   3.424   3.322  11.164  0.2834 -0.4007 -0.1487
    2MPD1    H314128   3.515   3.522  11.051  0.3471  1.7369 -3.5552
    2MPD1     N14129   3.204   3.532  10.727 -0.7231  0.1634  0.3932
    2MPD1    H514130   3.264   3.610  10.701 -0.2637 -0.5565 -0.7102
    2MPD1    N114131   3.210   3.187  11.076 -0.3717  0.6137 -0.1513
    2MPD1    H614132   3.217   3.180  11.178  0.2479 -0.1235 -0.2464
    2MPD1    H714133   3.119   3.161  11.037 -0.8531  1.3647  0.4695
    3MPD1     C14134   2.283   3.767  10.528 -0.0895 -0.5875  0.2018
    3MPD1    C114135   2.357   3.734  10.640 -0.4123 -0.6323  0.0499
    3MPD1    C214136   2.494   3.732  10.626  0.6339  0.3771  0.1461
    3MPD1    C314137   2.562   3.746  10.506  0.3474  0.2300  0.0247
    3MPD1    C414138   2.490   3.781  10.395 -0.3176  0.4766 -0.1582
    3MPD1    C514139   2.355   3.785  10.410  0.5161  0.1627 -0.5534
    3MPD1     H14140   2.556   3.690  10.704 -1.7508 -1.0628  1.2639
    3MPD1    H114141   2.536   3.784  10.297  1.3666  0.6604  0.6254
    3MPD1    H214142   2.174   3.759  10.526 -0.0361 -1.1838 -0.2606
    3MPD1    H314143   2.301   3.824  10.324  0.2683 -0.0215 -0.4841
    3MPD1     N14144   2.700   3.718  10.496  0.9460 -0.2334  0.1627
    3MPD1    H514145   2.749   3.672  10.573 -0.6641 -0.3412  1.1109
    3MPD1    N114146   2.290   3.669  10.747  0.2017  0.2637 -0.0005
    3MPD1    H614147   2.203   3.720  10.763 -0.4151 -0.4072 -1.2417
    3MPD1    H714148   2.349   3.677  10.830  0.7674  1.7989 -0.5599
    4MPD2     C14149   3.463   4.218  10.894 -0.3664  0.1947  0.4057
    4MPD2    C114150   3.596   4.198  10.893 -0.1731 -0.2049 -0.6929
    4MPD2    C214151   3.668   4.202  10.772 -0.0123  0.4125 -0.7117
    4MPD2    C314152   3.598   4.225  10.655  0.2520 -0.0766 -0.5519
    4MPD2    C414153   3.457   4.240  10.650  0.6137 -0.2293  0.5418
    4MPD2    C514154   3.395   4.236  10.773 -0.4330  0.1172  0.4697
    4MPD2     H14155   3.773   4.180  10.766 -0.3239 -1.0144 -0.8856
    4MPD2    H114156   3.408   4.259  10.555  1.5708 -1.7857 -0.2596
    4MPD2    H214157   3.395   4.221  10.978 -0.6238  0.6856  0.1758
    4MPD2    H314158   3.287   4.248  10.773 -0.7809 -2.8154 -1.4271
    4MPD2     N14159   3.667   4.242  10.532 -0.6414  0.1516 -0.3680
    4MPD2    H514160   3.602   4.237  10.455  0.0051  0.6630 -0.9512
    4MPD2    N114161   3.668   4.153  11.010 -0.2962 -0.0777  0.7545
    4MPD2    H714162   3.768   4.139  11.002  0.1422  2.3975  2.1717
    5TMC3    C114163   3.714   4.071  11.217  0.6434 -0.5192 -0.2308
    5TMC3    C214164   3.664   3.962  11.280 -0.0636 -0.2074  0.0376
    5TMC3    C314165   3.749   3.857  11.281  0.1384 -1.1719  0.1865
    5TMC3    C414166   3.837   4.082  11.163 -0.6204 -0.0095 -0.3073
    5TMC3    C514167   3.910   3.969  11.155 -0.5958  0.1533  0.5408
    5TMC3    C614168   3.865   3.853  11.203  0.1864  0.7651 -0.2510
    5TMC3     C14169   3.616   4.122  11.127 -0.1254 -0.5116 -0.2370
    5TMC3     O14170   3.504   4.118  11.165  0.1824  0.3863  0.3813
    5TMC3     H14171   3.562   3.954  11.316  0.2313  1.9661  1.3708
    5TMC3    H114172   3.874   4.182  11.141  1.6042 -0.4284  1.5158
    5TMC3    H214173   3.907   3.756  11.178  0.5240  1.2220 -1.4529
    5TMC3    C714174   3.980   3.976  11.027  0.0870 -0.1990  0.4541
    5TMC3    C814175   3.683   3.726  11.304 -0.1724 -0.2116 -0.0648
    5TMC3    O114176   3.962   4.077  10.957  0.1875 -0.4032 -0.2240
    5TMC3    O214177   3.689   3.652  11.210  0.1782 -0.1344 -0.3504
    6TMC3    C114178   3.056   3.554  10.545 -0.6739 -0.4051  0.8472
    6TMC3    C214179   2.927   3.586  10.510 -0.3021  0.6747  0.3716
    6TMC3    C314180   2.908   3.683  10.412  0.4180 -0.1845 -0.2631
    6TMC3    C414181   3.164   3.620  10.486  0.2697  0.2615  0.0870
    6TMC3    C514182   3.138   3.697  10.376 -0.1631  0.3045 -0.0842
    6TMC3    C614183   3.011   3.723  10.331 -0.3111 -0.3042 -0.4593
    6TMC3     C14184   3.081   3.499  10.673 -0.7108 -0.2176  0.8542
    6TMC3     O14185   2.984   3.451  10.729  0.5538  0.0380 -0.4976
    6TMC3     H14186   2.846   3.544  10.569  1.4485 -0.1477  2.1986
    6TMC3    H114187   3.266   3.592  10.509  0.4842  0.3666 -0.7369
    6TMC3    H214188   2.993   3.794  10.251 -0.2945  0.4364  0.1835
    6TMC3    C714189   3.258   3.749  10.308 -0.2612 -0.7555 -0.5173
    6TMC3    C814190   2.776   3.732  10.383 -0.1479 -0.5796  0.2214
    6TMC3    O114191   3.364   3.735  10.367 -0.5349 -0.2180 -0.3596
    6TMC3    O214192   2.760   3.798  10.284 -0.2519 -0.1570  0.1753
    7MPD2     C14193   4.207   3.737  10.640  0.6850  0.3910  0.5081
    7MPD2    C114194   4.143   3.856  10.644  0.8491  0.2232 -0.4151
    7MPD2    C214195   4.067   3.885  10.762 -0.4023 -0.1619  0.2391
    7MPD2    C314196   4.092   3.822  10.878  0.2373  0.0796  0.1087
    7MPD2    C414197   4.172   3.709  10.876 -0.1674  0.5402  0.5469
    7MPD2    C514198   4.222   3.668  10.758 -0.7092  0.3482  0.5758
    7MPD2     H14199   4.007   3.975  10.767  1.1108  0.8573  0.3270
    7MPD2    H114200   4.223   3.673  10.964  0.9953 -0.7801 -0.6502
    7MPD2    H214201   4.269   3.692  10.564 -0.4922 -0.6497  0.1700
    7MPD2    H314202   4.286   3.580  10.759 -0.2103  0.7321  2.3309
    7MPD2     N14203   4.042   3.859  11.003 -0.6018 -0.2027  0.1343
    7MPD2    H514204   4.057   3.793  11.078 -1.8719  0.1508  0.6912
    7MPD2    N114205   4.123   3.916  10.516  0.2978 -0.5763  0.1927
    7MPD2    H714206   4.142   3.864  10.431 -0.7451 -1.2366  0.3723
    8TMC3    C114207   4.024   4.092  10.381 -0.1212 -0.8326  0.6866
    8TMC3    C214208   3.938   4.005  10.323 -0.3199  0.0830  0.0717
    8TMC3    C314209   3.815   4.053  10.283 -0.1738  0.2054 -0.1801
    8TMC3    C414210   3.984   4.227  10.393  0.4219 -0.2756  0.0714
    8TMC3    C514211   3.851   4.258  10.378 -0.6058  0.0238  0.1802
    8TMC3    C614212   3.767   4.175  10.319  0.3894 -0.4280 -0.4680
    8TMC3     C14213   4.067   4.043  10.513 -0.1783  0.7055 -0.5492
    8TMC3     O14214   4.068   4.125  10.604  0.6021  0.1993  0.0835
    8TMC3     H14215   3.976   3.905  10.308  1.9939  0.8713  0.7837
    8TMC3    H114216   4.050   4.302  10.435  0.5925  1.0552 -2.5868
    8TMC3    H214217   3.678   4.210  10.267  0.1187  1.3540  1.1436
    8TMC3    C714218   3.797   4.296  10.508 -0.6368  0.6209  0.6162
    8TMC3    C814219   3.733   3.951  10.225  0.3923 -0.3492 -0.2528
    8TMC3    O114220   3.878   4.330  10.598  0.4650 -0.1737 -0.6229
    8TMC3    O214221   3.705   3.854  10.294 -0.0376 -0.0335  0.6387
    9MPD2     C14222   3.497   4.016   9.947  0.5739  0.1040 -0.9292
    9MPD2    C114223   3.547   3.961  10.065  0.5872  0.0971 -0.2463
    9MPD2    C214224   3.458   3.896  10.144  0.2990  0.1835  0.0666
    9MPD2    C314225   3.324   3.888  10.108 -1.3134 -1.3787  0.1355
    9MPD2    C414226   3.276   3.937   9.991 -1.0012 -0.2426  0.3572
    9MPD2    C514227   3.363   4.008   9.909  0.4347 -0.4011 -0.3611
    9MPD2     H14228   3.483   3.862  10.244 -1.3572  1.9368  1.0607
    9MPD2    H114229   3.169   3.930   9.972 -1.2097  1.5913  0.8934
    9MPD2    H214230   3.562   4.075   9.885 -1.5243  4.4451  0.9909
    9MPD2    H314231   3.319   4.070   9.831 -0.0448  3.3219  2.8372
    9MPD2     N14232   3.231   3.815  10.188 -0.0295  0.0756  1.2042
    9MPD2    H514233   3.135   3.813  10.156  0.6045 -0.0954 -0.7025
    9MPD2    N114234   3.677   3.996  10.105  0.1621 -0.7054 -0.1986
    9MPD2    H714235   3.720   4.072  10.053  0.3847 -1.1720 -0.6909
    1MPD1     C14236   3.294   2.563  17.264  0.1918  0.4771  0.6754
    1MPD1    C114237   3.380   2.544  17.157  0.1703  0.1056 -0.0594
    1MPD1    C214238   3.364   2.630  17.048  0.1220  0.0627 -0.5052
    1MPD1    C314239   3.281   2.736  17.050  0.7842 -0.3473  0.4442
    1MPD1    C414240   3.204   2.766  17.163 -0.3584  0.6081  0.2420
    1MPD1    C514241   3.218   2.674  17.266 -0.6787  0.0047 -0.1818
    1MPD1     H14242   3.424   2.614  16.959  1.2132  2.1049 -0.1621
    1MPD1    H114243   3.154   2.861  17.172 -0.1727  0.6912  0.3954
    1MPD1    H214244   3.310   2.498  17.349  1.6198 -0.0362  0.0178
    1MPD1    H314245   3.179   2.698  17.364 -0.7954  1.3124 -0.5452
    1MPD1     N14246   3.266   2.824  16.941  0.0102  0.1909 -0.0869
    1MPD1    H514247   3.189   2.889  16.943  1.9757  2.4942  1.3104
    1MPD1    N114248   3.480   2.439  17.158  0.7609 -0.4904  0.1678
    1MPD1    H614249   3.517   2.421  17.065  2.4281 -1.5078  1.0224
    1MPD1    H714250   3.440   2.352  17.192 -0.0898  0.2472  1.0631
    2MPD1     C14251   3.600   3.158  15.984  0.8757 -0.1874 -0.0456
    2MPD1    C114252   3.457   3.167  15.979 -0.1984 -0.0043  0.3123
    2MPD1    C214253   3.394   3.144  16.095 -0.1513  0.4800 -0.6562
    2MPD1    C314254   3.464   3.132  16.216  0.3747 -0.8166 -0.3041
    2MPD1    C414255   3.596   3.152  16.221 -0.1870  0.3170  0.3056
    2MPD1    C514256   3.661   3.166  16.098 -0.1431  0.3043 -0.2426
    2MPD1     H14257   3.286   3.136  16.091 -0.0392 -1.8136  0.4710
    2MPD1    H114258   3.657   3.154  16.310  2.0522 -0.1622 -1.1990
    2MPD1    H214259   3.658   3.153  15.892  0.4169 -2.0255 -0.2382
    2MPD1    H314260   3.769   3.169  16.087  0.0961  0.3275  2.1116
    2MPD1     N14261   3.384   3.098  16.328  0.8855  0.1804 -0.3164
    2MPD1    H514262   3.284   3.087  16.318  1.3758 -1.9184 -2.7279
    2MPD1    N114263   3.383   3.178  15.860  0.1708  0.4502 -0.2296
    2MPD1    H614264   3.290   3.218  15.875 -0.2701 -1.1289  1.2171
    2MPD1    H714265   3.441   3.221  15.788  1.4644  0.4352  0.8199
    3TCq2    C114266   3.441   3.060  16.447  0.1970 -0.5043  0.0564
    3TCq2    O214267   3.556   3.026  16.482  0.1108  0.1216  0.0753
    3TCq2    C214268   3.345   3.047  16.549  0.3171  0.2402  0.2441
    3TCq2    C314269   3.211   3.074  16.533 -0.5008  0.0104 -0.3906
    3TCq2    C414270   3.123   3.029  16.619  0.2075  0.5733 -0.5541
    3TCq2    C514271   3.162   2.950  16.727 -0.3143 -1.3591 -0.3210
    3TCq2    C614272   3.291   2.931  16.748 -0.0906 -0.3011 -0.4480
    3TCq2    C714273   3.381   2.979  16.664  0.6045 -0.2172  0.2706
    3TCq2    C814274   3.342   2.833  16.832  0.0184  0.3230 -0.4357
    3TCq2    O414275   3.447   2.771  16.807 -0.7118  0.3507  0.5649
    3TCq2    C914276   2.984   3.040  16.594 -0.1028  0.2630 -0.4284
    3TCq2    O514277   2.905   2.989  16.683  0.4995  0.0456  0.2229
    3TCq2    O614278   2.942   3.102  16.496  0.0470  0.0862 -0.1314
    3TCq2    H214279   3.168   3.131  16.451  2.7474 -0.0923 -2.1817
    3TCq2    H314280   3.085   2.898  16.783 -2.5741  1.2947 -0.9776
    3TCq2    H414281   3.484   2.948  16.671  0.5484 -0.9814 -2.0673
    1TCq1    O114282   0.801   1.760  13.039 -0.3659  0.0996 -0.2394
    1TCq1    C114283   0.766   1.790  13.166  0.3190 -0.5002  0.9410
    1TCq1    O214284   0.681   1.731  13.240  0.6409 -0.0677 -0.3380
    1TCq1    C214285   0.858   1.889  13.215  0.6377 -0.3201 -0.6113
    1TCq1    C314286   0.808   1.983  13.310 -0.1042  0.2686  0.0462
    1TCq1    C414287   0.899   2.025  13.399  0.7226 -0.0253  0.4190
    1TCq1    C514288   1.037   1.998  13.379  0.0326  0.1148 -0.0901
    1TCq1    C614289   1.080   1.915  13.278 -0.0351 -0.3879 -0.6039
    1TCq1    C714290   0.991   1.864  13.189 -0.9423  0.0172 -0.1167
    1TCq1    C814291   1.220   1.859  13.258  1.2205  0.4713 -1.1262
    1TCq1    O414292   1.237   1.793  13.157 -0.3051  0.0048  0.5138
    1TCq1    C914293   0.857   2.102  13.514 -0.2094 -0.0794 -0.2529
    1TCq1    O514294   0.737   2.099  13.538  0.0577  0.1743 -0.1277
    1TCq1    O614295   0.939   2.122  13.607 -0.0315  0.1818  0.9862
    1TCq1    H114296   0.733   1.703  12.997  0.0043 -0.3645 -0.2067
    1TCq1    H214297   0.702   1.985  13.331 -0.0965 -0.3517  0.1522
    1TCq1    H314298   1.103   2.031  13.458  1.5175 -0.6305 -1.0184
    1TCq1    H414299   1.022   1.779  13.130 -0.5089 -0.3679  0.6597
    2MPD2     C14300   1.512   1.844  13.217 -0.3543  0.7036 -0.3083
    2MPD2    C114301   1.455   1.901  13.325 -0.1942 -0.0517 -1.3377
    2MPD2    C214302   1.530   1.945  13.431 -0.4068 -0.9055  0.0848
    2MPD2    C314303   1.666   1.922  13.426 -1.0367 -0.2592 -0.2620
    2MPD2    C414304   1.724   1.865  13.316  0.9314  0.4537  0.3904
    2MPD2    C514305   1.647   1.822  13.214 -0.0590 -0.3386 -0.3147
    2MPD2     H14306   1.474   1.981  13.516  0.2855  1.0543 -0.2841
    2MPD2    H114307   1.827   1.830  13.312  0.8944  0.2500  1.2190
    2MPD2    H214308   1.459   1.805  13.131  0.4949 -0.6146 -0.2275
    2MPD2    H314309   1.697   1.772  13.132  0.3660 -0.0199 -0.2548
    2MPD2     N14310   1.742   1.967  13.544 -0.4830  0.2599 -0.0231
    2MPD2    H514311   1.693   2.012  13.621  0.2948 -0.7070  1.0181
    2MPD2    N114312   1.314   1.912  13.342  0.0271 -0.3764 -0.5314
    2MPD2    H714313   1.281   1.962  13.424  0.3296 -0.0105 -0.6339
    3TCq1    O114314   1.960   2.410  13.897  0.7683 -0.3463 -0.3687
    3TCq1    C114315   1.888   2.343  13.808  0.4950 -0.2038 -0.0786
    3TCq1    O214316   1.789   2.383  13.750  0.6070 -0.3285 -0.4910
    3TCq1    C214317   1.965   2.233  13.742 -0.3727  0.2104  0.2803
    3TCq1    C314318   2.103   2.219  13.761  0.0435  0.3197 -0.3863
    3TCq1    C414319   2.160   2.102  13.715  0.4978  0.4855 -0.6190
    3TCq1    C514320   2.075   2.000  13.671 -0.2978 -0.2796  0.0487
    3TCq1    C614321   1.944   2.025  13.654 -0.0323  0.0930  0.4657
    3TCq1    C714322   1.887   2.140  13.693 -0.1699  0.0193  0.5544
    3TCq1    C814323   1.872   1.930  13.565  0.4333 -1.0529 -0.0793
    3TCq1    O414324   1.930   1.833  13.528  0.0613 -0.3456 -0.2647
    3TCq1    C914325   2.303   2.083  13.709 -0.2064  0.5345 -0.1801
    3TCq1    O514326   2.378   2.183  13.711  0.1918  0.0706  0.7364
    3TCq1    O614327   2.347   1.959  13.700  0.2229  0.2518  0.3211
    3TCq1    H114328   2.040   2.370  13.939  0.7620  0.7277  0.6484
    3TCq1    H214329   2.161   2.303  13.799  2.0687 -0.5829 -1.5288
    3TCq1    H314330   2.127   1.921  13.618 -2.2132 -1.7177  0.2928
    3TCq1    H414331   1.782   2.166  13.682 -0.1552  0.4253  1.3080
    1MPD2     C14332   0.960   3.265  15.400 -0.2436 -0.6247 -0.2982
    1MPD2    C114333   0.836   3.219  15.343  0.0371 -0.2652  0.2523
    1MPD2    C214334   0.851   3.111  15.256 -0.3130 -0.0447 -0.2969
    1MPD2    C314335   0.965   3.036  15.243 -0.1193 -0.0699 -0.7202
    1MPD2    C414336   1.082   3.085  15.297  0.7786  0.2171  0.1889
    1MPD2    C514337   1.073   3.192  15.387  0.2693 -0.5038 -0.8943
    1MPD2     H14338   0.762   3.084  15.199 -0.0058 -2.2493  0.2652
    1MPD2    H114339   1.176   3.039  15.269  0.5637 -0.2953  0.3007
    1MPD2    H214340   0.967   3.352  15.465 -1.6782  1.8698 -3.4912
    1MPD2    H314341   1.161   3.228  15.440 -0.7103  0.5915 -0.0269
    1MPD2     N14342   0.969   2.919  15.161 -0.2415  0.3450 -0.0510
    1MPD2    H514343   0.877   2.889  15.130 -0.8194  0.2921  1.6875
    1MPD2    N114344   0.714   3.286  15.358 -0.1859 -0.1208  0.0080
    1MPD2    H714345   0.715   3.376  15.405  2.5681 -0.3308  0.3794
    2TMC3    C114346   0.484   3.316  15.323  0.4710 -0.7988 -0.2625
    2TMC3    C214347   0.367   3.246  15.332  0.1272 -0.0013  0.0876
    2TMC3    C314348   0.254   3.278  15.265  0.2477 -0.1835 -1.0312
    2TMC3    C414349   0.500   3.422  15.237 -0.1668 -0.0820 -0.0556
    2TMC3    C514350   0.390   3.466  15.175  0.1590 -0.1483 -0.4193
    2TMC3    C614351   0.271   3.394  15.185 -0.3459  0.9675  0.2157
    2TMC3     C14352   0.597   3.223  15.328 -0.3714  1.0514  0.2962
    2TMC3     O14353   0.569   3.109  15.300 -0.3577 -0.0612  0.2881
    2TMC3     H14354   0.370   3.158  15.395  2.3618  0.5925  0.8116
    2TMC3    H114355   0.596   3.470  15.224 -0.1686 -0.0155  0.1682
    2TMC3    H214356   0.179   3.426  15.137  0.8344  0.9338 -2.0798
    2TMC3    C714357   0.407   3.551  15.056  1.0883 -0.3522  0.5829
    2TMC3    C814358   0.217   3.182  15.172  0.7226  0.3670 -0.1998
    2TMC3    O114359   0.307   3.588  14.996 -0.3337 -0.0645 -0.3972
    2TMC3    O214360   0.116   3.216  15.112 -0.0765  0.1392 -0.2010
    3TCq1    O114361   1.151   3.410  14.126 -0.2475  0.1580 -0.3895
    3TCq1    C114362   1.211   3.322  14.208 -0.4081 -0.3586 -0.5028
    3TCq1    O214363   1.228   3.203  14.184 -0.4236  0.2831  0.2811
    3TCq1    C214364   1.178   3.370  14.343  0.0362 -0.3385  0.4550
    3TCq1    C314365   1.273   3.379  14.448  0.4930 -0.4616  0.1090
    3TCq1    C414366   1.234   3.426  14.567 -1.0412 -0.3386 -0.5198
    3TCq1    C514367   1.112   3.464  14.591  0.2847  0.5824  0.1509
    3TCq1    C614368   1.026   3.464  14.481  0.1748  0.3001  1.4029
    3TCq1    C714369   1.056   3.418  14.353  0.3235 -0.3903 -0.1423
    3TCq1    C814370   0.887   3.518  14.499 -0.1020  0.3718 -0.1842
    3TCq1    O414371   0.823   3.528  14.399 -0.3048 -0.0764 -0.0944
    3TCq1    C914372   1.329   3.423  14.678 -0.2739  0.8004 -0.6974
    3TCq1    O514373   1.281   3.405  14.794  0.8382  0.1993 -0.4327
    3TCq1    O614374   1.451   3.414  14.647  0.0479  0.6354  0.0598
    3TCq1    H114375   1.144   3.498  14.169 -1.6160 -0.0177 -0.2577
    3TCq1    H214376   1.378   3.361  14.431  0.1060 -0.2641 -2.4655
    3TCq1    H314377   1.088   3.510  14.687  0.2911  0.6185  0.1351
    3TCq1    H414378   0.980   3.404  14.276 -0.1595  0.4706  0.1715
    4MPD2     C14379   0.639   3.632  14.602  0.5395 -0.2826 -0.4514
    4MPD2    C114380   0.724   3.562  14.680 -0.2021 -0.4355  0.1364
    4MPD2    C214381   0.688   3.538  14.812 -0.9576 -0.3700  0.1622
    4MPD2    C314382   0.570   3.581  14.871 -0.1162 -0.0074 -0.2880
    4MPD2    C414383   0.491   3.667  14.791 -0.4381  0.4262  0.1228
    4MPD2    C514384   0.528   3.686  14.657 -0.4297 -0.5083  0.7129
    4MPD2     H14385   0.757   3.488  14.880 -1.3091 -0.4657  0.4473
    4MPD2    H114386   0.398   3.718  14.816 -2.6805 -3.3816 -0.3699
    4MPD2    H214387   0.653   3.663  14.499  1.8735 -0.4837 -0.3318
    4MPD2    H314388   0.461   3.747  14.598  0.9904  0.0562 -0.3136
    4MPD2     N14389   0.533   3.541  15.000 -0.1908 -0.2509 -0.0735
    4MPD2    H514390   0.605   3.503  15.061 -1.3285 -0.2683  1.2741
    4MPD2    N114391   0.848   3.517  14.629 -0.3121 -0.1222  0.4208
    4MPD2    H714392   0.911   3.463  14.687 -0.1824 -1.2069 -0.7616
    5TMC2    C114393   0.825   2.707  14.912  0.4064 -0.1628 -0.0296
    5TMC2    C214394   0.817   2.581  14.963 -0.1179 -0.4732  0.2305
    5TMC2    C314395   0.917   2.536  15.047 -0.5199  0.3757  0.2252
    5TMC2    C414396   0.928   2.790  14.947  0.3643  0.3932 -0.0362
    5TMC2    C514397   1.027   2.744  15.024 -0.4877 -0.0749 -0.1161
    5TMC2    C614398   1.022   2.621  15.080  0.7240  0.0447 -0.6068
    5TMC2     C14399   0.706   2.786  14.951  0.1709  0.0431  0.3142
    5TMC2     O14400   0.733   2.840  15.061  0.1264 -0.3638 -0.4063
    5TMC2     H14401   0.738   2.514  14.932 -0.1223 -0.8431  1.0317
    5TMC2    H114402   0.922   2.895  14.919 -1.4363  0.4630  0.6104
    5TMC2    H214403   1.100   2.586  15.146 -0.6159  2.0750  2.0481
    5TMC2    C714404   1.077   2.840  15.120 -0.3697 -0.0601 -0.3398
    5TMC2    C814405   0.942   2.391  15.062  0.7227  0.0885 -0.2916
    5TMC2    O114406   1.197   2.849  15.145 -0.1251 -0.1093 -0.6624
    5TMC2    O214407   1.051   2.346  15.085 -0.2932  0.1617 -0.0906
    5TMC2    O514408   0.836   2.326  15.021 -0.3689 -0.3914  0.0969
    5TMC2    H514409   0.758   2.381  14.999  0.7230  1.0412 -0.2015
    6MPD2     C14410   0.222   2.996  14.932  0.4645  0.4124 -0.3531
    6MPD2    C114411   0.330   3.009  15.027  0.0372 -0.1545 -0.2582
    6MPD2    C214412   0.449   2.937  15.008  0.5506  0.0585  0.5211
    6MPD2    C314413   0.470   2.849  14.903  0.1504  0.1857 -0.5282
    6MPD2    C414414   0.366   2.836  14.812  0.3557  0.6740  0.1596
    6MPD2    C514415   0.252   2.910  14.826  0.0203  0.2833 -0.4357
    6MPD2     H14416   0.530   2.960  15.076 -0.8367  2.0573  1.4790
    6MPD2    H114417   0.366   2.764  14.731  0.1319  0.4770  0.3333
    6MPD2    H214418   0.130   3.052  14.932  0.2486  0.0493  0.4592
    6MPD2    H314419   0.178   2.894  14.748  1.0273 -2.8126 -0.7383
    6MPD2     N14420   0.591   2.785  14.876 -0.5553 -0.9828  0.0281
    6MPD2    H514421   0.593   2.722  14.797 -2.3377 -1.7543  0.6109
    6MPD2    N114422   0.331   3.105  15.131  0.2578 -0.6922  0.5613
    6MPD2    H714423   0.416   3.105  15.186  0.5372  0.8760  0.1350
  945NH4     N114424   2.248   2.569  12.373  0.4229  0.6545 -0.0781
  945NH4     H214425   2.145   2.579  12.361  0.6662 -0.4574 -3.0256
  945NH4     H314426   2.266   2.586  12.474 -2.1367  1.5897  0.2228
  945NH4     H414427   2.311   2.642  12.334 -0.4922  1.1174 -0.6895
  945NH4     H514428   2.286   2.479  12.338 -1.0685  0.0157 -0.0237
  946SOD     NA14429   1.242   0.792  10.407 -0.1516  0.8485 -0.1536
  947SOD     NA14430   3.081   2.287  15.283 -0.2021 -0.0815  0.1562
  948SOD     NA14431   1.083   2.214   4.315  0.2182 -0.0057  0.0893
  949SOD     NA14432   3.949   0.530  10.568  0.0583  0.0808 -0.2595
  950SOD     NA14433   0.293   2.746   8.218  0.2944 -0.3188  0.0136
  951SOD     NA14434   1.512   3.754  10.682  0.4844  0.0595 -0.2066
  952SOD     NA14435   1.814   0.426   5.359  0.0090 -0.4167  0.3572
  953SOD     NA14436   1.013   4.647   3.114  0.0792  0.0638 -0.0319
  954SOD     NA14437   2.832   1.864  14.062 -0.2592 -0.1954 -0.1418
  955SOD     NA14438   1.906   1.351  10.119 -0.1079  0.0570 -0.0195
  956SOD     NA14439   2.229   2.944  12.687 -0.2623 -0.1541  0.3663
  957SOD     NA14440   2.460   1.426   3.810  0.0607 -0.0967  0.0939
  958SOD     NA14441   0.322   2.300  14.083 -0.0746  0.5775 -0.1621
  959SOD     NA14442   2.006   0.887   2.736  0.0793  0.0081  0.6031
  960SOD     NA14443   2.334   1.485  10.698  0.1764 -0.5815 -0.1762
  961SOD     NA14444   3.255   0.529  14.269 -0.1067  0.0302  0.2532
  962SOD     NA14445   2.843   3.637  11.666  0.5021  0.4388  0.3547
  963SOD     NA14446   3.342   0.190   1.046  0.0358  0.5905  0.0141
  964SOD     NA14447   4.532   1.656  14.340  0.2643  0.0408  0.4800
  965SOD     NA14448   3.469   3.787  12.450  0.3862  0.3025 -0.4743
  966SOD     NA14449   4.513   0.775   8.916  0.0463 -0.0692  0.4305
  967SOD     NA14450   4.042   4.290  10.784 -0.2066 -0.0325  0.0256
  968SOD     NA14451   1.004   0.315  10.997  0.0866  0.0747 -0.1558
  969SOD     NA14452   1.157   3.636  11.519 -0.2150  0.2377 -0.2757
  970SOD     NA14453   1.926   0.797  10.358  0.4606 -0.1768 -0.2512
  971SOD     NA14454   2.258   2.806  11.938  0.8043  0.1753  0.1387
  972SOD     NA14455   3.294   2.956  15.795 -0.2660 -0.3187  0.3456
  973SOD     NA14456   3.095   4.191   5.102  0.0271  0.7325 -0.1020
  974SOD     NA14457   0.057   0.026   1.066 -0.1183 -0.1018  0.2631
  975SOD     NA14458   1.731   1.993  17.168 -0.1296 -0.5345 -0.2381
  976SOD     NA14459   4.179   2.734  14.512 -0.2836  1.0181  0.2760
  977SOD     NA14460   3.750   3.243  12.506 -0.7369  0.2897  0.2692
  978SOD     NA14461   2.598   0.850   8.872 -0.0762 -0.0817 -0.1036
  979SOD     NA14462   1.478   2.446   1.854 -0.1713  0.0071  0.9176
  980SOD     NA14463   3.273   4.317  12.516 -0.1386  0.2252 -0.0924
  981SOD     NA14464   0.069   0.125   0.752 -0.3543 -0.5054 -0.4008
  982SOD     NA14465   0.556   1.485  10.213  0.1399 -0.1596  0.2374
  983SOD     NA14466   1.441   1.144   7.067  0.1267 -0.0447  1.0235
  984SOD     NA14467   3.447   0.935   0.444 -0.2144  0.0060  0.1393
  985SOD     NA14468   3.728   0.767  13.088  0.5311  0.0605 -0.2865
  986SOD     NA14469   2.262   2.655  15.318  0.1182 -0.1873  0.6552
  987SOD     NA14470   1.493   4.168  15.885 -0.2068 -0.1770 -0.1626
  988SOD     NA14471   4.552   4.159  11.664  0.3272 -0.0835 -0.0547
  989SOD     NA14472   4.445   2.153   0.886 -0.0698  0.0144  0.3387
  990SOD     NA14473   0.967   2.582   1.693  0.2417 -0.2589  0.0615
  991SOD     NA14474   2.384   1.305  12.112 -0.0884  0.0068  0.8181
  992SOD     NA14475   0.184   1.649  15.245 -0.0593 -0.0799 -0.0681
  993SOD     NA14476   0.532   1.033  12.326 -0.2893 -0.0825 -0.5310
  994SOD     NA14477   1.419   3.314  14.936  0.2272  0.1601 -0.1722
  995SOD     NA14478   2.610   1.109  17.617 -0.3103  0.1598 -0.4709
  996SOD     NA14479   2.102   1.057  12.765  0.2906 -0.4891 -0.1182
  997SOD     NA14480   4.665   4.253   0.935 -0.5706  0.0224  0.3372
  998SOD     NA14481   3.665   3.539  12.338 -0.2133 -0.1336  0.1155
  999SOD     NA14482   3.158   1.093  13.159  0.6186  0.3967  0.5180
 1000SOD     NA14483   2.283   1.751  10.823  0.1906 -0.0888 -0.1391
 1001SOD     NA14484   0.805   1.399  13.761 -0.3231 -0.8472 -0.6800
 1002SOD     NA14485   4.061   1.709   0.146 -0.1378 -0.0820  0.1769
 1003SOD     NA14486   1.622   3.335  14.557 -0.3075 -0.6398  0.0301
 1004SOD     NA14487   3.804   3.877  13.781  0.2735 -0.2520  0.0183
 1005SOD     NA14488   3.526   3.673   2.077  0.1109 -0.5415 -0.2080
 1006SOD     NA14489   3.789   4.688  14.883  0.2382 -0.4121 -0.2733
 1007SOD     NA14490   0.206   2.103   0.850  0.2715  0.1991 -0.2276
 1008SOD     NA14491   3.397   4.342   0.851  0.3957  0.4924  0.0573
 1009SOD     NA14492   3.401   3.042  11.001  0.2225 -0.0141 -0.2298
 1010SOD     NA14493   0.431   1.508  11.147  0.5893  0.1715 -0.0543
 1011SOL     OW14494   1.435   3.009   8.727  0.2571  0.1567 -0.2209
 1011SOL    HW114495   1.473   2.967   8.805  0.2469 -2.7114 -1.7667
 1011SOL    HW214496   1.515   3.016   8.675 -0.1196  0.0576 -0.8128
 1012SOL     OW14497   4.067   0.443   3.583  1.0579  0.2495  0.1200
 1012SOL    HW114498   4.154   0.456   3.621  1.5205 -1.4290 -0.3232
 1012SOL    HW214499   4.076   0.358   3.538 -1.4956  1.1184 -2.0142
 1013SOL     OW14500   3.458   0.183   1.993  0.2538  0.1656  0.0925
 1013SOL    HW114501   3.365   0.163   1.979  0.2584  0.3921 -0.2495
 1013SOL    HW214502   3.476   0.137   2.075 -1.6987 -1.3056 -0.2871
 1014SOL     OW14503   2.953   3.728   1.899  0.0638  0.1397  0.2595
 1014SOL    HW114504   3.041   3.691   1.894  0.3794  1.2166 -1.9397
 1014SOL    HW214505   2.927   3.696   1.813 -0.2801 -2.0994  1.1924
 1015SOL     OW14506   1.697   4.101  12.209 -0.2949 -0.1019  0.0724
 1015SOL    HW114507   1.722   4.191  12.232 -1.0262  0.5078 -1.4824
 1015SOL    HW214508   1.746   4.048  12.271  0.4754 -1.7115 -1.9021
 1016SOL     OW14509   1.420   0.841  15.530 -0.3181  0.3763  0.1485
 1016SOL    HW114510   1.502   0.865  15.486 -0.8431  2.5198  0.3258
 1016SOL    HW214511   1.456   0.790  15.603  1.1843  2.5538  0.9205
 1017SOL     OW14512   2.694   0.334  13.464  0.2601 -0.1023  0.7093
 1017SOL    HW114513   2.787   0.353  13.479  0.0359  0.6818  1.1403
 1017SOL    HW214514   2.691   0.248  13.506 -1.1263 -0.2520  0.2853
 1018SOL     OW14515   0.684   0.443   5.032 -0.1637  0.2517 -0.3104
 1018SOL    HW114516   0.647   0.483   5.111 -0.2207  1.3902 -0.9102
 1018SOL    HW214517   0.778   0.451   5.043 -0.3911  3.4692 -0.6186
 1019SOL     OW14518   3.568   0.976   7.457  0.6037  0.2031 -0.2558
 1019SOL    HW114519   3.614   0.904   7.414 -0.6645  0.6233 -2.3321
 1019SOL    HW214520   3.627   1.049   7.440 -0.0246  0.4854 -1.2654
 1020SOL     OW14521   3.235   0.434  16.407 -0.1359 -0.4566 -0.0117
 1020SOL    HW114522   3.190   0.382  16.474  1.8201 -1.1340  0.7665
 1020SOL    HW214523   3.299   0.484  16.457 -1.4889  0.4080  0.8676
 1021SOL     OW14524   3.269   1.517   4.141 -0.4675 -0.0552 -0.4819
 1021SOL    HW114525   3.251   1.443   4.082 -0.6430 -0.7135  0.3946
 1021SOL    HW214526   3.190   1.569   4.155 -0.4741 -0.1981  0.0219
 1022SOL     OW14527   3.713   2.226   4.917 -0.2246 -0.0872 -0.0575
 1022SOL    HW114528   3.715   2.132   4.900 -2.1433 -0.3383  1.0282
 1022SOL    HW214529   3.807   2.246   4.909  0.4334 -2.1095  2.5978
 1023SOL     OW14530   2.851   3.625  15.373 -0.4278  0.2679 -0.1180
 1023SOL    HW114531   2.785   3.694  15.367 -1.9543 -1.1456  0.2349
 1023SOL    HW214532   2.928   3.681  15.367  2.2525 -3.3968  0.2882
 1024SOL     OW14533   2.620   2.605  17.674  0.5694 -0.1880  0.7101
 1024SOL    HW114534   2.697   2.602  17.617 -0.2162  2.8430 -0.5203
 1024SOL    HW214535   2.580   2.521  17.651  1.5200 -0.5668  0.4574
 1025SOL     OW14536   3.707   2.343  14.006 -0.4092 -0.0279  0.3212
 1025SOL    HW114537   3.756   2.386  14.077  2.5477 -0.3796 -1.4896
 1025SOL    HW214538   3.645   2.410  13.978  1.2980  1.0351 -0.9316
 1026SOL     OW14539   0.158   0.007   3.593 -0.0593  0.6051  0.1609
 1026SOL    HW114540   0.208   4.696   3.666 -1.7861 -0.9039  0.5601
 1026SOL    HW214541   0.231   0.057   3.557  0.6159 -1.1548 -0.8380
 1027SOL     OW14542   1.321   1.186  12.059 -0.2830 -0.0917  0.4539
 1027SOL    HW114543   1.251   1.189  11.994  0.4806  1.9972 -0.2746
 1027SOL    HW214544   1.391   1.239  12.021  1.0824 -1.1168  1.5632
 1028SOL     OW14545   0.334   4.648  12.446  0.0603 -0.5884 -0.3550
 1028SOL    HW114546   0.416   4.679  12.409  0.8219 -0.2496  1.6233
 1028SOL    HW214547   0.353   4.644  12.540 -0.9286 -0.0659 -0.1236
 1029SOL     OW14548   3.029   2.568  15.578 -0.3213  0.5164  0.1034
 1029SOL    HW114549   3.008   2.491  15.527 -0.1297  1.8157 -1.9325
 1029SOL    HW214550   2.954   2.621  15.551 -0.1075 -0.4461 -2.3875
 1030SOL     OW14551   1.495   3.146  14.818  0.3192  0.6245 -0.0446
 1030SOL    HW114552   1.517   3.123  14.728  0.5755  2.5196 -0.4608
 1030SOL    HW214553   1.521   3.065  14.862 -2.2680  0.4579  1.2109
 1031SOL     OW14554   2.212   1.463   2.566 -0.8163 -0.0872  0.4510
 1031SOL    HW114555   2.178   1.375   2.551 -1.3791  0.0080  1.1879
 1031SOL    HW214556   2.169   1.488   2.647 -1.6276  0.2729 -0.0915
 1032SOL     OW14557   2.832   4.205   4.163  0.2594 -0.0975  0.4452
 1032SOL    HW114558   2.870   4.129   4.206  2.8464  0.5685 -0.7051
 1032SOL    HW214559   2.894   4.218   4.091 -1.2177 -2.2113 -1.2115
 1033SOL     OW14560   1.881   0.559  15.772 -0.6962 -0.0958  0.3092
 1033SOL    HW114561   1.817   0.592  15.709  1.7836  0.0017 -2.1484
 1033SOL    HW214562   1.949   0.551  15.704  0.9701  1.7525  1.7399
 1034SOL     OW14563   1.014   3.970   8.988  0.0177 -0.2332 -0.2806
 1034SOL    HW114564   1.081   4.028   8.951  0.6653 -0.0261  1.1914
 1034SOL    HW214565   1.071   3.903   9.028 -0.1739  1.2669  2.5256
 1035SOL     OW14566   1.035   0.462  13.550  0.5329 -0.2153  0.1691
 1035SOL    HW114567   0.993   0.423  13.627  0.9673  2.1465  1.5964
 1035SOL    HW214568   0.990   0.410  13.484 -1.2799  0.7931  0.6042
 1036SOL     OW14569   0.315   3.826   9.339 -0.5257  0.2475 -0.0122
 1036SOL    HW114570   0.390   3.773   9.365 -1.1050 -1.8327 -2.6894
 1036SOL    HW214571   0.350   3.885   9.273  0.5212  0.0527  0.3717
 1037SOL     OW14572   1.986   2.576   0.088  0.4978  0.0992  0.1673
 1037SOL    HW114573   2.048   2.621   0.031  0.6940  1.4920  1.4630
 1037SOL    HW214574   2.000   2.631   0.165  0.8929  1.6361 -0.9872
 1038SOL     OW14575   2.193   3.502   8.844 -0.1002 -0.5339 -0.0777
 1038SOL    HW114576   2.106   3.484   8.809 -0.2067  1.4380 -0.8137
 1038SOL    HW214577   2.250   3.456   8.783 -4.3939 -5.0997 -0.6480
 1039SOL     OW14578   4.665   4.128   4.734 -0.4568  0.0412  0.2158
 1039SOL    HW114579   4.591   4.128   4.795 -0.4986 -1.2151  0.1540
 1039SOL    HW214580   4.690   4.220   4.740 -0.5519  0.1287 -0.8497
 1040SOL     OW14581   2.334   1.685   7.459 -0.1372  0.1712 -0.5772
 1040SOL    HW114582   2.403   1.710   7.521  0.1830 -0.6510 -0.6082
 1040SOL    HW214583   2.282   1.765   7.454 -0.1932  0.2697  1.4593
 1041SOL     OW14584   1.495   1.844   2.537 -0.0991  0.7384  0.6629
 1041SOL    HW114585   1.563   1.909   2.519  0.0039 -0.3672 -2.9535
 1041SOL    HW214586   1.548   1.774   2.498 -2.9789 -1.3200  0.4954
 1042SOL     OW14587   3.377   0.461   9.061  0.0015  0.3197  0.0357
 1042SOL    HW114588   3.400   0.408   8.984 -1.2900 -1.4063  0.8530
 1042SOL    HW214589   3.314   0.515   9.013 -0.6845 -0.8999 -0.4507
 1043SOL     OW14590   0.676   2.000  12.724  0.2476 -0.2434  0.6852
 1043SOL    HW114591   0.750   1.973  12.669 -0.3720 -0.6081  0.0240
 1043SOL    HW214592   0.629   2.031  12.647 -0.3015 -0.4151  0.9422
 1044SOL     OW14593   0.536   0.603   9.135  0.0487  0.0173  0.2675
 1044SOL    HW114594   0.493   0.589   9.219  2.2289 -0.9644  1.2111
 1044SOL    HW214595   0.578   0.687   9.151 -1.2401  0.3027  2.1692
 1045SOL     OW14596   3.722   2.683   1.779 -0.0403  0.1713  0.2237
 1045SOL    HW114597   3.638   2.685   1.824 -1.1458  0.8449 -1.8980
 1045SOL    HW214598   3.713   2.734   1.699 -0.7035  0.9688  0.8100
 1046SOL     OW14599   1.922   1.251   7.255  0.0851 -0.3411  0.3340
 1046SOL    HW114600   1.952   1.227   7.167 -0.0619  1.8759 -0.3185
 1046SOL    HW214601   2.000   1.289   7.294 -0.5401  2.1585 -0.8185
 1047SOL     OW14602   0.040   2.879   7.487 -0.3162  0.0991 -0.0853
 1047SOL    HW114603   4.692   2.834   7.448 -0.5816  0.2373  0.2585
 1047SOL    HW214604   4.716   2.945   7.534  0.3765  0.0934  0.6761
 1048SOL     OW14605   0.387   2.413   4.731 -0.5963  0.3768 -0.5144
 1048SOL    HW114606   0.417   2.419   4.640  0.6458 -0.7032 -0.1767
 1048SOL    HW214607   0.418   2.489   4.780  2.5594 -3.2754  3.1287
 1049SOL     OW14608   3.868   3.354   1.339 -0.0396  0.5095 -0.3656
 1049SOL    HW114609   3.807   3.284   1.316 -0.1079  1.3782 -2.8160
 1049SOL    HW214610   3.865   3.355   1.435 -1.3287 -0.5790 -0.3918
 1050SOL     OW14611   4.419   2.390   0.806 -0.3937 -0.6171 -0.1936
 1050SOL    HW114612   4.379   2.460   0.858 -0.0282 -0.7224  0.2222
 1050SOL    HW214613   4.505   2.425   0.785 -0.5840  0.2444  0.4329
 1051SOL     OW14614   0.878   3.604   8.096 -0.1980  0.3629 -0.2151
 1051SOL    HW114615   0.931   3.537   8.052 -0.4481  0.6026 -0.8836
 1051SOL    HW214616   0.937   3.675   8.122 -0.8663  0.5549  0.7852
 1052SOL     OW14617   4.566   1.056  16.195 -0.8174  0.1608  0.4505
 1052SOL    HW114618   4.593   1.059  16.104 -0.0728  0.8082  0.6899
 1052SOL    HW214619   4.506   1.131  16.199 -0.1318  0.8109 -1.5008
 1053SOL     OW14620   4.151   2.915   7.435  0.2240 -0.5667 -0.7902
 1053SOL    HW114621   4.066   2.881   7.408  0.2368 -0.2660 -1.2095
 1053SOL    HW214622   4.133   3.009   7.437 -0.1348 -0.6518  0.2075
 1054SOL     OW14623   4.408   0.481   4.310 -0.2670 -0.4051 -0.2229
 1054SOL    HW114624   4.419   0.501   4.403 -0.7376 -0.3481 -0.1803
 1054SOL    HW214625   4.343   0.411   4.321  0.1974 -0.9106 -0.6781
 1055SOL     OW14626   3.258   2.619   6.324  0.1566 -0.1807  0.3628
 1055SOL    HW114627   3.299   2.617   6.237 -0.9983 -1.9162 -0.1556
 1055SOL    HW214628   3.175   2.571   6.313  0.0483 -0.2432  1.5048
 1056SOL     OW14629   3.571   2.141  14.828 -0.3210  0.3706 -0.4685
 1056SOL    HW114630   3.599   2.056  14.864 -0.3641 -0.6386 -2.7824
 1056SOL    HW214631   3.650   2.195  14.830 -0.8781  1.1501  0.0677
 1057SOL     OW14632   2.905   2.366   5.589 -0.2419 -0.9357 -0.4531
 1057SOL    HW114633   2.974   2.431   5.575  0.2656 -1.4683 -0.4119
 1057SOL    HW214634   2.835   2.430   5.602  2.2789  1.2352  2.4907
 1058SOL     OW14635   2.459   1.691  10.702  0.0728 -0.1504 -0.2361
 1058SOL    HW114636   2.528   1.742  10.744  0.1522 -1.3977  1.1054
 1058SOL    HW214637   2.498   1.667  10.618  1.2784 -0.4797  0.4245
 1059SOL     OW14638   3.277   1.664   1.781  0.6460  0.0912  0.3286
 1059SOL    HW114639   3.292   1.728   1.712 -1.4432  2.3836  1.9955
 1059SOL    HW214640   3.205   1.708   1.826 -1.2650 -0.8778 -1.7720
 1060SOL     OW14641   2.178   0.312  12.922  0.2082  0.0955 -0.4199
 1060SOL    HW114642   2.199   0.308  13.015 -1.0156 -0.2552 -0.1625
 1060SOL    HW214643   2.257   0.356  12.891  0.0638  0.8660  0.2994
 1061SOL     OW14644   2.060   2.895   2.282 -0.7277 -0.1760 -0.3372
 1061SOL    HW114645   2.125   2.843   2.235 -2.0080 -1.0126 -1.2054
 1061SOL    HW214646   2.083   2.978   2.240  1.5796 -1.1365 -0.9753
 1062SOL     OW14647   2.756   1.712   3.536 -0.1699  0.0432 -0.3037
 1062SOL    HW114648   2.731   1.735   3.446 -1.7823 -1.3475 -0.2137
 1062SOL    HW214649   2.843   1.674   3.534 -0.2649 -0.3255  2.7274
 1063SOL     OW14650   4.355   4.621   6.063  0.4196 -0.0717  0.2492
 1063SOL    HW114651   4.306   4.552   6.108  1.6551 -1.1172 -0.0142
 1063SOL    HW214652   4.286   4.684   6.043  1.4665  0.4633 -1.6753
 1064SOL     OW14653   3.722   3.563   8.175 -0.9480 -0.7205 -0.2572
 1064SOL    HW114654   3.810   3.575   8.139 -0.8909 -1.0758 -0.2402
 1064SOL    HW214655   3.664   3.541   8.101 -1.4728  0.2857 -0.1480
 1065SOL     OW14656   2.584   3.223   6.101 -0.2707  0.0663 -0.1850
 1065SOL    HW114657   2.615   3.134   6.083 -0.9075 -0.2260  0.1307
 1065SOL    HW214658   2.574   3.221   6.196  0.3742 -1.1580 -0.1429
 1066SOL     OW14659   0.444   0.794   6.210 -0.8339 -0.0252  0.1479
 1066SOL    HW114660   0.449   0.851   6.287  1.0956 -1.0840  0.7916
 1066SOL    HW214661   0.383   0.731   6.247 -0.4455 -0.4449  0.0729
 1067SOL     OW14662   3.002   0.538   5.648 -0.0670  0.6183  0.4789
 1067SOL    HW114663   3.026   0.539   5.740 -1.5049  0.4433  0.8558
 1067SOL    HW214664   3.078   0.500   5.605 -2.0464 -3.9673  1.0171
 1068SOL     OW14665   4.678   1.468   1.784 -0.6115  0.1870 -0.4323
 1068SOL    HW114666   4.589   1.439   1.803  0.8419 -1.1370  4.5719
 1068SOL    HW214667   4.720   1.462   1.870 -2.1427  0.5812  0.3478
 1069SOL     OW14668   1.555   2.860   8.958 -0.7484 -0.4965  0.4121
 1069SOL    HW114669   1.546   2.842   9.051 -0.8305 -0.7069  0.3632
 1069SOL    HW214670   1.534   2.776   8.917  0.5627 -0.4534 -0.3451
 1070SOL     OW14671   3.337   3.184  15.255 -0.2730  0.2089 -0.3711
 1070SOL    HW114672   3.396   3.170  15.181  0.9417  0.1833  0.5988
 1070SOL    HW214673   3.261   3.220  15.209 -0.6977  0.8634  0.8343
 1071SOL     OW14674   0.586   1.217   2.249  0.3245  0.3617  0.1641
 1071SOL    HW114675   0.541   1.302   2.244  0.4770  0.2985 -2.4647
 1071SOL    HW214676   0.628   1.207   2.163 -1.7114 -0.7104 -0.6921
 1072SOL     OW14677   4.530   4.348   1.106  0.3196  0.4940 -0.3687
 1072SOL    HW114678   4.509   4.274   1.163  2.4340  1.0835  1.1786
 1072SOL    HW214679   4.469   4.414   1.140 -2.0783 -0.1870 -3.2831
 1073SOL     OW14680   0.388   3.077  12.244 -0.6602 -0.1848  0.2638
 1073SOL    HW114681   0.464   3.116  12.201  0.2278  0.8601  2.8056
 1073SOL    HW214682   0.419   2.987  12.251 -1.2919 -0.3667  0.6928
 1074SOL     OW14683   3.298   1.821   6.236  0.1095 -0.3278  0.4173
 1074SOL    HW114684   3.384   1.861   6.248 -1.4587  2.8705  1.1596
 1074SOL    HW214685   3.316   1.750   6.175 -0.7623  0.9984 -1.4048
 1075SOL     OW14686   0.488   3.831   1.649  0.2699 -0.0610  0.0952
 1075SOL    HW114687   0.496   3.852   1.556 -0.7856 -2.9532 -0.6578
 1075SOL    HW214688   0.480   3.919   1.686  0.2101 -1.5317  3.6335
 1076SOL     OW14689   3.557   0.752   8.044  0.7236  0.4728 -0.2833
 1076SOL    HW114690   3.579   0.666   8.079  0.9734  1.5620  2.2686
 1076SOL    HW214691   3.646   0.780   8.020  0.9210 -1.1272 -1.4216
 1077SOL     OW14692   1.594   1.236   8.185 -0.2925  0.0593  0.5903
 1077SOL    HW114693   1.552   1.220   8.101 -0.3612 -1.3574  0.9080
 1077SOL    HW214694   1.685   1.216   8.164 -1.0904 -2.7586 -0.1529
 1078SOL     OW14695   0.010   0.146   0.518 -0.0628  0.1577  0.3121
 1078SOL    HW114696   0.010   0.105   0.431 -1.5893  0.8219  0.0109
 1078SOL    HW214697   0.001   0.236   0.488 -1.1072  0.5322  1.8167
 1079SOL     OW14698   2.729   2.368  10.266 -0.7312  0.1100  0.4256
 1079SOL    HW114699   2.717   2.412  10.181  0.3795  0.5477  0.4975
 1079SOL    HW214700   2.653   2.311  10.258  1.0168 -2.4600  2.2509
 1080SOL     OW14701   3.744   3.590  10.702  0.6072 -0.6609 -0.5238
 1080SOL    HW114702   3.678   3.641  10.654  0.6435  0.8561  1.0451
 1080SOL    HW214703   3.751   3.627  10.790 -1.0548  1.0361 -1.0995
 1081SOL     OW14704   4.341   1.448   6.863 -0.0545 -0.1814  0.4569
 1081SOL    HW114705   4.293   1.446   6.945  0.8217 -1.2597  0.9353
 1081SOL    HW214706   4.337   1.357   6.833  0.5297 -0.2081  0.4517
 1082SOL     OW14707   3.022   1.261   0.875 -0.2661 -0.3188 -0.5805
 1082SOL    HW114708   2.951   1.287   0.816 -2.1111 -1.6255  1.0363
 1082SOL    HW214709   2.972   1.244   0.955  2.5191  0.4449  1.3149
 1083SOL     OW14710   2.775   1.629  11.920 -0.5186 -0.3985 -0.6389
 1083SOL    HW114711   2.680   1.642  11.930 -0.0351  2.4433  0.1824
 1083SOL    HW214712   2.776   1.611  11.826 -0.8418  0.0581 -0.7280
 1084SOL     OW14713   3.543   3.833   9.301 -1.0243 -0.6768  0.8176
 1084SOL    HW114714   3.501   3.761   9.252 -1.4620  2.2973 -3.2194
 1084SOL    HW214715   3.527   3.905   9.240 -3.8212 -2.5777 -0.6792
 1085SOL     OW14716   2.895   3.787   5.762 -0.6362 -0.3016 -0.5688
 1085SOL    HW114717   2.926   3.866   5.807  1.1031 -0.1848 -2.0306
 1085SOL    HW214718   2.972   3.792   5.706 -0.5206  1.8451 -0.2194
 1086SOL     OW14719   1.767   2.063   4.154  0.0630  0.2269  0.0227
 1086SOL    HW114720   1.676   2.068   4.127  0.0048 -0.9381 -0.0117
 1086SOL    HW214721   1.759   2.094   4.244  1.4481  2.4906 -0.6282
 1087SOL     OW14722   1.014   3.007   0.127  0.2364 -0.0116 -0.3362
 1087SOL    HW114723   1.095   2.993   0.078  0.4400 -2.2603  0.6360
 1087SOL    HW214724   0.978   3.082   0.079 -0.6012 -0.6091 -0.6361
 1088SOL     OW14725   3.849   3.309   8.464  0.0928 -0.2801 -0.1508
 1088SOL    HW114726   3.855   3.371   8.537 -0.4532  0.9076 -1.1094
 1088SOL    HW214727   3.933   3.270   8.486  0.5047  0.2655 -0.7683
 1089SOL     OW14728   1.713   1.768   6.532 -0.5076 -0.5519 -0.7138
 1089SOL    HW114729   1.663   1.784   6.612 -1.5026 -1.7757 -1.0896
 1089SOL    HW214730   1.730   1.859   6.505 -3.0797  0.4487  1.0208
 1090SOL     OW14731   3.568   0.659   1.841  0.2950  0.2871  0.0788
 1090SOL    HW114732   3.531   0.599   1.776 -0.2436  2.5017 -1.6359
 1090SOL    HW214733   3.559   0.611   1.924  0.8747 -2.3793 -1.3726
 1091SOL     OW14734   2.336   1.672   4.717 -0.0064 -0.1786  0.2937
 1091SOL    HW114735   2.402   1.679   4.786  1.1093  0.0600 -0.7978
 1091SOL    HW214736   2.256   1.705   4.759 -0.0964 -1.3300  1.0041
 1092SOL     OW14737   3.742   4.246   3.933  0.1512 -0.2708  0.2190
 1092SOL    HW114738   3.750   4.332   3.892 -1.6660 -1.0248 -1.7442
 1092SOL    HW214739   3.658   4.256   3.978 -0.5486  1.9040 -1.5597
 1093SOL     OW14740   2.223   0.087  11.463  0.2118  0.1231  0.4181
 1093SOL    HW114741   2.292   0.025  11.487  0.9542  1.3197  1.4128
 1093SOL    HW214742   2.268   0.171  11.459  0.1394 -0.0744 -4.1234
 1094SOL     OW14743   2.417   1.190  10.928 -0.1451  0.0491 -0.4971
 1094SOL    HW114744   2.454   1.234  11.004 -1.4047 -1.3954  0.9753
 1094SOL    HW214745   2.348   1.249  10.899 -1.9733 -1.4105  0.8198
 1095SOL     OW14746   4.558   4.032   1.024 -0.3633 -0.5120 -0.9973
 1095SOL    HW114747   4.544   3.970   1.095  1.4513 -1.4386 -1.4446
 1095SOL    HW214748   4.556   3.969   0.952  0.9333  0.4467 -1.8615
 1096SOL     OW14749   4.422   1.978   9.458  0.0276 -0.1718 -0.2592
 1096SOL    HW114750   4.359   1.924   9.507 -2.0063  1.5815 -0.9462
 1096SOL    HW214751   4.360   2.027   9.404 -1.7439 -0.2174  1.7118
 1097SOL     OW14752   0.063   0.452   5.974 -0.4039  0.2343 -0.0609
 1097SOL    HW114753   0.135   0.421   5.920 -0.5022  2.1854 -1.2825
 1097SOL    HW214754   0.055   0.377   6.034 -2.3987  1.2586  0.9607
 1098SOL     OW14755   1.567   1.049   3.885 -0.2110 -0.0485 -0.2414
 1098SOL    HW114756   1.546   1.143   3.884 -2.2618 -0.4718  2.6157
 1098SOL    HW214757   1.481   1.023   3.853 -0.3860 -0.8605  0.9011
 1099SOL     OW14758   0.690   4.247   2.859 -0.4746  0.0789 -0.3595
 1099SOL    HW114759   0.690   4.156   2.889 -1.0204  0.8975  2.1564
 1099SOL    HW214760   0.677   4.292   2.943 -0.0945  1.8757 -1.2474
 1100SOL     OW14761   2.649   3.841   6.619 -0.3930  0.3601 -0.8389
 1100SOL    HW114762   2.560   3.847   6.653 -0.2684 -3.1983  0.0790
 1100SOL    HW214763   2.699   3.838   6.700  0.4894  0.4492 -1.3796
 1101SOL     OW14764   2.250   0.649   7.810 -0.1641 -0.0482  0.0521
 1101SOL    HW114765   2.219   0.611   7.728  0.5374 -0.6495  0.0671
 1101SOL    HW214766   2.296   0.722   7.768 -0.9705  0.0101 -0.7234
 1102SOL     OW14767   0.297   0.973  16.584 -0.3155 -0.5886  0.0358
 1102SOL    HW114768   0.337   0.898  16.629  0.0554  1.7175  3.5286
 1102SOL    HW214769   0.365   1.026  16.543 -1.4584 -0.5441 -1.8255
 1103SOL     OW14770   2.489   3.667   5.889 -0.3082 -0.5506  0.6407
 1103SOL    HW114771   2.433   3.673   5.966 -0.8792 -2.9232  0.4147
 1103SOL    HW214772   2.555   3.601   5.908 -0.4809 -1.0237 -0.3773
 1104SOL     OW14773   1.441   1.684   3.321 -0.4528 -0.4666 -0.7449
 1104SOL    HW114774   1.503   1.646   3.259  1.3344 -0.0251  0.7565
 1104SOL    HW214775   1.505   1.731   3.376 -2.5665  1.1810  0.3114
 1105SOL     OW14776   2.053   4.207  14.851 -0.2140 -0.0309 -0.2071
 1105SOL    HW114777   2.031   4.280  14.793 -1.1044 -0.3070 -0.2152
 1105SOL    HW214778   1.966   4.195  14.890 -0.4599  2.6084  0.0358
 1106SOL     OW14779   2.749   1.053   1.804 -0.4019 -0.5163  0.1485
 1106SOL    HW114780   2.722   0.997   1.877  0.3950 -0.9893  0.0760
 1106SOL    HW214781   2.681   1.120   1.803 -0.4682 -0.5956 -0.7173
 1107SOL     OW14782   1.962   0.050   2.138 -0.1403  0.3861  0.3949
 1107SOL    HW114783   2.040   4.721   2.134  0.5426  1.4782 -1.8252
 1107SOL    HW214784   2.003   0.137   2.146  1.8627 -0.6718  1.8863
 1108SOL     OW14785   1.867   0.307  16.813  0.1175  0.1252 -0.4483
 1108SOL    HW114786   1.879   0.230  16.869  1.1171  0.9075  0.4064
 1108SOL    HW214787   1.920   0.372  16.860 -1.4304  1.1281 -0.0760
 1109SOL     OW14788   2.169   1.785   4.898 -0.2732  0.1634  0.0867
 1109SOL    HW114789   2.116   1.798   4.977  0.4834  0.0661  0.6097
 1109SOL    HW214790   2.219   1.866   4.909  0.3845 -0.3919  1.1537
 1110SOL     OW14791   1.102   3.789   3.989  0.1059 -0.0902  0.0319
 1110SOL    HW114792   1.120   3.706   3.944  1.0457 -1.7561  3.4142
 1110SOL    HW214793   1.066   3.838   3.916 -2.0932 -4.0430 -1.5455
 1111SOL     OW14794   4.638   0.401  10.102 -0.0532  0.2345  0.2341
 1111SOL    HW114795   4.692   0.373  10.028  1.0523  1.0631  0.7259
 1111SOL    HW214796   4.604   0.316  10.131 -0.1336  0.2975  0.3254
 1112SOL     OW14797   4.038   3.368  11.824  0.1833  0.0281  1.2922
 1112SOL    HW114798   4.025   3.363  11.729  2.9853  0.3173  0.8865
 1112SOL    HW214799   4.059   3.460  11.837  1.1150  0.0377 -0.3734
 1113SOL     OW14800   4.245   4.376   5.460  0.0664 -0.0713 -0.2023
 1113SOL    HW114801   4.321   4.435   5.466 -0.4925  0.5161  0.9422
 1113SOL    HW214802   4.273   4.291   5.493  1.4203  0.6862  0.6038
 1114SOL     OW14803   0.829   2.389   7.843 -0.0188  0.3445  0.0537
 1114SOL    HW114804   0.866   2.306   7.872  0.7411  0.7214  0.1716
 1114SOL    HW214805   0.748   2.383   7.893  0.0852 -0.7600  0.0862
 1115SOL     OW14806   3.887   1.037  10.718 -0.3532  0.0858  0.3823
 1115SOL    HW114807   3.830   1.101  10.677 -0.8185 -0.0250  0.8540
 1115SOL    HW214808   3.941   1.095  10.772  0.8532 -0.4497 -0.2518
 1116SOL     OW14809   2.989   1.004   6.701  0.0097  0.2922  0.3067
 1116SOL    HW114810   3.077   1.034   6.722  0.8721 -2.4817  0.6287
 1116SOL    HW214811   2.949   1.086   6.670 -0.7646  0.0905  0.7693
 1117SOL     OW14812   3.932   2.882  17.255 -0.4396  0.0092 -0.0779
 1117SOL    HW114813   3.993   2.808  17.259  0.0240  0.2808 -2.3026
 1117SOL    HW214814   3.978   2.939  17.194  1.6784 -0.3008  1.2030
 1118SOL     OW14815   3.891   0.283  11.163  0.0983 -0.1129 -0.1555
 1118SOL    HW114816   3.854   0.278  11.251 -1.7356  0.5352 -0.8797
 1118SOL    HW214817   3.920   0.374  11.168 -1.5821  0.4725 -0.7763
 1119SOL     OW14818   0.863   2.286   7.146 -0.0221  0.0500 -0.1557
 1119SOL    HW114819   0.804   2.356   7.118 -3.3555 -3.6132 -2.4380
 1119SOL    HW214820   0.895   2.313   7.232 -1.2471  0.0760  0.3049
 1120SOL     OW14821   0.188   4.465   6.414  0.1506 -0.7521 -0.5040
 1120SOL    HW114822   0.196   4.509   6.330 -1.8689  0.4812 -0.0687
 1120SOL    HW214823   0.095   4.444   6.424  0.5971 -1.9523  1.1273
 1121SOL     OW14824   0.719   2.698   8.672  0.3443  0.2670 -0.3682
 1121SOL    HW114825   0.681   2.759   8.735 -1.3618 -1.0053 -0.1624
 1121SOL    HW214826   0.782   2.749   8.621 -0.1423  0.6660 -0.5583
 1122SOL     OW14827   2.804   4.102   6.998  0.6571 -0.1768 -0.2277
 1122SOL    HW114828   2.777   4.093   6.907  1.1821  1.1504 -0.5138
 1122SOL    HW214829   2.755   4.182   7.017  0.8122  0.3284 -1.9616
 1123SOL     OW14830   2.875   2.003   3.412  0.1055 -0.2484  0.1545
 1123SOL    HW114831   2.945   2.007   3.347  0.0285  2.6750  0.2459
 1123SOL    HW214832   2.799   2.020   3.356 -1.3730  1.6117  2.7022
 1124SOL     OW14833   0.499   3.711   5.719  0.2149 -0.5089  0.3836
 1124SOL    HW114834   0.433   3.688   5.653 -1.1361 -1.2938  1.9782
 1124SOL    HW214835   0.514   3.620   5.747 -0.0835  0.0343  2.2752
 1125SOL     OW14836   0.841   3.306   3.430  0.2374  0.5360  0.0132
 1125SOL    HW114837   0.766   3.248   3.443 -0.6523  1.5460 -0.6934
 1125SOL    HW214838   0.808   3.394   3.442 -0.9015 -0.2605  2.6616
 1126SOL     OW14839   1.631   4.707   9.532  0.5182  0.2303 -0.0104
 1126SOL    HW114840   1.693   0.052   9.550  2.1745 -1.2728  0.2160
 1126SOL    HW214841   1.660   4.641   9.594 -1.7496  0.6910  1.5246
 1127SOL     OW14842   0.988   0.345   5.364 -0.3484  0.4723  0.3780
 1127SOL    HW114843   1.029   0.430   5.343  1.9045 -0.7241 -0.1019
 1127SOL    HW214844   0.947   0.380   5.443  0.4758  1.2893  0.4532
 1128SOL     OW14845   3.502   3.872   7.510 -0.0090  0.3690 -0.2649
 1128SOL    HW114846   3.588   3.890   7.471 -1.2080  1.7005 -2.2965
 1128SOL    HW214847   3.508   3.780   7.535 -0.1658 -0.0048 -1.6117
 1129SOL     OW14848   3.003   2.031   7.585 -0.6239  0.1269 -0.3982
 1129SOL    HW114849   3.030   2.091   7.654 -0.9901  0.0363 -0.1711
 1129SOL    HW214850   3.082   2.043   7.533  1.2526 -3.0168  1.7278
 1130SOL     OW14851   1.677   4.617   8.192  0.2820 -0.3411 -0.7734
 1130SOL    HW114852   1.666   4.709   8.217 -1.3375 -0.9525  0.7366
 1130SOL    HW214853   1.667   4.627   8.097 -0.1943  2.2421 -0.4565
 1131SOL     OW14854   4.234   2.708   5.446  0.0220  0.1961  0.1156
 1131SOL    HW114855   4.142   2.700   5.469 -0.6006 -0.4904 -2.6544
 1131SOL    HW214856   4.230   2.766   5.370  0.0944 -1.1616 -0.9194
 1132SOL     OW14857   1.649   0.982  10.025 -0.1888 -0.0837  0.2639
 1132SOL    HW114858   1.568   0.956   9.982 -0.1058  2.0910 -1.1735
 1132SOL    HW214859   1.690   1.025   9.950  0.7614  0.3389  1.0279
 1133SOL     OW14860   4.632   4.273   9.076  0.3759  0.0399 -0.2134
 1133SOL    HW114861   4.681   4.243   9.153 -1.5581 -2.0561  0.1991
 1133SOL    HW214862   4.552   4.309   9.114  1.3335 -0.8021  2.6024
 1134SOL     OW14863   1.127   4.616  10.441 -0.3724 -0.0933  0.1526
 1134SOL    HW114864   1.037   4.634  10.415 -0.1015  0.4893 -0.3962
 1134SOL    HW214865   1.166   4.698  10.410 -0.0488 -0.2396  0.1690
 1135SOL     OW14866   3.253   1.731  17.699  0.0362  0.3943 -0.3702
 1135SOL    HW114867   3.234   1.825  17.696 -1.4164  0.0662 -1.4678
 1135SOL    HW214868   3.234   1.694  17.613  0.1071  0.4169 -0.3957
 1136SOL     OW14869   0.903   1.209   2.810 -0.4902  0.1816  0.1317
 1136SOL    HW114870   0.843   1.146   2.770 -0.2458 -0.2000  0.3786
 1136SOL    HW214871   0.978   1.201   2.751 -1.7655 -1.4460 -1.2677
 1137SOL     OW14872   0.195   2.895   6.585 -0.2420  0.5491 -0.0553
 1137SOL    HW114873   0.153   2.982   6.588 -2.2007 -0.3864 -0.1965
 1137SOL    HW214874   0.124   2.833   6.600 -0.3361  0.9101  1.0060
 1138SOL     OW14875   3.951   4.356   2.428  0.9953 -0.3851 -0.1308
 1138SOL    HW114876   3.925   4.313   2.346 -1.1633 -1.1360  0.9266
 1138SOL    HW214877   3.870   4.369   2.478  0.5918 -2.8747 -0.1420
 1139SOL     OW14878   3.722   1.789   2.044  0.0367 -0.2164  0.4931
 1139SOL    HW114879   3.652   1.777   1.979 -0.2359  2.9508  0.1802
 1139SOL    HW214880   3.671   1.788   2.125  0.3976 -0.1733  0.7214
 1140SOL     OW14881   0.822   1.232   8.984  0.2591  0.2968  0.0174
 1140SOL    HW114882   0.861   1.246   9.070 -3.5262  1.3836  1.5454
 1140SOL    HW214883   0.868   1.280   8.915 -1.0008  2.7965  0.9320
 1141SOL     OW14884   1.799   2.364   1.040  0.2449 -0.1145 -0.0037
 1141SOL    HW114885   1.722   2.310   1.021  0.9748 -1.2177  0.2170
 1141SOL    HW214886   1.774   2.437   0.984  0.0411 -1.7575 -2.0586
 1142SOL     OW14887   1.916   3.596   7.081  0.5022 -0.4183  0.9739
 1142SOL    HW114888   1.906   3.548   6.999  0.2455 -1.3959  1.5866
 1142SOL    HW214889   1.978   3.665   7.054  0.0580 -0.1987  0.5199
 1143SOL     OW14890   3.480   4.536  16.177 -0.3313 -0.0027 -0.0902
 1143SOL    HW114891   3.411   4.513  16.116  0.0810 -2.2552  0.3220
 1143SOL    HW214892   3.424   4.542  16.255 -0.3169 -0.8757 -0.0227
 1144SOL     OW14893   1.201   3.202   4.767  0.4721 -0.2809  0.4622
 1144SOL    HW114894   1.191   3.202   4.862  0.0466 -0.7369  0.4160
 1144SOL    HW214895   1.124   3.257   4.748  0.4067 -0.6419 -0.2817
 1145SOL     OW14896   3.608   1.066   5.594  0.6800  0.0399  0.1930
 1145SOL    HW114897   3.595   1.072   5.499  0.2942 -0.5892  0.2089
 1145SOL    HW214898   3.660   0.986   5.592  1.0491  0.3129 -1.0498
 1146SOL     OW14899   2.440   2.796   7.113 -0.8975  0.3048  0.3100
 1146SOL    HW114900   2.457   2.807   7.019 -0.6270  0.6764  0.4021
 1146SOL    HW214901   2.528   2.827   7.136 -1.4287  3.6146 -2.1803
 1147SOL     OW14902   1.239   4.176   1.686 -0.0179  0.5726 -1.0637
 1147SOL    HW114903   1.326   4.164   1.648  0.5712 -0.7696  0.6920
 1147SOL    HW214904   1.204   4.257   1.649 -2.6654 -0.0021  0.1459
 1148SOL     OW14905   2.774   3.621   9.671 -0.0686 -0.4145  0.0582
 1148SOL    HW114906   2.754   3.710   9.642 -1.2352  0.4756  3.5200
 1148SOL    HW214907   2.690   3.607   9.716 -0.7902  0.6677 -0.9572
 1149SOL     OW14908   1.745   3.226   0.617 -0.2544  0.6975  0.3337
 1149SOL    HW114909   1.809   3.210   0.687  1.6676  2.9623 -0.9052
 1149SOL    HW214910   1.768   3.317   0.603  0.0851  0.6852  0.7760
 1150SOL     OW14911   3.137   0.506   2.167  0.8735  0.1068 -0.3268
 1150SOL    HW114912   3.214   0.561   2.186  1.2483  0.5472 -3.0513
 1150SOL    HW214913   3.108   0.543   2.083  0.7695  0.9546  0.0783
 1151SOL     OW14914   3.860   0.510   8.474  0.3774 -0.0928  0.2150
 1151SOL    HW114915   3.792   0.457   8.433 -0.2423  2.1181 -1.5821
 1151SOL    HW214916   3.929   0.510   8.407 -1.5682  0.0987 -1.7668
 1152SOL     OW14917   3.208   1.277  13.033 -0.2199  0.3913 -0.4162
 1152SOL    HW114918   3.302   1.295  13.037  0.3122 -2.1105 -1.6065
 1152SOL    HW214919   3.176   1.341  12.969  2.8648  1.8634 -0.5064
 1153SOL     OW14920   0.055   4.514   6.836  0.4138  0.0640  0.5222
 1153SOL    HW114921   0.051   4.433   6.886 -0.4109 -0.4893 -0.4386
 1153SOL    HW214922   4.696   4.518   6.794  1.1191  2.5621 -0.6990
 1154SOL     OW14923   4.331   2.953   8.800 -0.8885 -0.2313  0.5947
 1154SOL    HW114924   4.278   3.002   8.863 -0.2893  0.2055  0.7703
 1154SOL    HW214925   4.402   3.011   8.772 -0.8094 -0.4245  0.3963
 1155SOL     OW14926   2.132   2.232   0.511  0.3627  0.1867 -0.0559
 1155SOL    HW114927   2.130   2.140   0.486  2.5159 -0.5985  2.7117
 1155SOL    HW214928   2.224   2.254   0.498  0.1639 -0.2218 -2.0813
 1156SOL     OW14929   0.620   4.336   7.409 -0.8367 -0.2359 -0.6612
 1156SOL    HW114930   0.561   4.317   7.336 -0.1254 -2.5604 -0.6534
 1156SOL    HW214931   0.612   4.430   7.419 -1.0451  0.0700 -3.6888
 1157SOL     OW14932   4.046   2.798   4.767 -0.6527 -0.1267  0.2535
 1157SOL    HW114933   3.971   2.858   4.761  0.6548  1.5858  1.0629
 1157SOL    HW214934   3.991   2.724   4.742 -1.3521  0.3566  0.3340
 1158SOL     OW14935   0.863   4.658   3.765 -0.5065  0.2119  0.0381
 1158SOL    HW114936   0.847   0.022   3.740 -1.1511  0.4228  1.2218
 1158SOL    HW214937   0.905   4.667   3.850  1.7051  2.3922 -1.2732
 1159SOL     OW14938   3.365   1.552   0.611  0.5923 -0.1810 -0.4177
 1159SOL    HW114939   3.399   1.533   0.524  0.6378 -1.0639 -0.2016
 1159SOL    HW214940   3.321   1.469   0.632  2.1576 -0.8354  0.2757
 1160SOL     OW14941   4.027   0.330   5.402  0.5559  0.3805 -0.0388
 1160SOL    HW114942   4.037   0.389   5.477 -1.3084 -1.2492  1.4773
 1160SOL    HW214943   4.045   0.246   5.444  1.6157 -0.1865 -1.6030
 1161SOL     OW14944   2.078   2.773   7.796 -0.2140  0.2865 -0.4345
 1161SOL    HW114945   2.045   2.683   7.802 -0.2254  0.4688  2.0480
 1161SOL    HW214946   2.153   2.763   7.854 -0.2505  0.9058 -0.2893
 1162SOL     OW14947   3.316   3.787   2.497 -0.0775  0.0012 -0.2810
 1162SOL    HW114948   3.306   3.719   2.564 -0.3771  0.5784  0.2642
 1162SOL    HW214949   3.236   3.759   2.453 -0.9411 -2.8452  3.0811
 1163SOL     OW14950   2.644   0.367  13.075 -0.3470  0.0968  0.0569
 1163SOL    HW114951   2.683   0.321  13.000  0.4729  0.0900  0.4798
 1163SOL    HW214952   2.695   0.325  13.145  1.9371  0.8923 -1.1290
 1164SOL     OW14953   3.149   4.029  13.784 -0.2206  0.3729 -0.2286
 1164SOL    HW114954   3.214   3.965  13.814  0.3385  1.3654  0.7138
 1164SOL    HW214955   3.099   4.047  13.864 -0.7397 -2.9466  0.2045
 1165SOL     OW14956   2.727   3.095  14.151 -0.3587  0.2479 -0.5461
 1165SOL    HW114957   2.780   3.075  14.074 -1.0810  1.6083 -1.3990
 1165SOL    HW214958   2.656   3.033  14.136 -0.9202  0.6832  0.2883
 1166SOL     OW14959   0.598   1.052   8.738 -0.0395 -0.1813  0.7984
 1166SOL    HW114960   0.613   1.001   8.658 -1.2751 -0.0354  0.4806
 1166SOL    HW214961   0.655   1.126   8.715 -2.7319  1.2268 -1.4375
 1167SOL     OW14962   3.824   0.479   9.313  0.3412 -0.7228 -0.3257
 1167SOL    HW114963   3.734   0.495   9.283  0.0198 -1.5992  0.1670
 1167SOL    HW214964   3.802   0.414   9.379 -2.6626 -0.7044 -1.3093
 1168SOL     OW14965   0.006   3.313   9.882  0.3004 -0.5268 -0.5876
 1168SOL    HW114966   4.655   3.279   9.926 -0.0325 -1.4119 -1.8813
 1168SOL    HW214967   0.066   3.239   9.890  0.4172 -0.3656  0.0093
 1169SOL     OW14968   2.385   2.277   3.287 -0.2111  0.5168 -0.0917
 1169SOL    HW114969   2.347   2.294   3.373 -4.2183  3.2174 -2.4139
 1169SOL    HW214970   2.324   2.325   3.231  0.2732  0.7597 -0.4100
 1170SOL     OW14971   3.571   4.223  15.422 -0.2179  0.1753  0.3172
 1170SOL    HW114972   3.486   4.267  15.428 -0.8647 -0.8613 -1.2388
 1170SOL    HW214973   3.545   4.147  15.370  1.0881 -0.2429  0.2735
 1171SOL     OW14974   0.944   2.432   3.448 -0.3574  0.1542  0.0366
 1171SOL    HW114975   0.975   2.515   3.485 -0.1154 -0.0526  0.3018
 1171SOL    HW214976   1.018   2.372   3.461  0.6605  1.9297  2.3018
 1172SOL     OW14977   3.790   3.202  17.231 -0.4465 -0.2013 -0.4306
 1172SOL    HW114978   3.868   3.154  17.203  1.1218  1.4982  1.0314
 1172SOL    HW214979   3.755   3.132  17.286  0.2663  0.0808  0.3827
 1173SOL     OW14980   2.086   3.233  13.943  0.0469  1.2307 -0.2961
 1173SOL    HW114981   2.047   3.207  13.859  0.5320  0.2760 -0.2255
 1173SOL    HW214982   2.175   3.198  13.933 -0.1690  1.0493 -1.5853
 1174SOL     OW14983   1.363   1.874   3.089 -0.3162 -0.2023 -0.1301
 1174SOL    HW114984   1.386   1.820   3.165  1.3721  0.4562 -0.1659
 1174SOL    HW214985   1.430   1.856   3.023  0.0210  0.8582 -0.0841
 1175SOL     OW14986   1.611   4.098   8.367 -0.6305 -0.4282  0.3553
 1175SOL    HW114987   1.646   4.010   8.349 -1.4691 -0.5210 -0.8152
 1175SOL    HW214988   1.695   4.142   8.356 -1.1855  0.4925 -0.1440
 1176SOL     OW14989   0.980   4.262  14.269  0.3168 -0.4893 -0.8959
 1176SOL    HW114990   1.069   4.296  14.268  0.6104 -1.1995  0.1202
 1176SOL    HW214991   0.993   4.227  14.358 -0.6986  0.8184 -0.2348
 1177SOL     OW14992   2.999   4.579   6.022  0.1033  0.3754 -0.1953
 1177SOL    HW114993   2.941   4.652   6.001 -0.0595  0.3018  0.0032
 1177SOL    HW214994   3.010   4.542   5.934 -0.3227  1.0303 -0.5288
 1178SOL     OW14995   2.792   2.647   7.209 -0.1892  0.2746 -0.1581
 1178SOL    HW114996   2.748   2.730   7.193 -2.2448 -0.8248 -0.2585
 1178SOL    HW214997   2.864   2.642   7.145 -1.2112 -0.4365 -1.2660
 1179SOL     OW14998   0.594   0.327  17.603 -0.1028 -0.2736 -0.9211
 1179SOL    HW114999   0.560   0.239  17.618 -1.3510  0.5718  1.2066
 1179SOL    HW215000   0.552   0.373  17.676  2.0925 -0.1208  0.2777
 1180SOL     OW15001   4.261   2.582   2.691 -0.3709  0.4883 -0.6986
 1180SOL    HW115002   4.262   2.531   2.610 -2.5165  2.8114 -2.1907
 1180SOL    HW215003   4.207   2.655   2.660 -1.2900 -0.6493 -1.7507
 1181SOL     OW15004   1.351   4.592   2.242  0.3187  0.2834  0.4470
 1181SOL    HW115005   1.362   4.532   2.168  0.2011  0.5711  0.1964
 1181SOL    HW215006   1.255   4.591   2.244  0.3181  0.1292  0.3404
 1182SOL     OW15007   4.035   1.000  14.826  0.4434 -0.4141  0.0041
 1182SOL    HW115008   4.053   1.094  14.824  0.4051 -0.3263  3.7514
 1182SOL    HW215009   4.019   0.977  14.734  2.4562 -2.8642  0.2764
 1183SOL     OW15010   3.459   0.993   9.507 -0.3750 -0.0080 -0.6617
 1183SOL    HW115011   3.373   1.007   9.466 -0.1919  1.1754 -0.6424
 1183SOL    HW215012   3.504   0.954   9.432 -0.6577 -3.5930  1.0024
 1184SOL     OW15013   2.433   2.758  17.559 -0.2136 -0.2264  0.3244
 1184SOL    HW115014   2.491   2.823  17.520  1.5216 -0.6917  2.1294
 1184SOL    HW215015   2.499   2.698  17.594  0.6676 -0.3520 -1.5619
 1185SOL     OW15016   3.485   2.280  15.050 -0.1938 -0.2007  0.1088
 1185SOL    HW115017   3.424   2.351  15.032  0.4272  0.0449 -1.0521
 1185SOL    HW215018   3.499   2.241  14.964  0.2699 -1.8824  0.9457
 1186SOL     OW15019   2.304   4.189   8.651  0.5519  0.2122  0.0627
 1186SOL    HW115020   2.276   4.256   8.589  1.6691 -0.2129 -0.9015
 1186SOL    HW215021   2.238   4.203   8.719 -1.1624 -2.9707 -0.9618
 1187SOL     OW15022   3.825   4.711  17.521  0.1444 -0.6882 -0.2565
 1187SOL    HW115023   3.821   0.064  17.574  2.1163  0.3704 -1.6721
 1187SOL    HW215024   3.738   4.713  17.482  0.4138  0.0258 -0.8237
 1188SOL     OW15025   1.319   3.906  15.579  0.4520  0.2505  0.0334
 1188SOL    HW115026   1.281   3.987  15.614 -2.0693  0.2754 -2.7526
 1188SOL    HW215027   1.237   3.860  15.560  0.4990 -0.2358  0.9918
 1189SOL     OW15028   1.934   1.826   4.437  0.0314 -0.3270 -0.7420
 1189SOL    HW115029   1.894   1.831   4.523 -2.0860 -1.7249 -1.6543
 1189SOL    HW215030   1.970   1.737   4.445  0.0898 -0.0736  1.6320
 1190SOL     OW15031   0.760   3.625   3.490 -0.6213  0.0449 -0.6041
 1190SOL    HW115032   0.727   3.674   3.414 -2.1444 -1.2930 -0.8064
 1190SOL    HW215033   0.698   3.664   3.552 -0.5737  1.2599 -1.3125
 1191SOL     OW15034   3.795   3.860   7.452  0.1504 -0.4007  0.0413
 1191SOL    HW115035   3.867   3.855   7.389  0.3773  1.7079  0.1101
 1191SOL    HW215036   3.817   3.796   7.519 -0.5369  0.6889  1.3020
 1192SOL     OW15037   1.688   2.105   2.517 -0.2820  0.1516  0.4847
 1192SOL    HW115038   1.738   2.173   2.561 -0.4044  1.5736 -1.5652
 1192SOL    HW215039   1.753   2.077   2.453 -1.4562 -0.3149 -0.4955
 1193SOL     OW15040   1.948   3.466   9.910 -0.0156  0.0762  0.3533
 1193SOL    HW115041   2.025   3.452   9.855 -1.1742 -0.1076 -1.2044
 1193SOL    HW215042   1.947   3.376   9.943 -2.1878 -0.6792 -1.7790
 1194SOL     OW15043   3.863   4.268   5.283 -0.0178 -0.3341 -0.2075
 1194SOL    HW115044   3.785   4.269   5.228 -1.6404 -1.2722  2.0659
 1194SOL    HW215045   3.883   4.175   5.283 -1.6165 -0.6771  2.5211
 1195SOL     OW15046   2.417   0.542   3.238 -0.2985 -0.3090 -0.5776
 1195SOL    HW115047   2.478   0.531   3.165 -1.6052  3.1963 -2.1902
 1195SOL    HW215048   2.481   0.568   3.304  0.1479 -1.2291 -0.6575
 1196SOL     OW15049   1.185   3.040   8.403 -0.1559 -0.2268  0.5094
 1196SOL    HW115050   1.184   2.947   8.378 -0.5239  0.0385 -0.4659
 1196SOL    HW215051   1.123   3.081   8.342 -0.5780 -0.8266  0.5334
 1197SOL     OW15052   4.459   1.469   0.040  0.2875  0.2084 -0.4582
 1197SOL    HW115053   4.400   1.496  17.677 -1.4556 -0.3453  0.7801
 1197SOL    HW215054   4.541   1.505   0.008  1.1657 -0.0186  1.5284
 1198SOL     OW15055   0.647   2.464   6.556  0.0628 -0.1873  0.2223
 1198SOL    HW115056   0.652   2.482   6.649 -0.5858 -2.7433  0.7514
 1198SOL    HW215057   0.713   2.524   6.521 -0.5012  0.7101  0.7050
 1199SOL     OW15058   0.429   1.433   1.507 -0.1442 -0.1646 -0.8946
 1199SOL    HW115059   0.342   1.447   1.545 -0.1012  0.4525 -1.0407
 1199SOL    HW215060   0.436   1.506   1.446 -0.6133  1.1776  0.6456
 1200SOL     OW15061   1.824   4.025   2.893 -0.1777  0.5349 -0.7445
 1200SOL    HW115062   1.902   4.028   2.839 -0.5885 -0.3632 -1.3933
 1200SOL    HW215063   1.779   4.103   2.860 -0.7938 -0.2423 -1.7364
 1201SOL     OW15064   4.144   2.970  12.406  0.2044  0.6601  0.3657
 1201SOL    HW115065   4.187   2.970  12.491  0.0724 -0.1667  0.4317
 1201SOL    HW215066   4.133   2.876  12.397  1.2781  0.6066 -0.4165
 1202SOL     OW15067   1.335   2.251   1.791  0.2341 -0.0060  0.6170
 1202SOL    HW115068   1.368   2.217   1.708  1.5529  1.0483  0.7073
 1202SOL    HW215069   1.303   2.173   1.835  2.9245 -1.5185 -0.0793
 1203SOL     OW15070   2.361   2.811   0.695 -0.5279 -0.7253  0.2239
 1203SOL    HW115071   2.445   2.857   0.686  0.1190 -1.7100  1.2887
 1203SOL    HW215072   2.369   2.761   0.613 -0.6345 -1.0227  0.3935
 1204SOL     OW15073   0.249   2.069  12.469  0.3555  0.3215  0.7770
 1204SOL    HW115074   0.321   2.056  12.407 -1.3780 -0.4571 -1.0778
 1204SOL    HW215075   0.304   2.120  12.528  0.7141  0.7684  0.0484
 1205SOL     OW15076   0.139   3.183   6.608 -0.1196  0.3430 -0.2361
 1205SOL    HW115077   0.124   3.231   6.689  0.0812 -2.3071  1.3706
 1205SOL    HW215078   0.198   3.245   6.564  0.2405 -1.1146 -1.8082
 1206SOL     OW15079   3.500   4.298   4.056 -0.5096 -0.3758  0.4616
 1206SOL    HW115080   3.436   4.346   4.005  1.4305  0.5424 -1.0968
 1206SOL    HW215081   3.534   4.373   4.105  0.3620 -0.0447 -0.6489
 1207SOL     OW15082   3.351   0.445   8.253 -0.2085  0.6494  0.3328
 1207SOL    HW115083   3.433   0.402   8.277  0.0498 -0.5138 -2.6092
 1207SOL    HW215084   3.351   0.522   8.310  1.0147  1.2973 -0.5280
 1208SOL     OW15085   2.654   0.302   8.833 -0.0436  0.1783  0.0621
 1208SOL    HW115086   2.637   0.258   8.751 -1.6091 -0.9696  0.9907
 1208SOL    HW215087   2.623   0.246   8.904  1.5889  0.3704  0.9288
 1209SOL     OW15088   0.742   0.828   2.978 -0.4140 -0.8417  0.2418
 1209SOL    HW115089   0.648   0.830   2.959 -0.5813 -2.0655  0.9388
 1209SOL    HW215090   0.732   0.814   3.072 -2.1563  1.4240  0.4051
 1210SOL     OW15091   3.691   2.455   7.391  0.1969  0.2444 -0.2525
 1210SOL    HW115092   3.771   2.406   7.410 -0.4357  0.2702  2.5141
 1210SOL    HW215093   3.693   2.523   7.458  2.5677  0.3657 -0.4384
 1211SOL     OW15094   4.248   1.768  16.976  0.0923 -0.4242  0.2520
 1211SOL    HW115095   4.179   1.792  16.915  1.7515 -1.6813 -2.1134
 1211SOL    HW215096   4.310   1.721  16.920  0.1318  0.6702 -0.6056
 1212SOL     OW15097   4.006   0.868  10.466  0.4684  0.4726 -0.8451
 1212SOL    HW115098   3.983   0.776  10.454 -0.4582  0.3378  2.0120
 1212SOL    HW215099   3.927   0.893  10.514 -0.2593  0.7950 -2.2066
 1213SOL     OW15100   3.426   0.331   0.637 -0.3130 -0.0152 -0.2168
 1213SOL    HW115101   3.426   0.237   0.621  1.9260  0.3054 -2.0373
 1213SOL    HW215102   3.350   0.358   0.585 -0.6450  0.8900  0.7246
 1214SOL     OW15103   1.531   1.052   3.465 -0.4706  0.3412 -0.7624
 1214SOL    HW115104   1.533   1.099   3.382  4.5986  0.8245 -0.3595
 1214SOL    HW215105   1.462   1.108   3.500 -1.1245 -0.8165 -0.1900
 1215SOL     OW15106   1.857   3.093   2.714 -0.3794 -0.1160 -0.0914
 1215SOL    HW115107   1.779   3.092   2.660 -1.3320  1.1318  1.2737
 1215SOL    HW215108   1.888   3.178   2.683  0.5331  0.0042  1.0963
 1216SOL     OW15109   4.239   0.328   8.175 -0.3828  0.0604  1.1006
 1216SOL    HW115110   4.187   0.298   8.101 -1.1526  0.7510  1.3656
 1216SOL    HW215111   4.328   0.303   8.149 -1.2922 -0.9362 -1.0286
 1217SOL     OW15112   3.056   2.120   5.857  0.0599 -0.7397 -0.7259
 1217SOL    HW115113   3.131   2.153   5.808 -0.1601 -1.6446 -1.6568
 1217SOL    HW215114   3.108   2.063   5.914  0.8867  1.3738  0.6294
 1218SOL     OW15115   1.798   3.966   1.974  0.2672  0.0409 -0.2769
 1218SOL    HW115116   1.753   4.050   1.984 -2.0266 -0.9922 -1.7893
 1218SOL    HW215117   1.811   3.926   2.060  1.7196  1.3457  0.1080
 1219SOL     OW15118   1.973   4.257   9.846  0.2919 -0.4114 -0.1473
 1219SOL    HW115119   2.030   4.181   9.860  1.1342  0.7265  2.6981
 1219SOL    HW215120   1.889   4.231   9.883  1.0497 -0.0953  1.8334
 1220SOL     OW15121   1.022   0.712  14.599 -0.1062  0.0936 -0.0182
 1220SOL    HW115122   1.090   0.779  14.591 -1.6162  1.4184 -1.5275
 1220SOL    HW215123   0.972   0.731  14.521  0.9306 -0.4845 -0.8311
 1221SOL     OW15124   3.351   4.550  12.537 -0.1218 -0.7020 -0.0344
 1221SOL    HW115125   3.262   4.577  12.515  0.4722  1.6068  0.4256
 1221SOL    HW215126   3.397   4.611  12.479 -0.1153  0.9025  1.6726
 1222SOL     OW15127   0.988   3.541   2.776  0.0192 -0.0109 -0.3081
 1222SOL    HW115128   0.899   3.547   2.810 -0.1094  0.6086 -0.7621
 1222SOL    HW215129   1.045   3.535   2.853  1.5604  1.3942 -1.3441
 1223SOL     OW15130   0.619   4.523   7.936 -0.5115 -0.0032 -0.2364
 1223SOL    HW115131   0.709   4.551   7.947  0.0670 -2.6815  1.8498
 1223SOL    HW215132   0.603   4.511   8.030 -2.9823  2.3777 -0.3657
 1224SOL     OW15133   1.594   4.580   6.823  0.0155  0.0785 -0.1114
 1224SOL    HW115134   1.517   4.527   6.846 -1.1502  1.9238  0.2843
 1224SOL    HW215135   1.661   4.512   6.825  0.7807  0.9322  3.4540
 1225SOL     OW15136   3.987   4.501  12.647  0.3149 -0.5483  0.6813
 1225SOL    HW115137   3.916   4.495  12.711  0.3869  0.4319  0.8621
 1225SOL    HW215138   4.066   4.487  12.699  1.4849  0.7236 -0.7637
 1226SOL     OW15139   4.133   2.955   2.420 -0.3301 -0.0289 -0.0958
 1226SOL    HW115140   4.166   2.906   2.345 -1.9608 -1.3614  0.0711
 1226SOL    HW215141   4.039   2.957   2.400 -0.6038 -1.2647  1.1669
 1227SOL     OW15142   3.419   3.397  11.893  0.1301 -0.7208  0.1096
 1227SOL    HW115143   3.370   3.437  11.821 -2.7637 -1.7766  1.4921
 1227SOL    HW215144   3.427   3.304  11.869  0.2474 -0.7430  0.2359
 1228SOL     OW15145   4.344   1.298   8.109 -0.2161 -0.1045  0.0312
 1228SOL    HW115146   4.293   1.224   8.142  0.5643 -0.1623  1.1245
 1228SOL    HW215147   4.402   1.324   8.182  1.3680 -0.4470 -1.1106
 1229SOL     OW15148   1.108   0.247   6.570  0.3515  0.5718 -0.2300
 1229SOL    HW115149   1.066   0.164   6.593  1.2971 -0.1206 -0.9616
 1229SOL    HW215150   1.189   0.221   6.614  1.6414 -1.9471 -4.0299
 1230SOL     OW15151   0.975   1.526  13.865  0.1747 -0.0240  0.5166
 1230SOL    HW115152   1.013   1.523  13.952  0.4384 -0.2077  0.3950
 1230SOL    HW215153   1.058   1.504  13.824  1.0614  1.7406  1.3575
 1231SOL     OW15154   2.534   3.042   4.619  0.2729  0.1545 -0.1111
 1231SOL    HW115155   2.539   2.948   4.601  0.1204  0.2803 -0.7972
 1231SOL    HW215156   2.444   3.062   4.594  0.0910 -1.2749 -0.6134
 1232SOL     OW15157   1.884   0.350   9.836 -0.6888 -0.0326 -0.5620
 1232SOL    HW115158   1.876   0.343   9.931 -3.0637  0.2326 -0.7321
 1232SOL    HW215159   1.844   0.435   9.819 -1.0511  0.3575  2.1508
 1233SOL     OW15160   0.697   2.582   6.806  0.2853  1.0932 -0.0698
 1233SOL    HW115161   0.648   2.575   6.888  2.5915 -0.3805  1.1557
 1233SOL    HW215162   0.642   2.649   6.765 -0.5612  0.8111  0.6007
 1234SOL     OW15163   0.599   3.015   6.470 -0.0664 -0.0121 -0.0913
 1234SOL    HW115164   0.691   3.040   6.467  0.0280 -0.2518  0.9820
 1234SOL    HW215165   0.557   3.055   6.393  0.9514 -1.5308 -1.4302
 1235SOL     OW15166   2.962   3.764   4.453 -0.4930 -0.0908  0.3664
 1235SOL    HW115167   2.881   3.793   4.495  0.8359  0.7913  2.3312
 1235SOL    HW215168   2.974   3.837   4.393  1.6498 -1.2308 -0.5908
 1236SOL     OW15169   0.511   0.954   7.495 -0.2429 -0.2049 -0.2059
 1236SOL    HW115170   0.603   0.946   7.524  0.4791  1.7587 -1.9405
 1236SOL    HW215171   0.498   1.035   7.544  1.1427  0.0805 -0.2956
 1237SOL     OW15172   1.490   0.850  13.067 -0.3741 -0.7514 -0.2695
 1237SOL    HW115173   1.472   0.858  13.161 -1.3569 -1.0244 -0.4273
 1237SOL    HW215174   1.577   0.888  13.063  0.0216 -1.5177  1.1404
 1238SOL     OW15175   2.894   1.245   6.574 -0.0393  0.2168  0.0093
 1238SOL    HW115176   2.825   1.305   6.546 -0.5427 -0.5409 -0.3629
 1238SOL    HW215177   2.948   1.269   6.499  1.5003 -0.3442  0.9539
 1239SOL     OW15178   3.411   0.005  11.155  0.1395 -0.2835  0.4739
 1239SOL    HW115179   3.467   4.677  11.210  0.1336 -1.7785 -1.0098
 1239SOL    HW215180   3.475   0.037  11.092 -0.8303  0.6431 -0.0533
 1240SOL     OW15181   3.008   2.994  13.532 -0.0977 -0.4219 -0.3870
 1240SOL    HW115182   2.951   3.036  13.595  1.6534 -0.1365  1.0196
 1240SOL    HW215183   2.970   3.022  13.448 -1.0318  0.6192  0.3888
 1241SOL     OW15184   1.986   3.324   7.699 -0.5426 -0.3554 -0.3530
 1241SOL    HW115185   2.043   3.255   7.732 -1.7603 -0.8452  0.6976
 1241SOL    HW215186   1.932   3.317   7.777  0.0093 -2.6760 -0.1611
 1242SOL     OW15187   3.259   0.795  12.256 -0.1759 -0.6812 -0.0257
 1242SOL    HW115188   3.203   0.870  12.234 -0.4086 -0.7889  0.1945
 1242SOL    HW215189   3.243   0.808  12.350 -1.0285 -1.2489 -0.0935
 1243SOL     OW15190   2.296   3.123   6.328  0.2297  0.2744  0.3057
 1243SOL    HW115191   2.360   3.193   6.338  0.6256 -0.2078  1.1749
 1243SOL    HW215192   2.262   3.128   6.239  1.9748 -0.7987 -0.4167
 1244SOL     OW15193   0.836   2.780  13.856  0.2035 -0.1919 -0.5054
 1244SOL    HW115194   0.821   2.843  13.926  1.4902  2.0085 -2.2134
 1244SOL    HW215195   0.899   2.716  13.889  0.3267  0.2140  0.0582
 1245SOL     OW15196   1.757   1.580   2.835  0.3616  0.1779  0.1891
 1245SOL    HW115197   1.755   1.640   2.761 -0.4351 -0.2049 -0.0958
 1245SOL    HW215198   1.707   1.505   2.803 -2.8484  1.1708  2.8583
 1246SOL     OW15199   4.287   2.593   3.890 -0.5078  0.1900  0.1443
 1246SOL    HW115200   4.276   2.607   3.796  0.3130  2.3857  0.3930
 1246SOL    HW215201   4.346   2.517   3.887  1.6064  1.7914  0.8658
 1247SOL     OW15202   1.810   0.721   5.339  0.0611 -0.2251 -0.1069
 1247SOL    HW115203   1.868   0.779   5.389  0.6406 -0.5619 -0.3843
 1247SOL    HW215204   1.873   0.700   5.270  0.1450  1.3349 -0.5166
 1248SOL     OW15205   2.451   2.716   1.349 -0.2270  0.5709 -0.3704
 1248SOL    HW115206   2.495   2.758   1.422 -0.3948  1.4929 -0.8018
 1248SOL    HW215207   2.467   2.785   1.285  0.6904  3.1717  2.7142
 1249SOL     OW15208   4.718   4.021   0.115 -0.3431  0.0491  0.5689
 1249SOL    HW115209   4.700   4.048   0.025 -1.4101 -1.2086  0.4014
 1249SOL    HW215210   0.086   4.036   0.114 -0.3890  0.2612 -1.3473
 1250SOL     OW15211   4.647   4.060   3.653  0.1572  0.4172  0.4633
 1250SOL    HW115212   4.650   4.081   3.560  1.3873 -0.7906  0.2385
 1250SOL    HW215213   4.636   4.146   3.694  0.9970  0.1974  1.1538
 1251SOL     OW15214   1.569   3.561   6.163  0.2959 -0.2648 -0.0260
 1251SOL    HW115215   1.519   3.507   6.102 -0.4020  1.6512 -1.1198
 1251SOL    HW215216   1.530   3.545   6.249  0.6492  0.1794  0.2159
 1252SOL     OW15217   1.458   2.579   2.655 -0.3121  0.9031  0.4234
 1252SOL    HW115218   1.458   2.526   2.576  1.1730  0.5933  0.6361
 1252SOL    HW215219   1.404   2.524   2.711  0.7110  0.3991  0.9228
 1253SOL     OW15220   1.446   4.610  12.040 -0.0652  0.3777 -0.2044
 1253SOL    HW115221   1.355   4.630  12.062 -0.5234 -0.4386 -1.3712
 1253SOL    HW215222   1.449   4.665  11.963 -1.7381  0.2973 -0.3434
 1254SOL     OW15223   3.137   3.850   5.618  0.6304 -0.1145  0.3251
 1254SOL    HW115224   3.229   3.871   5.634 -0.0079  2.4265  0.7181
 1254SOL    HW215225   3.137   3.786   5.546  1.4691  1.6173 -1.2252
 1255SOL     OW15226   3.906   3.519   9.526 -0.1814 -0.1339 -0.4949
 1255SOL    HW115227   3.811   3.514   9.518 -0.0900  0.3498 -1.9812
 1255SOL    HW215228   3.937   3.481   9.443  1.5514 -0.4068  0.2781
 1256SOL     OW15229   0.982   3.369   3.182 -0.2130  0.2492  0.2657
 1256SOL    HW115230   1.069   3.405   3.199 -0.2347  0.1093  0.6720
 1256SOL    HW215231   0.963   3.331   3.268  1.4467  1.6330  1.2557
 1257SOL     OW15232   3.036   4.525   7.091  0.2858 -0.6087  0.1622
 1257SOL    HW115233   2.982   4.561   7.021  0.1374  1.6408  1.4402
 1257SOL    HW215234   2.992   4.553   7.171 -0.4921  0.3686 -0.6172
 1258SOL     OW15235   1.681   1.441  16.309  0.4698 -0.2134 -0.3857
 1258SOL    HW115236   1.674   1.443  16.214  1.2468  0.2999 -0.4298
 1258SOL    HW215237   1.612   1.498  16.342  0.3536 -1.6387  1.8668
 1259SOL     OW15238   3.044   0.787   3.153  0.2854  0.1658  0.3288
 1259SOL    HW115239   2.990   0.865   3.144 -0.1125 -0.4459 -2.5010
 1259SOL    HW215240   3.134   0.820   3.150  0.7696 -1.3518 -1.8505
 1260SOL     OW15241   3.325   2.237   4.460 -0.4971 -0.4444 -0.3012
 1260SOL    HW115242   3.243   2.285   4.477  1.1532  2.8734 -1.7722
 1260SOL    HW215243   3.297   2.192   4.380  0.1516  0.9520 -1.3185
 1261SOL     OW15244   4.268   0.580   5.105 -0.5352  0.6417  0.5293
 1261SOL    HW115245   4.174   0.563   5.102 -0.4724  0.0886  1.8873
 1261SOL    HW215246   4.291   0.527   5.181 -0.0871 -0.6460 -0.5007
 1262SOL     OW15247   2.920   3.437  13.860 -0.5298  0.3498  0.2686
 1262SOL    HW115248   2.949   3.353  13.824 -1.8003 -1.3115  3.1494
 1262SOL    HW215249   2.897   3.492  13.785 -2.4534 -1.8618 -0.7771
 1263SOL     OW15250   3.943   0.387   1.832 -0.5644  0.1754  0.1738
 1263SOL    HW115251   3.996   0.330   1.888 -0.1011  1.7074  1.3085
 1263SOL    HW215252   3.865   0.333   1.819 -1.2064  1.1776 -0.2042
 1264SOL     OW15253   4.503   0.507   9.282  0.4189  0.2101 -0.6811
 1264SOL    HW115254   4.509   0.600   9.263 -0.6935 -0.0841 -2.4833
 1264SOL    HW215255   4.548   0.508   9.367 -1.2603  0.0476  0.2131
 1265SOL     OW15256   2.128   0.821   3.054 -0.4417 -0.2999  0.0102
 1265SOL    HW115257   2.057   0.795   2.996  1.7137  1.6131 -3.4559
 1265SOL    HW215258   2.197   0.766   3.015  0.3746  1.3704 -0.8903
 1266SOL     OW15259   0.125   3.013  16.170 -0.0698 -0.2752 -0.0116
 1266SOL    HW115260   0.044   2.969  16.195 -0.0670  0.7361  1.8170
 1266SOL    HW215261   0.142   3.085  16.232  1.4021 -0.4287 -0.2446
 1267SOL     OW15262   1.111   3.206   9.330  0.0722  0.7301 -0.2070
 1267SOL    HW115263   1.152   3.235   9.412 -1.7806 -1.0507  1.3648
 1267SOL    HW215264   1.132   3.270   9.262  1.1965  0.1864 -0.3753
 1268SOL     OW15265   4.688   2.710   2.764 -0.0365 -0.8105  0.4566
 1268SOL    HW115266   4.662   2.632   2.813  3.8443 -2.6595 -0.3843
 1268SOL    HW215267   0.032   2.740   2.821  0.3636 -2.3686  0.7792
 1269SOL     OW15268   3.514   2.438   0.544 -0.5768  0.4388  0.7077
 1269SOL    HW115269   3.494   2.481   0.461  1.9172 -1.6635 -1.0042
 1269SOL    HW215270   3.580   2.375   0.516  0.0515  2.3196 -2.0331
 1270SOL     OW15271   0.370   2.210   3.685  0.3948 -0.0526 -0.2958
 1270SOL    HW115272   0.316   2.153   3.630  1.1781  0.5466 -1.6856
 1270SOL    HW215273   0.338   2.194   3.774  0.2954 -2.0828 -0.7017
 1271SOL     OW15274   2.408   1.948  10.842  0.5999  0.0403 -0.5378
 1271SOL    HW115275   2.369   2.030  10.871  2.8734  0.1280  2.2043
 1271SOL    HW215276   2.497   1.949  10.876  0.7142  2.7628 -0.9269
 1272SOL     OW15277   1.962   0.706   2.867  0.4849  0.0412 -0.4167
 1272SOL    HW115278   2.007   0.622   2.867  0.9551  0.2839 -2.1608
 1272SOL    HW215279   1.877   0.668   2.846 -0.1793  0.4900  1.5031
 1273SOL     OW15280   1.473   1.377   9.177  0.2045 -0.1189 -0.3577
 1273SOL    HW115281   1.383   1.373   9.143  1.0910  1.1243 -2.8857
 1273SOL    HW215282   1.490   1.468   9.200 -0.5404  0.8515 -3.5481
 1274SOL     OW15283   1.627   4.283   1.023  0.0720 -0.0487  0.4355
 1274SOL    HW115284   1.654   4.212   0.966 -2.8713 -0.2842 -0.6991
 1274SOL    HW215285   1.567   4.315   0.956  0.6009  0.0652  0.0200
 1275SOL     OW15286   4.233   3.557  11.678 -0.1830  0.2859 -0.1420
 1275SOL    HW115287   4.280   3.630  11.719  0.5697  1.8547 -3.7610
 1275SOL    HW215288   4.299   3.487  11.673 -0.0872  0.5724 -3.2597
 1276SOL     OW15289   2.626   4.380   4.132 -0.5082 -0.3188  0.5473
 1276SOL    HW115290   2.683   4.303   4.137 -1.1371 -0.7394  1.0605
 1276SOL    HW215291   2.633   4.413   4.222  1.0089 -0.0209  0.3267
 1277SOL     OW15292   4.189   1.852   8.654 -0.5726 -0.7217  0.3522
 1277SOL    HW115293   4.109   1.805   8.678 -1.1937 -1.0517 -2.4079
 1277SOL    HW215294   4.182   1.912   8.729  0.9597  0.4248 -0.4320
 1278SOL     OW15295   4.205   2.952  14.084  0.1544 -0.0150 -0.4060
 1278SOL    HW115296   4.189   3.046  14.076 -0.0603 -0.0289 -0.1604
 1278SOL    HW215297   4.170   2.917  14.003 -1.2223  2.1813 -0.7682
 1279SOL     OW15298   3.489   3.348   4.246  0.2617 -0.7777  0.3586
 1279SOL    HW115299   3.515   3.429   4.291 -0.1710 -0.7936  0.6267
 1279SOL    HW215300   3.394   3.351   4.248  0.2720  0.7853 -1.1939
 1280SOL     OW15301   2.204   0.441   4.687  0.2606 -0.0268 -0.3611
 1280SOL    HW115302   2.167   0.377   4.626 -0.8315 -1.4003  1.7311
 1280SOL    HW215303   2.206   0.521   4.635  0.0180  0.5024  0.4564
 1281SOL     OW15304   0.315   2.326   4.047 -0.6148  0.2209 -0.3147
 1281SOL    HW115305   0.401   2.284   4.044  0.7101  2.8212  1.1398
 1281SOL    HW215306   0.322   2.360   4.136  0.0744 -0.2387 -0.1969
 1282SOL     OW15307   4.492   1.790   8.291 -0.6221  0.4257 -0.0357
 1282SOL    HW115308   4.528   1.715   8.339 -0.7638  0.4876  0.1655
 1282SOL    HW215309   4.406   1.749   8.280 -0.9282  0.7654  1.1341
 1283SOL     OW15310   0.220   3.582  17.540  0.2102  0.0432 -0.6308
 1283SOL    HW115311   0.147   3.640  17.517  1.1693  1.7049  0.5480
 1283SOL    HW215312   0.222   3.602  17.634 -0.1191  0.7332 -0.7720
 1284SOL     OW15313   4.036   0.524   4.297  0.2054  0.4064  0.1644
 1284SOL    HW115314   3.950   0.495   4.325  0.0393 -0.3674 -1.1614
 1284SOL    HW215315   4.080   0.441   4.315  1.3539  0.9911  0.0435
 1285SOL     OW15316   0.099   4.159   9.275  0.4000  0.4071 -0.4465
 1285SOL    HW115317   0.142   4.244   9.285 -0.5285  0.5714  2.1889
 1285SOL    HW215318   0.132   4.117   9.355 -0.1028 -2.7112 -1.8908
 1286SOL     OW15319   4.005   3.182   6.332 -0.0215  0.1995 -0.1184
 1286SOL    HW115320   4.023   3.099   6.288 -0.4346  0.5818 -1.0107
 1286SOL    HW215321   4.089   3.220   6.309  1.2899 -2.1343  0.8742
 1287SOL     OW15322   0.407   1.145   7.261 -0.3359  0.0684  0.2277
 1287SOL    HW115323   0.381   1.221   7.313  4.1346  0.7143  1.4795
 1287SOL    HW215324   0.343   1.076   7.279 -0.2533 -0.0460  0.0909
 1288SOL     OW15325   4.663   3.885   4.999 -0.4302 -0.0333 -0.1939
 1288SOL    HW115326   0.027   3.912   5.016 -0.9144  1.5994 -0.2896
 1288SOL    HW215327   4.655   3.904   4.906  2.5863  2.2001  0.0182
 1289SOL     OW15328   4.410   2.799   5.988  0.5879  0.5031  0.1367
 1289SOL    HW115329   4.386   2.788   6.080 -0.7412 -0.3005 -0.3032
 1289SOL    HW215330   4.371   2.884   5.970  0.4676  0.5795  0.7477
 1290SOL     OW15331   1.212   1.302   8.663 -0.5118  0.5065 -0.0376
 1290SOL    HW115332   1.265   1.235   8.619 -1.0884 -0.7592  1.1819
 1290SOL    HW215333   1.169   1.329   8.582  0.4019 -1.7132 -1.2599
 1291SOL     OW15334   0.750   0.800   6.629 -0.6326 -0.4060  0.8142
 1291SOL    HW115335   0.754   0.721   6.575  0.6495  0.5239 -0.4619
 1291SOL    HW215336   0.694   0.772   6.702 -0.9262 -2.2137 -0.0896
 1292SOL     OW15337   1.813   2.954   0.551 -0.2143 -0.4226  0.2405
 1292SOL    HW115338   1.903   2.978   0.573 -0.7443  1.1678  0.7246
 1292SOL    HW215339   1.772   3.040   0.547  2.7823  1.1815  3.8462
 1293SOL     OW15340   3.262   1.653   8.871 -0.8146 -0.1853  0.2258
 1293SOL    HW115341   3.180   1.698   8.890 -0.0115  0.1124  2.9983
 1293SOL    HW215342   3.317   1.665   8.949 -0.8112 -1.1291  0.3741
 1294SOL     OW15343   1.284   3.876   9.344  0.0305  0.8540  0.1658
 1294SOL    HW115344   1.222   3.949   9.348  1.5419  2.1515 -0.1096
 1294SOL    HW215345   1.263   3.831   9.262 -1.4313 -0.5263  1.2910
 1295SOL     OW15346   2.816   2.136   2.757  0.3264  0.1269  0.1420
 1295SOL    HW115347   2.747   2.097   2.704 -0.2852  1.3245  0.0389
 1295SOL    HW215348   2.769   2.218   2.774 -1.8208 -0.7357 -1.6772
 1296SOL     OW15349   2.315   4.701   1.073 -0.1863  0.1200  0.5195
 1296SOL    HW115350   2.411   4.697   1.077 -0.2397 -2.0338 -0.7573
 1296SOL    HW215351   2.288   4.672   1.160 -0.4949 -0.2628  0.2913
 1297SOL     OW15352   0.905   3.550   2.245  0.3500  0.3884  0.5652
 1297SOL    HW115353   0.871   3.510   2.165  0.6065  0.7980  0.2520
 1297SOL    HW215354   0.994   3.518   2.230  0.2024 -1.3306  3.2820
 1298SOL     OW15355   2.313   2.649  13.197 -0.0310  0.2800  0.1345
 1298SOL    HW115356   2.280   2.738  13.187 -0.3178  0.4695  2.7552
 1298SOL    HW215357   2.361   2.636  13.115  0.2122  0.0827  0.3072
 1299SOL     OW15358   1.017   1.107   2.127 -0.3186 -0.2791 -0.4407
 1299SOL    HW115359   1.010   1.200   2.108  0.4518 -0.5848 -2.2416
 1299SOL    HW215360   1.111   1.086   2.133 -0.3632  0.4522  2.6738
 1300SOL     OW15361   2.210   1.035   7.437  0.2809 -0.2040 -0.1886
 1300SOL    HW115362   2.281   0.972   7.442  2.3419  2.1637  0.0550
 1300SOL    HW215363   2.182   1.050   7.527  1.5006 -1.0540  0.3214
 1301SOL     OW15364   4.058   1.209   9.292  0.2508 -0.2442 -0.1390
 1301SOL    HW115365   3.975   1.170   9.266  0.7717 -1.1208 -0.4805
 1301SOL    HW215366   4.030   1.282   9.348 -0.4016 -1.2349  0.8360
 1302SOL     OW15367   3.746   0.327  10.908 -0.1742  0.2599  0.5063
 1302SOL    HW115368   3.747   0.298  11.000 -1.4405 -1.9250 -0.1636
 1302SOL    HW215369   3.654   0.325  10.884 -0.5404  0.8362  1.8501
 1303SOL     OW15370   3.230   2.291   5.699 -0.2788  0.2097 -0.8103
 1303SOL    HW115371   3.299   2.255   5.644 -0.0164  0.3801 -0.5906
 1303SOL    HW215372   3.161   2.323   5.641 -0.8318  1.4915  0.5383
 1304SOL     OW15373   3.437   2.692   2.787 -0.3774 -0.1322  0.2706
 1304SOL    HW115374   3.375   2.762   2.805 -0.1182 -0.2485  1.5794
 1304SOL    HW215375   3.489   2.726   2.714 -0.6742 -0.0041  0.1163
 1305SOL     OW15376   3.738   2.739   4.960 -0.5670 -0.6167  0.0129
 1305SOL    HW115377   3.765   2.679   4.891  0.8723 -0.2285  0.2332
 1305SOL    HW215378   3.799   2.714   5.030 -0.0425  1.3374  0.2545
 1306SOL     OW15379   1.830   4.334   3.128 -0.5485 -0.2945  0.1783
 1306SOL    HW115380   1.796   4.308   3.042  1.3765 -4.4410  0.6651
 1306SOL    HW215381   1.850   4.424   3.102  3.9910 -0.9335  1.4541
 1307SOL     OW15382   0.975   0.855   3.157  0.1351 -0.0102 -0.1042
 1307SOL    HW115383   0.946   0.861   3.066  0.3578  1.8573 -0.0665
 1307SOL    HW215384   0.895   0.861   3.210  0.9489 -0.9374  1.2191
 1308SOL     OW15385   4.534   1.298   2.805 -0.4444  0.4434  0.1034
 1308SOL    HW115386   4.522   1.341   2.721 -0.2470 -1.3345 -0.8408
 1308SOL    HW215387   4.498   1.212   2.784 -0.6218  0.2852  1.0625
 1309SOL     OW15388   4.478   2.800   4.557  0.2390  0.0148  0.1446
 1309SOL    HW115389   4.491   2.820   4.650  1.4521 -2.5337  0.5511
 1309SOL    HW215390   4.441   2.881   4.523 -2.3330 -1.7069 -1.0999
 1310SOL     OW15391   1.773   4.033  16.146  0.0641  0.0069  0.2144
 1310SOL    HW115392   1.816   3.959  16.189 -0.6918 -0.2765  0.4742
 1310SOL    HW215393   1.824   4.110  16.173 -1.3338  1.2392 -0.6904
 1311SOL     OW15394   3.239   1.701   3.174  0.1112  0.0735 -0.1788
 1311SOL    HW115395   3.313   1.648   3.144  1.1480  1.6036 -0.3121
 1311SOL    HW215396   3.255   1.708   3.268  0.9919 -1.5073 -0.2145
 1312SOL     OW15397   0.044   1.917  16.180  0.1772  0.2206  0.4093
 1312SOL    HW115398   0.091   1.984  16.132 -0.5544 -0.4512 -1.2556
 1312SOL    HW215399   0.094   1.895  16.258  0.7660 -0.6048 -0.2014
 1313SOL     OW15400   2.211   1.038  17.393 -0.2029  0.0002 -0.2205
 1313SOL    HW115401   2.122   1.006  17.385  0.0527 -0.8082  0.2134
 1313SOL    HW215402   2.247   1.004  17.311  1.2659  0.8888  0.0356
 1314SOL     OW15403   1.635   2.024   0.991 -0.6438 -0.8550  0.0095
 1314SOL    HW115404   1.681   1.946   1.021  0.9298  0.5526  1.1886
 1314SOL    HW215405   1.671   2.018   0.902  0.4441 -1.2460  0.4777
 1315SOL     OW15406   2.333   0.707   4.826 -0.2239 -0.2567 -0.4776
 1315SOL    HW115407   2.347   0.801   4.829  2.3842 -0.6366 -1.4052
 1315SOL    HW215408   2.351   0.683   4.736  0.9757 -1.7898  0.1678
 1316SOL     OW15409   2.589   4.474   4.991 -0.2719 -0.2606  0.6861
 1316SOL    HW115410   2.631   4.560   4.998 -0.5499 -0.0937  0.3214
 1316SOL    HW215411   2.612   4.439   4.904  1.4561  2.4270  0.0649
 1317SOL     OW15412   2.724   0.743   1.838  0.2315 -0.4314  0.0649
 1317SOL    HW115413   2.685   0.674   1.786 -0.5027  0.3482 -0.4117
 1317SOL    HW215414   2.654   0.781   1.891 -0.4769  2.1830 -2.7613
 1318SOL     OW15415   4.366   1.592  16.509  0.5816  0.6611 -1.0120
 1318SOL    HW115416   4.427   1.525  16.539  0.0046 -0.6654 -2.8118
 1318SOL    HW215417   4.387   1.588  16.416 -1.6804  0.1583 -1.5036
 1319SOL     OW15418   2.713   4.438  13.938  1.0425  0.2787  0.1993
 1319SOL    HW115419   2.623   4.404  13.935  0.6491  1.1897  1.2908
 1319SOL    HW215420   2.760   4.365  13.899 -0.5475 -0.0500 -1.1105
 1320SOL     OW15421   1.085   4.194   6.182  0.0654  0.3507 -0.5296
 1320SOL    HW115422   1.016   4.233   6.235  0.8112 -1.8011  2.0344
 1320SOL    HW215423   1.115   4.116   6.230 -1.4735  1.0187  1.5108
 1321SOL     OW15424   1.382   2.101   7.831 -0.3953  0.3555  0.3330
 1321SOL    HW115425   1.298   2.080   7.792  0.4738 -2.0395 -0.2274
 1321SOL    HW215426   1.380   2.197   7.838  0.5382  0.2767  1.8414
 1322SOL     OW15427   0.431   4.194   3.512 -0.2505 -0.4002  0.4658
 1322SOL    HW115428   0.436   4.098   3.516 -1.5750 -0.4282  1.1977
 1322SOL    HW215429   0.449   4.213   3.420 -1.3162 -1.9879 -0.0617
 1323SOL     OW15430   1.707   2.573  10.185  1.0276 -0.1284 -0.4747
 1323SOL    HW115431   1.786   2.613  10.220  1.3040 -0.0503 -1.1939
 1323SOL    HW215432   1.747   2.533  10.108 -0.6031 -1.1590 -0.8026
 1324SOL     OW15433   2.084   0.591   8.701  1.0290  0.5490 -0.1237
 1324SOL    HW115434   2.175   0.589   8.731  0.9918  0.3681 -0.0257
 1324SOL    HW215435   2.060   0.683   8.701 -1.3930 -0.1092  1.4158
 1325SOL     OW15436   3.744   3.531   3.230 -0.3060  0.2651 -0.6518
 1325SOL    HW115437   3.790   3.556   3.150  0.4610  0.6473 -0.1005
 1325SOL    HW215438   3.709   3.615   3.260  0.6430  0.6517 -0.6207
 1326SOL     OW15439   0.322   0.421  17.470  0.5970  0.0153 -0.1673
 1326SOL    HW115440   0.290   0.505  17.437  1.7680  0.8383  0.8093
 1326SOL    HW215441   0.392   0.410  17.407  0.0502  0.0612 -0.7787
 1327SOL     OW15442   1.316   3.801   4.355  0.2210 -0.1045  0.1396
 1327SOL    HW115443   1.308   3.846   4.440  1.9454  0.8782 -0.2309
 1327SOL    HW215444   1.337   3.871   4.294 -0.5325 -0.8075 -0.9124
 1328SOL     OW15445   3.253   0.250  15.433 -0.3655 -0.0156 -0.5520
 1328SOL    HW115446   3.174   0.273  15.384 -0.7154 -0.4151 -0.1731
 1328SOL    HW215447   3.294   0.188  15.373  0.4515  0.4121 -0.4330
 1329SOL     OW15448   3.039   4.092   5.531  0.6716 -0.0426  0.4359
 1329SOL    HW115449   3.095   4.066   5.604 -0.9361  0.4109  1.8387
 1329SOL    HW215450   2.980   4.019   5.512  0.7052 -0.0355  0.3025
 1330SOL     OW15451   2.725   2.103  11.421  0.1905  0.2174  0.2195
 1330SOL    HW115452   2.819   2.115  11.414  0.4094 -1.1823  0.8477
 1330SOL    HW215453   2.704   2.155  11.498 -1.8780  0.0899 -0.2501
 1331SOL     OW15454   3.802   4.317   8.622 -0.2578 -0.2966  0.1032
 1331SOL    HW115455   3.835   4.396   8.665 -0.4903  0.4813 -1.1621
 1331SOL    HW215456   3.708   4.333   8.629 -0.3491 -0.9356  0.3786
 1332SOL     OW15457   3.844   4.186   2.212 -0.3237 -0.0308 -0.6668
 1332SOL    HW115458   3.757   4.163   2.242  0.1875  0.8959  1.5308
 1332SOL    HW215459   3.840   4.133   2.132 -1.7099  0.9824 -1.2645
 1333SOL     OW15460   2.343   2.220  10.949 -0.1211  0.3103  0.4635
 1333SOL    HW115461   2.298   2.252  11.028  0.6420  0.9636  0.6342
 1333SOL    HW215462   2.357   2.292  10.888  0.7179 -1.5665 -1.5574
 1334SOL     OW15463   3.628   0.823   4.822 -0.6017  0.1712 -0.0634
 1334SOL    HW115464   3.696   0.829   4.890 -2.2780 -0.7721  1.7202
 1334SOL    HW215465   3.614   0.917   4.816 -0.2012  0.1572 -1.0721
 1335SOL     OW15466   2.667   1.664   2.795  0.1580  0.3316  0.2343
 1335SOL    HW115467   2.716   1.648   2.714  0.5871  0.7105  0.4174
 1335SOL    HW215468   2.708   1.747   2.819  1.1965 -0.8170  2.3534
 1336SOL     OW15469   1.376   3.028  16.734  0.4078  0.3094 -0.0394
 1336SOL    HW115470   1.326   3.098  16.776  0.6124 -0.4316  1.4083
 1336SOL    HW215471   1.405   3.077  16.656  1.8444 -2.0143 -0.9431
 1337SOL     OW15472   2.064   2.341   9.569 -0.0014  0.3154  0.0682
 1337SOL    HW115473   2.060   2.403   9.642 -1.4180 -1.6110  1.6341
 1337SOL    HW215474   2.154   2.340   9.537 -0.6567  0.5484 -1.8193
 1338SOL     OW15475   1.060   1.858   8.724  0.0454  0.0377 -0.7597
 1338SOL    HW115476   0.969   1.858   8.754  0.4771  0.9449  0.5495
 1338SOL    HW215477   1.093   1.903   8.802  1.2952 -0.5776 -0.9398
 1339SOL     OW15478   2.920   3.155   2.641 -0.3139  0.6669  0.1931
 1339SOL    HW115479   2.907   3.244   2.675  1.7805 -0.1588  3.1222
 1339SOL    HW215480   2.871   3.154   2.558 -0.4566  0.4853  0.2801
 1340SOL     OW15481   2.693   1.585  14.600 -0.7229 -0.7135 -0.1330
 1340SOL    HW115482   2.662   1.600  14.510 -0.8724  3.1495  0.5701
 1340SOL    HW215483   2.778   1.629  14.599  0.1382 -2.4404 -4.8182
 1341SOL     OW15484   1.222   1.275   0.652 -0.0345  0.2577  0.1262
 1341SOL    HW115485   1.189   1.225   0.726 -1.9210  1.3505  0.0053
 1341SOL    HW215486   1.305   1.309   0.684 -0.1780 -0.9630  1.7736
 1342SOL     OW15487   0.147   2.703  11.362  0.0113 -0.2917  0.5307
 1342SOL    HW115488   0.110   2.640  11.422 -1.0845  1.6668  1.8929
 1342SOL    HW215489   0.102   2.773  11.409 -0.4874 -0.6241  0.5454
 1343SOL     OW15490   0.774   3.769  10.137  0.1486  0.3551 -0.0065
 1343SOL    HW115491   0.786   3.702  10.204  0.2525  0.9081  0.5279
 1343SOL    HW215492   0.691   3.801  10.172  0.3072  2.1843 -1.3167
 1344SOL     OW15493   2.801   2.354   7.184 -0.2560  0.1305  0.8093
 1344SOL    HW115494   2.807   2.441   7.222  1.2788 -0.2888  1.5130
 1344SOL    HW215495   2.814   2.376   7.091  0.4286 -0.2262  0.8236
 1345SOL     OW15496   2.225   2.635   9.698  0.2332  0.4389 -0.2780
 1345SOL    HW115497   2.154   2.578   9.728 -2.2272  2.9365 -1.3393
 1345SOL    HW215498   2.234   2.601   9.608 -2.8461 -1.7367  0.2019
 1346SOL     OW15499   0.380   1.451   3.413 -1.0965  0.2837  0.4672
 1346SOL    HW115500   0.348   1.517   3.475  0.1284 -1.0395  2.4636
 1346SOL    HW215501   0.296   1.417   3.382 -0.8667  0.6389 -0.5602
 1347SOL     OW15502   3.575   4.314   5.462 -0.2238 -0.0618 -0.2134
 1347SOL    HW115503   3.662   4.276   5.463  0.7993  2.2061 -1.7220
 1347SOL    HW215504   3.602   4.404   5.443 -1.9107  0.0023 -2.3854
 1348SOL     OW15505   1.172   1.539   2.446 -0.7108  0.2897  0.4842
 1348SOL    HW115506   1.185   1.457   2.399 -0.7861  1.1645 -1.0564
 1348SOL    HW215507   1.193   1.604   2.379 -1.0535  0.7994  0.8669
 1349SOL     OW15508   2.563   1.646   8.398  0.5700  0.2266 -0.0028
 1349SOL    HW115509   2.572   1.561   8.356 -2.1197 -0.1836  0.2129
 1349SOL    HW215510   2.558   1.630   8.493 -0.6506 -1.2474 -0.3121
 1350SOL     OW15511   4.659   3.250   7.129  0.4809 -0.3354  0.3191
 1350SOL    HW115512   4.608   3.195   7.070  1.3313 -1.8018  0.9307
 1350SOL    HW215513   4.607   3.330   7.136  0.1578 -0.6431  1.4507
 1351SOL     OW15514   0.264   1.359   2.162 -0.0003 -0.1739 -0.0397
 1351SOL    HW115515   0.322   1.433   2.143  0.1120  0.2327  1.8843
 1351SOL    HW215516   0.273   1.341   2.255  1.3086 -0.3609 -0.1958
 1352SOL     OW15517   1.560   0.440   8.080 -0.5886  0.6111  0.9230
 1352SOL    HW115518   1.611   0.413   8.003 -1.9565  1.0884 -0.1527
 1352SOL    HW215519   1.625   0.501   8.115 -1.7948  0.9005  2.6215
 1353SOL     OW15520   3.204   0.426   8.028  0.2357  0.3393 -0.2543
 1353SOL    HW115521   3.260   0.434   8.106 -0.9682 -1.8922  0.8649
 1353SOL    HW215522   3.183   0.332   8.030  0.3998  0.2488 -3.9512
 1354SOL     OW15523   4.089   3.867   3.735  0.5740 -0.4268  0.1213
 1354SOL    HW115524   4.117   3.905   3.818 -2.0316  0.1288  0.7371
 1354SOL    HW215525   4.159   3.802   3.723  0.3354 -0.5439 -0.6024
 1355SOL     OW15526   0.081   3.944  12.344 -0.5248  0.3816 -0.6068
 1355SOL    HW115527   0.169   3.938  12.382 -1.2581  0.1579  1.0508
 1355SOL    HW215528   0.036   3.892  12.411  0.8322  2.9322  2.2883
 1356SOL     OW15529   3.020   3.148   4.523  0.0794  0.2351  0.0628
 1356SOL    HW115530   3.010   3.079   4.589  1.4908 -0.3005 -0.2670
 1356SOL    HW215531   3.033   3.097   4.443  0.6610  1.9053 -0.9247
 1357SOL     OW15532   1.730   2.379  11.769  0.0489 -0.3328  0.2197
 1357SOL    HW115533   1.681   2.327  11.705 -1.4130  0.3775  0.7587
 1357SOL    HW215534   1.702   2.345  11.854 -3.3564  0.2194 -0.6842
 1358SOL     OW15535   2.067   2.919  10.738  0.2270  0.2673  0.2649
 1358SOL    HW115536   2.145   2.962  10.773  1.1103 -1.2014  0.0790
 1358SOL    HW215537   2.004   2.949  10.803  1.0033  1.1722  0.6068
 1359SOL     OW15538   4.450   4.421  17.025 -0.6467  0.6480  0.8872
 1359SOL    HW115539   4.491   4.507  17.036  1.4643 -0.5199  2.1326
 1359SOL    HW215540   4.456   4.411  16.930 -1.0832 -0.0201  0.9302
 1360SOL     OW15541   0.244   3.176   5.703 -0.1851  0.2442  0.6465
 1360SOL    HW115542   0.186   3.251   5.713 -0.9537 -0.3937  0.9574
 1360SOL    HW215543   0.252   3.168   5.608 -1.2380 -3.7255  0.8922
 1361SOL     OW15544   2.453   1.998   3.613 -0.5995  0.1034  0.2285
 1361SOL    HW115545   2.362   1.988   3.641 -0.4301  0.4459  0.8848
 1361SOL    HW215546   2.482   1.941   3.684 -0.5838  0.6047  0.6219
 1362SOL     OW15547   4.466   1.143   6.549  0.3999  0.3084 -0.4439
 1362SOL    HW115548   4.459   1.232   6.584 -1.5005  0.2113 -0.5702
 1362SOL    HW215549   4.391   1.137   6.491 -0.9060  0.7325  1.1873
 1363SOL     OW15550   0.496   2.588   3.306  0.6546  0.7199 -0.1222
 1363SOL    HW115551   0.462   2.537   3.379 -5.0499  0.9156 -2.6239
 1363SOL    HW215552   0.544   2.526   3.252 -1.3411 -1.0932  0.1893
 1364SOL     OW15553   0.640   2.923  14.315 -0.0099  0.3568 -0.5227
 1364SOL    HW115554   0.574   2.970  14.367  0.3526 -0.5372  0.7319
 1364SOL    HW215555   0.720   2.951  14.358 -0.0953 -0.4232  0.1490
 1365SOL     OW15556   4.534   2.169   3.161 -0.4499 -0.0255  0.2801
 1365SOL    HW115557   4.508   2.078   3.147 -1.7781  0.3701  0.1211
 1365SOL    HW215558   4.446   2.193   3.193 -0.0085 -1.4848  2.6164
 1366SOL     OW15559   0.990   0.833  10.367  0.2519 -0.2652 -0.0074
 1366SOL    HW115560   1.005   0.927  10.380 -0.3825 -0.3990  1.6946
 1366SOL    HW215561   0.983   0.816  10.273  0.7874 -2.2948  0.3213
 1367SOL     OW15562   1.683   3.363   4.322  0.2195 -0.4514  0.2353
 1367SOL    HW115563   1.699   3.457   4.322 -1.0520 -0.2328 -1.4751
 1367SOL    HW215564   1.588   3.369   4.317  0.3069  0.5722 -0.0285
 1368SOL     OW15565   3.837   2.844  10.037 -0.0129 -0.1311 -0.0828
 1368SOL    HW115566   3.882   2.798  10.108  0.2549  0.5249  0.1731
 1368SOL    HW215567   3.807   2.922  10.082 -0.2095  0.6496 -1.5497
 1369SOL     OW15568   4.025   4.468   4.156  0.1065  0.0909 -0.1937
 1369SOL    HW115569   4.104   4.499   4.200  0.2159  1.0400 -1.0759
 1369SOL    HW215570   3.953   4.521   4.190  0.9577  0.9675  0.2303
 1370SOL     OW15571   2.848   3.688   2.436 -0.4496  0.2413 -0.4199
 1370SOL    HW115572   2.824   3.739   2.513 -0.8917  0.4812 -0.7189
 1370SOL    HW215573   2.769   3.638   2.418 -0.2097 -0.3349  0.1383
 1371SOL     OW15574   1.054   4.314  12.446 -0.4632  0.0231  0.4280
 1371SOL    HW115575   1.113   4.294  12.519 -1.9057 -0.2680  1.5210
 1371SOL    HW215576   0.972   4.277  12.479 -1.1047 -0.1107 -1.3095
 1372SOL     OW15577   0.578   0.880  14.240  0.5896  0.1380 -0.0372
 1372SOL    HW115578   0.594   0.958  14.187 -1.4830  0.5464 -0.0814
 1372SOL    HW215579   0.653   0.827  14.214  0.8636  0.5851 -0.1539
 1373SOL     OW15580   2.430   0.736  12.823 -0.2397  0.6868 -0.4159
 1373SOL    HW115581   2.374   0.753  12.748  0.1678 -0.5202 -0.9932
 1373SOL    HW215582   2.499   0.802  12.810 -0.7736  1.2703 -0.2932
 1374SOL     OW15583   4.173   1.398   2.042 -0.2728  0.0813  0.6697
 1374SOL    HW115584   4.090   1.389   1.995 -0.1290  0.6168  0.3026
 1374SOL    HW215585   4.165   1.320   2.097  0.9800 -0.6511 -0.1805
 1375SOL     OW15586   1.310   0.513   1.547 -0.1946 -0.2381 -0.6154
 1375SOL    HW115587   1.335   0.422   1.535 -0.9423 -0.7000  1.4140
 1375SOL    HW215588   1.299   0.536   1.454  2.2886  1.3552 -0.5225
 1376SOL     OW15589   1.708   1.285  13.399  0.1247 -0.6925 -0.3931
 1376SOL    HW115590   1.626   1.332  13.412  1.1026  0.9149 -0.0988
 1376SOL    HW215591   1.747   1.332  13.326 -0.7073  1.3069  0.4552
 1377SOL     OW15592   0.758   2.676  16.899 -0.1434  0.1045 -0.3585
 1377SOL    HW115593   0.740   2.771  16.896 -0.4458  0.0641  0.2171
 1377SOL    HW215594   0.680   2.655  16.847 -0.0273  0.5379 -0.7093
 1378SOL     OW15595   1.118   0.181   9.113  0.1565 -0.2514 -0.2842
 1378SOL    HW115596   1.126   0.269   9.150 -1.5389  0.1988 -0.9553
 1378SOL    HW215597   1.084   0.140   9.192  0.6449 -0.5036 -0.2043
 1379SOL     OW15598   2.728   2.057   7.552  0.7653 -0.7480 -0.0077
 1379SOL    HW115599   2.816   2.018   7.552  0.9195 -0.4023 -0.0452
 1379SOL    HW215600   2.759   2.145   7.574 -1.2515 -0.0795  0.1382
 1380SOL     OW15601   0.991   0.963   8.260  0.3556 -0.4818 -0.5218
 1380SOL    HW115602   1.000   0.880   8.306 -0.1727 -1.4000 -2.0772
 1380SOL    HW215603   0.935   1.007   8.324  0.6253  0.4439 -0.9179
 1381SOL     OW15604   1.196   0.309   4.007  0.3509 -0.4866  0.3971
 1381SOL    HW115605   1.234   0.274   3.927  1.5340  1.9048 -0.1068
 1381SOL    HW215606   1.130   0.369   3.973  0.2764 -2.1668 -2.4328
 1382SOL     OW15607   3.883   1.325   2.242 -0.1269 -0.5175 -0.3171
 1382SOL    HW115608   3.946   1.273   2.192 -1.0150 -2.9996  1.1530
 1382SOL    HW215609   3.802   1.303   2.195  0.4495 -1.8023 -0.6903
 1383SOL     OW15610   2.778   2.953   6.196  0.3025 -0.7065 -0.6499
 1383SOL    HW115611   2.720   2.959   6.120 -1.7218  0.1491  0.9615
 1383SOL    HW215612   2.794   2.858   6.193 -0.1499 -0.6887 -3.7204
 1384SOL     OW15613   0.217   2.664  16.119 -0.0025  0.0393 -0.3290
 1384SOL    HW115614   0.153   2.695  16.054  1.3360 -0.6963 -1.9915
 1384SOL    HW215615   0.243   2.575  16.095  3.0959  0.5504  1.0294
 1385SOL     OW15616   3.558   0.117   4.709 -0.1083 -0.5326  0.0032
 1385SOL    HW115617   3.619   0.162   4.768  0.3235 -2.4667  1.0136
 1385SOL    HW215618   3.545   0.185   4.643  0.9275 -1.3744 -1.0655
 1386SOL     OW15619   0.506   2.327   6.847 -0.4320 -0.3412  0.2835
 1386SOL    HW115620   0.478   2.395   6.909  2.7015  2.1160 -1.0253
 1386SOL    HW215621   0.537   2.260   6.907  0.3156  0.8390  1.2197
 1387SOL     OW15622   0.281   2.454   5.517 -0.3568 -0.0506  0.0091
 1387SOL    HW115623   0.319   2.475   5.602 -0.4893  1.7306 -0.3715
 1387SOL    HW215624   0.195   2.422   5.545 -1.6207  2.0488 -1.4768
 1388SOL     OW15625   3.899   2.468   3.230 -0.0694  0.2748 -0.2753
 1388SOL    HW115626   3.926   2.437   3.316  0.0404 -1.2178 -0.8409
 1388SOL    HW215627   3.804   2.461   3.231 -0.0176  0.0209  1.7285
 1389SOL     OW15628   4.513   1.956   5.842 -0.5773  0.1615 -0.5297
 1389SOL    HW115629   4.458   2.032   5.826 -0.8740  0.2705  1.1037
 1389SOL    HW215630   4.495   1.902   5.764 -1.4638 -0.7904  0.3316
 1390SOL     OW15631   3.093   0.453  16.204 -0.1073  0.4504  1.0850
 1390SOL    HW115632   3.141   0.437  16.285  1.8369  0.2986 -0.0988
 1390SOL    HW215633   3.067   0.543  16.224  0.7662  1.8422 -3.9491
 1391SOL     OW15634   3.652   1.665  11.324  0.1842 -0.6435 -0.1662
 1391SOL    HW115635   3.631   1.755  11.300 -0.9419 -0.8231  0.1552
 1391SOL    HW215636   3.651   1.673  11.420  0.5319 -1.6304 -0.0782
 1392SOL     OW15637   0.673   3.114   4.119 -0.2436  0.7242 -0.1011
 1392SOL    HW115638   0.756   3.153   4.145  0.1794 -0.3452  0.1266
 1392SOL    HW215639   0.615   3.188   4.140 -0.3322  1.5350 -3.1784
 1393SOL     OW15640   3.881   0.802  15.472  0.4217 -0.5557 -0.5430
 1393SOL    HW115641   3.856   0.876  15.527  1.7071 -1.7598  1.7037
 1393SOL    HW215642   3.932   0.752  15.536  0.6345  1.9426  1.2471
 1394SOL     OW15643   0.672   2.212  12.440  0.0688  0.0073  0.2130
 1394SOL    HW115644   0.715   2.287  12.400  1.5603 -1.8039 -1.5698
 1394SOL    HW215645   0.741   2.146  12.431  0.6070  0.5933  0.0496
 1395SOL     OW15646   3.015   3.316   5.282 -0.4526 -0.3742 -0.0657
 1395SOL    HW115647   2.927   3.330   5.248 -1.3736  1.1422  3.0237
 1395SOL    HW215648   3.065   3.342   5.204  1.9186 -0.2420  1.4703
 1396SOL     OW15649   0.725   1.233   5.012  0.4762 -0.1866 -0.3811
 1396SOL    HW115650   0.636   1.263   4.998 -0.4698 -2.0130  1.8076
 1396SOL    HW215651   0.773   1.281   4.944  1.2738 -0.0088  0.2954
 1397SOL     OW15652   4.617   4.129   8.829 -0.0128 -0.3036 -0.3809
 1397SOL    HW115653   4.679   4.056   8.827 -0.6443 -0.9224  2.4397
 1397SOL    HW215654   4.642   4.176   8.909  2.3840 -2.4363  0.1189
 1398SOL     OW15655   3.784   2.724   3.405  0.6362 -0.2732  0.5010
 1398SOL    HW115656   3.716   2.663   3.378  1.6928 -2.2865  2.3372
 1398SOL    HW215657   3.794   2.687   3.493  3.3718 -2.1965 -0.5889
 1399SOL     OW15658   2.099   1.277   6.484  0.0656 -0.1846 -0.2020
 1399SOL    HW115659   2.127   1.210   6.547  2.0315  0.0956 -0.7922
 1399SOL    HW215660   2.172   1.281   6.423  0.7866 -1.1957  0.5905
 1400SOL     OW15661   3.016   1.783   6.622  0.5531  0.5063 -0.0392
 1400SOL    HW115662   3.083   1.837   6.666  1.2753 -0.9359  0.6256
 1400SOL    HW215663   2.971   1.740   6.695 -2.2519  0.8658 -1.6026
 1401SOL     OW15664   1.343   2.838  14.917 -0.3352  0.0947  0.3486
 1401SOL    HW115665   1.429   2.876  14.934 -0.3449 -1.3193  3.6567
 1401SOL    HW215666   1.306   2.857  15.003  0.9132 -0.6301  1.0410
 1402SOL     OW15667   4.001   3.203   4.494  0.1258  0.2864 -0.4552
 1402SOL    HW115668   4.039   3.127   4.539 -0.0721  0.9147  0.7644
 1402SOL    HW215669   3.938   3.166   4.433 -0.3187  1.0306 -0.4441
 1403SOL     OW15670   3.713   2.797  15.821  0.1974  0.0297  0.6373
 1403SOL    HW115671   3.796   2.834  15.792 -0.4141 -0.3614 -1.6014
 1403SOL    HW215672   3.677   2.875  15.862 -1.8467 -0.3058 -0.5200
 1404SOL     OW15673   3.932   2.364  13.603 -0.2170  0.1180 -0.3688
 1404SOL    HW115674   4.007   2.388  13.549 -2.3602  2.0011 -2.4940
 1404SOL    HW215675   3.856   2.353  13.546 -0.3628  1.0825 -0.3637
 1405SOL     OW15676   4.427   0.248   6.880 -0.1749  0.2172  0.6230
 1405SOL    HW115677   4.411   0.280   6.969 -0.1648  0.8913  0.3855
 1405SOL    HW215678   4.418   0.331   6.833  2.6328  1.4625  2.2816
 1406SOL     OW15679   4.478   0.913   5.265  0.1044  0.2128 -0.1888
 1406SOL    HW115680   4.440   0.842   5.316  2.2193 -1.4585 -0.9481
 1406SOL    HW215681   4.483   0.867   5.181 -1.1640  0.1526 -0.2347
 1407SOL     OW15682   3.284   2.110   3.936  0.0018 -0.5623 -0.5565
 1407SOL    HW115683   3.314   2.022   3.916  2.5713  0.6717 -2.1692
 1407SOL    HW215684   3.358   2.164   3.908  0.3268  0.4989  2.4114
 1408SOL     OW15685   1.137   3.109   3.571  0.4209  0.6553  0.7722
 1408SOL    HW115686   1.100   3.088   3.486  2.3093  0.1821  0.0509
 1408SOL    HW215687   1.070   3.068   3.625 -0.5111 -1.6439 -2.1788
 1409SOL     OW15688   2.427   0.298   7.661  0.1973  0.2455  0.1733
 1409SOL    HW115689   2.459   0.351   7.588  0.4874  2.3213  1.8127
 1409SOL    HW215690   2.398   0.220   7.613 -0.2990  1.9821 -2.3561
 1410SOL     OW15691   1.000   4.038   1.815  0.1911 -0.4613 -0.5792
 1410SOL    HW115692   0.986   3.953   1.773  2.4308 -0.1264 -2.0207
 1410SOL    HW215693   1.080   4.065   1.770  0.7628  0.8039  1.1867
 1411SOL     OW15694   0.802   0.489   1.730  0.0559  0.0447  0.6833
 1411SOL    HW115695   0.799   0.563   1.790  2.8903  1.3252 -0.7644
 1411SOL    HW215696   0.813   0.542   1.652  2.4936  0.3797  1.2730
 1412SOL     OW15697   4.681   3.625   3.250 -0.0157  0.2327 -0.3040
 1412SOL    HW115698   4.587   3.634   3.232 -0.4849 -0.3898  1.8133
 1412SOL    HW215699   4.710   3.674   3.173  1.0671 -0.4081 -0.2976
 1413SOL     OW15700   3.916   3.629   8.387  0.2984  0.0291  0.1939
 1413SOL    HW115701   3.950   3.565   8.450 -1.4495  0.2087  1.3196
 1413SOL    HW215702   3.830   3.599   8.356 -0.7273  3.1170  0.0888
 1414SOL     OW15703   0.715   3.559  15.436  0.0046  0.3778  0.0880
 1414SOL    HW115704   0.722   3.635  15.379 -0.1294 -0.9820 -1.7292
 1414SOL    HW215705   0.710   3.609  15.518 -1.7494  0.4442 -0.0575
 1415SOL     OW15706   1.635   2.217   7.474 -0.4845  0.1517  0.4616
 1415SOL    HW115707   1.664   2.126   7.480 -1.4956 -0.1012  1.5905
 1415SOL    HW215708   1.543   2.202   7.498 -0.7891  3.2237  1.2365
 1416SOL     OW15709   2.144   3.502   9.192  0.3376 -0.1365  0.2220
 1416SOL    HW115710   2.161   3.418   9.149 -1.6990 -0.5644  0.2416
 1416SOL    HW215711   2.225   3.550   9.176  0.3873 -0.1523  0.4392
 1417SOL     OW15712   4.594   3.782   2.738  0.2104 -0.6299  0.4482
 1417SOL    HW115713   4.563   3.847   2.800  0.6642 -0.7363  0.7936
 1417SOL    HW215714   4.617   3.842   2.668  0.3997 -1.1939  0.0232
 1418SOL     OW15715   0.445   1.510  15.355  0.1057  0.3125  0.5109
 1418SOL    HW115716   0.458   1.604  15.369  1.7030  0.4597 -1.8862
 1418SOL    HW215717   0.509   1.503  15.284  0.7695 -1.1805  1.2521
 1419SOL     OW15718   1.384   0.445   6.535 -0.1191  0.2925 -0.0583
 1419SOL    HW115719   1.298   0.471   6.501  0.6541  2.1271 -0.6452
 1419SOL    HW215720   1.406   0.370   6.481  0.3376  1.4563 -1.4712
 1420SOL     OW15721   0.275   0.617   5.223  0.4070  0.1583 -0.2465
 1420SOL    HW115722   0.282   0.526   5.193  1.9289 -0.0744  0.8285
 1420SOL    HW215723   0.367   0.634   5.245  0.4018  1.9680 -1.6077
 1421SOL     OW15724   4.052   3.627  14.129 -0.6170 -0.1154  0.2444
 1421SOL    HW115725   4.148   3.628  14.127 -0.6391  0.7904  0.0031
 1421SOL    HW215726   4.029   3.565  14.199  1.6134 -1.8090 -0.5247
 1422SOL     OW15727   1.917   2.047   1.204 -0.3015  0.4473 -0.2699
 1422SOL    HW115728   1.822   2.045   1.213 -0.4073  0.6471 -1.3384
 1422SOL    HW215729   1.930   2.082   1.116 -1.6477  0.1932 -0.5641
 1423SOL     OW15730   1.184   1.866   6.954 -0.3255  0.2186 -0.6191
 1423SOL    HW115731   1.141   1.936   7.002  0.4353  0.4671 -0.3043
 1423SOL    HW215732   1.223   1.915   6.881  0.3408  0.9753  0.2577
 1424SOL     OW15733   4.216   3.906   6.399 -0.2021 -0.1916  0.2750
 1424SOL    HW115734   4.149   3.850   6.360 -0.3915 -0.6545  1.2817
 1424SOL    HW215735   4.292   3.859   6.364  0.0049  0.0578  0.3865
 1425SOL     OW15736   4.498   2.310   1.568 -0.0823  0.6787  0.2647
 1425SOL    HW115737   4.503   2.286   1.476 -1.3647  2.6178 -0.3149
 1425SOL    HW215738   4.404   2.315   1.585  0.0519 -2.3732  1.9383
 1426SOL     OW15739   0.980   2.304   6.040 -0.1266 -0.5706  0.2892
 1426SOL    HW115740   0.903   2.300   6.097  0.2362  0.9767  0.9043
 1426SOL    HW215741   0.982   2.233   5.976 -0.4161 -1.5320  1.3480
 1427SOL     OW15742   3.107   1.845   7.257 -0.3625  0.5537 -0.1272
 1427SOL    HW115743   3.042   1.791   7.301 -0.7066  0.2936 -0.9535
 1427SOL    HW215744   3.189   1.829   7.304  0.2359 -0.2601 -1.4528
 1428SOL     OW15745   3.881   2.999   4.980  0.1016  0.0072 -0.1786
 1428SOL    HW115746   3.860   3.065   4.914 -1.9517 -0.9657 -0.4718
 1428SOL    HW215747   3.850   2.917   4.941 -0.1180  0.1486 -0.3009
 1429SOL     OW15748   4.125   3.785   5.511 -0.3119 -0.2304 -0.7135
 1429SOL    HW115749   4.117   3.707   5.456  0.3591 -0.8684  0.0857
 1429SOL    HW215750   4.199   3.763   5.568 -0.2057 -0.5040 -0.9558
 1430SOL     OW15751   4.597   1.303   6.899  0.0441 -0.2664  0.2169
 1430SOL    HW115752   4.604   1.227   6.956 -0.6960 -0.4239  0.0977
 1430SOL    HW215753   4.524   1.353   6.936  1.2738  1.7290 -0.0957
 1431SOL     OW15754   3.003   1.606   6.132  0.5223  0.1855  0.0540
 1431SOL    HW115755   2.993   1.674   6.199 -1.2410  0.7026 -0.7499
 1431SOL    HW215756   3.051   1.543   6.187 -1.4705 -0.3355  1.2331
 1432SOL     OW15757   3.540   1.034   2.305  0.7808  0.2599  0.7828
 1432SOL    HW115758   3.464   0.976   2.316  0.7371  0.6628  2.5759
 1432SOL    HW215759   3.569   1.025   2.214  0.4413 -1.4164  0.8432
 1433SOL     OW15760   2.605   1.608   2.077 -0.1565 -0.3500  0.1521
 1433SOL    HW115761   2.645   1.608   1.990  2.7053  1.8430  1.4763
 1433SOL    HW215762   2.638   1.691   2.113  0.5543 -0.9364  0.8591
 1434SOL     OW15763   2.378   3.026   9.576  0.2077  0.3977 -0.3839
 1434SOL    HW115764   2.343   3.115   9.577 -2.4488 -0.6401 -1.4541
 1434SOL    HW215765   2.392   3.022   9.481  0.5914 -2.3340 -0.2234
 1435SOL     OW15766   1.401   4.350   8.139  0.1126 -0.7512  0.4093
 1435SOL    HW115767   1.479   4.305   8.173  1.5053  0.7194 -0.8126
 1435SOL    HW215768   1.433   4.439   8.154  0.6440 -0.5949 -1.7528
 1436SOL     OW15769   1.528   2.385  16.586 -0.5153 -0.3294  0.3205
 1436SOL    HW115770   1.569   2.317  16.532 -1.7274 -1.3517  0.6983
 1436SOL    HW215771   1.499   2.454  16.526  0.3522 -0.4553 -0.2474
 1437SOL     OW15772   4.669   4.669   6.416  0.3413  0.1354 -0.2727
 1437SOL    HW115773   4.698   4.662   6.325  0.6170  0.3578 -0.2016
 1437SOL    HW215774   4.628   4.586   6.439  3.2061 -1.2610 -0.2888
 1438SOL     OW15775   1.396   4.457   1.985  0.2479 -0.2076 -0.3827
 1438SOL    HW115776   1.304   4.432   1.981  0.4503 -0.9660 -0.3220
 1438SOL    HW215777   1.413   4.489   1.896 -0.8828  0.4408 -0.3673
 1439SOL     OW15778   1.961   1.632   3.432 -0.0402  0.4897  0.0314
 1439SOL    HW115779   1.916   1.698   3.485  2.0756  1.0877  1.0651
 1439SOL    HW215780   2.051   1.663   3.437  0.1826 -0.4517  1.8287
 1440SOL     OW15781   2.172   1.706  15.665 -0.6559  0.5131  0.1189
 1440SOL    HW115782   2.234   1.759  15.615  0.0906  0.0695  0.5602
 1440SOL    HW215783   2.090   1.724  15.620  0.7692  3.7521 -1.1498
 1441SOL     OW15784   1.393   2.402  10.089  0.2245 -0.0528  0.0774
 1441SOL    HW115785   1.476   2.355  10.087 -0.4519 -1.2864  1.7945
 1441SOL    HW215786   1.342   2.362  10.018 -2.4793  3.3953  0.0568
 1442SOL     OW15787   3.663   1.205  13.264 -0.1810  0.4411  0.0940
 1442SOL    HW115788   3.685   1.221  13.172 -2.2388  1.3389 -0.2300
 1442SOL    HW215789   3.635   1.294  13.283 -2.8641  0.3808 -3.5982
 1443SOL     OW15790   0.536   1.206  12.720  0.5848  0.6024  0.0564
 1443SOL    HW115791   0.588   1.278  12.754  0.7840  0.0182  1.0071
 1443SOL    HW215792   0.456   1.257  12.709 -1.8115 -3.0333  0.3336
 1444SOL     OW15793   0.329   1.917   0.941  0.0415 -0.3928  0.8661
 1444SOL    HW115794   0.301   1.894   1.030 -0.6175  1.0371  1.0302
 1444SOL    HW215795   0.288   1.854   0.882  1.2369 -1.3531  1.0598
 1445SOL     OW15796   3.953   2.143   1.582 -0.3466 -0.0485 -0.5189
 1445SOL    HW115797   3.987   2.186   1.660  1.8454 -0.4224 -1.2734
 1445SOL    HW215798   3.932   2.226   1.540  1.9100  0.3430 -0.8376
 1446SOL     OW15799   1.006   1.586  11.477 -0.3061 -0.8271  0.1651
 1446SOL    HW115800   1.063   1.605  11.403 -0.3343 -1.4920 -0.0211
 1446SOL    HW215801   1.015   1.673  11.517 -1.2033 -0.4522 -0.4441
 1447SOL     OW15802   4.479   2.081   7.533  0.4502 -0.6871 -0.0956
 1447SOL    HW115803   4.410   2.018   7.511 -0.5577  0.8337 -1.2633
 1447SOL    HW215804   4.517   2.043   7.612 -1.1496  0.5366  1.2561
 1448SOL     OW15805   3.390   3.946   7.082 -0.2554 -0.1494 -0.3003
 1448SOL    HW115806   3.424   4.031   7.054 -3.8328  1.2564 -0.3125
 1448SOL    HW215807   3.299   3.974   7.072 -0.7695 -1.4575  0.6441
 1449SOL     OW15808   3.456   3.610   3.720  0.2506  0.0662 -0.0209
 1449SOL    HW115809   3.368   3.573   3.713  0.7423 -1.2228  0.6562
 1449SOL    HW215810   3.449   3.694   3.675 -0.2728  1.7659  3.2373
 1450SOL     OW15811   3.087   2.460  15.849 -0.8448 -0.0524 -0.3254
 1450SOL    HW115812   3.055   2.531  15.793 -0.7069 -0.5017 -0.9783
 1450SOL    HW215813   3.156   2.412  15.803 -1.0015  0.1328 -0.7537
 1451SOL     OW15814   2.471   4.260   3.779 -0.1701  0.1247 -0.4198
 1451SOL    HW115815   2.434   4.291   3.696 -1.3267  0.4873  0.2413
 1451SOL    HW215816   2.490   4.169   3.756 -0.8068  0.2346 -1.3581
 1452SOL     OW15817   0.814   2.659   4.074  0.1966 -0.5219  0.5115
 1452SOL    HW115818   0.733   2.708   4.088  0.5157  0.1651 -0.0435
 1452SOL    HW215819   0.878   2.699   4.133  1.5698 -0.4846 -1.0055
 1453SOL     OW15820   4.026   0.691  13.730  0.3433  0.5174  0.3609
 1453SOL    HW115821   4.005   0.784  13.722 -3.0235 -0.0789  2.2781
 1453SOL    HW215822   4.107   0.685  13.679 -0.6541  0.1151 -1.1745
 1454SOL     OW15823   3.284   0.529   7.796  0.0148  0.0622 -0.1759
 1454SOL    HW115824   3.276   0.620   7.824  0.0694 -0.0572  0.2376
 1454SOL    HW215825   3.267   0.497   7.885  1.0999  0.4148  0.1595
 1455SOL     OW15826   1.985   3.163   5.364  0.4144 -0.2307  0.5964
 1455SOL    HW115827   1.918   3.228   5.341  1.0237  0.3433  0.4355
 1455SOL    HW215828   2.027   3.193   5.445  1.9778 -1.3191  0.1836
 1456SOL     OW15829   2.927   0.536   2.748 -0.2037 -0.1013  0.6842
 1456SOL    HW115830   2.959   0.449   2.773 -0.9806 -0.8602 -0.9199
 1456SOL    HW215831   3.010   0.561   2.709 -0.5575 -0.8805 -0.5698
 1457SOL     OW15832   3.635   4.019   3.602 -1.3319  0.3607  0.2899
 1457SOL    HW115833   3.636   4.114   3.592 -3.1415  0.1153 -2.1961
 1457SOL    HW215834   3.711   4.007   3.659 -1.7440 -3.7858  0.0002
 1458SOL     OW15835   3.569   0.411   7.873 -0.0695 -0.3159 -0.2499
 1458SOL    HW115836   3.490   0.446   7.833  0.9039  2.9512  0.7270
 1458SOL    HW215837   3.612   0.369   7.798  2.9765 -0.7702  1.7380
 1459SOL     OW15838   2.678   3.440   6.979  0.1901  0.2121  0.3012
 1459SOL    HW115839   2.642   3.405   6.898 -0.7058 -2.1487  1.7216
 1459SOL    HW215840   2.771   3.452   6.958 -0.7912  1.8870 -3.0395
 1460SOL     OW15841   0.721   4.395  12.920  0.2368 -0.3209 -0.3153
 1460SOL    HW115842   0.720   4.300  12.934  0.3994 -0.1271  1.0183
 1460SOL    HW215843   0.793   4.410  12.981 -0.0748 -1.4399  0.3320
 1461SOL     OW15844   1.520   2.140   4.189  0.1153  0.3349 -0.2423
 1461SOL    HW115845   1.479   2.225   4.171  1.1155  0.8500 -0.0633
 1461SOL    HW215846   1.564   2.156   4.272  0.5037 -1.2262 -0.1533
 1462SOL     OW15847   4.514   2.222   8.679  0.4790 -0.0532  0.2802
 1462SOL    HW115848   4.541   2.228   8.771 -1.2662  0.2783  0.7615
 1462SOL    HW215849   4.515   2.130   8.655 -0.5085  0.3874 -1.3721
 1463SOL     OW15850   0.992   1.239   3.071 -0.1749 -0.0341 -0.4424
 1463SOL    HW115851   0.973   1.239   2.977 -0.0344  0.7539 -0.4673
 1463SOL    HW215852   0.976   1.330   3.095  2.0133 -0.1064  1.3885
 1464SOL     OW15853   4.201   3.673  10.304  0.4496  0.2081 -0.5275
 1464SOL    HW115854   4.264   3.744  10.293  0.7581  0.0982  0.5153
 1464SOL    HW215855   4.261   3.598  10.314  0.5340  0.2597 -0.6574
 1465SOL     OW15856   1.684   1.832   3.550  0.3632 -0.2642 -0.4270
 1465SOL    HW115857   1.682   1.739   3.526  0.0677 -0.2821 -0.3408
 1465SOL    HW215858   1.771   1.863   3.527  0.1990 -0.8665 -1.9113
 1466SOL     OW15859   0.320   0.842   9.109  0.7708  0.6238 -0.6805
 1466SOL    HW115860   0.372   0.868   9.184 -0.7397  1.6607  0.0170
 1466SOL    HW215861   0.341   0.750   9.094  1.3991  0.3983  1.6904
 1467SOL     OW15862   1.867   2.270   1.771  0.4753  0.2075  0.4031
 1467SOL    HW115863   1.792   2.328   1.758 -0.0165 -0.7447 -0.9863
 1467SOL    HW215864   1.834   2.192   1.728  1.7168 -0.8761  1.4130
 1468SOL     OW15865   0.258   2.401  13.006 -0.4046 -0.6873  0.1650
 1468SOL    HW115866   0.195   2.398  13.078 -0.7906 -1.7725 -0.2092
 1468SOL    HW215867   0.297   2.314  13.019  0.2299 -0.9993 -3.8690
 1469SOL     OW15868   1.656   4.716   6.027 -0.3825 -0.1101 -0.3881
 1469SOL    HW115869   1.713   0.016   6.099 -2.7862 -0.7582  1.7779
 1469SOL    HW215870   1.681   4.624   6.015  1.1654  0.2167  0.4606
 1470SOL     OW15871   4.027   2.181   2.773  0.4380 -0.0896  0.0097
 1470SOL    HW115872   4.048   2.273   2.790 -1.0461  0.5140 -1.4772
 1470SOL    HW215873   3.936   2.174   2.803  0.0908  1.9595 -0.5998
 1471SOL     OW15874   3.827   4.440   1.901  0.4765  0.3340  0.0159
 1471SOL    HW115875   3.761   4.412   1.838  0.9189  0.3305 -0.4444
 1471SOL    HW215876   3.846   4.531   1.878 -2.4989  0.6318 -1.2935
 1472SOL     OW15877   4.252   1.856  12.073  0.1654  0.5980  0.3297
 1472SOL    HW115878   4.238   1.773  12.120 -0.4168  0.8104  0.5359
 1472SOL    HW215879   4.172   1.859  12.020  1.9683  0.5912 -2.3970
 1473SOL     OW15880   1.226   0.358   1.840  1.0802  0.3445 -0.4379
 1473SOL    HW115881   1.209   0.445   1.803  1.4957  1.4108  1.8850
 1473SOL    HW215882   1.140   0.355   1.882  1.4092  1.1282  0.2937
 1474SOL     OW15883   2.760   2.491   4.777 -0.4274  0.2920  0.6376
 1474SOL    HW115884   2.765   2.442   4.859  2.1183 -2.3985 -1.1133
 1474SOL    HW215885   2.686   2.442   4.742  1.3090 -0.5091 -1.9007
 1475SOL     OW15886   3.856   2.146   8.192  0.1668  0.1442 -0.3906
 1475SOL    HW115887   3.807   2.095   8.128 -1.4616  3.2238 -1.6095
 1475SOL    HW215888   3.942   2.116   8.164 -0.8553 -1.6144 -1.6713
 1476SOL     OW15889   3.569   2.135  14.145 -0.6272  0.0457 -0.5770
 1476SOL    HW115890   3.490   2.134  14.199  1.4160 -0.2351  2.4188
 1476SOL    HW215891   3.549   2.216  14.098 -0.5134 -0.3549 -1.3123
 1477SOL     OW15892   2.167   3.600   8.398 -0.2560 -0.2445  0.2068
 1477SOL    HW115893   2.099   3.536   8.421  0.6076 -0.1425  3.0954
 1477SOL    HW215894   2.130   3.652   8.327  0.5825  0.7681  0.5229
 1478SOL     OW15895   0.496   3.180   7.632 -0.1319  0.2538 -0.1144
 1478SOL    HW115896   0.504   3.111   7.567 -1.6248  1.0592 -1.1498
 1478SOL    HW215897   0.510   3.250   7.568  0.2596  1.1816  0.9881
 1479SOL     OW15898   1.814   2.552   5.803  0.5613  0.0639 -0.0471
 1479SOL    HW115899   1.888   2.495   5.784  2.0072  1.4694  1.3164
 1479SOL    HW215900   1.784   2.520   5.888  0.6212 -0.9178 -0.3951
 1480SOL     OW15901   1.657   1.138   0.760 -1.0416  0.0813  0.1281
 1480SOL    HW115902   1.723   1.098   0.703 -2.6540  0.9170 -2.3514
 1480SOL    HW215903   1.618   1.056   0.791  1.6121 -0.8832  0.8959
 1481SOL     OW15904   0.960   0.653   7.265 -0.4357 -0.3839 -0.2490
 1481SOL    HW115905   0.867   0.632   7.265 -0.8919  1.6645  1.9544
 1481SOL    HW215906   0.960   0.737   7.311 -2.0863  0.6316 -2.1183
 1482SOL     OW15907   0.698   2.183   8.787 -0.1474 -0.4837 -0.1453
 1482SOL    HW115908   0.612   2.173   8.746 -0.8120 -0.3158  1.1923
 1482SOL    HW215909   0.716   2.275   8.766 -0.7982  0.0715  1.7319
 1483SOL     OW15910   1.932   2.867   0.186 -0.4608 -0.2441 -0.2662
 1483SOL    HW115911   1.999   2.910   0.133  0.3514  0.7975  1.6341
 1483SOL    HW215912   1.849   2.874   0.139  0.9308  1.3180 -2.5087
 1484SOL     OW15913   0.371   4.199   8.674  0.0562  0.5523 -0.4087
 1484SOL    HW115914   0.417   4.118   8.694 -0.3706  0.6289  0.9245
 1484SOL    HW215915   0.425   4.262   8.722  1.6996 -1.9083  1.0078
 1485SOL     OW15916   0.901   1.796   4.243 -0.2355  0.3309  0.6928
 1485SOL    HW115917   0.972   1.732   4.244 -0.6500 -0.1646 -1.0941
 1485SOL    HW215918   0.826   1.753   4.202  0.7829  0.4020 -1.2179
 1486SOL     OW15919   3.385   0.900  13.601 -0.5857 -0.2188  0.1085
 1486SOL    HW115920   3.422   0.891  13.689 -0.4599 -0.7883 -0.0071
 1486SOL    HW215921   3.443   0.973  13.577 -0.3291 -0.7572 -0.8841
 1487SOL     OW15922   0.144   1.788   7.345 -0.1425  0.3215  0.4631
 1487SOL    HW115923   0.140   1.779   7.441 -2.4523 -0.8357  0.2674
 1487SOL    HW215924   0.230   1.829   7.341 -0.1891  0.4025  0.2728
 1488SOL     OW15925   1.734   1.293   5.978 -0.3162  0.4181 -0.0041
 1488SOL    HW115926   1.772   1.207   5.995 -1.3828  0.3588  1.9892
 1488SOL    HW215927   1.738   1.297   5.882 -0.5142  0.8050  0.0016
 1489SOL     OW15928   2.790   0.455   5.916 -0.7895  0.0387 -0.1351
 1489SOL    HW115929   2.823   0.542   5.897  0.8073 -0.7511 -0.9986
 1489SOL    HW215930   2.720   0.461   5.852 -1.2570  1.6939  0.5353
 1490SOL     OW15931   3.631   4.350  15.173 -0.1803 -0.4812 -0.0432
 1490SOL    HW115932   3.631   4.308  15.258  0.9591 -1.6698 -0.6386
 1490SOL    HW215933   3.680   4.293  15.113 -0.3526  1.3142 -1.8977
 1491SOL     OW15934   0.506   3.968   6.310  0.0171  0.3127  0.0359
 1491SOL    HW115935   0.600   3.949   6.303 -0.3760 -0.4355 -3.0620
 1491SOL    HW215936   0.467   3.916   6.240 -1.0496  1.6083 -0.3223
 1492SOL     OW15937   2.123   4.076  12.172  0.2864 -0.1311 -0.5662
 1492SOL    HW115938   2.146   4.163  12.204  0.6032 -0.2543 -0.4597
 1492SOL    HW215939   2.083   4.099  12.088  0.6584  0.6103 -0.5409
 1493SOL     OW15940   1.798   0.870   7.725  0.8199 -0.1684 -0.4036
 1493SOL    HW115941   1.826   0.961   7.738 -1.0974  0.5454 -1.2795
 1493SOL    HW215942   1.783   0.856   7.632 -0.1242  0.8937 -0.4119
 1494SOL     OW15943   3.098   4.405   4.304 -0.0695 -0.3585 -0.4828
 1494SOL    HW115944   3.122   4.316   4.277  2.5662  0.5915 -1.2121
 1494SOL    HW215945   3.169   4.458   4.269 -0.8096  0.1939 -1.1592
 1495SOL     OW15946   3.645   4.483   2.138  0.0808 -0.5638  0.0961
 1495SOL    HW115947   3.669   4.569   2.103 -1.9782 -0.2554 -0.5850
 1495SOL    HW215948   3.711   4.426   2.097  1.2089  0.7592  0.0731
 1496SOL     OW15949   0.038   1.895   7.597  0.2018  0.1022  0.1194
 1496SOL    HW115950   0.086   1.901   7.680 -0.7890 -0.2997  0.7142
 1496SOL    HW215951   4.722   1.810   7.609  0.8318 -0.3303 -0.6735
 1497SOL     OW15952   4.649   3.330   4.438 -0.2418 -0.2466  0.1509
 1497SOL    HW115953   4.565   3.332   4.392 -0.8669 -1.0555  1.2680
 1497SOL    HW215954   4.686   3.247   4.407  1.5397  1.7048 -2.9622
 1498SOL     OW15955   1.595   0.343  10.305  0.1654  0.0943  0.8462
 1498SOL    HW115956   1.603   0.256  10.345  0.1291 -0.5714 -0.5775
 1498SOL    HW215957   1.501   0.353  10.317 -0.5856 -2.4282 -2.7398
 1499SOL     OW15958   0.141   4.652   3.923  0.1571  0.2103 -0.6135
 1499SOL    HW115959   0.151   4.582   3.988 -0.9580  0.8324  0.2275
 1499SOL    HW215960   0.231   4.653   3.890  0.4912  1.5335  0.3336
 1500SOL     OW15961   3.841   4.376  12.890 -0.3960  0.1148 -0.1437
 1500SOL    HW115962   3.764   4.409  12.935 -1.4978 -3.2616  0.4073
 1500SOL    HW215963   3.807   4.302  12.839  0.7970 -0.2204 -0.4583
 1501SOL     OW15964   3.579   2.728   2.107  0.1575  1.0375 -0.2888
 1501SOL    HW115965   3.552   2.637   2.097  2.0469  0.3052  1.2662
 1501SOL    HW215966   3.601   2.728   2.200 -0.2433 -0.2865 -0.1849
 1502SOL     OW15967   3.912   1.069  15.539  0.2796  0.5218  0.4006
 1502SOL    HW115968   3.840   1.088  15.479  0.8036 -0.5584 -0.5591
 1502SOL    HW215969   3.867   1.028  15.613  1.2482 -1.5501 -0.1818
 1503SOL     OW15970   2.907   1.529   1.579 -0.2617 -0.4778 -0.2010
 1503SOL    HW115971   2.941   1.551   1.493 -0.0412  1.1351  0.3048
 1503SOL    HW215972   2.813   1.534   1.562 -0.9477 -1.0177  3.3957
 1504SOL     OW15973   0.996   2.546  10.311  1.0589 -0.1912 -0.1136
 1504SOL    HW115974   0.987   2.641  10.307  0.1074 -0.2931 -0.3695
 1504SOL    HW215975   1.033   2.536  10.223 -1.2267 -1.1932 -0.9581
 1505SOL     OW15976   3.739   2.690   2.332 -0.0251 -0.1457  0.9549
 1505SOL    HW115977   3.815   2.636   2.353  1.5818  0.9865 -2.1088
 1505SOL    HW215978   3.664   2.638   2.362  0.2287  0.3942  2.5366
 1506SOL     OW15979   1.269   2.781   8.625  0.0357  0.4255 -0.0147
 1506SOL    HW115980   1.328   2.789   8.550 -0.7833 -2.5772 -0.9858
 1506SOL    HW215981   1.296   2.845   8.690  0.9646  1.6866 -1.6550
 1507SOL     OW15982   2.846   0.352   8.269 -0.0695 -0.3612 -0.2887
 1507SOL    HW115983   2.791   0.425   8.298  0.3885  0.2270 -0.8792
 1507SOL    HW215984   2.855   0.316   8.357  4.7198  2.1140  0.2549
 1508SOL     OW15985   0.013   0.560   1.225 -0.0406 -0.0327  0.7067
 1508SOL    HW115986   0.070   0.508   1.169  0.4422 -1.8210  2.8654
 1508SOL    HW215987   4.671   0.499   1.250  0.0379 -0.7967 -0.9041
 1509SOL     OW15988   2.852   0.684  14.324  0.0345 -0.0796  0.2517
 1509SOL    HW115989   2.841   0.779  14.316 -2.7631 -0.7252 -3.2199
 1509SOL    HW215990   2.922   0.677  14.389 -1.0132 -0.4759  1.3291
 1510SOL     OW15991   2.780   2.748  10.158 -0.4347 -0.5024  0.3172
 1510SOL    HW115992   2.796   2.777  10.069 -0.0121  0.2858  0.6549
 1510SOL    HW215993   2.744   2.662  10.135 -1.8217 -0.0999  0.9302
 1511SOL     OW15994   1.382   3.382   0.984  0.1733 -0.3596  0.1262
 1511SOL    HW115995   1.436   3.448   1.027  2.1275 -0.8711 -1.5495
 1511SOL    HW215996   1.374   3.309   1.045  2.3601 -1.4840 -0.9203
 1512SOL     OW15997   1.448   3.829   3.760 -0.1506  0.4704 -0.3476
 1512SOL    HW115998   1.475   3.885   3.688 -0.4173 -1.3809 -1.8881
 1512SOL    HW215999   1.535   3.807   3.793 -0.4251 -0.1595 -0.0548
 1513SOL     OW16000   4.586   3.459   3.981 -0.3083 -0.3069  0.3106
 1513SOL    HW116001   4.666   3.407   3.991  0.5719  1.3382  1.8187
 1513SOL    HW216002   4.592   3.492   3.891 -0.4416 -0.3451  0.2880
 1514SOL     OW16003   3.812   1.698   4.510  0.1842  0.0018  0.3710
 1514SOL    HW116004   3.751   1.771   4.517  2.4335  1.8811  0.4323
 1514SOL    HW216005   3.759   1.647   4.449 -2.8256  2.0086  1.2991
 1515SOL     OW16006   4.421   3.565   2.763 -0.5670  0.2365  0.5842
 1515SOL    HW116007   4.490   3.632   2.762 -0.2734 -0.0801 -1.7312
 1515SOL    HW216008   4.352   3.618   2.722 -0.4061  1.2301  1.5999
 1516SOL     OW16009   4.551   0.813   8.704 -0.1407 -0.7583  0.5546
 1516SOL    HW116010   4.600   0.895   8.697  1.1610 -1.4185  1.8701
 1516SOL    HW216011   4.568   0.777   8.617 -1.4232  2.6809 -1.1184
 1517SOL     OW16012   3.135   4.587   3.850 -0.2868  0.6287  0.6126
 1517SOL    HW116013   3.060   4.555   3.902  1.0424 -0.1933  2.0323
 1517SOL    HW216014   3.082   4.638   3.789 -0.9517 -2.2606 -1.1987
 1518SOL     OW16015   4.424   2.940   2.702 -0.4798 -0.9101  0.1840
 1518SOL    HW116016   4.461   2.930   2.614 -0.1662 -2.0804  0.4547
 1518SOL    HW216017   4.463   3.022   2.732  0.0850 -0.1350 -2.6344
 1519SOL     OW16018   2.380   1.982  16.825  0.6713  0.1304 -0.2121
 1519SOL    HW116019   2.431   2.020  16.753  1.0584 -0.2820 -0.1533
 1519SOL    HW216020   2.301   1.960  16.777  0.9467  0.0063 -0.6079
 1520SOL     OW16021   4.090   2.701  12.447  0.6085  0.0951  0.2209
 1520SOL    HW116022   4.080   2.611  12.479 -0.4854  0.5153  1.0484
 1520SOL    HW216023   4.175   2.730  12.479 -0.3791  2.3479  0.8088
 1521SOL     OW16024   4.326   1.019  14.385 -0.6339 -0.1059  0.4778
 1521SOL    HW116025   4.397   0.963  14.352 -1.3573  0.3626 -1.8447
 1521SOL    HW216026   4.320   0.985  14.474  0.4786  2.7187  1.6248
 1522SOL     OW16027   4.282   3.676   8.548  0.0530  0.2566  0.3265
 1522SOL    HW116028   4.315   3.765   8.562  0.0550  0.4358 -0.7920
 1522SOL    HW216029   4.224   3.666   8.624 -0.6644 -1.5155 -0.4557
 1523SOL     OW16030   0.240   2.950   9.019 -0.0447 -0.3402  0.1305
 1523SOL    HW116031   0.318   3.000   9.040 -0.9089  2.1193 -2.4444
 1523SOL    HW216032   0.175   2.986   9.079 -1.4099 -2.0864 -0.2720
 1524SOL     OW16033   0.583   4.445   8.243 -0.1590 -0.0637  0.1418
 1524SOL    HW116034   0.627   4.529   8.249 -1.5305  0.6343  0.4928
 1524SOL    HW216035   0.611   4.389   8.316 -2.0426  0.6737  1.4217
 1525SOL     OW16036   3.062   1.176   5.663  0.0360 -0.1050  0.3059
 1525SOL    HW116037   3.154   1.150   5.659  0.1040  0.0846  0.5882
 1525SOL    HW216038   3.027   1.106   5.718 -0.5135  0.5081  0.7449
 1526SOL     OW16039   4.653   4.493   6.128 -0.0671  0.4081  0.0649
 1526SOL    HW116040   4.668   4.402   6.154  0.7045 -0.0242 -1.8769
 1526SOL    HW216041   4.616   4.476   6.041  1.8315 -1.5909 -0.3451
 1527SOL     OW16042   4.008   4.043   8.392  0.0560 -0.0835  0.5451
 1527SOL    HW116043   3.943   4.110   8.370  0.1313 -0.8065 -1.8887
 1527SOL    HW216044   3.990   4.029   8.485 -0.2928 -0.1065  0.4743
 1528SOL     OW16045   3.599   4.700   7.212  0.0644 -0.0188  0.1079
 1528SOL    HW116046   3.515   4.657   7.192  0.5560  0.0196 -2.0677
 1528SOL    HW216047   3.571   0.051   7.261 -2.0487 -0.9843  0.4465
 1529SOL     OW16048   2.771   0.586   5.518 -0.3067 -0.1510 -0.0119
 1529SOL    HW116049   2.763   0.491   5.503  0.3832 -0.1190 -0.5905
 1529SOL    HW216050   2.867   0.590   5.525 -0.3041 -1.8239  0.9108
 1530SOL     OW16051   2.808   3.640   8.029  0.4808 -0.1822  0.1799
 1530SOL    HW116052   2.894   3.619   8.064  1.5067  0.0615 -2.1952
 1530SOL    HW216053   2.755   3.666   8.105 -0.6802  0.0384 -0.7022
 1531SOL     OW16054   1.273   3.455   0.749 -0.4477  0.5049 -0.4354
 1531SOL    HW116055   1.284   3.418   0.837 -2.2789  1.3608  0.1472
 1531SOL    HW216056   1.338   3.411   0.694 -2.4992 -3.8457  0.6451
 1532SOL     OW16057   4.498   4.289  14.346 -0.0940 -0.0553  0.1924
 1532SOL    HW116058   4.571   4.231  14.324 -0.2886 -0.0411 -0.4802
 1532SOL    HW216059   4.525   4.362  14.290 -0.9631  0.3322  0.2770
 1533SOL     OW16060   1.553   0.508   7.047  0.0545 -0.5155  0.1335
 1533SOL    HW116061   1.562   0.582   6.987 -1.6652  0.0624  0.5990
 1533SOL    HW216062   1.554   0.553   7.132 -0.6717  1.9638 -1.1768
 1534SOL     OW16063   2.540   3.719   9.353 -0.8290 -0.5240  0.1969
 1534SOL    HW116064   2.578   3.633   9.366  0.9436  0.4132  1.2536
 1534SOL    HW216065   2.458   3.707   9.402 -1.1467 -0.1702 -0.2463
 1535SOL     OW16066   0.553   0.749  10.857  0.1161 -0.1769  0.0150
 1535SOL    HW116067   0.626   0.784  10.910 -0.8049 -0.1067  1.2521
 1535SOL    HW216068   0.487   0.817  10.867  1.3397  0.9807  0.3209
 1536SOL     OW16069   0.844   4.025  12.045  0.2752  0.0261 -0.3836
 1536SOL    HW116070   0.765   4.071  12.015  0.5633  0.1780 -0.9145
 1536SOL    HW216071   0.916   4.079  12.011  0.8772 -0.0481  0.7660
 1537SOL     OW16072   0.259   1.558   9.218  0.1312  0.0751 -0.3179
 1537SOL    HW116073   0.352   1.544   9.236 -0.1412  1.5297  2.2145
 1537SOL    HW216074   0.267   1.591   9.129 -0.5094  0.5271 -0.2117
 1538SOL     OW16075   1.123   1.332  16.059 -0.5716 -0.3111  0.3650
 1538SOL    HW116076   1.215   1.328  16.084  0.9081 -2.0233 -5.6145
 1538SOL    HW216077   1.117   1.273  15.984  0.4927  0.3832 -0.2600
 1539SOL     OW16078   3.239   1.276  10.346  0.5398 -0.0328 -0.4623
 1539SOL    HW116079   3.175   1.321  10.400 -0.5628 -2.6674  0.4132
 1539SOL    HW216080   3.278   1.352  10.303 -0.4154 -0.2130 -1.6593
 1540SOL     OW16081   3.565   1.376   0.771 -0.1545  0.0420 -0.1329
 1540SOL    HW116082   3.548   1.464   0.802 -0.2743  0.1129 -0.4019
 1540SOL    HW216083   3.628   1.380   0.699 -1.6000 -0.2905 -1.4181
 1541SOL     OW16084   4.421   3.712   3.279  0.0087  0.7332  0.1349
 1541SOL    HW116085   4.391   3.649   3.345 -2.8963  2.0342  0.0926
 1541SOL    HW216086   4.414   3.792   3.331  2.2682  0.8837  0.2066
 1542SOL     OW16087   4.631   0.394  10.978 -0.2766 -0.5699  0.2688
 1542SOL    HW116088   4.687   0.455  11.025  0.2300 -0.7361 -0.1099
 1542SOL    HW216089   4.551   0.380  11.028 -1.3901  1.1502 -1.0026
 1543SOL     OW16090   0.957   1.545   6.087 -0.0964 -0.1772  0.9744
 1543SOL    HW116091   0.965   1.627   6.037 -0.6474  0.0239  1.2132
 1543SOL    HW216092   0.870   1.537   6.127  0.7639  0.5431  3.0384
 1544SOL     OW16093   1.501   4.021   4.281  0.2155 -0.4330 -0.1555
 1544SOL    HW116094   1.443   4.059   4.348  0.8304 -1.2645  0.8417
 1544SOL    HW216095   1.577   4.024   4.339 -0.5998  0.3518  0.8763
 1545SOL     OW16096   1.745   0.500  16.185 -0.6623  0.1323 -0.0475
 1545SOL    HW116097   1.795   0.580  16.200 -0.5898  0.1160 -0.2046
 1545SOL    HW216098   1.807   0.434  16.215 -1.6323 -1.2240 -1.0136
 1546SOL     OW16099   3.849   0.735  13.928 -0.1797  0.4007  0.1514
 1546SOL    HW116100   3.899   0.686  13.862  0.1439  1.4018 -0.3537
 1546SOL    HW216101   3.916   0.779  13.980 -1.2200  0.4619  1.4354
 1547SOL     OW16102   0.278   3.061   6.339 -0.0927 -0.0909  0.1192
 1547SOL    HW116103   0.310   3.136   6.389 -0.3405  1.8508 -2.6064
 1547SOL    HW216104   0.280   2.996   6.410  0.9717 -3.0581 -2.6302
 1548SOL     OW16105   4.093   3.489   6.245 -0.0010  0.3585  0.0728
 1548SOL    HW116106   4.090   3.500   6.340  2.9113  1.1180  0.0551
 1548SOL    HW216107   4.142   3.409   6.232 -3.3693 -1.3063 -2.2708
 1549SOL     OW16108   3.829   0.928   4.997 -0.2068  0.0126  0.3613
 1549SOL    HW116109   3.844   1.014   5.037 -1.5913  0.6572 -0.5007
 1549SOL    HW216110   3.877   0.942   4.915 -2.1273 -2.9410 -1.2809
 1550SOL     OW16111   0.311   3.280   8.714 -0.2266  0.0765  0.4683
 1550SOL    HW116112   0.309   3.349   8.648 -0.0602 -0.8081 -0.4589
 1550SOL    HW216113   0.342   3.331   8.789  0.0813 -0.8080  0.9463
 1551SOL     OW16114   1.372   1.879   5.150 -0.3196 -0.1238 -0.3078
 1551SOL    HW116115   1.436   1.830   5.098 -1.3583  0.5728 -2.2331
 1551SOL    HW216116   1.423   1.875   5.231 -0.2081  1.1610 -0.3112
 1552SOL     OW16117   2.731   0.993  11.096  0.4516 -0.3009 -0.1907
 1552SOL    HW116118   2.759   1.064  11.038 -0.0804  0.1852  0.1476
 1552SOL    HW216119   2.811   0.982  11.148 -0.8334 -1.4647  1.5672
 1553SOL     OW16120   1.764   3.188   6.702 -0.3834 -0.1189 -0.0775
 1553SOL    HW116121   1.684   3.239   6.685 -0.1568 -0.1061 -1.1225
 1553SOL    HW216122   1.744   3.106   6.748  1.4366 -0.2984  0.3922
 1554SOL     OW16123   2.626   3.955  11.887  0.0617  0.1329 -0.6546
 1554SOL    HW116124   2.555   3.986  11.943  0.6633  1.3496 -0.5676
 1554SOL    HW216125   2.621   3.861  11.901  0.1083  0.1871 -0.2631
 1555SOL     OW16126   2.818   1.257   7.503 -0.2126  0.1017 -0.4757
 1555SOL    HW116127   2.742   1.304   7.468 -1.1630 -0.2354  1.1533
 1555SOL    HW216128   2.873   1.328   7.536 -0.9667  1.1499 -1.4983
 1556SOL     OW16129   2.421   4.676  15.224  0.1845 -0.4913  0.0401
 1556SOL    HW116130   2.389   0.039  15.228  0.4382 -0.3477 -1.4365
 1556SOL    HW216131   2.432   4.671  15.319  0.8153 -0.5886 -0.0399
 1557SOL     OW16132   3.127   0.595   7.566  0.2061 -0.7508 -0.3772
 1557SOL    HW116133   3.198   0.570   7.625  0.5073 -0.4144 -0.5913
 1557SOL    HW216134   3.054   0.598   7.628  1.3373  0.0522  0.9159
 1558SOL     OW16135   2.590   4.621  13.752  0.5860  0.1401  0.0712
 1558SOL    HW116136   2.647   4.562  13.802 -1.1098 -1.0197  0.6479
 1558SOL    HW216137   2.557   4.556  13.691 -1.0880  1.1177 -0.0539
 1559SOL     OW16138   1.514   4.613   7.328 -0.0818 -0.1800 -0.2405
 1559SOL    HW116139   1.496   4.570   7.412  0.4158  0.4060  0.1662
 1559SOL    HW216140   1.523   4.703   7.359  0.8397  0.0867 -1.2930
 1560SOL     OW16141   3.744   0.569   7.107  0.0790  0.3085  0.0303
 1560SOL    HW116142   3.780   0.519   7.034 -0.2730 -0.0422  0.0972
 1560SOL    HW216143   3.650   0.553   7.101  0.5123 -2.0691 -0.7337
 1561SOL     OW16144   2.442   4.141   5.143  0.0214  0.2346  1.0415
 1561SOL    HW116145   2.419   4.209   5.207  0.1244 -0.5505  1.9146
 1561SOL    HW216146   2.533   4.139   5.170 -0.1154 -4.4678  1.1821
 1562SOL     OW16147   4.523   0.669   5.615 -0.4672 -1.0359 -0.7725
 1562SOL    HW116148   4.583   0.594   5.611  0.1884 -0.5834  0.6262
 1562SOL    HW216149   4.540   0.698   5.705  1.2276 -0.1497 -1.3586
 1563SOL     OW16150   1.828   3.353   5.749  0.2735 -0.4860  0.0722
 1563SOL    HW116151   1.814   3.296   5.674  2.1934 -1.7369  0.6322
 1563SOL    HW216152   1.893   3.413   5.712  0.5245  0.9205  2.7295
 1564SOL     OW16153   1.069   3.697   2.493  0.3738 -0.3198  0.2152
 1564SOL    HW116154   1.138   3.655   2.545  2.1118  0.7203 -1.2467
 1564SOL    HW216155   1.072   3.788   2.522 -2.0915 -0.9783  2.5808
 1565SOL     OW16156   1.754   0.388   6.903  0.5908  0.4034 -0.0104
 1565SOL    HW116157   1.738   0.296   6.923 -2.6575  1.1660  0.9437
 1565SOL    HW216158   1.673   0.426   6.939  1.0009  1.2912 -0.0280
 1566SOL     OW16159   3.974   1.200  11.935  0.4057  0.4742  0.4170
 1566SOL    HW116160   3.926   1.201  12.018 -0.6768  0.9493 -0.2200
 1566SOL    HW216161   3.931   1.126  11.892 -0.6746  0.8801  0.7845
 1567SOL     OW16162   3.382   1.661   6.796 -0.0179  0.6221 -0.8463
 1567SOL    HW116163   3.322   1.734   6.785 -3.3132 -1.7555  1.6565
 1567SOL    HW216164   3.463   1.708   6.775 -0.1650  0.8953 -0.7954
 1568SOL     OW16165   1.144   1.054   4.621  0.3915  0.0102 -0.1207
 1568SOL    HW116166   1.137   1.016   4.533  1.4988  0.9326 -0.6048
 1568SOL    HW216167   1.058   1.095   4.623  0.7210  0.6947 -0.1873
 1569SOL     OW16168   2.877   1.320   4.030  0.5505  0.4942 -0.5975
 1569SOL    HW116169   2.971   1.304   4.036  0.6018  0.2255 -2.1075
 1569SOL    HW216170   2.855   1.296   4.121  1.8507  0.4346 -0.3063
 1570SOL     OW16171   2.813   4.250   1.970  0.0153 -0.0947 -0.0458
 1570SOL    HW116172   2.834   4.225   2.060  0.5654  2.2341  0.4695
 1570SOL    HW216173   2.890   4.215   1.925  0.6938  1.0831  0.2248
 1571SOL     OW16174   0.479   0.324   0.721  0.2281  0.3129  0.5878
 1571SOL    HW116175   0.398   0.367   0.747  0.4053  1.2235 -0.3910
 1571SOL    HW216176   0.444   0.241   0.687  0.9340  0.0269  0.5606
 1572SOL     OW16177   0.310   0.383   3.909 -0.2471  0.4099  0.2147
 1572SOL    HW116178   0.254   0.429   3.846  0.4935 -0.2633 -0.9415
 1572SOL    HW216179   0.251   0.353   3.978  0.7139  0.9605  1.2635
 1573SOL     OW16180   0.221   3.913   2.565 -0.0690 -0.0111  0.2285
 1573SOL    HW116181   0.266   3.960   2.636  1.1345 -0.3430 -0.3268
 1573SOL    HW216182   0.143   3.965   2.545 -0.2468 -0.7267 -0.9208
 1574SOL     OW16183   2.067   1.791   6.738 -0.6395 -0.2878  0.1246
 1574SOL    HW116184   2.123   1.736   6.684  0.5294  0.6200  0.4126
 1574SOL    HW216185   2.062   1.733   6.813  0.2152  1.6211  1.6565
 1575SOL     OW16186   3.376   0.267  13.487  0.5319 -0.4555 -0.1217
 1575SOL    HW116187   3.470   0.266  13.501  0.4108 -0.7872  0.7246
 1575SOL    HW216188   3.354   0.317  13.566 -2.3774  1.1255 -1.9394
 1576SOL     OW16189   3.530   1.665   9.805  0.5297 -0.0812  0.1763
 1576SOL    HW116190   3.472   1.654   9.880  0.1980 -0.5499 -0.1495
 1576SOL    HW216191   3.554   1.573   9.793  0.2903  0.1182 -1.7998
 1577SOL     OW16192   0.830   4.706   4.542 -0.0602  0.2466  0.1978
 1577SOL    HW116193   0.783   4.658   4.610 -0.1657 -0.0873 -0.1094
 1577SOL    HW216194   0.858   4.632   4.489 -0.3740 -0.1162  0.5358
 1578SOL     OW16195   4.267   3.691   6.142 -0.0811  0.3187 -0.2439
 1578SOL    HW116196   4.218   3.748   6.083 -0.5426 -1.5464 -1.6600
 1578SOL    HW216197   4.194   3.637   6.172  0.0817 -0.0826 -0.5666
 1579SOL     OW16198   4.404   3.598   2.117  0.1400  0.1536  0.0132
 1579SOL    HW116199   4.412   3.677   2.063  0.0908 -0.0658 -0.3138
 1579SOL    HW216200   4.446   3.537   2.056 -0.6831  1.3494 -1.7544
 1580SOL     OW16201   2.368   3.351   5.991  0.5057  0.0876  0.6549
 1580SOL    HW116202   2.444   3.302   6.023  1.3708  1.0510  0.0915
 1580SOL    HW216203   2.359   3.301   5.910  0.4538 -0.4621  1.0021
 1581SOL     OW16204   4.000   3.478   8.135 -0.6491 -0.1945  0.0840
 1581SOL    HW116205   4.002   3.554   8.194  1.0626 -1.0929  1.2005
 1581SOL    HW216206   4.064   3.418   8.174 -1.3874  0.6178  2.5513
 1582SOL     OW16207   0.095   0.145  13.006  0.2260  0.0020  0.4855
 1582SOL    HW116208   0.036   0.187  13.069  1.5921  2.8937 -0.1344
 1582SOL    HW216209   0.127   0.062  13.041  2.0746  0.5905  0.2069
 1583SOL     OW16210   0.584   0.050  10.874  0.2913 -0.0944  0.3301
 1583SOL    HW116211   0.515   0.090  10.822 -0.2026  2.2107  2.8197
 1583SOL    HW216212   0.641   0.123  10.898  0.3402  0.3816 -1.2467
 1584SOL     OW16213   3.351   2.969   7.553 -0.2983 -0.5423  0.2033
 1584SOL    HW116214   3.379   3.058   7.529 -0.9150 -1.1196 -2.6488
 1584SOL    HW216215   3.349   2.975   7.649  0.1222 -2.4846  0.3263
 1585SOL     OW16216   1.414   3.520   7.503  0.4339  0.6663  0.1878
 1585SOL    HW116217   1.490   3.490   7.553 -0.4770  0.9906  1.7826
 1585SOL    HW216218   1.409   3.605   7.546 -1.2975  0.2190  0.8831
 1586SOL     OW16219   1.741   4.630   7.174  0.0061  0.6603 -0.5197
 1586SOL    HW116220   1.673   4.619   7.240  1.8664 -1.0131  1.1249
 1586SOL    HW216221   1.715   4.697   7.111 -1.4930 -0.5514 -1.1864
 1587SOL     OW16222   2.040   3.685   8.172  0.0582  0.9771  0.3235
 1587SOL    HW116223   2.116   3.667   8.116  0.2537  1.7800  0.3321
 1587SOL    HW216224   1.984   3.609   8.160  1.2362  0.2020 -0.2401
 1588SOL     OW16225   4.361   4.121   0.553  0.1775 -0.3500  0.6142
 1588SOL    HW116226   4.407   4.137   0.470 -0.0529 -2.7463  0.0309
 1588SOL    HW216227   4.293   4.059   0.527 -0.6789  1.6702 -2.0240
 1589SOL     OW16228   0.771   1.001   6.130  0.1726 -0.2067  0.8803
 1589SOL    HW116229   0.804   0.911   6.123  2.4441  0.7700 -1.0338
 1589SOL    HW216230   0.842   1.044   6.082 -0.0038 -0.5701  0.2908
 1590SOL     OW16231   0.438   4.417  14.470  0.4180 -0.2971  0.0926
 1590SOL    HW116232   0.504   4.431  14.403  0.4338 -1.2492 -0.0991
 1590SOL    HW216233   0.375   4.356  14.430 -0.0392 -0.0334  0.4170
 1591SOL     OW16234   0.541   4.221   9.110  0.6584 -0.1293 -0.2516
 1591SOL    HW116235   0.544   4.246   9.018  1.0292  0.4718 -0.0732
 1591SOL    HW216236   0.635   4.205   9.115  0.6138 -0.5602 -0.8660
 1592SOL     OW16237   2.119   1.285  10.399 -0.1569  0.8893 -0.2111
 1592SOL    HW116238   2.151   1.315  10.314  0.6303 -1.7909 -0.8751
 1592SOL    HW216239   2.101   1.369  10.441 -1.3385  0.6524 -0.2468
 1593SOL     OW16240   3.347   2.610   3.382 -0.5476 -0.4419  0.0654
 1593SOL    HW116241   3.306   2.605   3.295  0.6535  0.0598 -0.5294
 1593SOL    HW216242   3.312   2.696   3.405  1.5892  0.6224 -0.6051
 1594SOL     OW16243   0.764   2.090  15.788  0.1036 -0.0508 -0.5627
 1594SOL    HW116244   0.825   2.108  15.716  1.3386 -0.6319  0.3443
 1594SOL    HW216245   0.770   1.995  15.789  1.5658  0.0778  3.4505
 1595SOL     OW16246   2.379   3.023   2.977 -0.3437 -0.0914 -0.4702
 1595SOL    HW116247   2.382   2.976   3.060 -0.4225 -0.2285 -0.5430
 1595SOL    HW216248   2.376   2.948   2.917  1.0740 -0.2367 -0.3534
 1596SOL     OW16249   0.569   0.583   5.242  0.0434  0.5752  0.2195
 1596SOL    HW116250   0.618   0.647   5.190 -0.6390  1.6171  0.8603
 1596SOL    HW216251   0.628   0.579   5.317  1.1358 -0.8003 -0.7025
 1597SOL     OW16252   2.363   1.003   3.143  0.6984  0.7102 -0.1324
 1597SOL    HW116253   2.302   0.934   3.114  2.1073 -1.1670  1.3439
 1597SOL    HW216254   2.415   1.013   3.063  0.5703  1.1850 -0.1524
 1598SOL     OW16255   3.605   0.405   8.370  0.4784 -0.0975 -0.6550
 1598SOL    HW116256   3.557   0.383   8.450  1.4531  1.9120  0.4723
 1598SOL    HW216257   3.631   0.320   8.334 -0.9897 -1.8672  2.4645
 1599SOL     OW16258   4.168   1.826   3.953  0.2760  0.1411  0.1754
 1599SOL    HW116259   4.086   1.844   3.999 -1.7889 -2.0397 -2.6747
 1599SOL    HW216260   4.160   1.776   3.872  0.2900 -3.0026  2.1453
 1600SOL     OW16261   3.938   2.906   4.407  0.0736  0.2381 -0.2782
 1600SOL    HW116262   3.846   2.896   4.383  0.1181 -0.3343 -0.2125
 1600SOL    HW216263   3.922   2.902   4.502 -0.6089  2.2815 -0.2944
 1601SOL     OW16264   2.663   2.387   2.307  0.3207  0.5014  0.4954
 1601SOL    HW116265   2.630   2.298   2.324 -0.2400  0.6889  0.3702
 1601SOL    HW216266   2.758   2.383   2.323  0.5687  2.8161 -0.5071
 1602SOL     OW16267   2.022   3.385  15.821 -0.4335  0.2880  0.5146
 1602SOL    HW116268   1.928   3.386  15.838 -0.8326  1.4049 -1.6974
 1602SOL    HW216269   2.023   3.346  15.734 -1.1141  0.9793  0.1922
 1603SOL     OW16270   0.070   4.481   0.625  0.1546 -0.4748 -0.3470
 1603SOL    HW116271   0.042   4.455   0.714 -0.5456  1.7387  0.0786
 1603SOL    HW216272   0.121   4.555   0.658 -0.4875  1.2221 -3.2206
 1604SOL     OW16273   4.175   2.544  12.706  0.1581 -0.2029  0.7815
 1604SOL    HW116274   4.218   2.628  12.689  2.1331 -1.4028 -0.1123
 1604SOL    HW216275   4.242   2.493  12.662 -0.8339 -1.1400  0.3652
 1605SOL     OW16276   3.011   3.064   1.888 -0.2817 -0.6469 -0.0248
 1605SOL    HW116277   2.983   2.981   1.847  1.2860 -0.0554 -2.3076
 1605SOL    HW216278   3.053   3.028   1.966  0.9624  1.6622  0.3623
 1606SOL     OW16279   2.237   1.883   2.927 -0.4146  0.3979 -0.3791
 1606SOL    HW116280   2.323   1.906   2.893 -0.7681 -0.3319 -1.7668
 1606SOL    HW216281   2.192   1.966   2.914 -1.8853  0.2051  3.3715
 1607SOL     OW16282   2.655   0.334  15.685  0.9309  0.2682 -0.5728
 1607SOL    HW116283   2.642   0.411  15.741  1.8601  0.5094 -0.6904
 1607SOL    HW216284   2.746   0.358  15.669  1.0351 -0.7474 -1.4370
 1608SOL     OW16285   3.717   0.789  14.144  0.8361  0.3704 -0.5868
 1608SOL    HW116286   3.748   0.766  14.056  1.9711  0.8288 -0.3075
 1608SOL    HW216287   3.696   0.707  14.189 -0.2322  0.0346 -1.6886
 1609SOL     OW16288   1.084   4.570   2.899 -0.0820  0.4756  0.1215
 1609SOL    HW116289   1.116   4.504   2.837 -0.0352 -2.2656  3.0663
 1609SOL    HW216290   1.053   4.642   2.844  2.4812  1.5739  0.1023
 1610SOL     OW16291   1.985   0.617   1.942  0.1880 -0.1553  1.2324
 1610SOL    HW116292   1.920   0.571   1.888  1.0153 -0.9400  0.9186
 1610SOL    HW216293   1.933   0.692   1.973 -1.8406 -1.3975  0.8448
 1611SOL     OW16294   1.209   4.542   5.729 -0.0914  0.2874 -0.2236
 1611SOL    HW116295   1.265   4.470   5.702 -1.5632 -0.6253 -0.8273
 1611SOL    HW216296   1.143   4.500   5.784  0.2175 -0.6217 -0.5581
 1612SOL     OW16297   3.047   2.274   3.189  0.1570 -0.1126  0.1016
 1612SOL    HW116298   2.952   2.287   3.187  0.1692  0.1422  1.1433
 1612SOL    HW216299   3.059   2.186   3.225  0.7157 -0.5375 -1.1106
 1613SOL     OW16300   4.236   0.961   6.289 -0.3429  0.6120 -0.1696
 1613SOL    HW116301   4.154   0.932   6.249  1.2579 -3.2677 -0.6133
 1613SOL    HW216302   4.300   0.970   6.218 -0.1915 -0.3996 -0.1674
 1614SOL     OW16303   2.550   4.480  15.058 -0.1540 -0.5808  0.8372
 1614SOL    HW116304   2.513   4.443  15.138 -0.3056 -0.3993  0.8538
 1614SOL    HW216305   2.558   4.572  15.085  0.5874 -0.2186 -0.5874
 1615SOL     OW16306   1.822   0.220  16.546 -0.2623 -0.4174 -0.3042
 1615SOL    HW116307   1.840   0.126  16.552 -0.6589 -0.6226 -2.2412
 1615SOL    HW216308   1.851   0.248  16.633 -1.2799  1.0580 -0.4400
 1616SOL     OW16309   3.037   2.575   6.119 -0.2759  0.0622  0.1662
 1616SOL    HW116310   3.100   2.640   6.086 -1.2574  1.5309  1.1922
 1616SOL    HW216311   3.025   2.529   6.035 -2.0511  1.8009 -0.5269
 1617SOL     OW16312   3.240   3.866   0.718 -0.5407 -0.4196 -0.3068
 1617SOL    HW116313   3.148   3.888   0.704  0.0190  2.1288  0.0569
 1617SOL    HW216314   3.269   3.826   0.636 -1.2269  2.2829 -1.8636
 1618SOL     OW16315   2.927   2.654   2.633  0.1584  0.0655 -0.5060
 1618SOL    HW116316   2.916   2.744   2.661  2.8882  0.5234 -0.8421
 1618SOL    HW216317   2.948   2.620   2.720  0.4044  0.2919 -0.4774
 1619SOL     OW16318   1.079   3.039   3.143  0.3236  0.1442 -0.3733
 1619SOL    HW116319   1.088   3.023   3.049  0.4261  2.4547 -0.7769
 1619SOL    HW216320   1.166   3.074   3.164  0.2731 -0.3232  0.6131
 1620SOL     OW16321   0.717   1.509  11.509 -0.1219 -0.1616  0.5374
 1620SOL    HW116322   0.808   1.536  11.503 -0.1767  0.2172  1.3599
 1620SOL    HW216323   0.672   1.583  11.468  0.0515 -1.1600 -1.4647
 1621SOL     OW16324   3.136   1.890   3.013 -0.3455 -0.2032  0.5033
 1621SOL    HW116325   3.216   1.843   3.038 -0.1423 -0.3506 -0.4104
 1621SOL    HW216326   3.117   1.864   2.923  0.1604 -0.9031  0.6034
 1622SOL     OW16327   2.711   1.826  11.485  0.2809  0.2773  0.0209
 1622SOL    HW116328   2.750   1.912  11.495  0.6685  0.0898  0.1233
 1622SOL    HW216329   2.700   1.831  11.390  1.7606 -0.8901 -0.1994
 1623SOL     OW16330   1.324   4.379   5.011  0.2987 -0.3270 -0.1112
 1623SOL    HW116331   1.379   4.322   4.958  2.6917  1.0158  0.9276
 1623SOL    HW216332   1.239   4.371   4.968 -0.4285  2.3964  0.8120
 1624SOL     OW16333   1.263   1.932   6.174  0.3977  0.5384 -0.2153
 1624SOL    HW116334   1.267   2.017   6.130  0.1692  0.2895 -0.7220
 1624SOL    HW216335   1.351   1.913   6.205 -0.1039 -1.5437 -0.0918
 1625SOL     OW16336   3.403   3.864   8.717  0.3467 -0.1580 -0.0219
 1625SOL    HW116337   3.435   3.906   8.638  1.8925 -0.5349  0.4066
 1625SOL    HW216338   3.488   3.837   8.751 -0.0026 -0.7608  0.3674
 1626SOL     OW16339   1.299   4.062  11.519 -0.2284  0.0780  0.4794
 1626SOL    HW116340   1.360   4.128  11.488 -0.0157  0.0101  0.7572
 1626SOL    HW216341   1.302   4.070  11.615  3.0692  0.4607  0.3122
 1627SOL     OW16342   2.711   1.758   4.170 -0.2835 -0.2458 -0.6082
 1627SOL    HW116343   2.652   1.817   4.123  0.0770  0.2838 -0.4051
 1627SOL    HW216344   2.793   1.807   4.162 -0.1994 -0.4319 -0.8793
 1628SOL     OW16345   1.891   4.189   6.446 -0.0791 -0.0810  0.1729
 1628SOL    HW116346   1.951   4.249   6.402 -0.5154  1.2123  1.3154
 1628SOL    HW216347   1.872   4.219   6.535 -1.8343 -0.2473 -0.1430
 1629SOL     OW16348   4.128   4.458   6.529  0.1279  0.3193 -0.0604
 1629SOL    HW116349   4.207   4.409   6.553  0.2962 -0.3597 -1.9717
 1629SOL    HW216350   4.149   4.543   6.568 -0.2157  0.5488 -0.3798
 1630SOL     OW16351   1.168   4.676   3.555 -0.5283  0.1866 -0.4887
 1630SOL    HW116352   1.166   4.653   3.648 -0.1066  4.3507  0.5607
 1630SOL    HW216353   1.254   4.640   3.535 -1.6547 -2.1411 -1.1880
 1631SOL     OW16354   1.009   1.883   5.692 -0.0530  0.5742 -0.3468
 1631SOL    HW116355   0.914   1.873   5.699 -0.0378  0.2763 -0.5625
 1631SOL    HW216356   1.021   1.922   5.605  0.8389 -0.9883 -0.9370
 1632SOL     OW16357   4.152   3.164  16.505  0.7615 -0.5285  0.0298
 1632SOL    HW116358   4.089   3.236  16.507 -0.5642 -1.6880  0.0048
 1632SOL    HW216359   4.107   3.109  16.569 -0.7903 -1.1339 -1.5758
 1633SOL     OW16360   3.183   1.348   7.913  0.4095  0.0292  0.1949
 1633SOL    HW116361   3.134   1.426   7.941  0.6583  0.1140  0.4005
 1633SOL    HW216362   3.213   1.375   7.826  2.3275 -0.6257  0.6361
 1634SOL     OW16363   0.449   1.196  16.479  0.4036  0.4882  0.4014
 1634SOL    HW116364   0.397   1.222  16.556 -0.3715  0.7662 -0.2174
 1634SOL    HW216365   0.395   1.249  16.420  2.3642  1.7661 -0.2252
 1635SOL     OW16366   2.374   0.351   7.070  0.2435 -0.3568  0.4020
 1635SOL    HW116367   2.336   0.432   7.103 -0.4635 -1.4021  2.1757
 1635SOL    HW216368   2.415   0.316   7.149  2.3432  0.3680 -0.3677
 1636SOL     OW16369   3.140   0.105   3.480  0.8619 -0.7023 -0.4611
 1636SOL    HW116370   3.116   0.198   3.482  3.8320  0.1147 -2.9518
 1636SOL    HW216371   3.068   0.077   3.424  0.1858  0.2486 -0.0740
 1637SOL     OW16372   4.018   4.226   4.377 -0.1715  0.0843  0.1656
 1637SOL    HW116373   4.102   4.266   4.399 -0.6054  1.5628 -0.8776
 1637SOL    HW216374   4.022   4.229   4.281 -2.2934 -3.9063 -0.0843
 1638SOL     OW16375   3.774   3.969   7.821  0.7260  0.1379  0.1920
 1638SOL    HW116376   3.843   3.919   7.777  0.3579 -0.1521 -0.0552
 1638SOL    HW216377   3.719   3.896   7.849  1.9286 -1.4689 -1.6225
 1639SOL     OW16378   1.787   1.017   7.223  0.1984  0.3995 -0.0546
 1639SOL    HW116379   1.877   0.990   7.236 -0.3347 -0.1878  2.3812
 1639SOL    HW216380   1.799   1.112   7.230 -0.1611  0.2528  2.4753
 1640SOL     OW16381   1.027   4.303   0.243  0.6377  0.7102  0.4413
 1640SOL    HW116382   1.086   4.378   0.237  1.3748  0.1541  0.7198
 1640SOL    HW216383   1.091   4.233   0.235  0.7544  0.9709 -0.9437
 1641SOL     OW16384   3.064   2.607   1.674 -0.4049 -0.3464  0.6679
 1641SOL    HW116385   3.067   2.604   1.770 -0.1283 -1.9392  0.6095
 1641SOL    HW216386   3.157   2.594   1.659  0.0577 -0.6782  3.7747
 1642SOL     OW16387   2.881   3.750   4.133  0.5386 -0.6463  0.0031
 1642SOL    HW116388   2.972   3.724   4.119  1.0496  0.2148  1.6494
 1642SOL    HW216389   2.902   3.828   4.186  0.0835  0.5005 -1.5045
 1643SOL     OW16390   2.087   1.684   6.245  0.0439  0.3411 -0.3066
 1643SOL    HW116391   2.138   1.690   6.326 -0.0333  2.9447 -0.4550
 1643SOL    HW216392   2.054   1.773   6.253 -1.1322 -0.2332  1.3040
 1644SOL     OW16393   4.378   0.536   6.803  0.2214  0.0227  0.1667
 1644SOL    HW116394   4.319   0.567   6.734  0.7108  0.3045 -0.1203
 1644SOL    HW216395   4.457   0.584   6.778 -0.9137  1.3129 -0.9649
 1645SOL     OW16396   4.142   4.232   2.733 -0.1516 -0.3466 -0.1478
 1645SOL    HW116397   4.062   4.254   2.780  0.3276 -0.3526  0.6585
 1645SOL    HW216398   4.163   4.316   2.692  0.0879 -1.0825 -1.5367
 1646SOL     OW16399   2.582   2.851  11.463 -0.0969 -0.8014 -0.5122
 1646SOL    HW116400   2.541   2.805  11.537 -1.7996  0.8585 -0.4517
 1646SOL    HW216401   2.602   2.776  11.407 -0.8397 -0.8104 -0.7587
 1647SOL     OW16402   2.971   4.234   6.062 -0.2806 -0.1821 -0.1926
 1647SOL    HW116403   3.015   4.210   6.143 -1.4880 -1.8124 -0.0050
 1647SOL    HW216404   3.022   4.310   6.034  2.6423 -1.5981  1.3092
 1648SOL     OW16405   1.066   3.955   2.914 -0.4267 -0.1205 -0.0928
 1648SOL    HW116406   0.987   3.964   2.860 -1.5181  0.1854  1.5741
 1648SOL    HW216407   1.036   3.904   2.990  0.7715  1.1937  1.2365
 1649SOL     OW16408   3.511   3.100  11.206 -0.0463 -0.3270  0.1124
 1649SOL    HW116409   3.488   3.048  11.284 -1.4339 -0.5687 -0.4470
 1649SOL    HW216410   3.605   3.089  11.217  0.1996  0.3836 -1.3139
 1650SOL     OW16411   4.071   0.940   6.585 -0.1029  0.1089 -0.2366
 1650SOL    HW116412   3.983   0.979   6.585  0.2653  0.9575 -1.6966
 1650SOL    HW216413   4.120   1.013   6.548  0.3696 -0.0135  0.1518
 1651SOL     OW16414   1.244   3.393  15.671 -0.7264 -0.3600 -0.0696
 1651SOL    HW116415   1.290   3.316  15.636 -0.7370 -0.5476  0.3218
 1651SOL    HW216416   1.237   3.450  15.595 -0.3060 -0.3304 -0.0896
 1652SOL     OW16417   2.953   4.000  13.347  0.3919  0.6001  0.2012
 1652SOL    HW116418   2.950   4.031  13.256 -1.4335 -0.9755 -0.2883
 1652SOL    HW216419   3.029   4.046  13.382 -0.9965  4.8731 -2.3508
 1653SOL     OW16420   1.766   2.655   6.217 -0.0427 -0.3532  0.0988
 1653SOL    HW116421   1.703   2.679   6.285 -0.7064 -0.5556 -0.4474
 1653SOL    HW216422   1.724   2.702   6.145  2.0415  0.5256 -0.5521
 1654SOL     OW16423   0.020   0.847  13.237 -0.1436  0.2544 -0.1189
 1654SOL    HW116424   4.689   0.801  13.298  1.8128  0.0296  1.5701
 1654SOL    HW216425   4.723   0.937  13.262  2.4342  1.1002 -0.6863
 1655SOL     OW16426   3.084   3.889   3.640 -0.2319  0.4788  0.2105
 1655SOL    HW116427   3.084   3.897   3.545  4.8645 -0.4686  0.1416
 1655SOL    HW216428   2.998   3.849   3.656  0.1753 -0.0730  1.0236
 1656SOL     OW16429   1.705   1.850   7.400  0.3671 -0.2615  0.4995
 1656SOL    HW116430   1.663   1.836   7.484  0.3478  0.4881  0.6115
 1656SOL    HW216431   1.627   1.868   7.347  1.1826 -0.1622 -0.6878
 1657SOL     OW16432   0.094   0.115   4.284 -0.5940  0.5209 -0.0612
 1657SOL    HW116433   0.139   0.056   4.224  2.1791  1.5739  0.9449
 1657SOL    HW216434   0.137   0.088   4.366 -0.6063 -0.8214 -0.4950
 1658SOL     OW16435   1.836   0.293   2.472  0.1403  0.0900  0.1022
 1658SOL    HW116436   1.870   0.213   2.511 -2.7918 -0.7705  0.9101
 1658SOL    HW216437   1.742   0.283   2.485  0.3175 -1.4207  0.2409
 1659SOL     OW16438   4.184   2.825   2.998  0.0021 -0.2766  0.1206
 1659SOL    HW116439   4.131   2.827   2.918  0.3250 -0.0043 -0.0912
 1659SOL    HW216440   4.122   2.813   3.069 -1.2064  0.6833 -0.7718
 1660SOL     OW16441   1.212   4.649  11.419 -0.3211  0.2131 -0.2731
 1660SOL    HW116442   1.255   4.717  11.469  0.0947 -1.4980  1.6939
 1660SOL    HW216443   1.196   4.703  11.341  0.3915  0.6686 -0.0966
 1661SOL     OW16444   3.423   1.334   2.685  0.0094  0.1167 -0.0327
 1661SOL    HW116445   3.458   1.370   2.603 -0.0775 -1.2288 -0.6526
 1661SOL    HW216446   3.462   1.383   2.757 -1.5055  1.5440 -0.1927
 1662SOL     OW16447   3.439   2.745   5.912 -0.3715  0.0662  0.8252
 1662SOL    HW116448   3.474   2.694   5.986 -0.2453  0.5809  1.1217
 1662SOL    HW216449   3.498   2.819   5.928  0.7624 -0.6483 -0.0952
 1663SOL     OW16450   0.592   1.168   6.254 -0.0595 -0.1441 -0.2866
 1663SOL    HW116451   0.585   1.127   6.339 -2.6264  1.8442  0.4645
 1663SOL    HW216452   0.654   1.110   6.210  0.5822  0.1114  0.2913
 1664SOL     OW16453   3.112   2.358   9.566 -0.0350 -0.4553  0.2081
 1664SOL    HW116454   3.121   2.325   9.656  0.8966 -0.4484  0.1196
 1664SOL    HW216455   3.035   2.309   9.538 -0.5862  0.5547 -0.0504
 1665SOL     OW16456   2.464   1.041  12.341 -0.1667  0.0350 -0.1851
 1665SOL    HW116457   2.544   1.081  12.374  0.4684  0.1199 -1.8400
 1665SOL    HW216458   2.400   1.112  12.330  1.9857  1.9997  0.1607
 1666SOL     OW16459   1.042   0.586   5.669 -0.3189 -0.6235 -0.5976
 1666SOL    HW116460   0.947   0.576   5.665 -0.4946  1.5698 -2.0489
 1666SOL    HW216461   1.050   0.595   5.764 -1.7190  0.2193 -0.5662
 1667SOL     OW16462   4.636   0.107   3.510  0.1028 -0.4165  0.0112
 1667SOL    HW116463   4.713   0.073   3.555  0.9489 -0.0938 -1.1953
 1667SOL    HW216464   4.573   0.113   3.581 -0.2923 -1.0662 -0.2932
 1668SOL     OW16465   3.475   0.258   8.830  0.5150 -0.6953  0.2312
 1668SOL    HW116466   3.468   0.306   8.747 -1.2163 -1.8565 -0.2954
 1668SOL    HW216467   3.547   0.197   8.817  0.0512 -1.0688 -0.5890
 1669SOL     OW16468   3.602   1.565  13.569  0.2265 -0.0169 -1.1455
 1669SOL    HW116469   3.629   1.655  13.586 -1.2662 -0.5081  4.0236
 1669SOL    HW216470   3.531   1.561  13.634  1.2599 -2.6150 -0.2071
 1670SOL     OW16471   3.262   1.045   7.186 -0.5953 -0.3490 -0.1014
 1670SOL    HW116472   3.193   1.093   7.232 -0.6193 -1.0956  0.6355
 1670SOL    HW216473   3.342   1.080   7.227 -0.8683 -0.1179  0.2407
 1671SOL     OW16474   0.620   2.398   1.830 -0.5198 -0.1770  0.8504
 1671SOL    HW116475   0.539   2.426   1.787 -1.1353 -0.8806  1.5590
 1671SOL    HW216476   0.676   2.476   1.822  1.2622 -1.1946  3.6681
 1672SOL     OW16477   1.641   4.633   6.559 -0.6059  0.4827  0.3574
 1672SOL    HW116478   1.731   4.632   6.592 -0.3521  2.8861 -0.2329
 1672SOL    HW216479   1.588   4.631   6.639 -0.8104  1.3858  0.2520
 1673SOL     OW16480   3.119   2.554  14.741  0.2933 -0.0390  1.0237
 1673SOL    HW116481   3.196   2.541  14.797 -0.9263  0.4794  2.8543
 1673SOL    HW216482   3.061   2.595  14.806  1.1225 -0.4853  2.0548
 1674SOL     OW16483   1.244   0.802  14.489 -0.2140  0.0001 -0.2634
 1674SOL    HW116484   1.309   0.733  14.477 -2.7327 -1.8615 -3.4385
 1674SOL    HW216485   1.297   0.874  14.523 -2.9750  1.4700  0.9556
 1675SOL     OW16486   0.531   0.179   1.579 -0.1603  0.0941  0.1132
 1675SOL    HW116487   0.604   0.202   1.637  0.5117 -0.3681 -0.5509
 1675SOL    HW216488   0.582   0.142   1.506  0.3372  1.9431 -0.4719
 1676SOL     OW16489   0.007   1.991   6.035 -0.2301  0.2825  0.3139
 1676SOL    HW116490   0.026   2.075   5.993  3.6481 -0.9380 -0.3771
 1676SOL    HW216491   4.640   1.995   6.018  0.1790 -1.7680 -2.4017
 1677SOL     OW16492   1.210   0.436   4.581  0.3293 -0.2996 -0.0811
 1677SOL    HW116493   1.216   0.427   4.676  0.8876 -1.0961 -0.1946
 1677SOL    HW216494   1.302   0.429   4.557 -0.4867 -1.3343 -2.8617
 1678SOL     OW16495   0.351   4.673   5.660 -0.0171  0.1271 -0.1198
 1678SOL    HW116496   0.290   4.613   5.703  0.3845 -1.5304 -1.8597
 1678SOL    HW216497   0.430   4.665   5.713  2.4087  4.0378 -3.1408
 1679SOL     OW16498   4.706   0.645  10.260 -0.2827 -0.2680  0.0022
 1679SOL    HW116499   4.623   0.692  10.258 -0.6276 -0.9118 -0.7862
 1679SOL    HW216500   4.691   0.555  10.230 -0.5841 -0.2928  0.2238
 1680SOL     OW16501   1.634   0.047   5.269 -0.3514  0.2819 -0.1141
 1680SOL    HW116502   1.641   0.041   5.365  0.7615  1.7190 -0.0962
 1680SOL    HW216503   1.644   0.142   5.262 -0.5031  0.3006 -0.0737
 1681SOL     OW16504   2.240   1.767   9.690  0.0340 -0.5077  0.0346
 1681SOL    HW116505   2.241   1.686   9.639 -2.1094 -1.7818  1.9754
 1681SOL    HW216506   2.148   1.776   9.716  0.4328 -2.0411  1.9219
 1682SOL     OW16507   4.238   2.343   1.570 -0.2212  0.1970 -0.0918
 1682SOL    HW116508   4.169   2.341   1.504 -0.3519 -1.5876  0.1095
 1682SOL    HW216509   4.251   2.436   1.591  1.8722 -0.1616  0.1833
 1683SOL     OW16510   2.407   3.528   3.539 -0.7326 -0.1639  0.0204
 1683SOL    HW116511   2.343   3.461   3.561 -0.1624 -0.2353  1.4543
 1683SOL    HW216512   2.489   3.491   3.571 -0.3418 -0.4669 -1.3223
 1684SOL     OW16513   2.973   3.982   8.555 -0.5495 -0.1909 -0.0653
 1684SOL    HW116514   2.892   4.019   8.520 -2.0257 -2.9786  0.3634
 1684SOL    HW216515   2.937   3.955   8.640 -0.9674 -0.6295 -0.3815
 1685SOL     OW16516   4.373   4.485   2.231 -0.3078  0.4850 -0.1511
 1685SOL    HW116517   4.391   4.478   2.324  1.6242 -1.0100 -0.6360
 1685SOL    HW216518   4.448   4.444   2.187  0.4877  1.7733  0.0228
 1686SOL     OW16519   1.677   3.690   8.125  0.3731 -0.2946 -0.1813
 1686SOL    HW116520   1.624   3.720   8.051 -0.5713  0.1310  0.6839
 1686SOL    HW216521   1.603   3.693   8.184  0.5614 -3.7315  0.2513
 1687SOL     OW16522   4.614   4.139   0.729  0.5205 -0.5723 -0.4334
 1687SOL    HW116523   4.575   4.128   0.642 -0.8282  1.6044 -0.1079
 1687SOL    HW216524   4.682   4.072   0.724  2.0450  0.9151  0.3417
 1688SOL     OW16525   0.287   2.737   8.461 -0.7499  0.3304 -0.7996
 1688SOL    HW116526   0.320   2.746   8.550  1.1479  0.8863 -1.5456
 1688SOL    HW216527   0.217   2.674   8.479  1.2701 -0.8366  3.0262
 1689SOL     OW16528   1.878   3.207  15.374 -0.9810  0.1900  0.3690
 1689SOL    HW116529   1.919   3.272  15.431 -0.1657 -0.0678  0.0820
 1689SOL    HW216530   1.827   3.268  15.321 -0.2890  0.2960 -0.1835
 1690SOL     OW16531   4.056   1.491   0.407 -0.2645 -0.2142  0.4552
 1690SOL    HW116532   4.149   1.513   0.411 -0.1698 -0.8460  1.8029
 1690SOL    HW216533   4.026   1.509   0.318  0.3366  0.4733  0.3925
 1691SOL     OW16534   4.508   2.904  17.539  0.6415 -0.7975  0.0292
 1691SOL    HW116535   4.472   2.925  17.626  0.5150 -2.6815  0.4514
 1691SOL    HW216536   4.529   2.810  17.541  2.5293 -0.3629  0.4408
 1692SOL     OW16537   4.229   1.549   2.924 -0.5444  0.4687 -0.6337
 1692SOL    HW116538   4.199   1.639   2.933  0.2451  0.6809 -0.1262
 1692SOL    HW216539   4.164   1.511   2.865  0.3936  1.0825 -2.0405
 1693SOL     OW16540   1.400   3.428  17.138  0.0945 -0.8947 -0.0842
 1693SOL    HW116541   1.358   3.431  17.224  0.3329  1.2325 -0.0245
 1693SOL    HW216542   1.336   3.433  17.068 -1.3512  1.3743  1.3966
 1694SOL     OW16543   2.921   0.923   5.809  0.3169 -0.0984 -0.9156
 1694SOL    HW116544   2.852   0.888   5.865 -1.1044  1.6009 -1.5896
 1694SOL    HW216545   2.986   0.949   5.874  0.5763 -0.4562 -1.0330
 1695SOL     OW16546   0.034   3.127   5.257 -0.1571  0.2823  0.2810
 1695SOL    HW116547   4.684   3.182   5.266 -0.7047 -0.8074  2.3725
 1695SOL    HW216548   0.079   3.151   5.176  2.5269 -0.3303  1.5711
 1696SOL     OW16549   1.731   2.922   5.510  0.6712  0.2743  0.6453
 1696SOL    HW116550   1.762   2.859   5.444 -0.1855  0.5627 -0.0282
 1696SOL    HW216551   1.719   2.866   5.586 -0.8231 -1.0685 -0.5716
 1697SOL     OW16552   0.529   1.666   3.275 -0.1537  0.7088  0.3029
 1697SOL    HW116553   0.484   1.661   3.359  0.6546 -1.8320  0.5990
 1697SOL    HW216554   0.620   1.654   3.301  0.1406  0.5104 -0.8209
 1698SOL     OW16555   0.925   1.472   4.530  0.1469  0.2851  0.0099
 1698SOL    HW116556   0.873   1.443   4.455 -1.3534  1.6416  0.5214
 1698SOL    HW216557   0.955   1.384   4.553  0.5144  0.4208  0.0402
 1699SOL     OW16558   3.217   3.972  16.771 -0.0498 -0.1269 -0.0137
 1699SOL    HW116559   3.253   3.949  16.857 -0.2440  1.1558  0.4047
 1699SOL    HW216560   3.279   4.045  16.764 -1.4707  1.1396  0.6366
 1700SOL     OW16561   0.115   3.614   4.204 -0.5638 -0.8801  0.1812
 1700SOL    HW116562   0.207   3.606   4.232 -0.3453  1.7766  0.1665
 1700SOL    HW216563   0.117   3.560   4.124 -1.1946 -0.9067  0.1903
 1701SOL     OW16564   2.346   4.292  12.175 -0.0186  0.1602  0.0021
 1701SOL    HW116565   2.258   4.315  12.206  0.6713  0.7499  1.4999
 1701SOL    HW216566   2.398   4.366  12.206  1.7457 -0.1186 -2.3495
 1702SOL     OW16567   2.200   2.510  15.484  0.7370 -0.0289  1.0391
 1702SOL    HW116568   2.237   2.432  15.526 -1.5920 -2.5632 -1.6427
 1702SOL    HW216569   2.108   2.484  15.481 -0.1764  3.0231  3.0630
 1703SOL     OW16570   3.146   0.334   8.498  0.6282  0.1732 -0.1077
 1703SOL    HW116571   3.109   0.302   8.416  2.0233  0.9212 -1.0173
 1703SOL    HW216572   3.097   0.416   8.504 -0.0022 -0.2363  0.4296
 1704SOL     OW16573   1.778   4.622  17.416  0.2182  0.3105  0.2263
 1704SOL    HW116574   1.788   4.559  17.488 -0.2840  0.4088  0.3822
 1704SOL    HW216575   1.795   4.705  17.461  2.3079  1.3024 -2.4372
 1705SOL     OW16576   1.068   3.166  11.615 -0.2376 -0.2434  0.1597
 1705SOL    HW116577   1.100   3.094  11.560 -1.7544 -0.7632 -0.0597
 1705SOL    HW216578   1.015   3.215  11.551  1.3342  0.6430 -0.4525
 1706SOL     OW16579   1.041   3.269   2.670 -0.4588  0.3160 -0.2870
 1706SOL    HW116580   1.053   3.266   2.575 -0.2910  2.1178 -0.3217
 1706SOL    HW216581   1.022   3.361   2.689  3.1800  1.1168 -0.3794
 1707SOL     OW16582   2.491   2.476   5.761 -0.0691 -0.3407 -1.0802
 1707SOL    HW116583   2.474   2.482   5.667 -2.0834 -0.9381 -0.7730
 1707SOL    HW216584   2.582   2.447   5.756  0.6657  2.0583 -1.3916
 1708SOL     OW16585   3.351   4.091   4.099  0.4580 -0.3409 -0.1414
 1708SOL    HW116586   3.420   4.156   4.087  1.7454 -1.4656  1.2207
 1708SOL    HW216587   3.376   4.028   4.031 -1.5824 -0.7715 -0.5055
 1709SOL     OW16588   3.954   0.574   9.706  0.6593 -0.4075  0.3338
 1709SOL    HW116589   3.929   0.663   9.680  1.0745 -0.9226 -1.7462
 1709SOL    HW216590   4.027   0.603   9.762  0.6052 -0.9338  0.6683
 1710SOL     OW16591   2.310   2.635   1.772  0.3903  0.2378  0.1863
 1710SOL    HW116592   2.226   2.668   1.803  1.1520  0.8295  1.6226
 1710SOL    HW216593   2.284   2.559   1.721 -1.4122  0.0588  1.3644
 1711SOL     OW16594   2.755   3.896  15.394 -0.0754 -0.0425  0.5438
 1711SOL    HW116595   2.714   3.974  15.357  0.8595  0.5661  0.7773
 1711SOL    HW216596   2.713   3.894  15.479  0.4098 -0.0582  0.7835
 1712SOL     OW16597   3.665   1.916   9.136 -0.3911 -0.4430  0.3772
 1712SOL    HW116598   3.610   1.893   9.211  2.5718 -0.2768  2.6155
 1712SOL    HW216599   3.597   1.916   9.069  0.7518 -3.3129 -0.7555
 1713SOL     OW16600   3.155   1.565   5.894  0.3133  0.1146 -0.0967
 1713SOL    HW116601   3.197   1.490   5.935  0.0118 -1.9002 -3.5077
 1713SOL    HW216602   3.143   1.624   5.969 -1.6020  0.6970 -0.8595
 1714SOL     OW16603   2.064   2.663  10.843 -0.7447  0.0030  0.1538
 1714SOL    HW116604   2.022   2.600  10.785  0.0703  0.7186 -1.2347
 1714SOL    HW216605   2.063   2.746  10.795  0.1534 -0.2188 -0.2566
 1715SOL     OW16606   2.571   0.074   4.085  0.0378 -0.5822 -0.6579
 1715SOL    HW116607   2.597   0.165   4.100 -0.7636 -0.5759  0.6994
 1715SOL    HW216608   2.659   0.039   4.068  1.0277  2.4257 -1.7227
 1716SOL     OW16609   3.970   1.313   6.626  0.3578  0.2967  0.2718
 1716SOL    HW116610   4.002   1.330   6.538  0.0075  2.1730  0.4947
 1716SOL    HW216611   4.049   1.294   6.677 -0.4574  0.6719  1.6755
 1717SOL     OW16612   4.423   0.553   6.356 -0.1240 -0.1544  0.0425
 1717SOL    HW116613   4.511   0.584   6.337 -0.0836 -0.4365 -0.2276
 1717SOL    HW216614   4.436   0.462   6.382 -2.3053  0.1860  2.3212
 1718SOL     OW16615   4.221   4.665   4.912  0.5168  0.4333  0.0335
 1718SOL    HW116616   4.136   4.633   4.941  0.0515  2.0947  0.5148
 1718SOL    HW216617   4.208   0.032   4.923  0.3571  0.4598 -0.3632
 1719SOL     OW16618   2.759   1.947   2.413 -0.3316 -0.0378  0.1546
 1719SOL    HW116619   2.822   1.880   2.386  0.6001  0.8665  0.1111
 1719SOL    HW216620   2.700   1.896   2.468  0.1327  0.5114  1.1588
 1720SOL     OW16621   1.048   1.812   2.521  0.3487 -0.0023 -0.3118
 1720SOL    HW116622   0.969   1.827   2.573  0.6985  1.3620 -0.1926
 1720SOL    HW216623   1.010   1.770   2.444 -0.6116  1.3489 -0.5691
 1721SOL     OW16624   2.077   1.905  16.795  0.3700 -0.0910 -0.9631
 1721SOL    HW116625   1.994   1.909  16.842 -0.1168 -1.0087 -1.7484
 1721SOL    HW216626   2.057   1.958  16.718  0.1450  2.1741  0.6536
 1722SOL     OW16627   1.374   0.238   1.495 -0.2157  0.4128 -0.3170
 1722SOL    HW116628   1.410   0.168   1.440 -0.6468  2.1133 -2.7806
 1722SOL    HW216629   1.443   0.240   1.561  1.0802  4.8117 -1.8179
 1723SOL     OW16630   2.128   0.587  14.951  0.1516  0.1504  0.1519
 1723SOL    HW116631   2.206   0.546  14.914 -0.8838 -0.8726 -0.9102
 1723SOL    HW216632   2.127   0.672  14.908  0.7233  1.3099  2.4335
 1724SOL     OW16633   1.853   2.995   7.824 -0.1344  1.0708  0.2063
 1724SOL    HW116634   1.820   3.011   7.736  0.4095  0.6904 -0.0628
 1724SOL    HW216635   1.946   3.015   7.819 -0.2327  2.1173  2.4226
 1725SOL     OW16636   3.162   1.037   8.917  0.5230  0.6254 -0.3614
 1725SOL    HW116637   3.164   1.130   8.897  2.1594  0.3880 -1.3277
 1725SOL    HW216638   3.163   0.992   8.833 -1.2734 -1.8741  0.9414
 1726SOL     OW16639   0.490   3.505   8.680  0.0877  0.6095 -0.2812
 1726SOL    HW116640   0.525   3.542   8.760 -1.5372  1.9626 -0.2054
 1726SOL    HW216641   0.416   3.564   8.664 -1.6398 -1.4112  0.2889
 1727SOL     OW16642   4.393   2.887   3.887 -0.1235  0.1981 -0.1714
 1727SOL    HW116643   4.355   2.799   3.880 -2.4376  1.0678  1.1962
 1727SOL    HW216644   4.320   2.938   3.924  0.0173  0.5828 -0.4279
 1728SOL     OW16645   3.730   2.892   8.130  0.1916 -0.4431  0.2993
 1728SOL    HW116646   3.812   2.932   8.158  2.2093 -1.9571 -3.5521
 1728SOL    HW216647   3.686   2.971   8.098  0.6280 -0.5577 -0.5606
 1729SOL     OW16648   3.376   4.037  16.477  0.4035 -0.3992  0.1316
 1729SOL    HW116649   3.363   3.943  16.492  0.1092 -0.5602 -1.1237
 1729SOL    HW216650   3.472   4.045  16.481  0.4152 -1.5011  2.1650
 1730SOL     OW16651   4.703   0.917   7.095  0.1833 -0.1486  0.1410
 1730SOL    HW116652   4.665   0.858   7.030 -0.7067  0.5239  0.0511
 1730SOL    HW216653   4.630   0.979   7.100  0.0895 -0.1858 -0.9051
 1731SOL     OW16654   4.213   1.494   5.939  0.0712  0.0712  0.6376
 1731SOL    HW116655   4.300   1.529   5.921 -0.5520  0.9847 -0.5614
 1731SOL    HW216656   4.211   1.408   5.896  0.9256 -0.1194  0.9871
 1732SOL     OW16657   4.515   4.504  15.089 -0.3693 -0.3028 -0.1335
 1732SOL    HW116658   4.488   4.497  14.997 -0.3214  1.0864 -0.2452
 1732SOL    HW216659   4.610   4.502  15.080 -0.4596  1.9267 -1.6515
 1733SOL     OW16660   3.163   4.248  12.057  1.0074  0.0022  0.1889
 1733SOL    HW116661   3.184   4.178  12.120 -2.9676 -1.7405 -0.4043
 1733SOL    HW216662   3.214   4.318  12.097  1.8597  0.3754 -1.5756
 1734SOL     OW16663   1.195   2.861   4.274 -0.2969  0.1204  0.0775
 1734SOL    HW116664   1.166   2.940   4.320  0.8937  0.0198  0.9915
 1734SOL    HW216665   1.175   2.886   4.184 -2.3367 -1.9904 -0.0667
 1735SOL     OW16666   0.789   3.709  14.194 -0.5963 -0.0231 -0.4502
 1735SOL    HW116667   0.814   3.622  14.164 -1.2085 -0.5635  0.6294
 1735SOL    HW216668   0.838   3.713  14.275 -0.4408 -0.4162 -0.5261
 1736SOL     OW16669   1.148   3.241   0.242  0.3410  0.7107 -0.4068
 1736SOL    HW116670   1.137   3.312   0.178  0.0761 -0.0634 -1.2211
 1736SOL    HW216671   1.244   3.239   0.240  0.3254 -0.6809  1.0424
 1737SOL     OW16672   0.135   4.331   3.013 -0.3950  0.3553 -0.3085
 1737SOL    HW116673   0.067   4.267   3.037 -0.4251  1.1171  1.6598
 1737SOL    HW216674   0.216   4.283   3.033 -0.4397  1.0624  1.5527
 1738SOL     OW16675   2.488   2.937  12.148 -0.5191  0.1676 -0.2306
 1738SOL    HW116676   2.413   2.957  12.091 -0.7018  0.2530  0.0425
 1738SOL    HW216677   2.538   3.018  12.151  2.2686 -1.6719  2.0369
 1739SOL     OW16678   3.705   1.249   5.371 -0.1690  0.5332 -0.5987
 1739SOL    HW116679   3.676   1.335   5.404 -0.3777  0.4860 -0.6639
 1739SOL    HW216680   3.626   1.213   5.331  0.8977  1.3945 -3.4816
 1740SOL     OW16681   3.037   1.551   8.004 -0.1198  0.5868  0.1373
 1740SOL    HW116682   2.945   1.528   8.022  0.5107 -2.0754 -0.0454
 1740SOL    HW216683   3.031   1.646   8.009 -0.5845  0.5851 -0.3092
 1741SOL     OW16684   3.899   0.593   8.723  0.3709  0.6356 -0.4519
 1741SOL    HW116685   3.897   0.542   8.641  3.1916 -0.3844  0.1330
 1741SOL    HW216686   3.939   0.672   8.688 -1.1237  1.3731 -0.5054
 1742SOL     OW16687   4.684   3.831   4.243 -0.1348 -0.1009 -0.4826
 1742SOL    HW116688   0.026   3.767   4.225 -0.2332  0.1819 -1.8597
 1742SOL    HW216689   4.610   3.774   4.219 -0.1804  0.2760 -1.2408
 1743SOL     OW16690   3.252   2.414   3.530 -0.2365 -0.4411 -1.1483
 1743SOL    HW116691   3.275   2.493   3.482 -0.8699  0.5188  0.1441
 1743SOL    HW216692   3.168   2.403   3.486 -1.3043  0.0921  0.7774
 1744SOL     OW16693   2.442   1.487   6.358 -0.6191 -0.0853 -0.0159
 1744SOL    HW116694   2.405   1.575   6.367 -1.8677 -0.6829  0.6624
 1744SOL    HW216695   2.432   1.463   6.450  1.9791 -0.7567  0.0972
 1745SOL     OW16696   0.239   2.010   4.371  0.3385 -0.0523  0.2050
 1745SOL    HW116697   0.257   2.077   4.306 -0.9956 -0.2092 -0.3359
 1745SOL    HW216698   0.239   1.933   4.314 -0.0439  0.5131 -0.5525
 1746SOL     OW16699   2.895   3.919   6.001  0.1100  0.3965  0.0049
 1746SOL    HW116700   2.853   3.872   6.073  1.9504  0.5641  1.1909
 1746SOL    HW216701   2.932   3.994   6.047 -1.0963  1.4143 -0.6565
 1747SOL     OW16702   2.807   3.136   5.866 -0.4433 -0.6398 -0.7353
 1747SOL    HW116703   2.733   3.087   5.902  1.0721 -2.1735  0.3008
 1747SOL    HW216704   2.788   3.125   5.773 -2.1716 -1.5203 -0.2841
 1748SOL     OW16705   0.760   0.288  10.898 -0.0770  0.2465  0.2000
 1748SOL    HW116706   0.815   0.260  10.824  1.2527  1.2276  0.8155
 1748SOL    HW216707   0.744   0.381  10.879 -1.0518  0.3368  1.4754
 1749SOL     OW16708   0.374   4.316  12.916  0.1475  0.0255  0.2468
 1749SOL    HW116709   0.279   4.305  12.920 -0.0168  1.4705  0.4948
 1749SOL    HW216710   0.383   4.359  12.831 -1.9607 -1.1769 -0.5927
 1750SOL     OW16711   2.445   1.553   9.515 -0.6466  0.3880  0.1212
 1750SOL    HW116712   2.351   1.548   9.502 -0.3199  0.7930 -2.4360
 1750SOL    HW216713   2.462   1.489   9.585 -0.3194  0.9123  0.5243
 1751SOL     OW16714   1.547   2.340   1.364  0.0102  0.1541 -0.3390
 1751SOL    HW116715   1.604   2.400   1.316  2.3850 -0.0787  2.1879
 1751SOL    HW216716   1.548   2.267   1.302  0.7981  0.7785 -1.0710
 1752SOL     OW16717   4.154   0.669   6.644  0.1487 -0.4205 -0.0468
 1752SOL    HW116718   4.143   0.683   6.550 -2.8225 -1.2416  0.1819
 1752SOL    HW216719   4.128   0.758   6.669  1.7482 -0.0009  0.1490
 1753SOL     OW16720   2.004   2.444  12.343 -0.3502  0.1602  0.2722
 1753SOL    HW116721   1.992   2.391  12.265 -0.6394 -1.3489  1.3411
 1753SOL    HW216722   1.963   2.376  12.397  0.5542 -0.6304 -0.0263
 1754SOL     OW16723   4.419   0.089   7.334 -0.2342  0.2831 -0.5829
 1754SOL    HW116724   4.490   0.105   7.273 -0.7832  4.0340 -0.1994
 1754SOL    HW216725   4.449   0.150   7.401 -1.9674  0.4963  0.0267
 1755SOL     OW16726   0.292   1.010   5.433 -0.5183 -0.0214  0.2704
 1755SOL    HW116727   0.278   0.925   5.474 -3.1368 -0.1830 -0.9706
 1755SOL    HW216728   0.344   0.982   5.358 -1.5404  0.1796 -0.5186
 1756SOL     OW16729   0.510   0.841   5.730  0.2366 -0.8612 -0.0431
 1756SOL    HW116730   0.508   0.867   5.822 -0.4060 -0.3352 -0.2082
 1756SOL    HW216731   0.421   0.850   5.696 -0.3864 -0.3463  1.7445
 1757SOL     OW16732   0.980   1.727  16.557 -0.0644 -0.1905  0.1299
 1757SOL    HW116733   0.949   1.637  16.562  1.3653 -0.6681  0.1183
 1757SOL    HW216734   0.917   1.771  16.500 -1.8931 -1.0834  1.4404
 1758SOL     OW16735   0.480   1.439  13.678 -0.7727  0.2221  0.6045
 1758SOL    HW116736   0.517   1.524  13.699 -1.1088  0.3537  0.6734
 1758SOL    HW216737   0.437   1.469  13.598 -1.1649 -3.2520 -0.4837
 1759SOL     OW16738   2.661   2.711  12.101  0.1068 -0.1302  0.1457
 1759SOL    HW116739   2.714   2.723  12.179 -0.1728 -1.8718  0.6111
 1759SOL    HW216740   2.594   2.776  12.122 -0.6987 -1.0569  0.4672
 1760SOL     OW16741   0.180   2.034   6.334 -0.4619  0.9305 -0.3801
 1760SOL    HW116742   0.224   2.119   6.335  2.4108 -0.5490 -0.8542
 1760SOL    HW216743   0.179   2.026   6.239  0.6727 -0.0838 -0.3052
 1761SOL     OW16744   4.178   1.094   8.183 -0.3867  0.5524 -0.2370
 1761SOL    HW116745   4.150   1.107   8.273  0.2338 -0.7878  0.1480
 1761SOL    HW216746   4.095   1.116   8.139 -0.3740  0.2316 -0.4276
 1762SOL     OW16747   3.419   0.492   0.084 -0.4517  0.0102  0.1801
 1762SOL    HW116748   3.330   0.458   0.086 -0.9868  1.3746 -0.0860
 1762SOL    HW216749   3.467   0.440   0.148  0.3888 -0.0694 -0.5103
 1763SOL     OW16750   4.065   3.952   6.974  0.0756 -0.1798 -0.3918
 1763SOL    HW116751   4.001   4.005   7.022 -1.7451  0.1642 -3.1649
 1763SOL    HW216752   4.055   3.987   6.885 -2.5324 -0.8306 -0.3369
 1764SOL     OW16753   4.298   2.765  13.214 -0.0381  0.7449  0.1937
 1764SOL    HW116754   4.390   2.751  13.237 -0.0543  1.3571  0.6280
 1764SOL    HW216755   4.307   2.760  13.119  2.2508 -1.1040  0.5191
 1765SOL     OW16756   1.623   0.244   1.644 -0.4648 -0.8350 -0.0226
 1765SOL    HW116757   1.677   0.169   1.623  0.2488  0.3720 -2.4234
 1765SOL    HW216758   1.660   0.314   1.590 -0.4936 -0.2121  0.7481
 1766SOL     OW16759   3.181   0.130   5.114  0.0788 -0.3192  0.3488
 1766SOL    HW116760   3.209   0.042   5.139  0.0862 -0.7892 -1.3744
 1766SOL    HW216761   3.154   0.105   5.026  1.5142  0.6128 -0.3577
 1767SOL     OW16762   4.671   0.099   4.611  0.1699  0.4926 -0.5735
 1767SOL    HW116763   4.591   0.064   4.570 -2.2585  1.4041  3.3854
 1767SOL    HW216764   4.638   0.158   4.678  0.0711  0.5499 -0.6714
 1768SOL     OW16765   1.513   3.521  11.283  0.1753  0.1026  0.5233
 1768SOL    HW116766   1.525   3.614  11.301  0.3442 -0.4273  3.1515
 1768SOL    HW216767   1.599   3.478  11.283  0.9808  1.7189  2.4978
 1769SOL     OW16768   2.669   3.299   3.893 -0.5184 -0.3120 -0.0422
 1769SOL    HW116769   2.658   3.339   3.979 -1.8448  1.2146 -0.9267
 1769SOL    HW216770   2.618   3.218   3.896  1.3062 -1.4840 -0.4458
 1770SOL     OW16771   2.922   1.290  11.756  0.0237 -0.8084 -0.6341
 1770SOL    HW116772   2.906   1.316  11.846 -2.5077  1.9570 -1.9026
 1770SOL    HW216773   2.990   1.354  11.735  0.0952 -0.4776  0.6053
 1771SOL     OW16774   3.499   3.291  15.056 -0.6837 -0.5788  0.0200
 1771SOL    HW116775   3.459   3.377  15.065  1.1070  0.4431 -1.7998
 1771SOL    HW216776   3.585   3.305  15.017 -0.9634  1.3457  0.0907
 1772SOL     OW16777   2.852   2.643  17.268 -0.2383 -0.5731  0.4054
 1772SOL    HW116778   2.879   2.566  17.219 -0.2260 -0.9986  1.0777
 1772SOL    HW216779   2.880   2.700  17.196 -2.5952 -0.8348 -0.7170
 1773SOL     OW16780   3.281   1.919   2.016 -0.4761 -0.2526  0.0415
 1773SOL    HW116781   3.222   1.942   2.088 -2.6048 -0.8088 -1.5569
 1773SOL    HW216782   3.367   1.955   2.041 -0.0451 -2.6965  2.1058
 1774SOL     OW16783   3.078   1.860   5.183  0.0643  0.0460 -0.3774
 1774SOL    HW116784   3.059   1.932   5.243  0.2806 -0.4235  0.2540
 1774SOL    HW216785   2.994   1.851   5.137 -0.3140  1.6686 -0.0250
 1775SOL     OW16786   0.973   2.549   9.806  0.0519  0.1233  0.1286
 1775SOL    HW116787   1.018   2.592   9.733 -0.3702 -2.5132 -1.6999
 1775SOL    HW216788   0.916   2.614   9.847 -1.3201 -1.1296  0.2027
 1776SOL     OW16789   2.362   2.865   2.761 -0.4068 -0.2977  0.1740
 1776SOL    HW116790   2.380   2.902   2.675  1.4290  0.1636  0.7672
 1776SOL    HW216791   2.310   2.786   2.744 -1.5841  0.6237 -0.5141
 1777SOL     OW16792   1.351   3.070   3.204 -0.3584 -0.7072 -0.3763
 1777SOL    HW116793   1.438   3.053   3.168 -0.2530 -0.8288 -0.0608
 1777SOL    HW216794   1.377   3.131   3.273 -0.7213 -1.9090  0.8196
 1778SOL     OW16795   3.689   1.045   1.775 -0.8641  0.5015  0.5536
 1778SOL    HW116796   3.766   1.074   1.824 -0.0230  2.0139 -1.6234
 1778SOL    HW216797   3.646   0.990   1.840 -1.2255 -1.3596 -1.2914
 1779SOL     OW16798   3.854   1.845  16.471  0.3458  0.0051  0.1029
 1779SOL    HW116799   3.825   1.779  16.534 -0.4390  0.6972  0.4474
 1779SOL    HW216800   3.922   1.792  16.428  0.0052 -0.8385  0.6073
 1780SOL     OW16801   0.173   4.504   4.528 -0.0283 -0.0485  0.2794
 1780SOL    HW116802   0.199   4.424   4.483  0.6544 -0.0757  0.7265
 1780SOL    HW216803   0.093   4.468   4.564 -0.7357  0.5164 -0.7081
 1781SOL     OW16804   4.518   2.766   9.877 -0.0110 -0.2600 -0.0356
 1781SOL    HW116805   4.521   2.692   9.937 -0.5589  1.2172  1.8228
 1781SOL    HW216806   4.423   2.778   9.878  0.0599  0.8502 -3.7321
 1782SOL     OW16807   2.375   3.694   4.671  0.1742  0.2490 -0.3966
 1782SOL    HW116808   2.400   3.691   4.579 -0.1079 -4.6870 -0.2857
 1782SOL    HW216809   2.320   3.616   4.676 -0.0675  0.5582  1.8029
 1783SOL     OW16810   1.220   3.072  13.127  0.1234  0.2406 -0.2528
 1783SOL    HW116811   1.274   3.136  13.174  1.2238 -0.0227 -1.1526
 1783SOL    HW216812   1.241   2.998  13.185  0.8876  0.0655 -0.7452
 1784SOL     OW16813   4.393   1.180   3.172  0.3141  0.6385 -0.0960
 1784SOL    HW116814   4.333   1.126   3.121  0.1538  0.2398  0.5030
 1784SOL    HW216815   4.394   1.262   3.123  3.0125 -0.3446 -1.6716
 1785SOL     OW16816   4.070   2.219   7.330  0.0167  0.9142 -0.3188
 1785SOL    HW116817   4.024   2.263   7.401 -2.2951  2.2335 -2.6327
 1785SOL    HW216818   4.156   2.252   7.355 -0.2402  0.3854  1.2891
 1786SOL     OW16819   2.047   0.789   6.532 -0.1035  0.1291  0.0156
 1786SOL    HW116820   2.082   0.701   6.546  1.1190  0.8113  1.1900
 1786SOL    HW216821   2.133   0.829   6.524 -1.0025  2.1884  0.5950
 1787SOL     OW16822   3.065   3.237  15.194  0.1449 -0.0582  0.6962
 1787SOL    HW116823   3.005   3.283  15.134  1.0975 -1.7684 -1.5823
 1787SOL    HW216824   3.073   3.299  15.266 -1.2350 -0.1347  0.9292
 1788SOL     OW16825   3.522   2.021   0.664  0.3512  0.3545  0.3576
 1788SOL    HW116826   3.472   1.944   0.691  0.0406  0.4813  0.1449
 1788SOL    HW216827   3.544   1.997   0.574  1.3538  0.8372  0.4718
 1789SOL     OW16828   3.185   4.190   0.605  0.0562 -0.3596  0.7739
 1789SOL    HW116829   3.102   4.213   0.563 -0.1967 -0.6255  1.1333
 1789SOL    HW216830   3.207   4.276   0.639 -0.8863  0.2074 -0.0337
 1790SOL     OW16831   2.394   1.672   1.375  0.0656  0.1718 -0.4813
 1790SOL    HW116832   2.309   1.713   1.360 -1.5887 -3.0614  0.0318
 1790SOL    HW216833   2.421   1.707   1.460 -1.6323  0.8006 -0.2148
 1791SOL     OW16834   1.425   2.636   7.536 -0.1238  0.3823 -0.2324
 1791SOL    HW116835   1.484   2.573   7.578 -0.5382 -0.1281 -0.4201
 1791SOL    HW216836   1.431   2.610   7.444 -1.8564 -0.4103 -0.1216
 1792SOL     OW16837   1.221   3.531   5.075  0.1245  0.5027 -0.1262
 1792SOL    HW116838   1.177   3.596   5.130  0.2990 -0.3354  1.0224
 1792SOL    HW216839   1.283   3.582   5.023  1.5200 -0.7863  0.2465
 1793SOL     OW16840   1.640   4.210   6.316  0.0056  0.0818 -0.3404
 1793SOL    HW116841   1.622   4.119   6.341  0.1706 -0.0840 -0.8366
 1793SOL    HW216842   1.719   4.230   6.367  0.2558  1.9454 -1.4663
 1794SOL     OW16843   0.601   1.626  16.633 -0.2671  0.3613  0.2696
 1794SOL    HW116844   0.535   1.568  16.672  0.2225 -0.5574 -0.2486
 1794SOL    HW216845   0.613   1.569  16.556 -0.1862 -0.3583  0.8148
 1795SOL     OW16846   2.610   0.708   6.691  0.2868 -0.3471  0.7986
 1795SOL    HW116847   2.633   0.764   6.765 -1.6405 -0.3330  1.3794
 1795SOL    HW216848   2.690   0.712   6.639  0.1172  0.4161  0.6022
 1796SOL     OW16849   0.819   0.416   9.190 -0.0452  0.1575 -0.1520
 1796SOL    HW116850   0.789   0.391   9.277  1.0419 -2.0268 -0.3980
 1796SOL    HW216851   0.869   0.498   9.192  2.7829 -1.6366  3.0356
 1797SOL     OW16852   3.610   4.690  13.271  0.2825  0.0648 -0.9818
 1797SOL    HW116853   3.544   4.629  13.305 -0.3718  1.7861  0.8265
 1797SOL    HW216854   3.651   0.002  13.348 -1.2156  0.6856 -0.4884
 1798SOL     OW16855   0.077   4.272  14.581 -0.2841 -0.3999 -0.6537
 1798SOL    HW116856   0.055   4.356  14.541  1.3925 -0.2366 -1.2285
 1798SOL    HW216857   0.029   4.208  14.529 -1.5401 -0.0073  0.0081
 1799SOL     OW16858   3.525   2.253   3.565 -0.1547 -0.4461  0.2693
 1799SOL    HW116859   3.503   2.344   3.581  0.7949  0.3223 -2.7329
 1799SOL    HW216860   3.529   2.216   3.653  1.7582  1.1629  0.8363
 1800SOL     OW16861   2.304   1.188   6.318 -0.5436 -0.5739  0.0157
 1800SOL    HW116862   2.376   1.157   6.263 -0.9601 -1.0550 -0.2608
 1800SOL    HW216863   2.325   1.132   6.393 -0.5200 -0.3316  0.1895
 1801SOL     OW16864   4.313   3.525   3.024 -0.3765  0.4827 -0.2818
 1801SOL    HW116865   4.355   3.546   2.940  0.5490 -0.5454 -0.0774
 1801SOL    HW216866   4.252   3.458   2.992 -1.5896  0.1785  2.7456
 1802SOL     OW16867   0.129   3.785   7.713 -0.5512 -0.7759 -0.0195
 1802SOL    HW116868   0.145   3.871   7.752  0.6421 -1.1433  0.3127
 1802SOL    HW216869   0.099   3.746   7.795 -0.9577  3.2759  1.7762
 1803SOL     OW16870   3.676   4.517   2.400 -0.0752 -0.1261  0.7862
 1803SOL    HW116871   3.657   4.521   2.306 -1.4740 -0.2906  1.0589
 1803SOL    HW216872   3.748   4.579   2.415 -0.7937  0.1106  3.2312
 1804SOL     OW16873   1.444   0.273   6.807  0.1705 -0.2159 -0.2666
 1804SOL    HW116874   1.405   0.188   6.788  0.5647 -0.2548 -0.9219
 1804SOL    HW216875   1.402   0.326   6.738 -1.1793  1.9636  2.2416
 1805SOL     OW16876   0.246   3.842   9.944 -0.0603  0.5363 -0.1098
 1805SOL    HW116877   0.275   3.875   9.859 -1.4369  1.2042 -0.3144
 1805SOL    HW216878   0.170   3.791   9.913  0.3661 -0.3332  0.2846
 1806SOL     OW16879   2.360   3.172   3.460 -0.5502  0.3086  0.1158
 1806SOL    HW116880   2.333   3.096   3.512 -0.5806 -0.6091 -1.2438
 1806SOL    HW216881   2.278   3.218   3.442 -0.1314  1.4338  1.0845
 1807SOL     OW16882   0.009   1.577   7.580 -0.0039 -0.6719 -0.0677
 1807SOL    HW116883   0.022   1.629   7.501 -0.1468 -1.3070 -0.5048
 1807SOL    HW216884   4.646   1.547   7.570 -0.1522  0.0882 -1.0338
 1808SOL     OW16885   4.091   4.578   9.153  0.1286 -0.0237 -0.1150
 1808SOL    HW116886   4.080   4.631   9.074 -1.0890  0.0350  0.0927
 1808SOL    HW216887   4.013   4.524   9.163 -0.0216  0.4989  1.6362
 1809SOL     OW16888   3.213   0.394  12.339 -0.3740 -0.1874 -0.1110
 1809SOL    HW116889   3.289   0.433  12.296  0.6299  0.5505  2.3124
 1809SOL    HW216890   3.147   0.417  12.274  1.5451 -1.7135 -2.5615
 1810SOL     OW16891   2.261   2.786   3.989  0.2699 -0.5148  0.3809
 1810SOL    HW116892   2.205   2.747   3.922 -0.4872  0.1051  0.6567
 1810SOL    HW216893   2.317   2.840   3.934 -0.3593 -2.0130 -1.7340
 1811SOL     OW16894   4.725   4.120   5.405 -0.6421 -0.0862  0.1832
 1811SOL    HW116895   4.706   4.056   5.336 -1.5217 -0.3405  0.6560
 1811SOL    HW216896   4.709   4.200   5.355  3.7621  0.2190 -0.6895
 1812SOL     OW16897   3.746   0.042  12.020  0.3884  0.3046 -0.5325
 1812SOL    HW116898   3.839   0.027  12.041  0.6704  1.0237 -1.2611
 1812SOL    HW216899   3.742   0.121  11.965 -0.9204 -0.3636 -1.3996
 1813SOL     OW16900   3.076   1.438  11.937 -0.2894 -0.1966 -0.3937
 1813SOL    HW116901   2.995   1.426  11.986 -0.4925 -2.5189 -1.2597
 1813SOL    HW216902   3.142   1.415  12.002 -2.3316 -0.0897  1.6905
 1814SOL     OW16903   0.177   1.941   8.847  0.3779  0.0543 -0.2232
 1814SOL    HW116904   0.175   2.036   8.863 -0.7205 -0.0980  0.5187
 1814SOL    HW216905   0.105   1.909   8.901  0.7472 -1.7170 -0.7877
 1815SOL     OW16906   0.109   3.235   4.057  0.5278 -0.4629  0.0550
 1815SOL    HW116907   0.111   3.170   3.986 -1.2392  1.1079 -1.4439
 1815SOL    HW216908   0.194   3.272   4.032  0.1450 -0.1730 -0.8319
 1816SOL     OW16909   4.310   2.005   6.041 -0.1889  0.1296 -0.3503
 1816SOL    HW116910   4.317   2.088   5.995  2.8356  0.5912  0.9921
 1816SOL    HW216911   4.391   1.994   6.090 -1.1717 -2.9612  0.6032
 1817SOL     OW16912   0.569   3.678   9.356 -0.2193  0.0138  0.1269
 1817SOL    HW116913   0.592   3.633   9.437  0.8420  0.5512  0.1235
 1817SOL    HW216914   0.653   3.723   9.345  1.0307 -2.2917  0.2472
 1818SOL     OW16915   2.852   3.731   3.620 -0.2691  0.9217 -0.8627
 1818SOL    HW116916   2.812   3.766   3.540  0.9649 -0.7998 -2.2184
 1818SOL    HW216917   2.772   3.690   3.653  0.0052  0.5173 -0.7004
 1819SOL     OW16918   3.186   2.861   9.008 -0.3055 -0.7583  0.2457
 1819SOL    HW116919   3.135   2.940   9.028  1.8158 -0.5052  4.8120
 1819SOL    HW216920   3.229   2.859   9.094 -1.2668  0.2109  0.7547
 1820SOL     OW16921   3.136   0.345   3.208  0.2315 -0.1756 -0.2984
 1820SOL    HW116922   3.216   0.391   3.184  1.2611 -0.5074  2.5118
 1820SOL    HW216923   3.161   0.254   3.197  0.3328 -0.4227  1.9943
 1821SOL     OW16924   4.681   3.099   4.291 -0.5278  0.0809 -0.0794
 1821SOL    HW116925   0.049   3.102   4.279 -0.4809 -2.4907 -0.3623
 1821SOL    HW216926   4.654   3.069   4.204 -1.0899 -0.1622  0.1740
 1822SOL     OW16927   4.370   1.650   8.030 -0.5506  0.5661 -0.1903
 1822SOL    HW116928   4.335   1.650   8.119 -1.2616  2.2741 -0.4710
 1822SOL    HW216929   4.315   1.715   7.987 -2.7355 -0.0642  1.6178
 1823SOL     OW16930   0.044   0.934   2.063 -0.2242  0.6030  0.6613
 1823SOL    HW116931   0.015   1.003   2.003  1.5002 -0.3840 -1.3087
 1823SOL    HW216932   0.128   0.980   2.073  1.2592 -1.6794 -1.2963
 1824SOL     OW16933   3.617   0.494   3.652  0.1642  0.1036  0.4098
 1824SOL    HW116934   3.702   0.460   3.679  1.1204  1.7867 -0.4906
 1824SOL    HW216935   3.626   0.583   3.686 -3.5327  0.8964 -0.5675
 1825SOL     OW16936   1.203   1.599   2.137  0.0758 -0.3523 -0.1340
 1825SOL    HW116937   1.298   1.596   2.125  0.1043  0.9105 -0.1701
 1825SOL    HW216938   1.188   1.690   2.160  0.5388 -0.2742 -0.1445
 1826SOL     OW16939   4.035   1.596  17.053  1.1723  0.6800  0.3442
 1826SOL    HW116940   4.121   1.635  17.036  0.8499 -0.3493 -3.6414
 1826SOL    HW216941   4.002   1.629  16.970  1.2100  1.0962  0.4942
 1827SOL     OW16942   3.005   3.793   3.220  0.4400  0.3769 -0.7109
 1827SOL    HW116943   2.918   3.797   3.262  0.6292 -3.1485 -0.0282
 1827SOL    HW216944   3.048   3.866   3.264 -1.5796  2.5986 -2.4128
 1828SOL     OW16945   0.450   3.894   3.523  0.2106  0.3258  0.1040
 1828SOL    HW116946   0.477   3.813   3.565  0.6536  1.1247  1.3466
 1828SOL    HW216947   0.366   3.876   3.481 -0.3484  1.8369  0.5955
 1829SOL     OW16948   1.658   3.585   1.139 -0.1518 -0.2346  0.2619
 1829SOL    HW116949   1.592   3.654   1.140  1.0349  0.9482 -1.5708
 1829SOL    HW216950   1.668   3.563   1.231  2.2833 -0.6803 -0.1039
 1830SOL     OW16951   1.221   3.198  15.901 -0.2504  0.0227 -0.3271
 1830SOL    HW116952   1.229   3.252  15.979  1.2660  0.6427 -0.9221
 1830SOL    HW216953   1.232   3.257  15.827 -0.2821  0.5016  0.0562
 1831SOL     OW16954   0.806   1.016   9.318 -0.1270  0.0823 -0.1616
 1831SOL    HW116955   0.821   1.061   9.401 -2.0289 -2.5874  1.6435
 1831SOL    HW216956   0.842   1.086   9.263 -0.8785 -0.6386 -1.5686
 1832SOL     OW16957   4.146   3.627   3.202  0.5783 -0.2505 -0.0188
 1832SOL    HW116958   4.188   3.713   3.207  0.7533 -0.4128  1.3285
 1832SOL    HW216959   4.202   3.573   3.147 -0.2203  0.1933 -1.2568
 1833SOL     OW16960   0.071   3.122   5.950 -0.0268 -0.0478 -0.1211
 1833SOL    HW116961   0.093   3.055   5.885  0.6350  0.6887 -0.6663
 1833SOL    HW216962   0.074   3.074   6.033  1.1328  0.1000 -0.0808
 1834SOL     OW16963   1.886   1.352   4.013 -0.0405 -0.0971 -0.5004
 1834SOL    HW116964   1.903   1.424   3.953 -0.4121 -1.6029 -2.3943
 1834SOL    HW216965   1.833   1.391   4.083  1.1648  0.1613  0.2786
 1835SOL     OW16966   1.516   0.413   1.824 -0.0507  0.6200  0.0411
 1835SOL    HW116967   1.422   0.396   1.828  0.1375  0.1693  2.8017
 1835SOL    HW216968   1.556   0.344   1.771 -2.4585 -0.5626 -0.2119
 1836SOL     OW16969   4.516   2.427   5.835  0.3923 -0.2649  0.1201
 1836SOL    HW116970   4.428   2.396   5.816  0.4731 -0.4007 -0.0337
 1836SOL    HW216971   4.520   2.492   5.765 -0.8253  0.4578  0.7208
 1837SOL     OW16972   2.880   3.384   4.496  0.2108  0.1225  0.7092
 1837SOL    HW116973   2.819   3.370   4.568  0.3475 -1.5104  0.5033
 1837SOL    HW216974   2.926   3.300   4.498  0.9173  0.4860  0.1320
 1838SOL     OW16975   2.973   1.546   5.659 -0.0616 -0.0819  0.2860
 1838SOL    HW116976   3.065   1.546   5.686  0.0950 -0.6805 -0.2365
 1838SOL    HW216977   2.953   1.638   5.643  0.2640 -0.3266 -1.5550
 1839SOL     OW16978   1.545   2.194   5.394  0.1179  0.4617  0.1097
 1839SOL    HW116979   1.529   2.233   5.481  0.2897 -1.2330  0.8977
 1839SOL    HW216980   1.507   2.258   5.333  0.2393 -1.7544 -2.2688
 1840SOL     OW16981   4.559   4.523   4.932 -0.0313 -0.2546  0.4270
 1840SOL    HW116982   4.539   4.616   4.946 -4.5110 -1.0953 -0.4645
 1840SOL    HW216983   4.570   4.493   5.022  0.1718 -1.9132 -0.1680
 1841SOL     OW16984   4.253   2.852  14.351  0.2120  0.0329 -0.1467
 1841SOL    HW116985   4.341   2.851  14.313 -0.4597  1.9817 -1.7945
 1841SOL    HW216986   4.205   2.922  14.306 -0.1621  0.7010  1.2832
 1842SOL     OW16987   1.443   4.488   6.074 -0.3076 -0.0274 -0.6179
 1842SOL    HW116988   1.482   4.576   6.069  1.1281 -0.6069  0.2812
 1842SOL    HW216989   1.461   4.467   6.166  0.6998  3.1968 -0.0790
 1843SOL     OW16990   1.740   2.699   1.635 -0.5660 -0.0766 -0.1292
 1843SOL    HW116991   1.666   2.702   1.574  0.2858  0.0797 -1.1423
 1843SOL    HW216992   1.806   2.652   1.584 -1.1287  0.0087 -0.9361
 1844SOL     OW16993   4.188   0.642  14.681 -0.4265 -0.0587  0.2139
 1844SOL    HW116994   4.282   0.626  14.674 -0.4658  0.1028 -0.6789
 1844SOL    HW216995   4.171   0.630  14.588 -0.8361 -1.4069  0.4669
 1845SOL     OW16996   4.637   0.423   9.065  0.2589 -0.0321 -0.3414
 1845SOL    HW116997   4.563   0.400   9.122 -0.4526 -1.1427 -1.7264
 1845SOL    HW216998   4.709   0.406   9.126 -0.5096 -0.2580  0.4965
 1846SOL     OW16999   3.235   0.417   0.482  0.5194  0.0678  0.0599
 1846SOL    HW117000   3.167   0.375   0.535 -0.1877 -1.4032 -1.9969
 1846SOL    HW217001   3.184   0.469   0.420  0.2608 -0.2923 -0.0332
 1847SOL     OW17002   1.806   0.504   1.793  0.2986 -0.1825  0.2360
 1847SOL    HW117003   1.820   0.534   1.704 -0.9205 -0.4697 -0.0511
 1847SOL    HW217004   1.713   0.480   1.790 -0.3780  2.4300  0.6788
 1848SOL     OW17005   3.627   4.450   4.655 -0.1118 -0.8091 -0.2486
 1848SOL    HW117006   3.630   4.434   4.750  0.3752 -0.4709 -0.2095
 1848SOL    HW217007   3.654   4.362   4.628  2.0270 -1.1391  2.9301
 1849SOL     OW17008   1.963   2.674   7.327 -0.2085  0.1494  0.0734
 1849SOL    HW117009   2.008   2.599   7.289 -0.4193 -0.5197  1.1507
 1849SOL    HW217010   2.018   2.706   7.399  2.1233 -2.1303 -0.6888
 1850SOL     OW17011   3.010   1.433   7.616 -0.5090  0.1219  0.8579
 1850SOL    HW117012   2.983   1.386   7.695 -1.9883 -0.1354  0.2081
 1850SOL    HW217013   3.029   1.524   7.638 -0.7269  0.4902 -0.4766
 1851SOL     OW17014   1.420   0.075  17.483  0.2519  0.1497  0.0384
 1851SOL    HW117015   1.373   4.720  17.468  0.7133 -0.5248  2.3223
 1851SOL    HW217016   1.401   0.125  17.403 -0.8112 -0.2611  0.0377
 1852SOL     OW17017   1.583   3.622  17.143  0.4475 -0.2290 -0.0629
 1852SOL    HW117018   1.511   3.560  17.146 -1.0480  1.4402 -1.1678
 1852SOL    HW217019   1.517   3.691  17.149  0.7184 -0.0565  0.9191
 1853SOL     OW17020   1.914   0.844   7.966  0.1226 -0.2667  0.4736
 1853SOL    HW117021   1.882   0.824   7.878 -0.9358 -0.0516  0.8000
 1853SOL    HW217022   1.903   0.761   8.013  2.3970 -1.4878 -1.1616
 1854SOL     OW17023   3.179   0.734   6.591  0.5225 -0.4426 -0.1282
 1854SOL    HW117024   3.241   0.785   6.643 -2.5290  1.6204  1.4790
 1854SOL    HW217025   3.120   0.714   6.664  1.0943  3.0199  1.2655
 1855SOL     OW17026   1.579   4.312   4.647  0.2049 -0.0477  0.0238
 1855SOL    HW117027   1.607   4.373   4.579  2.1619  2.0741  2.6956
 1855SOL    HW217028   1.617   4.354   4.725  0.0862 -1.3245  0.7790
 1856SOL     OW17029   4.124   2.521   7.777 -0.2086 -0.1414  0.0110
 1856SOL    HW117030   4.079   2.478   7.849 -0.2163 -1.9024 -1.0573
 1856SOL    HW217031   4.202   2.465   7.774  0.8004  1.1711  1.3484
 1857SOL     OW17032   3.344   1.335   7.372 -0.5944 -0.3106 -0.2772
 1857SOL    HW117033   3.344   1.249   7.413  1.0731  0.2915  0.9823
 1857SOL    HW217034   3.399   1.381   7.436  0.6118  0.4847 -1.8562
 1858SOL     OW17035   0.334   0.260   0.392  0.1840 -0.4115 -0.2316
 1858SOL    HW117036   0.313   0.187   0.451 -1.3982 -0.1215 -0.4387
 1858SOL    HW217037   0.337   0.219   0.306  2.2134  1.8370 -1.2160
 1859SOL     OW17038   1.373   3.807   7.572  0.0474  0.4415  0.5643
 1859SOL    HW117039   1.377   3.852   7.488  0.2883 -1.3569 -0.3718
 1859SOL    HW217040   1.373   3.877   7.638  0.6919  2.2423 -1.3139
 1860SOL     OW17041   0.001   0.663   8.946 -0.4175 -0.0248 -0.0033
 1860SOL    HW117042   4.708   0.587   9.001 -1.3068 -0.1095 -0.4455
 1860SOL    HW217043   0.096   0.654   8.946 -0.7364 -3.4963  0.5776
 1861SOL     OW17044   0.741   0.710  12.548 -0.7066  0.4586 -0.0919
 1861SOL    HW117045   0.658   0.738  12.586 -0.5978 -0.0727  0.5403
 1861SOL    HW217046   0.755   0.779  12.483 -0.6258  0.3383 -0.2038
 1862SOL     OW17047   1.708   2.396   7.296 -0.2472 -0.0532 -0.1296
 1862SOL    HW117048   1.797   2.425   7.317  0.7697 -1.0702 -3.0015
 1862SOL    HW217049   1.680   2.340   7.368  0.6028 -0.2437  0.0514
 1863SOL     OW17050   1.220   0.307  17.015 -0.2701 -0.3393  0.5835
 1863SOL    HW117051   1.261   0.360  17.084  2.8702 -1.7404 -0.2551
 1863SOL    HW217052   1.239   0.218  17.043  2.1314 -0.5565 -1.8033
 1864SOL     OW17053   1.837   3.526  14.906 -0.3022  0.1388  0.2928
 1864SOL    HW117054   1.881   3.451  14.863  2.1506  1.2128  0.9138
 1864SOL    HW217055   1.851   3.591  14.837  2.8861  1.0888  1.8120
 1865SOL     OW17056   0.654   1.857   0.953  0.3237 -0.3401  0.6587
 1865SOL    HW117057   0.572   1.861   0.906 -0.6681  0.0623  2.4107
 1865SOL    HW217058   0.670   1.951   0.962  1.0769 -0.4768  0.7609
 1866SOL     OW17059   4.675   1.570   2.853  0.2729  0.1475 -0.0780
 1866SOL    HW117060   0.021   1.573   2.916 -0.6878 -0.6114  1.0629
 1866SOL    HW217061   4.670   1.481   2.818  2.1246  0.4996 -1.2416
 1867SOL     OW17062   0.478   0.371  10.970 -0.8884  0.5669 -0.5815
 1867SOL    HW117063   0.421   0.404  10.901 -1.7965 -0.1442 -0.1671
 1867SOL    HW217064   0.556   0.346  10.921 -1.3725  1.6901 -1.9289
 1868SOL     OW17065   1.787   3.344   2.421 -0.0306 -0.2986 -0.7986
 1868SOL    HW117066   1.837   3.353   2.503 -1.3257  1.3600 -0.1863
 1868SOL    HW217067   1.736   3.425   2.418  1.4974  0.7121  0.1429
 1869SOL     OW17068   2.212   2.634  17.652  0.1414 -0.1060 -0.5349
 1869SOL    HW117069   2.173   2.627  17.565  2.6312 -0.7629 -1.6051
 1869SOL    HW217070   2.275   2.698  17.618 -0.0759  0.3027 -0.1566
 1870SOL     OW17071   0.443   4.008   6.562 -0.5584 -0.1547 -0.4578
 1870SOL    HW117072   0.536   4.031   6.569 -0.1166 -2.1365  0.2406
 1870SOL    HW217073   0.438   4.007   6.467 -0.4211  1.0763 -0.4763
 1871SOL     OW17074   4.715   2.391   3.203 -0.3825 -0.6087  0.0755
 1871SOL    HW117075   4.638   2.335   3.211 -0.7399 -0.3611 -1.5762
 1871SOL    HW217076   4.677   2.472   3.237  0.8653 -1.0370  2.4154
 1872SOL     OW17077   3.525   2.882  10.608  0.0031 -0.3428 -0.5347
 1872SOL    HW117078   3.572   2.802  10.586 -0.1910 -0.9051  1.0759
 1872SOL    HW217079   3.572   2.955  10.568  1.3984  0.0510  1.7792
 1873SOL     OW17080   4.003   2.964   7.136  0.8636  0.2706  0.4381
 1873SOL    HW117081   3.910   2.942   7.137  0.4957  1.7670 -0.5319
 1873SOL    HW217082   4.006   3.058   7.120  0.5187 -0.1012 -1.8118
 1874SOL     OW17083   4.250   4.127   4.829 -0.8351 -0.7798  0.6383
 1874SOL    HW117084   4.290   4.061   4.772  1.4658  1.7360 -0.6826
 1874SOL    HW217085   4.224   4.194   4.766 -0.0186 -0.4020  0.6968
 1875SOL     OW17086   1.773   0.309   6.446 -0.1658 -0.5717  0.0918
 1875SOL    HW117087   1.788   0.388   6.394 -0.0850 -0.0886  0.8563
 1875SOL    HW217088   1.807   0.334   6.532  1.1298 -1.6313 -0.1109
 1876SOL     OW17089   1.113   2.579  10.078 -0.4374 -0.0715 -0.1233
 1876SOL    HW117090   1.184   2.640  10.059  1.0211 -2.1588 -1.4503
 1876SOL    HW217091   1.080   2.561   9.990 -1.4694 -1.1227  0.4850
 1877SOL     OW17092   1.992   2.505   7.815  0.5566 -0.4098  0.0460
 1877SOL    HW117093   1.956   2.425   7.855 -0.4434 -1.1063 -2.2566
 1877SOL    HW217094   1.905   2.545   7.803 -0.2854 -1.9614  0.8968
 1878SOL     OW17095   4.058   0.309   2.280  0.6048 -0.6276 -0.3005
 1878SOL    HW117096   4.088   0.303   2.370 -1.5452  1.7181  0.5425
 1878SOL    HW217097   4.139   0.334   2.236  1.1078 -1.1868  0.3105
 1879SOL     OW17098   1.192   3.549   4.529 -0.3190  0.3076  0.7419
 1879SOL    HW117099   1.126   3.618   4.533  0.0886  0.6449  1.6794
 1879SOL    HW217100   1.258   3.598   4.578 -1.4955  2.7021 -0.0511
 1880SOL     OW17101   2.796   0.909   3.693  0.5446 -0.1562 -0.4900
 1880SOL    HW117102   2.804   0.979   3.628  0.6769  1.9434  1.8332
 1880SOL    HW217103   2.843   0.838   3.650  2.2163  0.4518  0.3433
 1881SOL     OW17104   2.545   1.810  13.767  0.2083  0.6646 -0.0129
 1881SOL    HW117105   2.536   1.745  13.697  0.6054  0.7896 -0.1800
 1881SOL    HW217106   2.467   1.862  13.751 -0.9144 -0.9552  0.2581
 1882SOL     OW17107   2.198   2.372  11.133 -0.1455  0.0395 -0.0777
 1882SOL    HW117108   2.103   2.373  11.136 -0.1157 -0.0800  1.2771
 1882SOL    HW217109   2.214   2.443  11.070  0.9053  1.9120  2.2811
 1883SOL     OW17110   4.459   1.483   7.564  0.0157  0.1290 -0.0408
 1883SOL    HW117111   4.480   1.390   7.576  0.5854  0.3352  0.5259
 1883SOL    HW217112   4.379   1.477   7.615 -0.0022  0.9276  0.0279
 1884SOL     OW17113   2.430   4.148   1.711 -0.6366 -0.7976  0.2274
 1884SOL    HW117114   2.416   4.075   1.772  1.4308 -1.3140  0.1206
 1884SOL    HW217115   2.414   4.101   1.629  0.2507  0.7145 -0.8011
 1885SOL     OW17116   1.943   1.684   8.300  0.0144  0.1139  0.0983
 1885SOL    HW117117   2.030   1.643   8.302 -0.7617 -1.4650  1.6845
 1885SOL    HW217118   1.952   1.763   8.353  1.3347 -0.3883  0.6241
 1886SOL     OW17119   0.205   0.768  14.928 -0.1344 -0.1248 -0.0045
 1886SOL    HW117120   0.234   0.684  14.963 -0.7123  0.1881  1.2388
 1886SOL    HW217121   0.272   0.827  14.964 -0.2145 -0.3287  0.4730
 1887SOL     OW17122   0.674   0.267   6.360 -0.1076  0.3010 -0.4536
 1887SOL    HW117123   0.670   0.320   6.280  2.8569  1.4096  0.1246
 1887SOL    HW217124   0.759   0.299   6.390  0.6273 -1.4471 -0.6540
 1888SOL     OW17125   0.160   4.211  15.652  0.3381 -0.4665 -0.6061
 1888SOL    HW117126   0.123   4.248  15.732  0.2575 -0.2544 -0.7422
 1888SOL    HW217127   0.090   4.241  15.595  0.2194 -1.0881 -0.7858
 1889SOL     OW17128   4.132   3.525   3.938 -0.0699 -0.4364 -0.3572
 1889SOL    HW117129   4.133   3.559   3.848  1.1295 -1.2134 -0.6364
 1889SOL    HW217130   4.053   3.472   3.931  0.9255 -2.0237  0.5707
 1890SOL     OW17131   0.565   3.971   1.959 -0.2615  0.8009  0.8876
 1890SOL    HW117132   0.586   3.879   1.974 -2.3355  0.4458  1.5948
 1890SOL    HW217133   0.645   4.009   1.996  0.5730  0.9344 -1.0160
 1891SOL     OW17134   0.465   2.201  10.716 -0.1979  0.3231 -0.0617
 1891SOL    HW117135   0.379   2.161  10.733  0.8027 -0.9817  1.9246
 1891SOL    HW217136   0.458   2.278  10.773  3.1517  0.4609  0.1768
 1892SOL     OW17137   2.771   2.515  11.976  0.4654  0.4780  0.2726
 1892SOL    HW117138   2.699   2.528  11.915 -0.3483 -0.6259  1.0031
 1892SOL    HW217139   2.757   2.592  12.031  1.4272  0.9615 -0.1696
 1893SOL     OW17140   0.001   3.678   7.466 -0.6004  0.3662  0.2567
 1893SOL    HW117141   4.724   3.584   7.482 -0.9324  0.0603 -1.5776
 1893SOL    HW217142   0.039   3.718   7.544 -3.9709  1.6886  1.2221
 1894SOL     OW17143   3.917   2.025   6.814  0.4550  0.4471  0.3763
 1894SOL    HW117144   3.875   1.958   6.761  3.4438 -0.7545 -0.4863
 1894SOL    HW217145   3.917   2.106   6.764 -1.7372  1.8792  2.6645
 1895SOL     OW17146   1.656   3.165  12.364 -0.4405  0.6237  0.0405
 1895SOL    HW117147   1.629   3.144  12.275  0.0850 -0.2962  0.1010
 1895SOL    HW217148   1.673   3.259  12.369  2.9467 -0.0006  0.2178
 1896SOL     OW17149   2.994   2.582  14.001  0.0549 -0.0184 -0.2903
 1896SOL    HW117150   3.020   2.659  14.051  2.7392 -1.5350  0.6686
 1896SOL    HW217151   2.909   2.568  14.042 -0.1689  0.4328 -0.5993
 1897SOL     OW17152   3.062   0.672  14.505 -0.0205 -0.1539 -0.0516
 1897SOL    HW117153   3.065   0.577  14.519  1.9200 -0.0542  0.1121
 1897SOL    HW217154   3.015   0.697  14.585  2.3883  0.4095  1.2006
 1898SOL     OW17155   1.879   2.219   6.550  0.2114 -0.0929 -0.3031
 1898SOL    HW117156   1.814   2.228   6.620  2.0423 -0.5599  1.4610
 1898SOL    HW217157   1.937   2.293   6.567  0.2972 -0.0278 -0.9016
 1899SOL     OW17158   3.024   3.526   3.297 -0.4879 -0.0474  0.2732
 1899SOL    HW117159   3.033   3.620   3.283  0.9415 -0.1441  0.5136
 1899SOL    HW217160   2.934   3.531   3.327 -0.7028 -1.6235 -0.1380
 1900SOL     OW17161   1.686   1.563  12.728 -0.2515 -0.3668  0.0900
 1900SOL    HW117162   1.595   1.560  12.760 -0.6655 -2.8487 -1.2893
 1900SOL    HW217163   1.722   1.647  12.754  0.2645  0.2586 -2.6488
 1901SOL     OW17164   2.371   1.849   7.172  0.5302  0.0036 -0.1398
 1901SOL    HW117165   2.444   1.864   7.232  0.6855  0.1382 -0.3655
 1901SOL    HW217166   2.306   1.880   7.236  0.6885  0.4803 -0.2155
 1902SOL     OW17167   0.957   2.336   5.332  0.4847 -0.1382  0.1908
 1902SOL    HW117168   1.002   2.289   5.262 -0.2844 -0.2210 -0.2356
 1902SOL    HW217169   0.865   2.313   5.335 -0.0264  1.6515 -2.4031
 1903SOL     OW17170   0.057   4.219  14.840 -0.2168 -0.3614  0.2294
 1903SOL    HW117171   0.024   4.252  14.756 -2.0405 -1.6994  0.4157
 1903SOL    HW217172   0.055   4.126  14.821  0.6709 -0.2194 -0.5347
 1904SOL     OW17173   0.253   0.266   2.128 -0.1707 -0.2710  0.2586
 1904SOL    HW117174   0.324   0.297   2.072 -0.0994 -0.7068  0.1081
 1904SOL    HW217175   0.184   0.324   2.095  0.4000  0.2579 -0.0056
 1905SOL     OW17176   4.543   0.923   7.948  0.7141 -0.4086 -0.1299
 1905SOL    HW117177   4.498   0.869   7.882 -1.3109  1.2315 -0.0914
 1905SOL    HW217178   4.487   0.906   8.024  1.0262 -1.0762 -0.0448
 1906SOL     OW17179   3.720   0.410   5.866  0.1394 -0.4145 -0.3126
 1906SOL    HW117180   3.797   0.354   5.875  1.9698  1.6589 -2.9763
 1906SOL    HW217181   3.763   0.471   5.806 -0.1768 -0.6408 -0.7727
 1907SOL     OW17182   1.350   2.481   7.190  0.4906  0.4586 -0.2021
 1907SOL    HW117183   1.382   2.569   7.171 -0.0003  0.7379  0.2445
 1907SOL    HW217184   1.275   2.466   7.131 -0.1564 -1.3574  1.1151
 1908SOL     OW17185   2.119   3.284   5.562  0.0552 -0.1805  0.0329
 1908SOL    HW117186   2.193   3.321   5.513  0.7048 -0.6571  0.6463
 1908SOL    HW217187   2.101   3.361   5.616 -0.3871 -0.2240 -0.0552
 1909SOL     OW17188   3.414   2.009  12.861  0.0256 -0.5870  0.2217
 1909SOL    HW117189   3.446   2.093  12.892  1.2308 -0.8010 -0.4718
 1909SOL    HW217190   3.468   1.999  12.783 -1.7623  2.4367 -1.4290
 1910SOL     OW17191   1.450   2.103   5.714  0.0522  0.1164 -0.0076
 1910SOL    HW117192   1.443   2.127   5.621 -2.6337 -0.1186  0.1299
 1910SOL    HW217193   1.519   2.164   5.741 -0.7199  1.8835 -2.0280
 1911SOL     OW17194   0.403   0.064   6.581 -0.2462 -0.5757 -0.0372
 1911SOL    HW117195   0.353   4.711   6.597 -1.5109  0.3527  0.6300
 1911SOL    HW217196   0.443   0.086   6.666 -1.1425  0.2158  0.1772
 1912SOL     OW17197   4.190   2.524   5.732  0.0341 -0.0853 -0.7242
 1912SOL    HW117198   4.143   2.507   5.814  0.0966  1.1241 -0.4455
 1912SOL    HW217199   4.131   2.492   5.664  1.0261 -0.9873 -1.1665
 1913SOL     OW17200   2.490   0.061  12.043  0.2178  0.1799  0.2633
 1913SOL    HW117201   2.429   0.007  11.993  0.2878 -0.4677  0.8818
 1913SOL    HW217202   2.538   0.116  11.981 -1.7141 -0.4645 -1.7921
 1914SOL     OW17203   1.322   2.765   5.924 -0.2099 -0.4534  0.0508
 1914SOL    HW117204   1.345   2.825   5.994 -0.3739 -0.5806  0.2140
 1914SOL    HW217205   1.334   2.827   5.852 -0.6149 -0.6589 -0.1978
 1915SOL     OW17206   2.000   1.715   1.757  0.3143 -0.2934 -0.1244
 1915SOL    HW117207   1.915   1.757   1.768  0.4841 -0.0519  0.2788
 1915SOL    HW217208   2.006   1.688   1.848  1.8457 -0.1577 -0.1785
 1916SOL     OW17209   2.817   0.024  11.091  0.3890  0.0996 -0.0931
 1916SOL    HW117210   2.850   0.114  11.089 -3.8783  1.6929  1.8391
 1916SOL    HW217211   2.729   0.026  11.128  0.2479  1.5104 -0.4924
 1917SOL     OW17212   0.187   2.550   6.463  0.9559  0.3457  0.4925
 1917SOL    HW117213   0.274   2.590   6.469  1.5140 -0.3107 -3.1367
 1917SOL    HW217214   0.182   2.492   6.388 -1.7303  0.3597  0.6418
 1918SOL     OW17215   0.753   1.500  10.328 -0.0740 -0.3898  0.3211
 1918SOL    HW117216   0.776   1.582  10.372  2.0126 -1.2115  0.7451
 1918SOL    HW217217   0.802   1.435  10.378  0.0115 -0.8493 -0.3660
 1919SOL     OW17218   0.170   4.524   5.804  0.6047  0.4000 -0.0162
 1919SOL    HW117219   0.187   4.438   5.842  2.0648  0.6072 -0.1849
 1919SOL    HW217220   0.187   4.572   5.885  2.3780 -1.2150  0.5720
 1920SOL     OW17221   4.020   3.163   7.735  0.1406  0.5188 -0.4390
 1920SOL    HW117222   3.975   3.173   7.819  2.0256  0.5658  0.5878
 1920SOL    HW217223   3.981   3.233   7.684 -1.5503  0.2410  0.4733
 1921SOL     OW17224   2.965   1.840   5.682 -0.2001  0.4508  0.4428
 1921SOL    HW117225   2.924   1.923   5.659  0.5343  0.6261 -0.2259
 1921SOL    HW217226   3.049   1.848   5.638  0.3131 -0.0550  1.3079
 1922SOL     OW17227   0.480   2.649   4.849  0.1926 -0.0792  0.2046
 1922SOL    HW117228   0.482   2.702   4.770  1.0155 -1.2032 -0.5256
 1922SOL    HW217229   0.574   2.655   4.868  0.2402 -2.7441  0.9027
 1923SOL     OW17230   1.160   0.222   7.945 -0.8396  0.7172 -0.0704
 1923SOL    HW117231   1.108   0.147   7.974 -1.8990  0.8105 -1.7724
 1923SOL    HW217232   1.233   0.218   8.007 -1.5835  0.1449  0.7612
 1924SOL     OW17233   1.492   1.470   5.657 -0.2000 -0.2135  0.4855
 1924SOL    HW117234   1.452   1.545   5.613 -1.7510 -1.7542 -0.6957
 1924SOL    HW217235   1.528   1.425   5.581  2.3953 -0.9478  2.1576
 1925SOL     OW17236   0.612   0.143   6.788 -0.0377 -0.4557  0.1128
 1925SOL    HW117237   0.600   0.069   6.848 -2.2182  0.8285  1.2387
 1925SOL    HW217238   0.682   0.189   6.834 -0.3598  0.8146 -0.6781
 1926SOL     OW17239   1.956   1.502   7.418 -0.2595 -0.0015 -0.2998
 1926SOL    HW117240   2.032   1.519   7.474 -0.2887 -0.5001 -0.1059
 1926SOL    HW217241   1.975   1.572   7.355 -1.3786 -0.2273 -0.8818
 1927SOL     OW17242   2.582   4.564   6.503 -0.3046 -0.2065 -0.2523
 1927SOL    HW117243   2.540   4.559   6.589  0.2058  0.5189  0.0353
 1927SOL    HW217244   2.572   4.658   6.491  1.6218  0.0270 -0.0362
 1928SOL     OW17245   0.892   2.346   4.292  0.1966 -0.7924 -0.2913
 1928SOL    HW117246   0.875   2.371   4.201  2.3395  0.6543 -0.2826
 1928SOL    HW217247   0.817   2.290   4.312 -0.8412  0.5479 -0.4359
 1929SOL     OW17248   0.989   0.328   8.759  0.2019 -0.1142 -0.4393
 1929SOL    HW117249   0.922   0.272   8.798 -2.0105  1.7597 -1.5157
 1929SOL    HW217250   1.070   0.300   8.801 -0.0582 -1.3187 -0.7288
 1930SOL     OW17251   2.120   0.306   6.838 -0.3436 -0.2793 -0.2055
 1930SOL    HW117252   2.203   0.305   6.885 -0.8679  1.1121  0.7353
 1930SOL    HW217253   2.084   0.391   6.863 -2.0262 -1.0009 -0.2003
 1931SOL     OW17254   3.083   0.458   4.264  0.2896 -0.1115 -0.1121
 1931SOL    HW117255   3.010   0.492   4.316  0.7532  2.2418 -1.0264
 1931SOL    HW217256   3.038   0.394   4.209  0.2890 -0.8666  0.7736
 1932SOL     OW17257   4.582   1.165   5.215  0.4385 -0.1514  0.2257
 1932SOL    HW117258   4.660   1.163   5.271  0.3631  2.4512  0.4286
 1932SOL    HW217259   4.564   1.071   5.218  0.7044 -0.3238 -3.1551
 1933SOL     OW17260   2.780   4.099   8.385 -0.1057 -0.7131 -0.4832
 1933SOL    HW117261   2.837   4.051   8.325 -0.6055 -0.8507 -0.8500
 1933SOL    HW217262   2.696   4.085   8.341  0.1175 -1.5083 -0.6522
 1934SOL     OW17263   4.388   4.591  16.211 -0.3106  0.3150 -0.2079
 1934SOL    HW117264   4.399   4.681  16.180  0.2748 -0.5149 -2.4408
 1934SOL    HW217265   4.320   4.565  16.148 -0.0426 -1.6247  0.2862
 1935SOL     OW17266   1.921   0.169   5.750 -0.6634  0.0709  0.1857
 1935SOL    HW117267   2.013   0.143   5.754 -0.9391 -0.6806  1.5524
 1935SOL    HW217268   1.901   0.199   5.838 -2.4384  1.7147 -0.7932
 1936SOL     OW17269   0.301   2.880  11.984 -0.0403  0.2804 -0.2600
 1936SOL    HW117270   0.310   2.975  11.976 -0.0912  0.1795 -1.6516
 1936SOL    HW217271   0.282   2.866  12.076 -0.4920 -0.4113 -0.4553
 1937SOL     OW17272   0.092   3.024   3.888 -0.6001 -0.1744 -0.1018
 1937SOL    HW117273   0.095   2.940   3.934 -0.7932 -0.4084 -0.5194
 1937SOL    HW217274   0.035   3.006   3.813  0.0177 -0.0474 -0.6092
 1938SOL     OW17275   1.739   2.110   3.247 -0.2742  0.2514 -0.2925
 1938SOL    HW117276   1.734   2.170   3.173 -0.1758 -0.3239 -0.7678
 1938SOL    HW217277   1.661   2.145   3.290 -0.3036 -0.3078  0.1100
 1939SOL     OW17278   3.129   1.736  13.222 -0.2559  0.0609  0.0003
 1939SOL    HW117279   3.042   1.740  13.261 -0.7564  0.2562 -1.1194
 1939SOL    HW217280   3.148   1.644  13.205  1.1155  0.4201 -0.3927
 1940SOL     OW17281   1.013   0.318  10.768  0.7869  0.0190  0.4949
 1940SOL    HW117282   1.058   0.263  10.704  0.5449  3.4958 -2.6459
 1940SOL    HW217283   1.044   0.400  10.731 -0.3155  0.0536 -0.3610
 1941SOL     OW17284   3.653   4.619   3.199  0.0000 -0.5331  0.1536
 1941SOL    HW117285   3.613   4.533   3.214  0.6559 -0.5647  1.7143
 1941SOL    HW217286   3.582   4.673   3.233 -1.1514 -0.9930 -1.5081
 1942SOL     OW17287   4.605   0.426   0.917 -0.7094 -0.3552  0.5471
 1942SOL    HW117288   4.678   0.418   0.978 -0.5209  0.4648  0.4271
 1942SOL    HW217289   4.604   0.338   0.879 -1.1385  0.1291 -0.5743
 1943SOL     OW17290   2.353   4.531   3.087 -0.2970  0.0396 -0.2833
 1943SOL    HW117291   2.298   4.591   3.036  0.4448  2.6197  1.8975
 1943SOL    HW217292   2.436   4.578   3.097 -0.9931  1.0207  1.0270
 1944SOL     OW17293   2.632   2.194  12.353  0.2598  0.2875 -0.0727
 1944SOL    HW117294   2.676   2.210  12.437 -0.6378  0.5339  0.3495
 1944SOL    HW217295   2.700   2.234  12.299 -0.1607  1.5053  0.3037
 1945SOL     OW17296   0.316   1.998  15.099 -0.1991  0.2070 -0.0719
 1945SOL    HW117297   0.342   2.089  15.082  0.9426 -0.4153 -1.6798
 1945SOL    HW217298   0.404   1.963  15.109 -1.2429 -1.7398  2.0085
 1946SOL     OW17299   2.564   2.865   5.552 -0.1435  0.3015  0.0820
 1946SOL    HW117300   2.531   2.885   5.465  0.7105 -2.8516 -0.9677
 1946SOL    HW217301   2.487   2.870   5.609  0.9038 -0.1048  1.5412
 1947SOL     OW17302   2.591   4.351  10.811  0.6849 -0.3964 -0.0578
 1947SOL    HW117303   2.608   4.435  10.854 -0.4233  0.1134 -0.6010
 1947SOL    HW217304   2.498   4.352  10.786  0.7036  2.8582  0.0586
 1948SOL     OW17305   3.034   4.417   5.097  0.0525  0.5498  0.3120
 1948SOL    HW117306   3.006   4.456   5.014 -0.2266  2.5256  1.3305
 1948SOL    HW217307   3.124   4.449   5.099 -0.9042  3.1366  1.7637
 1949SOL     OW17308   0.867   4.548   5.364 -0.1927 -0.0657  0.0629
 1949SOL    HW117309   0.838   4.532   5.453 -1.2416  0.9889 -0.0820
 1949SOL    HW217310   0.933   4.479   5.357 -0.1525  0.1074 -1.3041
 1950SOL     OW17311   2.925   1.916   4.022 -0.3635 -0.1970 -0.0464
 1950SOL    HW117312   2.941   2.002   3.983  2.0231  0.0002  1.3078
 1950SOL    HW217313   2.904   1.867   3.943  1.7897 -2.3005  0.6504
 1951SOL     OW17314   3.337   3.503   7.259 -0.4540  0.2483  0.1027
 1951SOL    HW117315   3.343   3.499   7.164  1.5132 -1.1453  0.2601
 1951SOL    HW217316   3.244   3.489   7.275 -0.1889  0.1932  1.6962
 1952SOL     OW17317   4.303   1.606   6.462 -1.0371 -0.1676 -0.4731
 1952SOL    HW117318   4.341   1.660   6.393 -1.6264 -0.5448 -1.1006
 1952SOL    HW217319   4.226   1.569   6.418  1.1970 -1.2057 -3.5373
 1953SOL     OW17320   2.239   4.319   1.769 -0.6887  0.5399  0.6919
 1953SOL    HW117321   2.317   4.274   1.735  0.2993  0.7012  2.7494
 1953SOL    HW217322   2.267   4.406   1.797  0.4455  1.5741 -3.5602
 1954SOL     OW17323   1.632   0.364   7.309  0.1497  0.2404 -0.7093
 1954SOL    HW117324   1.581   0.345   7.230  1.9474  0.2120 -1.8498
 1954SOL    HW217325   1.615   0.276   7.343 -3.0031  1.0651 -0.1586
 1955SOL     OW17326   1.793   3.208  14.617 -0.9990 -0.0359 -0.1598
 1955SOL    HW117327   1.853   3.223  14.690  0.1862  0.5553 -1.2525
 1955SOL    HW217328   1.841   3.137  14.575 -0.4075  0.7695 -0.8648
 1956SOL     OW17329   3.474   1.943   6.510  0.0366 -0.3347 -0.9603
 1956SOL    HW117330   3.417   2.002   6.558  0.5218  0.2731 -1.1292
 1956SOL    HW217331   3.531   1.923   6.584 -1.8797  1.1796  0.8990
 1957SOL     OW17332   1.524   3.829   5.757 -0.5538 -0.3653  0.4187
 1957SOL    HW117333   1.489   3.742   5.778  0.8453 -1.0008  0.0877
 1957SOL    HW217334   1.451   3.881   5.724 -0.9481 -0.3507  1.3013
 1958SOL     OW17335   4.217   4.701   6.610 -0.1599 -0.2489  0.3610
 1958SOL    HW117336   4.238   4.711   6.703 -0.6026  0.7220  0.3616
 1958SOL    HW217337   4.167   0.055   6.600  1.4560  0.5320 -1.3182
 1959SOL     OW17338   1.936   4.373   5.609 -0.6806 -0.1480  0.2777
 1959SOL    HW117339   2.001   4.422   5.658 -0.8213  1.0553 -0.7275
 1959SOL    HW217340   1.977   4.288   5.623 -1.9018 -0.9510 -0.9811
 1960SOL     OW17341   0.930   2.756   5.120 -0.5417  0.5967 -0.5458
 1960SOL    HW117342   0.952   2.825   5.058  0.7166  0.5069 -0.1890
 1960SOL    HW217343   1.018   2.718   5.121  0.7740  3.7826  3.2336
 1961SOL     OW17344   1.800   1.012   3.069 -0.2988 -0.0102 -0.0868
 1961SOL    HW117345   1.773   1.012   3.160 -0.3063  0.8262 -0.0889
 1961SOL    HW217346   1.890   1.043   3.079  0.3907 -1.6684 -1.1039
 1962SOL     OW17347   0.076   0.051   8.991  0.1227  0.8313  1.3478
 1962SOL    HW117348   0.044   0.119   8.932  0.8516 -0.7376 -0.8747
 1962SOL    HW217349   0.138   0.008   8.932 -0.6068 -1.7124  2.4247
 1963SOL     OW17350   3.579   4.363  12.093  0.3048 -0.4695  0.4733
 1963SOL    HW117351   3.518   4.403  12.031  0.4611 -0.1675  0.5169
 1963SOL    HW217352   3.597   4.432  12.157  0.1559  0.8310 -0.8990
 1964SOL     OW17353   2.824   1.241   4.301 -0.0832  0.5543  0.3647
 1964SOL    HW117354   2.778   1.179   4.358  0.9346 -2.8828 -2.5744
 1964SOL    HW217355   2.819   1.324   4.349  1.7863  0.8046  0.1128
 1965SOL     OW17356   3.483   4.058   6.495 -0.4930 -0.5435  0.6891
 1965SOL    HW117357   3.472   3.983   6.436  0.7821  0.3717 -0.7058
 1965SOL    HW217358   3.400   4.052   6.542 -0.7221  4.2679  0.8737
 1966SOL     OW17359   0.777   1.454   4.069 -0.2507  0.0646 -0.0175
 1966SOL    HW117360   0.863   1.435   4.032 -1.4987 -0.5070 -2.6853
 1966SOL    HW217361   0.718   1.426   3.998 -0.3094  0.1846 -0.0164
 1967SOL     OW17362   4.435   2.937   7.192 -0.0574  0.7382  0.7052
 1967SOL    HW117363   4.463   3.011   7.246 -1.7345  1.2603  0.8843
 1967SOL    HW217364   4.503   2.872   7.209 -1.6425 -0.5590  2.1979
 1968SOL     OW17365   1.518   0.824  13.370  0.2599 -0.7556 -0.7461
 1968SOL    HW117366   1.459   0.787  13.435  0.2294  0.7379  0.0649
 1968SOL    HW217367   1.572   0.746  13.360 -0.5829 -1.1915 -1.8732
 1969SOL     OW17368   2.530   0.393   1.806  0.0307 -0.3368 -0.1657
 1969SOL    HW117369   2.622   0.409   1.789  0.1008 -0.7593 -0.1668
 1969SOL    HW217370   2.535   0.300   1.787  1.1484 -0.3027 -0.0447
 1970SOL     OW17371   2.738   0.813   2.751 -0.0257 -0.3160 -0.3956
 1970SOL    HW117372   2.728   0.772   2.666  2.1551 -3.1558  0.7203
 1970SOL    HW217373   2.818   0.866   2.742  1.0851 -2.1653 -1.2393
 1971SOL     OW17374   0.820   2.355   9.720 -0.5376  0.0339  0.1265
 1971SOL    HW117375   0.874   2.428   9.750  0.5709 -0.5728 -0.3952
 1971SOL    HW217376   0.879   2.344   9.646 -1.0855  3.2355 -0.7906
 1972SOL     OW17377   4.091   4.607   4.594  0.4997 -0.3622 -0.9236
 1972SOL    HW117378   4.146   4.665   4.647  0.7619 -1.4083 -0.0524
 1972SOL    HW217379   4.048   4.664   4.531 -0.1999 -0.4366 -0.5118
 1973SOL     OW17380   3.963   0.421  10.761 -0.3359  0.3278 -0.3830
 1973SOL    HW117381   3.977   0.460  10.848  1.8411 -0.7308 -0.2534
 1973SOL    HW217382   3.904   0.360  10.805 -0.2551  0.7220  0.2873
 1974SOL     OW17383   0.940   3.008   6.906 -0.1887  0.4201 -0.1787
 1974SOL    HW117384   1.015   3.027   6.962 -0.7098 -0.7842  0.9196
 1974SOL    HW217385   0.910   2.924   6.942 -2.1118  1.7098  1.2058
 1975SOL     OW17386   3.679   3.275   4.023  0.0554  0.0579  0.8185
 1975SOL    HW117387   3.666   3.271   3.929  1.0880  1.8613  0.6065
 1975SOL    HW217388   3.591   3.270   4.060 -0.7230 -0.7797 -1.1721
 1976SOL     OW17389   0.441   2.656   4.264  0.0511  0.1870  0.2376
 1976SOL    HW117390   0.381   2.727   4.285 -0.8031 -0.6627  0.6738
 1976SOL    HW217391   0.451   2.656   4.169 -2.5966  1.5330 -0.0281
 1977SOL     OW17392   2.578   4.188   4.887  0.1451  0.1252 -0.1555
 1977SOL    HW117393   2.520   4.205   4.961 -0.5512  0.3087 -0.7373
 1977SOL    HW217394   2.533   4.238   4.819  1.1664 -1.0608 -1.7249
 1978SOL     OW17395   0.505   2.010  10.019  0.2875  0.0770  0.4572
 1978SOL    HW117396   0.586   2.062  10.017 -0.3162  1.0856  3.2676
 1978SOL    HW217397   0.512   1.980  10.109 -1.4241 -0.1955  0.4879
 1979SOL     OW17398   1.892   2.585  11.052 -0.1099 -0.1911 -0.7522
 1979SOL    HW117399   1.944   2.608  10.975 -2.2029  1.4974 -1.6624
 1979SOL    HW217400   1.915   2.491  11.052  0.9972  0.0747  1.0156
 1980SOL     OW17401   1.441   2.239   6.759  0.6286 -0.4471 -0.3660
 1980SOL    HW117402   1.368   2.297   6.738 -1.8672 -2.9054  1.4577
 1980SOL    HW217403   1.518   2.293   6.745  0.3200 -0.2133 -1.1993
 1981SOL     OW17404   1.805   3.871   3.575  0.2207 -0.5284 -0.3031
 1981SOL    HW117405   1.759   3.818   3.640  0.9823 -2.6666 -1.5018
 1981SOL    HW217406   1.855   3.922   3.639 -0.5807 -1.7349  1.2940
 1982SOL     OW17407   4.569   2.709  13.328 -0.0041  0.3586  0.0870
 1982SOL    HW117408   4.571   2.632  13.385  0.1466 -0.0020 -0.4066
 1982SOL    HW217409   4.611   2.771  13.388  0.5358  0.9835 -0.9343
 1983SOL     OW17410   2.506   0.450   4.923  0.9357 -0.7718  0.2404
 1983SOL    HW117411   2.449   0.384   4.963 -0.7961  0.3785 -0.3043
 1983SOL    HW217412   2.438   0.516   4.909  0.9898 -1.2462 -2.2375
 1984SOL     OW17413   2.185   3.707   5.485 -0.3332  0.2210 -0.0529
 1984SOL    HW117414   2.226   3.725   5.570 -0.2740 -1.8146  0.3577
 1984SOL    HW217415   2.261   3.725   5.430 -0.9408  1.0838 -0.5927
 1985SOL     OW17416   4.026   0.663   6.182 -0.1957 -0.6055  0.0037
 1985SOL    HW117417   4.119   0.651   6.162 -0.5396 -0.0575 -1.9321
 1985SOL    HW217418   3.986   0.646   6.097 -0.4144 -0.9888  0.1852
 1986SOL     OW17419   4.104   3.112  13.682 -0.1857 -0.3630 -0.0345
 1986SOL    HW117420   4.029   3.148  13.729 -0.3800  0.7237 -1.1671
 1986SOL    HW217421   4.106   3.022  13.715  1.2342 -0.6133 -0.7894
 1987SOL     OW17422   2.439   3.131   4.241  0.0020  0.0726  0.2218
 1987SOL    HW117423   2.412   3.049   4.281  0.3542 -0.8925 -1.5304
 1987SOL    HW217424   2.534   3.125   4.251  0.1859  1.3571 -0.6985
 1988SOL     OW17425   1.256   1.969   5.519  0.0946 -0.5649  0.1616
 1988SOL    HW117426   1.227   1.955   5.429  1.9788  0.5169 -0.6057
 1988SOL    HW217427   1.208   2.047   5.547  0.6237  0.0790 -0.7356
 1989SOL     OW17428   4.672   4.367   6.501  0.3974  0.1874  0.3994
 1989SOL    HW117429   4.629   4.418   6.570 -1.7150  0.1677 -0.8959
 1989SOL    HW217430   4.636   4.283   6.528 -3.2074  2.1399  1.7726
 1990SOL     OW17431   3.415   4.618   6.758 -0.7935 -0.5429  0.2669
 1990SOL    HW117432   3.378   4.615   6.669 -1.7302 -0.3135  0.6423
 1990SOL    HW217433   3.509   4.617   6.740 -0.6836 -0.6928  0.8494
 1991SOL     OW17434   0.208   0.771  10.636 -0.3408  0.4257  0.2703
 1991SOL    HW117435   0.169   0.687  10.609  0.9533 -0.3090  0.6815
 1991SOL    HW217436   0.303   0.760  10.631 -0.0767  3.4158 -1.0031
 1992SOL     OW17437   3.653   3.510   5.713  0.7153 -0.1126 -0.7884
 1992SOL    HW117438   3.660   3.558   5.795  1.4432 -0.1062 -0.8571
 1992SOL    HW217439   3.589   3.565   5.667  1.8933  2.7589  1.0067
 1993SOL     OW17440   3.555   2.582  15.220 -0.5631 -0.2740 -0.3475
 1993SOL    HW117441   3.627   2.593  15.282 -2.0657 -1.3309  1.6189
 1993SOL    HW217442   3.533   2.674  15.204 -0.0844 -0.3708 -1.5755
 1994SOL     OW17443   0.617   3.790   3.300  0.2419 -0.6304  0.1919
 1994SOL    HW117444   0.560   3.750   3.235 -0.4580  0.8133 -0.0675
 1994SOL    HW217445   0.547   3.823   3.356 -0.0669 -1.9506  0.5881
 1995SOL     OW17446   2.223   4.209  10.682  0.5352 -0.3697  0.2006
 1995SOL    HW117447   2.254   4.295  10.710 -1.7859  0.3529  0.5466
 1995SOL    HW217448   2.128   4.213  10.692  0.5175  1.1522 -0.5185
 1996SOL     OW17449   2.498   0.223   6.234  0.0878  0.1794  0.5834
 1996SOL    HW117450   2.507   0.177   6.151 -1.4163 -1.1131  1.1316
 1996SOL    HW217451   2.582   0.268   6.245 -0.1587  0.5445  0.9477
 1997SOL     OW17452   4.441   3.749   5.012 -0.2901 -0.1016 -0.1755
 1997SOL    HW117453   4.532   3.780   5.011 -0.4931  0.4613 -0.7988
 1997SOL    HW217454   4.401   3.828   5.047  0.2548  0.2068 -0.2424
 1998SOL     OW17455   4.654   1.411   4.081 -0.3238 -0.0061 -0.7010
 1998SOL    HW117456   4.586   1.407   4.149  0.2987  0.3341 -0.0489
 1998SOL    HW217457   4.642   1.333   4.028  0.8784 -0.4726 -0.2962
 1999SOL     OW17458   0.678   3.457   4.874  0.0395  0.0202  0.1426
 1999SOL    HW117459   0.659   3.368   4.903  1.1336 -0.2186  0.1138
 1999SOL    HW217460   0.762   3.482   4.913  0.7281 -1.2481 -0.5678
 2000SOL     OW17461   3.481   0.861   8.666 -0.2756 -0.2987 -0.2159
 2000SOL    HW117462   3.536   0.939   8.672 -2.0155  0.8419  0.8287
 2000SOL    HW217463   3.552   0.803   8.638  0.0362  0.1047 -0.2683
 2001SOL     OW17464   2.992   2.383  15.076  0.9036  0.2755 -0.6648
 2001SOL    HW117465   3.065   2.431  15.038  1.4933  0.2441  0.4359
 2001SOL    HW217466   2.925   2.451  15.080  0.4912 -0.1650 -0.0294
 2002SOL     OW17467   4.032   0.461   8.285 -0.0000 -0.0354 -0.2219
 2002SOL    HW117468   4.026   0.551   8.252  0.2777  0.2835  0.5989
 2002SOL    HW217469   4.107   0.421   8.241  0.1611  0.6555 -0.5791
 2003SOL     OW17470   0.692   1.357   6.097  0.1936 -0.4696 -0.0439
 2003SOL    HW117471   0.650   1.296   6.158 -1.8415  2.4562  1.4934
 2003SOL    HW217472   0.733   1.417   6.159  0.9813  0.1105 -1.1191
 2004SOL     OW17473   4.289   1.679   0.187 -0.1995  0.1468 -0.4010
 2004SOL    HW117474   4.325   1.651   0.272 -1.7194 -0.0364  0.1743
 2004SOL    HW217475   4.330   1.621   0.123 -1.6976 -2.5157  1.0454
 2005SOL     OW17476   1.183   0.924   4.382 -0.0726 -0.0856  0.3845
 2005SOL    HW117477   1.157   0.839   4.416  1.6250 -0.8055 -0.1407
 2005SOL    HW217478   1.250   0.900   4.319 -1.6719 -1.3441 -0.8493
 2006SOL     OW17479   1.640   0.026   2.613  0.2474 -0.6611  0.9098
 2006SOL    HW117480   1.578   0.064   2.550 -0.6154 -0.1599  2.0600
 2006SOL    HW217481   1.584   4.680   2.640  0.8675 -0.8470  1.6857
 2007SOL     OW17482   2.545   0.075   4.734  0.1258  0.4613  0.1024
 2007SOL    HW117483   2.608   0.062   4.663  1.3855 -0.9260  1.4691
 2007SOL    HW217484   2.526   0.168   4.728 -0.2630  0.3699 -0.0647
 2008SOL     OW17485   1.891   4.232   5.876 -0.2023  0.7769 -0.5146
 2008SOL    HW117486   1.829   4.167   5.909 -0.0393  0.9625  0.1474
 2008SOL    HW217487   1.905   4.201   5.786 -0.2357 -2.1887  0.5163
 2009SOL     OW17488   4.372   2.007   4.258  0.1236  0.0591 -0.1275
 2009SOL    HW117489   4.430   2.016   4.333  2.6203 -1.6367 -1.8218
 2009SOL    HW217490   4.342   2.097   4.247  0.6762  0.0516 -1.7276
 2010SOL     OW17491   0.979   0.406   8.288 -0.2545 -0.1365  0.4111
 2010SOL    HW117492   1.020   0.352   8.355  1.7765 -1.4719 -1.9316
 2010SOL    HW217493   0.908   0.350   8.254 -1.0287  0.8359  0.4236
 2011SOL     OW17494   2.818   1.414  12.049 -0.3083 -0.1327 -0.2071
 2011SOL    HW117495   2.790   1.491  12.000  1.8608  0.4685 -0.4957
 2011SOL    HW217496   2.740   1.393  12.101  0.2875  2.2896  1.6212
 2012SOL     OW17497   1.420   2.919   3.569  0.2160  0.1938 -0.6335
 2012SOL    HW117498   1.426   3.010   3.542 -1.3360  0.1355 -1.2209
 2012SOL    HW217499   1.368   2.891   3.493  1.3068 -1.0324 -0.9242
 2013SOL     OW17500   2.748   1.740  11.190 -0.7443  0.3469  0.7546
 2013SOL    HW117501   2.711   1.682  11.123  0.5606 -0.0036  0.3426
 2013SOL    HW217502   2.794   1.804  11.136 -0.4612  0.3867  1.0385
 2014SOL     OW17503   0.796   3.645   2.496  0.0358 -0.5657  0.4884
 2014SOL    HW117504   0.839   3.593   2.429 -0.3902 -1.8493  1.2000
 2014SOL    HW217505   0.878   3.656   2.544 -0.5769  0.5791  1.2681
 2015SOL     OW17506   4.428   4.111   7.938  0.5644 -0.0243 -0.6054
 2015SOL    HW117507   4.483   4.146   8.008  1.3490 -1.5206 -0.4699
 2015SOL    HW217508   4.344   4.152   7.957  0.1838 -0.8286 -0.5451
 2016SOL     OW17509   0.073   2.986   9.248 -0.0832 -0.0802 -0.7672
 2016SOL    HW117510   4.709   2.957   9.242 -0.0916  0.0831 -1.3696
 2016SOL    HW217511   0.064   3.066   9.301 -2.4497 -0.6589 -0.2957
 2017SOL     OW17512   3.151   2.957   7.302 -0.1278  0.6984  0.2112
 2017SOL    HW117513   3.110   3.029   7.254  1.5480  1.0480 -0.7094
 2017SOL    HW217514   3.196   3.007   7.369 -0.4331 -0.5192  1.3276
 2018SOL     OW17515   3.752   4.590  15.437 -0.3582 -0.9075  0.3188
 2018SOL    HW117516   3.781   4.508  15.478  1.0368 -1.0471 -0.9660
 2018SOL    HW217517   3.728   4.639  15.516  0.5510  0.1369 -0.0640
 2019SOL     OW17518   1.979   1.385   9.691 -0.4731 -0.2652 -0.0859
 2019SOL    HW117519   1.887   1.379   9.719 -0.8387 -2.4769 -1.8373
 2019SOL    HW217520   2.014   1.380   9.780  0.4512  1.5300 -0.3312
 2020SOL     OW17521   0.119   0.128   6.545 -0.3056 -0.8501  0.4420
 2020SOL    HW117522   0.077   0.044   6.528  0.6958 -0.6760 -2.8473
 2020SOL    HW217523   0.210   0.104   6.530  0.1402  1.2895 -0.3589
 2021SOL     OW17524   1.107   3.694  14.199  0.1088 -0.3446  0.4314
 2021SOL    HW117525   1.125   3.765  14.137  3.5608 -0.5407  1.2122
 2021SOL    HW217526   1.058   3.742  14.264  1.8746 -0.2869  1.7173
 2022SOL     OW17527   0.302   4.467   8.280  0.3620  0.0662 -0.0160
 2022SOL    HW117528   0.279   4.392   8.225 -1.0129  0.3648  0.1325
 2022SOL    HW217529   0.396   4.472   8.263  0.6098  1.7583  1.7819
 2023SOL     OW17530   2.365   3.916   7.886 -0.6517  0.5113  0.6349
 2023SOL    HW117531   2.435   3.962   7.841 -0.0336  0.4956  1.5727
 2023SOL    HW217532   2.363   3.831   7.842 -2.7604  0.8793  0.0093
 2024SOL     OW17533   2.501   1.057   6.905  0.5515  0.0070  0.7984
 2024SOL    HW117534   2.549   1.139   6.900  0.6266 -0.2249 -2.1136
 2024SOL    HW217535   2.571   0.993   6.921  0.3377 -0.3631  0.2685
 2025SOL     OW17536   4.413   2.880   8.094  0.9459 -0.3994  0.1361
 2025SOL    HW117537   4.344   2.871   8.029 -0.3586  1.8306  1.2277
 2025SOL    HW217538   4.448   2.793   8.110 -0.8731 -1.1460  0.0429
 2026SOL     OW17539   3.872   2.919   8.401 -0.3075  0.0115  0.3391
 2026SOL    HW117540   3.909   2.838   8.367 -1.0201  0.5335 -1.6308
 2026SOL    HW217541   3.793   2.894   8.449 -0.6141  0.4283  0.0443
 2027SOL     OW17542   4.677   0.196   1.841  0.6537 -0.1997 -0.1518
 2027SOL    HW117543   0.033   0.155   1.865  0.3019 -0.6545  0.2789
 2027SOL    HW217544   4.702   0.288   1.842  0.4131 -0.1288 -0.6632
 2028SOL     OW17545   4.548   1.381   5.717  0.3123  0.1298  0.1254
 2028SOL    HW117546   4.600   1.320   5.769  0.4783  1.8041  1.9425
 2028SOL    HW217547   4.597   1.464   5.715 -1.4801  1.1183 -2.4861
 2029SOL     OW17548   4.654   1.130   3.299 -0.5310  0.3143  0.3505
 2029SOL    HW117549   4.688   1.067   3.235  0.7086  1.2074  0.1333
 2029SOL    HW217550   4.568   1.144   3.259 -0.1621  0.5652 -0.3536
 2030SOL     OW17551   1.301   3.119   6.879  0.3500  0.0802  0.0777
 2030SOL    HW117552   1.330   3.099   6.968  1.3794 -1.7144 -0.6620
 2030SOL    HW217553   1.266   3.034   6.852 -1.1720  1.0042 -0.8556
 2031SOL     OW17554   1.673   3.649   1.839  0.8855  0.5814  0.4534
 2031SOL    HW117555   1.738   3.625   1.905 -2.7959  0.0314  3.8532
 2031SOL    HW217556   1.596   3.635   1.894  0.9074  2.8644  1.0888
 2032SOL     OW17557   0.605   4.665   3.671  0.5021  0.5805  0.1498
 2032SOL    HW117558   0.697   4.651   3.692  0.4033  1.5595  1.2577
 2032SOL    HW217559   0.592   4.613   3.592 -0.9096  0.2034  0.6103
 2033SOL     OW17560   0.317   3.205   0.857  0.0368 -0.2100  0.0133
 2033SOL    HW117561   0.222   3.197   0.851 -0.0044  2.2166 -2.6920
 2033SOL    HW217562   0.329   3.285   0.908 -1.2158  0.2574 -0.4286
 2034SOL     OW17563   0.907   2.704   2.774 -0.2885 -0.4421 -0.0366
 2034SOL    HW117564   0.830   2.712   2.717  1.3050 -1.5850 -2.3255
 2034SOL    HW217565   0.860   2.698   2.857 -1.5752 -0.0029 -0.7185
 2035SOL     OW17566   1.842   0.241   5.982 -0.3370 -0.7144 -0.1216
 2035SOL    HW117567   1.783   0.313   6.003  1.7053  0.1082  2.7097
 2035SOL    HW217568   1.839   0.186   6.060  0.2010  0.3048  0.6132
 2036SOL     OW17569   0.410   0.936   5.133  0.6059 -0.4901 -0.8746
 2036SOL    HW117570   0.405   1.026   5.103 -0.7585  0.0984  1.1314
 2036SOL    HW217571   0.492   0.903   5.097  1.0137  0.9367 -1.2540
 2037SOL     OW17572   4.458   4.436  15.534 -0.4828 -0.3067  0.5275
 2037SOL    HW117573   4.432   4.489  15.609  1.9975  3.7244 -1.5053
 2037SOL    HW217574   4.418   4.488  15.465 -2.1285 -0.8060  1.1126
 2038SOL     OW17575   0.934   0.765   4.229 -0.3983 -0.4590 -0.3684
 2038SOL    HW117576   1.002   0.741   4.292  0.7094 -0.6476 -1.6135
 2038SOL    HW217577   0.888   0.681   4.220  1.1269 -1.3083 -0.3207
 2039SOL     OW17578   0.655   2.231   8.377 -0.3277  0.0749  0.0626
 2039SOL    HW117579   0.643   2.143   8.341  0.2560  0.2739 -0.6094
 2039SOL    HW217580   0.602   2.229   8.457  0.0491 -0.3308  0.2999
 2040SOL     OW17581   3.756   3.241   5.895  0.3389  0.0724 -0.5954
 2040SOL    HW117582   3.704   3.278   5.966 -0.2510  0.9491 -1.4796
 2040SOL    HW217583   3.842   3.283   5.903 -0.0676  0.9417 -0.8085
 2041SOL     OW17584   0.568   0.148  12.832 -0.9301  0.3782  0.2565
 2041SOL    HW117585   0.648   0.150  12.779 -0.1709 -2.2539  1.3010
 2041SOL    HW217586   0.537   0.064  12.798  1.4053  0.4369 -2.0511
 2042SOL     OW17587   3.577   3.821   2.625 -0.1947 -0.1254  0.0568
 2042SOL    HW117588   3.613   3.868   2.550 -1.6973  0.8390 -0.0726
 2042SOL    HW217589   3.490   3.796   2.592 -0.5598  2.0909 -0.6488
 2043SOL     OW17590   1.542   4.442  11.462 -0.6409 -0.7000  0.0722
 2043SOL    HW117591   1.505   4.495  11.533  2.4615  2.3168 -0.5723
 2043SOL    HW217592   1.634   4.465  11.477 -0.2072 -2.3048 -0.0398
 2044SOL     OW17593   2.900   4.484   4.004  0.5087 -0.5718 -0.6600
 2044SOL    HW117594   2.902   4.434   4.085  0.1724 -0.8205 -0.8070
 2044SOL    HW217595   2.871   4.421   3.939  1.2704 -2.1345  0.5118
 2045SOL     OW17596   4.167   0.737   9.156  0.3341 -0.4720  0.3423
 2045SOL    HW117597   4.165   0.642   9.159  0.3298 -0.5493 -1.6375
 2045SOL    HW217598   4.137   0.747   9.246 -0.5512  3.0090 -0.3358
 2046SOL     OW17599   2.012   3.464  10.715 -0.5007 -0.1243  0.2637
 2046SOL    HW117600   2.096   3.497  10.684 -0.5601 -1.4991 -1.3428
 2046SOL    HW217601   2.013   3.375  10.679  1.2957 -0.1395  0.3474
 2047SOL     OW17602   1.125   1.160   3.812  0.9808 -0.2756 -0.7951
 2047SOL    HW117603   1.058   1.104   3.771 -1.3465  2.9406 -1.4344
 2047SOL    HW217604   1.129   1.233   3.750  0.4826 -0.8465 -1.4969
 2048SOL     OW17605   0.213   1.079   4.801 -0.2822 -0.4271  0.1145
 2048SOL    HW117606   0.263   1.153   4.836 -0.9385  1.0320 -2.1033
 2048SOL    HW217607   0.165   1.050   4.879 -0.0090 -2.6987 -0.5401
 2049SOL     OW17608   0.655   2.284  16.838  0.1899  0.2872  0.1409
 2049SOL    HW117609   0.568   2.271  16.875 -0.8328  0.6701 -2.1075
 2049SOL    HW217610   0.693   2.339  16.906  1.8110 -0.4850 -0.1237
 2050SOL     OW17611   2.710   0.876   6.888 -0.4382  0.1599 -0.3648
 2050SOL    HW117612   2.805   0.881   6.895 -0.5351 -0.0527  0.9881
 2050SOL    HW217613   2.694   0.804   6.949 -4.7473  0.8171 -0.6833
 2051SOL     OW17614   1.217   0.639   2.573 -0.1901  0.2779  0.1688
 2051SOL    HW117615   1.296   0.610   2.527 -0.6033 -1.0668  0.3128
 2051SOL    HW217616   1.164   0.560   2.579  0.7063 -0.1468  2.3609
 2052SOL     OW17617   4.468   2.656   5.185 -0.4757  0.0115  0.0951
 2052SOL    HW117618   4.498   2.617   5.267 -1.0497 -1.8826 -0.5909
 2052SOL    HW217619   4.530   2.729   5.181  0.7834 -0.8661  3.5084
 2053SOL     OW17620   3.518   0.459   2.006  0.4402  0.2537 -0.0547
 2053SOL    HW117621   3.493   0.367   1.997  3.4764 -0.6886  1.3855
 2053SOL    HW217622   3.587   0.448   2.071 -0.6752  1.8659  1.3923
 2054SOL     OW17623   2.664   4.315  14.233 -0.3585  0.4217 -0.1464
 2054SOL    HW117624   2.624   4.401  14.218  0.1291  0.6602 -0.0861
 2054SOL    HW217625   2.613   4.267  14.168 -1.9239  1.7265  0.1086
 2055SOL     OW17626   1.684   3.967  11.785 -0.2407  0.2971  0.3388
 2055SOL    HW117627   1.741   4.018  11.842  2.2573  0.0734 -1.9257
 2055SOL    HW217628   1.675   3.885  11.835 -1.0521 -0.5055 -1.1055
 2056SOL     OW17629   4.014   3.419   1.022  0.3394  0.0117 -0.5223
 2056SOL    HW117630   4.087   3.480   1.011 -0.9625  1.6625  0.0439
 2056SOL    HW217631   3.941   3.474   0.996  0.9789  0.5007 -1.2927
 2057SOL     OW17632   4.132   2.901   7.712  0.1538 -0.3016  0.0762
 2057SOL    HW117633   4.104   2.992   7.707  2.9119  0.5947  1.2756
 2057SOL    HW217634   4.134   2.867   7.622 -3.4110  0.1984 -0.1926
 2058SOL     OW17635   1.083   0.086   2.061  0.4024 -0.7499 -0.0631
 2058SOL    HW117636   1.057   0.146   2.130 -2.6378  0.7309 -2.5094
 2058SOL    HW217637   1.016   0.017   2.067  0.4542 -0.6755  1.2480
 2059SOL     OW17638   2.444   1.625  16.707  0.5691 -0.2353 -0.0713
 2059SOL    HW117639   2.474   1.660  16.623  1.0404 -1.7956 -0.5509
 2059SOL    HW217640   2.350   1.640  16.698  0.5250  0.0843  1.0168
 2060SOL     OW17641   4.556   3.176   5.644 -0.2245  0.2737  0.1863
 2060SOL    HW117642   4.515   3.090   5.632  0.0749  0.1205  0.2631
 2060SOL    HW217643   4.495   3.227   5.590 -0.0592 -1.4751 -1.6859
 2061SOL     OW17644   1.273   0.312   4.822 -0.2153 -0.5049 -0.3286
 2061SOL    HW117645   1.365   0.335   4.815 -0.3735  1.1849  3.5396
 2061SOL    HW217646   1.278   0.216   4.816 -2.2599 -0.6546  0.4510
 2062SOL     OW17647   2.871   0.579  13.699  0.8300 -0.3822  0.3500
 2062SOL    HW117648   2.915   0.502  13.735 -0.3215 -0.9738  0.4949
 2062SOL    HW217649   2.777   0.561  13.700  0.8838 -0.5770  2.5415
 2063SOL     OW17650   3.521   0.604   0.760  0.1601  0.1695 -0.3727
 2063SOL    HW117651   3.616   0.590   0.752 -0.1296  0.7650 -4.8638
 2063SOL    HW217652   3.491   0.535   0.701 -0.6172  0.2227 -0.0282
 2064SOL     OW17653   1.866   0.766   2.586 -0.4983  0.0354  0.4381
 2064SOL    HW117654   1.779   0.795   2.558 -1.4798 -3.0614  0.3832
 2064SOL    HW217655   1.855   0.673   2.567  1.7250  0.1338 -1.3089
 2065SOL     OW17656   0.514   0.980  12.549 -0.4201  0.3205  0.0391
 2065SOL    HW117657   0.517   0.895  12.592 -2.8239 -0.0036 -0.4440
 2065SOL    HW217658   0.546   1.045  12.612  0.1901  1.2780 -1.2421
 2066SOL     OW17659   0.894   1.424   1.120  0.3204  0.2072  0.1503
 2066SOL    HW117660   0.845   1.411   1.201  0.8287 -1.2756  0.2259
 2066SOL    HW217661   0.899   1.518   1.103 -3.0261  0.6425  1.5669
 2067SOL     OW17662   2.053   1.100   6.207 -0.0177  0.1233  0.1041
 2067SOL    HW117663   2.111   1.153   6.262  1.3884 -0.8906 -0.4069
 2067SOL    HW217664   1.993   1.072   6.276  0.3038 -1.1223 -0.1163
 2068SOL     OW17665   3.666   2.045   8.028 -0.3054 -0.1311  0.3607
 2068SOL    HW117666   3.635   2.135   8.015  0.3135  0.1724  0.9813
 2068SOL    HW217667   3.708   2.018   7.946 -0.2939  0.1395  0.2758
 2069SOL     OW17668   3.435   3.535  12.359  0.3350 -0.5497 -0.0625
 2069SOL    HW117669   3.401   3.493  12.437  0.8257  0.1852  0.5442
 2069SOL    HW217670   3.377   3.519  12.284  0.1116  0.0352 -0.0159
 2070SOL     OW17671   3.179   0.059   4.158 -0.2971 -0.1964  0.6911
 2070SOL    HW117672   3.250   0.078   4.096 -1.0526  1.0613  0.2219
 2070SOL    HW217673   3.118   0.120   4.116  0.0527  0.2110  0.7772
 2071SOL     OW17674   1.526   0.437  10.633  0.5494 -0.2315 -0.2487
 2071SOL    HW117675   1.534   0.345  10.660  0.2226 -0.2225 -0.1231
 2071SOL    HW217676   1.432   0.439  10.618  0.5373  0.2096 -0.1034
 2072SOL     OW17677   3.864   1.395   1.913  0.1867  0.0502 -0.2884
 2072SOL    HW117678   3.846   1.315   1.963  0.6316 -0.8505 -1.5663
 2072SOL    HW217679   3.793   1.393   1.848 -1.3369  2.3205  1.3130
 2073SOL     OW17680   4.272   3.031   6.002 -0.3022 -0.3419 -0.8049
 2073SOL    HW117681   4.352   3.082   6.014  0.1191 -0.5601 -2.7512
 2073SOL    HW217682   4.215   3.092   5.955  1.4319  2.1735  0.3614
 2074SOL     OW17683   2.874   1.416   8.518 -0.2753  0.5334 -0.3188
 2074SOL    HW117684   2.870   1.432   8.612  0.1371  0.3052 -0.2661
 2074SOL    HW217685   2.941   1.481   8.499  0.9458 -0.8984 -0.8794
 2075SOL     OW17686   4.480   3.714   7.707 -0.0414 -0.6374  0.5096
 2075SOL    HW117687   4.413   3.650   7.684 -0.8682  0.8968 -1.4039
 2075SOL    HW217688   4.502   3.681   7.794 -1.0119 -0.7132  0.7238
 2076SOL     OW17689   3.681   0.719  11.966 -0.2681  0.2631 -0.3458
 2076SOL    HW117690   3.694   0.667  12.046 -0.5296  1.4226  0.4381
 2076SOL    HW217691   3.611   0.775  11.999  0.3317  0.7258  0.1246
 2077SOL     OW17692   2.089   2.922   5.368  0.3784 -0.3754 -0.8199
 2077SOL    HW117693   2.139   2.954   5.293  0.3963  1.6765  0.0829
 2077SOL    HW217694   2.046   3.004   5.394 -1.9193 -2.0606  0.7211
 2078SOL     OW17695   2.040   0.024   3.328  0.0135 -0.1221 -0.2053
 2078SOL    HW117696   2.044   0.060   3.416 -1.7304 -2.5771  0.8941
 2078SOL    HW217697   2.122   0.063   3.297 -1.0383 -0.0517 -2.8603
 2079SOL     OW17698   1.545   4.186   7.901 -0.0773 -0.0408 -0.0243
 2079SOL    HW117699   1.603   4.109   7.896 -2.7298 -2.2460  2.9251
 2079SOL    HW217700   1.588   4.242   7.967 -0.0479 -0.4771  0.3293
 2080SOL     OW17701   2.236   1.505  14.668 -0.0715 -0.5678  0.1506
 2080SOL    HW117702   2.239   1.589  14.714 -2.9643  0.6587 -1.9400
 2080SOL    HW217703   2.324   1.468  14.681  0.3004 -0.0133 -0.8056
 2081SOL     OW17704   3.229   3.909   4.491 -0.1980  0.1529 -0.2148
 2081SOL    HW117705   3.182   3.928   4.572  1.3305 -0.6597  0.8705
 2081SOL    HW217706   3.297   3.976   4.493  1.5738 -1.6305 -0.9731
 2082SOL     OW17707   1.232   0.800   8.497 -0.0665  0.0449  0.0138
 2082SOL    HW117708   1.243   0.728   8.558 -1.6535 -1.8167 -1.9072
 2082SOL    HW217709   1.157   0.766   8.449 -0.5570  0.3654  0.5602
 2083SOL     OW17710   4.721   2.834   2.515  0.4136 -0.1550  0.7914
 2083SOL    HW117711   4.697   2.786   2.594 -1.6093  3.6158  2.4759
 2083SOL    HW217712   4.635   2.850   2.476  0.5522  1.1945  1.0362
 2084SOL     OW17713   3.855   0.828   9.607 -0.0739 -0.0944 -0.2134
 2084SOL    HW117714   3.781   0.820   9.667 -0.8802  1.4280 -0.9863
 2084SOL    HW217715   3.899   0.909   9.632 -0.1779 -0.8767  2.4126
 2085SOL     OW17716   3.629   3.772  12.267  0.7212  0.0837  0.1577
 2085SOL    HW117717   3.647   3.844  12.207 -0.9975  0.9156  0.6617
 2085SOL    HW217718   3.693   3.784  12.338 -1.1898 -0.5571  1.9904
 2086SOL     OW17719   3.331   0.122   3.934 -0.2425  0.2449 -0.2167
 2086SOL    HW117720   3.356   0.205   3.892 -2.1260  1.2859  0.6811
 2086SOL    HW217721   3.275   0.096   3.861  0.1213 -0.4897 -0.2307
 2087SOL     OW17722   3.863   2.638   6.209  0.7242 -0.2006  0.2997
 2087SOL    HW117723   3.875   2.657   6.302  3.8806 -1.5632  0.1806
 2087SOL    HW217724   3.789   2.578   6.216  1.3908 -1.0201  0.3307
 2088SOL     OW17725   2.026   1.941   6.302  0.2728 -0.7750 -0.0348
 2088SOL    HW117726   1.939   1.958   6.338  0.3189  0.8374 -0.7115
 2088SOL    HW217727   2.030   2.000   6.227  1.0482 -2.2849 -1.1797
 2089SOL     OW17728   2.706   2.399   4.474  0.3094  0.5849  0.4603
 2089SOL    HW117729   2.730   2.485   4.510 -1.2973  0.8002  1.0181
 2089SOL    HW217730   2.746   2.404   4.388 -0.0777 -2.1894  0.1129
 2090SOL     OW17731   2.975   1.332   5.176  0.4771 -0.1755  0.0109
 2090SOL    HW117732   3.009   1.352   5.264  0.4002  0.7538 -0.1657
 2090SOL    HW217733   3.016   1.246   5.165 -0.9064 -0.8264  0.0634
 2091SOL     OW17734   0.554   1.451   4.691  0.3143  0.1370  0.0357
 2091SOL    HW117735   0.508   1.529   4.661 -0.3394  0.1139  0.9606
 2091SOL    HW217736   0.546   1.397   4.612 -1.2550  0.2949  0.0865
 2092SOL     OW17737   2.804   0.005   2.429  0.4477 -0.0684  0.2835
 2092SOL    HW117738   2.874   0.065   2.452 -1.1676  1.1043  2.1529
 2092SOL    HW217739   2.778   4.698   2.515 -0.9324 -1.3988 -0.6674
 2093SOL     OW17740   4.456   2.234   7.935 -0.3986  0.2564 -0.8724
 2093SOL    HW117741   4.521   2.291   7.975  0.1605 -0.0367 -1.3736
 2093SOL    HW217742   4.456   2.156   7.990  0.6773  1.2968  0.5926
 2094SOL     OW17743   0.830   3.372   0.742  0.3720  0.1023  0.3628
 2094SOL    HW117744   0.837   3.311   0.816 -0.1731 -0.3055  0.0749
 2094SOL    HW217745   0.917   3.374   0.703  0.1538 -0.2825 -0.1480
 2095SOL     OW17746   2.099   4.263   7.210 -0.8247 -0.0558  0.0799
 2095SOL    HW117747   2.054   4.333   7.257  0.7115 -1.1936  3.2024
 2095SOL    HW217748   2.162   4.316   7.160 -0.4072  0.6406  1.3646
 2096SOL     OW17749   2.555   3.031  17.281  0.1780  0.0567 -0.4109
 2096SOL    HW117750   2.587   3.049  17.192 -0.0347 -0.1700 -0.5356
 2096SOL    HW217751   2.608   2.953  17.300  0.2710 -0.1853 -1.6151
 2097SOL     OW17752   2.894   4.672   6.710 -0.6331 -0.5736  0.7286
 2097SOL    HW117753   2.950   0.013   6.747 -0.0589  0.4444 -1.9678
 2097SOL    HW217754   2.810   4.717   6.706 -0.8741 -0.9647  1.4039
 2098SOL     OW17755   4.361   3.247  17.638  0.8204 -0.2548 -0.2533
 2098SOL    HW117756   4.319   3.233  17.553 -0.8513  2.0531  0.1727
 2098SOL    HW217757   4.438   3.298  17.613  1.7929  0.6476  4.7123
 2099SOL     OW17758   3.600   0.018   5.132  0.1065  0.1660 -0.1092
 2099SOL    HW117759   3.692   0.037   5.115 -0.4170  1.6744 -1.2622
 2099SOL    HW217760   3.558   0.104   5.129 -2.3604 -1.0626 -0.5186
 2100SOL     OW17761   3.554   1.808   2.884  0.0902 -0.1023 -0.0083
 2100SOL    HW117762   3.552   1.868   2.810  2.0478 -0.2806 -0.2045
 2100SOL    HW217763   3.523   1.861   2.958 -2.8877 -1.6635 -0.1098
 2101SOL     OW17764   3.324   2.182   8.410 -0.2751 -0.1275  0.3636
 2101SOL    HW117765   3.317   2.269   8.448  0.0041  0.5986 -1.2387
 2101SOL    HW217766   3.414   2.184   8.378 -0.2867  0.1635  0.3460
 2102SOL     OW17767   2.878   4.445  11.071  0.1541  0.2757  0.3031
 2102SOL    HW117768   2.952   4.449  11.131 -0.5910 -1.2120  1.3334
 2102SOL    HW217769   2.867   4.354  11.041 -0.0767 -0.1339  1.6310
 2103SOL     OW17770   3.486   0.541   6.463  0.0027 -0.4396  0.4445
 2103SOL    HW117771   3.530   0.616   6.503 -0.7172 -0.6516  1.6383
 2103SOL    HW217772   3.568   0.503   6.433 -0.6388  0.1845 -2.1057
 2104SOL     OW17773   4.087   2.376  12.447  0.5142 -0.3994  0.5750
 2104SOL    HW117774   4.076   2.326  12.527  0.1533 -0.5963  0.4053
 2104SOL    HW217775   4.180   2.397  12.452  0.2191  0.8803  0.6719
 2105SOL     OW17776   4.009   3.906   9.315  0.1480  0.2152  0.1275
 2105SOL    HW117777   3.930   3.853   9.330 -0.5641  1.5155  1.0523
 2105SOL    HW217778   4.081   3.848   9.336 -0.0098  0.2030  0.6272
 2106SOL     OW17779   3.482   1.867   8.926  0.1487 -0.4189  0.6049
 2106SOL    HW117780   3.433   1.948   8.914  2.3267  0.5426 -1.7892
 2106SOL    HW217781   3.461   1.817   8.847 -0.4806 -0.6762  0.9310
 2107SOL     OW17782   3.292   2.176   1.748 -0.6627  0.0114 -0.0076
 2107SOL    HW117783   3.373   2.143   1.709 -0.7459 -0.2190  0.0166
 2107SOL    HW217784   3.277   2.100   1.803 -0.8198 -0.5188 -0.7741
 2108SOL     OW17785   4.399   0.220   5.832  0.2190  0.2710  0.0303
 2108SOL    HW117786   4.311   0.185   5.845  0.4895 -0.7017 -0.7165
 2108SOL    HW217787   4.403   0.265   5.916 -0.5245 -0.8982  0.6953
 2109SOL     OW17788   1.902   1.725   7.982 -0.1266 -0.0648  0.2467
 2109SOL    HW117789   1.915   1.806   8.032 -2.2208  0.5104 -0.1147
 2109SOL    HW217790   1.837   1.677   8.034 -0.7302 -1.6097 -1.9579
 2110SOL     OW17791   0.010   3.672  13.773 -0.2598  0.0758 -0.0728
 2110SOL    HW117792   0.105   3.664  13.765 -0.3181  1.2666 -1.8681
 2110SOL    HW217793   4.725   3.609  13.702 -0.8401  2.3052 -1.9750
 2111SOL     OW17794   4.447   0.579  13.145  0.0335  0.4371 -0.4168
 2111SOL    HW117795   4.532   0.552  13.111  0.3542  0.3374  0.4753
 2111SOL    HW217796   4.468   0.638  13.217 -0.6374  0.7597 -0.4819
 2112SOL     OW17797   1.319   1.805   1.209 -0.4544  0.0978 -0.0149
 2112SOL    HW117798   1.241   1.752   1.230  0.2652 -0.9234  0.0825
 2112SOL    HW217799   1.287   1.856   1.135 -1.0981 -1.5274 -0.8518
 2113SOL     OW17800   0.871   3.098   8.517 -0.1967 -0.2739 -0.2847
 2113SOL    HW117801   0.807   3.146   8.570  1.0487 -0.4301  1.3656
 2113SOL    HW217802   0.904   3.178   8.475  0.6239 -0.3765  0.1515
 2114SOL     OW17803   2.325   4.004  10.841  0.5519 -0.1061  0.4104
 2114SOL    HW117804   2.245   3.953  10.839 -1.3857  2.9237  0.6331
 2114SOL    HW217805   2.295   4.085  10.800  1.2366  0.7826  1.6425
 2115SOL     OW17806   0.907   1.600  11.789 -0.0537 -0.0712 -0.1876
 2115SOL    HW117807   0.943   1.581  11.875  1.7135  2.1162 -0.4432
 2115SOL    HW217808   0.881   1.692  11.794  1.8369  0.4865 -0.5709
 2116SOL     OW17809   3.228   1.245   1.570  0.0687 -0.3799  0.3162
 2116SOL    HW117810   3.321   1.237   1.589 -0.2411  0.4169  2.1426
 2116SOL    HW217811   3.182   1.297   1.635 -0.6076 -0.5659 -0.0060
 2117SOL     OW17812   4.580   3.858   8.193  0.1578 -0.0108  0.2800
 2117SOL    HW117813   4.524   3.877   8.268  0.2848  0.4448  0.2607
 2117SOL    HW217814   4.661   3.900   8.223 -0.9212  0.6004  2.3467
 2118SOL     OW17815   3.455   3.649   5.582 -1.1238  0.3115  0.0315
 2118SOL    HW117816   3.464   3.735   5.542 -1.1169  0.0148 -0.6108
 2118SOL    HW217817   3.360   3.637   5.571 -1.0349 -0.4645  0.0985
 2119SOL     OW17818   4.407   3.355   5.498 -0.1906  0.0646  0.0105
 2119SOL    HW117819   4.471   3.423   5.518 -3.0027  2.2087  1.7541
 2119SOL    HW217820   4.324   3.396   5.523  1.1925  3.0970 -0.3618
 2120SOL     OW17821   4.653   3.144   7.623 -0.7209  0.7289  0.2284
 2120SOL    HW117822   0.011   3.179   7.651 -1.0744  1.8915 -0.1564
 2120SOL    HW217823   4.620   3.129   7.711  1.4360 -0.1152  0.8953
 2121SOL     OW17824   3.896   1.167   5.790  0.0592 -0.3208  0.3702
 2121SOL    HW117825   3.865   1.077   5.793  0.7448 -0.6172 -1.6932
 2121SOL    HW217826   3.816   1.220   5.780  0.7985  0.7726  0.2521
 2122SOL     OW17827   0.408   4.513   1.840 -0.8980  0.2911 -0.7922
 2122SOL    HW117828   0.380   4.565   1.765  0.3100  1.4384 -0.4537
 2122SOL    HW217829   0.493   4.556   1.850 -0.2625 -1.1748  0.1251
 2123SOL     OW17830   4.507   2.638   5.446 -0.6776 -0.2675  0.2244
 2123SOL    HW117831   4.414   2.662   5.447 -0.4123  0.7512  1.5228
 2123SOL    HW217832   4.520   2.658   5.539  0.9320 -1.2490  0.2035
 2124SOL     OW17833   2.167   2.914   1.928 -0.1015  0.3174  0.4428
 2124SOL    HW117834   2.143   2.892   1.838  1.9799  1.4352 -0.3755
 2124SOL    HW217835   2.082   2.917   1.972 -0.1318 -1.7261  0.5514
 2125SOL     OW17836   1.051   3.368   5.826  0.2322  0.5767  0.2343
 2125SOL    HW117837   0.960   3.350   5.802  0.8133 -0.6617 -1.0473
 2125SOL    HW217838   1.042   3.429   5.899 -2.6839  0.3287  0.0818
 2126SOL     OW17839   1.392   0.298   6.275 -0.3362 -0.1965  0.1263
 2126SOL    HW117840   1.317   0.239   6.286  0.8673 -1.7844 -0.3046
 2126SOL    HW217841   1.449   0.240   6.324  0.2048 -0.4580 -0.8127
 2127SOL     OW17842   3.808   0.552   6.627 -0.0530 -0.1256 -0.1525
 2127SOL    HW117843   3.743   0.484   6.645 -2.3420  2.1621  0.1749
 2127SOL    HW217844   3.890   0.510   6.654 -0.7575 -0.5411  1.3196
 2128SOL     OW17845   4.662   4.420   4.715 -0.3488  0.6613 -0.1744
 2128SOL    HW117846   0.026   4.406   4.741 -0.7470  0.3705  1.0831
 2128SOL    HW217847   4.628   4.456   4.797  0.6318  1.4545 -0.1201
 2129SOL     OW17848   4.603   2.380   4.514 -0.1277 -0.2913 -0.3379
 2129SOL    HW117849   4.663   2.422   4.452  0.3001 -0.6413 -0.1645
 2129SOL    HW217850   4.604   2.440   4.589  0.1795 -1.3270  0.4873
 2130SOL     OW17851   3.639   2.306   0.185  0.1255 -0.0645 -0.0852
 2130SOL    HW117852   3.727   2.341   0.192 -0.1112  0.4677  0.2132
 2130SOL    HW217853   3.631   2.266   0.271  0.2296  0.7769  0.3123
 2131SOL     OW17854   0.235   1.427   6.372 -0.1887  0.2450  0.1109
 2131SOL    HW117855   0.153   1.468   6.343 -0.9136 -0.8289  0.6329
 2131SOL    HW217856   0.251   1.365   6.301 -0.8603 -0.3086  0.4495
 2132SOL     OW17857   3.020   3.269   0.543  0.1978  0.3370 -0.5810
 2132SOL    HW117858   3.111   3.273   0.513  0.6300 -2.6589  0.4060
 2132SOL    HW217859   3.011   3.181   0.578  1.4144 -0.8811 -3.3293
 2133SOL     OW17860   2.390   4.189   7.979 -0.0318  0.1266 -0.0908
 2133SOL    HW117861   2.413   4.204   7.887 -0.2786  0.9559 -0.0211
 2133SOL    HW217862   2.339   4.109   7.967 -1.4518  1.3151 -2.1878
 2134SOL     OW17863   3.377   1.100   5.072  0.0156  0.1419 -0.1480
 2134SOL    HW117864   3.409   1.140   5.153  1.7422  0.4433 -0.9973
 2134SOL    HW217865   3.367   1.175   5.014 -1.8098  1.0078  1.2825
 2135SOL     OW17866   0.533   3.793   7.661 -0.0638  0.2545 -0.5929
 2135SOL    HW117867   0.608   3.833   7.706 -0.0227  0.9123 -1.2446
 2135SOL    HW217868   0.553   3.700   7.661 -1.5636 -0.0584  1.5547
 2136SOL     OW17869   0.116   2.434  17.195 -0.4899 -0.8055  0.5777
 2136SOL    HW117870   0.183   2.372  17.169 -1.4634 -1.0930 -1.2457
 2136SOL    HW217871   0.165   2.514  17.174  1.3576 -2.3623 -1.0226
 2137SOL     OW17872   4.726   0.529   2.350  0.4674 -0.1028  0.4187
 2137SOL    HW117873   4.660   0.531   2.418 -0.8803  1.8301 -0.9435
 2137SOL    HW217874   4.677   0.471   2.291  0.6202 -0.8263  0.9989
 2138SOL     OW17875   0.637   0.290   5.845 -0.2211  0.8158 -0.1960
 2138SOL    HW117876   0.694   0.293   5.921 -0.9676 -0.2324  0.4087
 2138SOL    HW217877   0.564   0.341   5.881 -0.6650  1.9606 -2.6735
 2139SOL     OW17878   4.011   0.056   8.957 -0.1138  0.0881  0.1574
 2139SOL    HW117879   4.085   0.053   8.896  1.3558  1.1262  1.8812
 2139SOL    HW217880   3.982   0.145   8.936  1.4278  1.0075  1.9799
 2140SOL     OW17881   3.781   1.532   4.812  0.0710 -0.1125  0.3918
 2140SOL    HW117882   3.862   1.541   4.761 -0.8405  1.9909 -0.6975
 2140SOL    HW217883   3.783   1.613   4.862  0.2778  1.1796 -1.6766
 2141SOL     OW17884   2.810   2.345   7.595 -0.2406  0.3481 -0.6122
 2141SOL    HW117885   2.850   2.428   7.569  3.1805 -1.0649  0.1494
 2141SOL    HW217886   2.728   2.370   7.639 -0.7245 -1.5617 -0.4062
 2142SOL     OW17887   3.971   1.535  13.688  0.0147  0.3505  0.2102
 2142SOL    HW117888   3.988   1.492  13.772 -1.5630  1.2781  0.9991
 2142SOL    HW217889   3.917   1.466  13.650 -3.0158  3.1776 -0.5667
 2143SOL     OW17890   3.938   3.338   3.923  0.3163  0.4784  0.0463
 2143SOL    HW117891   3.852   3.366   3.891  0.6226 -1.0547 -2.1274
 2143SOL    HW217892   3.916   3.308   4.011  1.3465 -0.3737  0.0087
 2144SOL     OW17893   3.443   2.431   4.148 -0.1230 -0.5182 -0.4703
 2144SOL    HW117894   3.365   2.416   4.094  1.1667 -2.2256 -1.8778
 2144SOL    HW217895   3.500   2.472   4.083 -0.1295 -0.1342 -0.2303
 2145SOL     OW17896   3.201   0.788  13.824 -0.0537  0.3320  0.4117
 2145SOL    HW117897   3.140   0.847  13.779 -2.2040  0.8983  4.0557
 2145SOL    HW217898   3.243   0.752  13.746  3.1411  0.7491  1.9318
 2146SOL     OW17899   4.617   1.449   7.278  0.3627 -0.0275 -0.6671
 2146SOL    HW117900   4.612   1.538   7.312 -3.1752 -0.8515  0.8925
 2146SOL    HW217901   4.700   1.464   7.232 -0.0946 -0.3630 -1.5896
 2147SOL     OW17902   4.628   0.429   5.116  0.4385 -0.2508 -0.3842
 2147SOL    HW117903   4.643   0.507   5.169  1.0264 -0.5902 -0.0457
 2147SOL    HW217904   4.718   0.401   5.099  0.6640 -0.1891  0.7413
 2148SOL     OW17905   3.662   3.830   8.402  0.0798  1.1554 -0.1878
 2148SOL    HW117906   3.581   3.881   8.412 -1.2492 -0.9857 -0.0120
 2148SOL    HW217907   3.639   3.787   8.320  1.6888 -0.6456  0.3292
 2149SOL     OW17908   4.533   3.818   6.135  0.3993  0.0360  0.6998
 2149SOL    HW117909   4.505   3.905   6.109 -0.3581 -1.0172 -2.0121
 2149SOL    HW217910   4.445   3.790   6.161 -0.2931 -0.2973 -2.0759
 2150SOL     OW17911   0.471   4.616  10.287  0.2134  0.0534  0.5364
 2150SOL    HW117912   0.400   4.553  10.281 -0.7661  1.2141  0.0318
 2150SOL    HW217913   0.525   4.585  10.213 -0.1149 -1.3446  0.8888
 2151SOL     OW17914   4.202   1.209   6.758 -0.4778 -0.0294  0.3464
 2151SOL    HW117915   4.246   1.212   6.673  0.5555  0.5832  0.8957
 2151SOL    HW217916   4.229   1.125   6.795  0.1167  0.1831  0.3975
 2152SOL     OW17917   2.304   1.317  17.333  0.1793  0.0097 -0.1628
 2152SOL    HW117918   2.250   1.238  17.344 -2.2384  1.8678  1.4767
 2152SOL    HW217919   2.289   1.344  17.424  0.0040 -1.1980  0.1715
 2153SOL     OW17920   3.710   4.223  12.551 -0.0767  0.2805  0.0238
 2153SOL    HW117921   3.674   4.304  12.588  0.9341  0.8689 -0.2875
 2153SOL    HW217922   3.749   4.187  12.630 -0.3150 -0.4800 -0.2110
 2154SOL     OW17923   1.182   3.939   2.583 -0.0689 -0.4696  0.0943
 2154SOL    HW117924   1.231   3.967   2.505 -1.0965 -0.4887 -0.5593
 2154SOL    HW217925   1.259   3.936   2.639 -0.0738 -0.8727  0.0825
 2155SOL     OW17926   2.149   0.666   3.790 -0.1258 -0.0514  0.4841
 2155SOL    HW117927   2.188   0.721   3.723  0.1490  0.8357  1.3718
 2155SOL    HW217928   2.110   0.737   3.840  0.4185  0.3278  0.3595
 2156SOL     OW17929   3.296   2.450   8.301  0.7119 -0.7552 -0.2507
 2156SOL    HW117930   3.387   2.429   8.279  1.0461  1.0595 -0.5926
 2156SOL    HW217931   3.293   2.419   8.391  2.9417 -0.2412 -0.0055
 2157SOL     OW17932   2.609   3.992   3.697  0.7705  0.0522 -0.6558
 2157SOL    HW117933   2.657   3.913   3.722  2.3032  1.2382  0.0982
 2157SOL    HW217934   2.559   3.956   3.623  0.8431 -0.1706 -0.5977
 2158SOL     OW17935   4.401   1.945   7.052  0.0857 -0.3223 -0.0742
 2158SOL    HW117936   4.445   1.886   6.991 -0.5767 -1.4767  0.5820
 2158SOL    HW217937   4.317   1.939   7.006  0.8708  1.4997 -1.7837
 2159SOL     OW17938   1.555   1.601   9.302 -0.6047 -0.0336  0.3865
 2159SOL    HW117939   1.475   1.636   9.341 -0.5183  1.8303 -1.1718
 2159SOL    HW217940   1.612   1.644   9.366  0.1302 -1.5632  0.7787
 2160SOL     OW17941   2.740   0.545  13.990  0.3908  0.4705  0.0688
 2160SOL    HW117942   2.827   0.576  13.964  0.8522 -1.0888 -0.2253
 2160SOL    HW217943   2.690   0.529  13.910 -1.1726  1.2167  0.8952
 2161SOL     OW17944   2.779   3.446   5.232  0.1995 -0.3245  0.3534
 2161SOL    HW117945   2.807   3.477   5.146 -1.7508 -2.4552 -1.0368
 2161SOL    HW217946   2.686   3.471   5.231  0.2703 -0.1277 -1.0641
 2162SOL     OW17947   0.358   3.975   7.780 -0.5012 -0.3132  0.1358
 2162SOL    HW117948   0.416   3.913   7.736  0.1205 -0.4459  1.1334
 2162SOL    HW217949   0.399   4.059   7.757 -1.8143  0.5033  0.7354
 2163SOL     OW17950   2.418   3.505   7.380 -0.5600  0.2662  0.6264
 2163SOL    HW117951   2.359   3.506   7.455  0.5014  1.1772  1.4443
 2163SOL    HW217952   2.356   3.489   7.308 -0.3122 -0.3829  0.5589
 2164SOL     OW17953   1.248   3.187   8.640  0.1573  0.1641 -0.3369
 2164SOL    HW117954   1.308   3.116   8.665  2.5592  1.7858 -1.5255
 2164SOL    HW217955   1.225   3.153   8.553 -3.1528 -0.1508  0.6693
 2165SOL     OW17956   0.428   2.795   7.261  0.1944 -0.0707  0.0840
 2165SOL    HW117957   0.431   2.699   7.263 -0.9642 -0.1313 -0.9689
 2165SOL    HW217958   0.465   2.822   7.177  0.8157 -0.1491  0.3378
 2166SOL     OW17959   0.952   3.957   7.919  0.0237 -0.3578  0.0456
 2166SOL    HW117960   0.974   4.046   7.893 -1.0262 -1.0092 -3.0313
 2166SOL    HW217961   0.985   3.969   8.008 -0.8396  0.4160  0.2548
 2167SOL     OW17962   2.976   1.134  16.569 -0.2744  0.0040 -0.3766
 2167SOL    HW117963   2.963   1.229  16.572 -0.4252 -0.0450  0.5411
 2167SOL    HW217964   2.888   1.098  16.558 -0.4909  0.4039  0.0391
 2168SOL     OW17965   3.097   2.028   3.268  0.4094 -0.1482 -0.4069
 2168SOL    HW117966   3.090   1.958   3.204  1.2179 -0.1845 -0.4615
 2168SOL    HW217967   3.175   2.000   3.317 -0.5641 -3.3301 -0.6708
 2169SOL     OW17968   1.093   1.595  14.611 -0.0407  0.4851  0.2839
 2169SOL    HW117969   1.138   1.515  14.637  0.4617  0.9136  0.7108
 2169SOL    HW217970   1.009   1.598  14.658 -0.2579 -0.5360 -0.0293
 2170SOL     OW17971   0.348   1.537  17.303  0.2214  0.4089 -0.1952
 2170SOL    HW117972   0.289   1.530  17.378  0.3977  1.1699  0.0108
 2170SOL    HW217973   0.409   1.599  17.343  0.2788 -1.3057  2.3737
 2171SOL     OW17974   1.667   0.083  17.604 -0.2255 -0.8358 -0.0364
 2171SOL    HW117975   1.609   0.092  17.528 -0.0223 -1.6625 -0.2922
 2171SOL    HW217976   1.647   0.162  17.654 -2.5447 -1.7107  0.4628
 2172SOL     OW17977   2.555   0.868   9.673 -0.3472 -0.1180 -0.7832
 2172SOL    HW117978   2.585   0.816   9.598 -0.1505  0.8273 -1.3610
 2172SOL    HW217979   2.464   0.841   9.687 -0.4671  0.6213 -0.1576
 2173SOL     OW17980   1.567   1.512   3.985 -0.3019  0.5163 -0.5555
 2173SOL    HW117981   1.634   1.508   4.054  0.1478  3.2542 -0.8083
 2173SOL    HW217982   1.593   1.597   3.949 -1.3186  1.1625  0.2097
 2174SOL     OW17983   3.411   0.498  14.505 -0.1769  0.2075  0.2997
 2174SOL    HW117984   3.440   0.497  14.413  0.9386  0.9196  0.6447
 2174SOL    HW217985   3.406   0.403  14.513 -1.7225  0.4938  2.6887
 2175SOL     OW17986   0.923   0.961   2.320 -0.2308  0.1422  0.3150
 2175SOL    HW117987   0.950   1.017   2.248  0.0667  0.0962  0.3902
 2175SOL    HW217988   0.963   0.877   2.294 -1.1981 -0.8199  1.9077
 2176SOL     OW17989   4.394   0.301  13.092  0.3474 -0.2287  0.3238
 2176SOL    HW117990   4.435   0.371  13.042  0.0748 -1.0098 -1.0152
 2176SOL    HW217991   4.434   0.288  13.178 -1.3211 -0.6462  1.0367
 2177SOL     OW17992   4.722   4.696   8.403  0.2469 -0.1209  0.0549
 2177SOL    HW117993   0.027   0.026   8.332 -0.0882  1.1243  0.8957
 2177SOL    HW217994   0.047   0.017   8.468  0.5498  0.5344 -0.6681
 2178SOL     OW17995   2.586   1.211   8.568 -0.5039 -0.2170  0.0394
 2178SOL    HW117996   2.565   1.218   8.475 -1.1528  1.8341  0.3481
 2178SOL    HW217997   2.594   1.300   8.601  0.2037 -0.2500 -0.0401
 2179SOL     OW17998   3.452   0.553  12.533  0.0156 -0.3228 -0.5418
 2179SOL    HW117999   3.372   0.524  12.578  1.3769  1.4616  3.1202
 2179SOL    HW218000   3.422   0.544  12.443 -1.1129 -1.1048 -0.0825
 2180SOL     OW18001   3.282   3.793  12.082  0.4521 -0.2042  0.3074
 2180SOL    HW118002   3.209   3.747  12.042 -1.7855  1.3171  2.6658
 2180SOL    HW218003   3.363   3.750  12.055  0.2663 -0.3595  0.0064
 2181SOL     OW18004   3.707   0.985   8.605  0.2661  0.3197 -0.1043
 2181SOL    HW118005   3.801   0.993   8.591 -0.0938  2.0586 -1.5159
 2181SOL    HW218006   3.676   1.005   8.516 -0.8119 -0.0952  0.1784
 2182SOL     OW18007   1.937   4.445  12.063 -0.5692 -0.4005  0.0986
 2182SOL    HW118008   1.915   4.536  12.043  0.2440 -0.3900 -0.7876
 2182SOL    HW218009   1.945   4.416  11.972 -1.5524  0.0038 -0.1134
 2183SOL     OW18010   1.861   4.467   6.929 -0.0771  0.1996 -0.7699
 2183SOL    HW118011   1.866   4.393   6.989  1.4771 -0.1824 -1.3640
 2183SOL    HW218012   1.842   4.532   6.996  1.8178 -1.8970  1.7834
 2184SOL     OW18013   1.991   2.537  14.932  0.3206  0.5413  0.3743
 2184SOL    HW118014   1.926   2.498  14.991 -0.4569 -1.6961 -2.0066
 2184SOL    HW218015   1.991   2.489  14.850  2.7058  1.7354 -0.3316
 2185SOL     OW18016   1.776   0.183   2.801 -0.0377  0.1667 -0.3196
 2185SOL    HW118017   1.742   0.124   2.734  1.4401 -1.6590  0.5409
 2185SOL    HW218018   1.706   0.246   2.818  0.9251  0.4874  2.5192
 2186SOL     OW18019   4.704   2.885   3.167 -0.2679  0.0443 -0.5686
 2186SOL    HW118020   0.018   2.971   3.176  2.0707 -1.0107 -0.8903
 2186SOL    HW218021   4.617   2.917   3.145 -1.1122 -2.7284 -1.3572
 2187SOL     OW18022   0.528   2.924  11.243  0.2151  0.3933 -0.0056
 2187SOL    HW118023   0.492   2.849  11.289 -1.4079  0.3586 -1.3022
 2187SOL    HW218024   0.450   2.954  11.196  1.1281  1.9380 -0.5763
 2188SOL     OW18025   2.268   3.940  13.071 -0.4760 -0.2779  0.5098
 2188SOL    HW118026   2.209   3.995  13.020  0.4675 -1.1631 -1.5476
 2188SOL    HW218027   2.230   3.951  13.158  0.2673  0.8964  0.6803
 2189SOL     OW18028   3.672   2.842   4.322  0.0718  0.1345  0.1160
 2189SOL    HW118029   3.618   2.921   4.324 -1.0335 -0.5541 -2.1976
 2189SOL    HW218030   3.678   2.832   4.227  1.7611  1.8785  0.0286
 2190SOL     OW18031   0.528   3.669  13.393  0.5022 -0.7590 -0.5998
 2190SOL    HW118032   0.556   3.759  13.380  0.6710 -0.8198 -0.6488
 2190SOL    HW218033   0.435   3.681  13.412  0.7606 -0.8010  0.7020
 2191SOL     OW18034   3.155   0.080  11.177 -0.4945 -0.1179  0.6477
 2191SOL    HW118035   3.248   0.058  11.171 -0.3055  1.1607 -0.9040
 2191SOL    HW218036   3.142   0.048  11.267  2.9133 -0.9023  0.8391
 2192SOL     OW18037   0.186   4.133  17.650 -0.1028  0.1704  0.1744
 2192SOL    HW118038   0.239   4.055  17.668  3.6005  2.4020 -1.1842
 2192SOL    HW218039   0.207   4.128  17.557 -0.6369 -0.1048  0.0648
 2193SOL     OW18040   0.391   4.630   5.119 -0.0307 -0.1116 -0.0854
 2193SOL    HW118041   0.474   4.645   5.165 -0.8342 -3.2877  2.3647
 2193SOL    HW218042   0.334   4.590   5.184 -0.7189 -0.0342 -0.6437
 2194SOL     OW18043   4.595   2.343   2.598  0.0135 -0.4694  0.2254
 2194SOL    HW118044   4.565   2.263   2.641  1.3516 -2.0347 -1.7592
 2194SOL    HW218045   4.597   2.391   2.681 -2.5656  1.3734 -0.7811
 2195SOL     OW18046   3.553   1.333   2.397  0.2763 -0.4877 -0.2521
 2195SOL    HW118047   3.571   1.244   2.367  0.2101 -1.2232  1.9364
 2195SOL    HW218048   3.641   1.355   2.426  0.0053 -1.4543  1.2758
 2196SOL     OW18049   3.685   0.643  14.734  0.5235  0.5711 -0.1077
 2196SOL    HW118050   3.699   0.730  14.695 -0.2525  0.6932 -0.1147
 2196SOL    HW218051   3.777   0.618  14.747  1.1058  1.9474 -1.5140
 2197SOL     OW18052   3.823   3.899  17.576 -0.0520  0.8585  0.0148
 2197SOL    HW118053   3.859   3.842  17.509 -0.2764 -0.7902  1.3108
 2197SOL    HW218054   3.867   3.980  17.548  0.5611 -0.2137 -2.1103
 2198SOL     OW18055   0.261   0.459  11.960  0.5053 -0.2617  0.2047
 2198SOL    HW118056   0.166   0.450  11.958  0.4580  0.5612 -1.6801
 2198SOL    HW218057   0.265   0.445  11.865  1.2857 -1.3139  0.3858
 2199SOL     OW18058   4.418   2.695   5.709 -0.0089 -0.3939  0.0332
 2199SOL    HW118059   4.336   2.644   5.707 -0.4771  0.4290 -1.6340
 2199SOL    HW218060   4.413   2.736   5.795 -0.7060  1.6408 -0.9786
 2200SOL     OW18061   2.761   3.854   3.369 -0.1283 -0.5019 -0.3335
 2200SOL    HW118062   2.690   3.791   3.354 -2.7211  2.2527  0.3813
 2200SOL    HW218063   2.723   3.938   3.344  2.4776  0.3852 -1.3859
 2201SOL     OW18064   0.058   2.747   8.983  0.3907 -0.2754  0.4729
 2201SOL    HW118065   4.702   2.792   9.003  0.4987  0.8251 -1.5783
 2201SOL    HW218066   0.128   2.812   8.992  1.0873 -0.4395 -3.6508
 2202SOL     OW18067   2.868   2.951   6.607 -0.2603 -0.3117  0.2112
 2202SOL    HW118068   2.845   2.871   6.559 -1.7172 -0.7592  1.6538
 2202SOL    HW218069   2.944   2.913   6.651 -0.7501 -3.1410 -1.3771
 2203SOL     OW18070   1.754   3.633   4.381 -0.2513  0.1452 -0.3097
 2203SOL    HW118071   1.796   3.712   4.347 -0.9025 -0.0738 -1.6075
 2203SOL    HW218072   1.680   3.662   4.434  0.2581 -0.3953  0.7072
 2204SOL     OW18073   0.321   0.750   7.695  0.2992  0.6260  0.1384
 2204SOL    HW118074   0.404   0.770   7.652 -1.0323  3.5057 -1.0830
 2204SOL    HW218075   0.267   0.709   7.626  0.3345  3.3003 -1.4956
 2205SOL     OW18076   0.525   1.162   5.529 -0.1448 -0.5706  0.2130
 2205SOL    HW118077   0.450   1.120   5.489 -0.4008  1.5301 -1.4854
 2205SOL    HW218078   0.595   1.097   5.518  1.0827  0.6697  0.7015
 2206SOL     OW18079   2.980   4.231   7.379  0.2326 -0.1384  0.6612
 2206SOL    HW118080   2.999   4.208   7.288  0.3172  1.1134  0.3659
 2206SOL    HW218081   3.011   4.149   7.416  0.9768  0.2201  0.8264
 2207SOL     OW18082   0.931   3.219   8.877  0.0869  0.5530  0.5626
 2207SOL    HW118083   1.000   3.154   8.868 -2.7756 -2.6845  2.1473
 2207SOL    HW218084   0.960   3.254   8.961  0.6332 -0.4091  0.7653
 2208SOL     OW18085   2.184   1.931   3.729 -0.3749  0.1575 -0.0733
 2208SOL    HW118086   2.098   1.971   3.717 -0.7543 -0.4741  0.5375
 2208SOL    HW218087   2.192   1.918   3.823 -0.9653  1.0639  0.0991
 2209SOL     OW18088   4.184   2.482   9.207 -0.1101 -0.4925  0.8087
 2209SOL    HW118089   4.179   2.395   9.167 -1.0364  0.7143 -1.6968
 2209SOL    HW218090   4.103   2.491   9.256 -0.0538 -0.2036  0.8463
 2210SOL     OW18091   0.647   2.183  17.166  0.0277  1.0468 -0.2912
 2210SOL    HW118092   0.592   2.262  17.168 -3.4118 -1.3011 -2.4615
 2210SOL    HW218093   0.736   2.218  17.167  0.4365 -0.0145  1.2631
 2211SOL     OW18094   2.045   3.402   4.887 -0.4707 -0.0123 -0.0633
 2211SOL    HW118095   2.003   3.372   4.968 -0.3703 -0.4725 -0.1832
 2211SOL    HW218096   2.015   3.334   4.827 -0.6203  0.2447 -0.2810
 2212SOL     OW18097   4.682   0.199   1.185  0.1787 -0.9062  0.3716
 2212SOL    HW118098   4.604   0.253   1.199  0.2080 -1.4181  2.5416
 2212SOL    HW218099   0.023   0.260   1.156 -0.8564 -0.3367 -0.8308
 2213SOL     OW18100   1.274   4.128   2.841 -0.0297  0.1768 -0.3926
 2213SOL    HW118101   1.342   4.080   2.793 -0.2815  0.0506 -0.6209
 2213SOL    HW218102   1.210   4.059   2.858  0.4237  0.2602  1.7516
 2214SOL     OW18103   4.174   3.933   0.373  0.3848 -0.3155  0.3553
 2214SOL    HW118104   4.152   3.853   0.325 -0.7802 -0.4721  1.1501
 2214SOL    HW218105   4.091   3.979   0.384  1.6124  1.7851  0.6962
 2215SOL     OW18106   0.605   2.209  10.449  0.2298  0.0710 -0.5537
 2215SOL    HW118107   0.673   2.274  10.467  0.5294 -0.0451 -1.2879
 2215SOL    HW218108   0.577   2.188  10.538  0.8966 -3.0748 -1.0885
 2216SOL     OW18109   0.284   2.716   6.174  0.1754 -0.4623  0.2758
 2216SOL    HW118110   0.195   2.707   6.209 -0.7183 -1.5561 -2.2912
 2216SOL    HW218111   0.277   2.711   6.079 -0.3852 -0.2482  0.3035
 2217SOL     OW18112   2.334   0.390   5.675  0.8855 -0.4774  0.4596
 2217SOL    HW118113   2.291   0.459   5.725  0.4489  0.1542 -0.7828
 2217SOL    HW218114   2.375   0.335   5.742  0.9676 -1.7432 -0.6213
 2218SOL     OW18115   2.148   1.506   4.203  0.1826 -0.2399  0.2153
 2218SOL    HW118116   2.235   1.475   4.177  0.4472  3.3526 -3.1273
 2218SOL    HW218117   2.162   1.528   4.295 -0.6994 -0.3877  0.3853
 2219SOL     OW18118   1.436   1.297   1.666  0.4038  0.4895  0.2786
 2219SOL    HW118119   1.354   1.339   1.692  0.1580 -0.7305  1.4816
 2219SOL    HW218120   1.501   1.368   1.667  1.2618 -0.2744 -0.8704
 2220SOL     OW18121   3.837   3.708   6.816 -0.3437  0.0078 -0.2083
 2220SOL    HW118122   3.806   3.699   6.726  0.0272 -1.9783 -0.1346
 2220SOL    HW218123   3.807   3.796   6.835  0.5352 -0.1484  1.9403
 2221SOL     OW18124   3.331   1.030   5.635  0.2064 -0.4940 -0.2233
 2221SOL    HW118125   3.325   0.954   5.693  1.1505 -0.7730 -0.4826
 2221SOL    HW218126   3.423   1.015   5.613 -0.2244 -0.7300 -1.8464
 2222SOL     OW18127   1.179   3.689   7.090  0.1307 -0.2016 -0.1836
 2222SOL    HW118128   1.124   3.657   7.161  0.0744  0.5410  0.1085
 2222SOL    HW218129   1.208   3.605   7.055 -0.3544 -0.0822 -0.8793
 2223SOL     OW18130   4.233   3.582   2.454 -0.1758  0.6238 -0.6164
 2223SOL    HW118131   4.313   3.630   2.479 -0.4772  0.4054  0.7578
 2223SOL    HW218132   4.201   3.626   2.375 -0.2224  2.2054  0.2762
 2224SOL     OW18133   4.071   0.837  14.056 -0.0277 -0.4662 -0.3036
 2224SOL    HW118134   4.079   0.862  14.148  1.9211 -3.0951  0.2495
 2224SOL    HW218135   4.161   0.845  14.025 -0.4269 -0.6415 -1.4995
 2225SOL     OW18136   2.210   1.960   1.650  0.0889  0.4321 -0.5582
 2225SOL    HW118137   2.297   1.921   1.648  0.5201  1.3937 -0.7102
 2225SOL    HW218138   2.171   1.944   1.564 -1.2555  1.7387 -0.1923
 2226SOL     OW18139   2.801   1.765   7.888 -0.0920 -0.6349 -0.2391
 2226SOL    HW118140   2.755   1.817   7.954  0.9962 -0.3569  0.3057
 2226SOL    HW218141   2.758   1.684   7.913 -1.0437  0.0454  0.3091
 2227SOL     OW18142   2.439   1.260  10.233  0.3085 -0.0394 -0.5377
 2227SOL    HW118143   2.393   1.184  10.268 -1.1587  0.7763 -0.7368
 2227SOL    HW218144   2.363   1.318  10.225  1.9192  2.0959 -0.4474
 2228SOL     OW18145   2.500   2.831   6.853 -0.9131 -0.0394 -0.6403
 2228SOL    HW118146   2.522   2.757   6.797 -2.1894  1.6055 -3.3174
 2228SOL    HW218147   2.559   2.898   6.818 -0.4425 -2.1562 -3.8673
 2229SOL     OW18148   3.714   0.127  16.942  0.6025  0.4838 -0.7624
 2229SOL    HW118149   3.772   0.127  17.019 -1.8813 -0.0210  1.0991
 2229SOL    HW218150   3.748   0.199  16.890 -0.0243 -0.1985 -2.1021
 2230SOL     OW18151   3.230   0.893   0.473 -0.1694  0.2610 -0.0133
 2230SOL    HW118152   3.153   0.946   0.452 -1.9079 -2.0006  0.6854
 2230SOL    HW218153   3.203   0.862   0.559  1.0541  0.5693  0.4871
 2231SOL     OW18154   2.241   4.446   4.207 -0.1067 -0.2714 -0.4188
 2231SOL    HW118155   2.299   4.412   4.275  1.3584  0.8964 -1.0831
 2231SOL    HW218156   2.294   4.456   4.128  0.1747 -0.2778 -0.2337
 2232SOL     OW18157   2.161   2.545  15.155 -0.0747  0.0261 -0.5119
 2232SOL    HW118158   2.094   2.551  15.087  0.2230 -1.4490 -0.9428
 2232SOL    HW218159   2.150   2.455  15.186 -0.7786 -0.1432 -1.2418
 2233SOL     OW18160   3.976   3.953   4.577 -0.4289  0.6567 -0.5850
 2233SOL    HW118161   3.993   3.925   4.487 -0.6620 -0.0047 -0.4260
 2233SOL    HW218162   3.955   4.047   4.572 -0.0424  0.6556 -2.2040
 2234SOL     OW18163   2.155   4.657   8.637  0.2911  0.0358  0.5049
 2234SOL    HW118164   2.226   4.710   8.674 -0.2105  1.2093 -0.2106
 2234SOL    HW218165   2.151   4.696   8.550  0.5969 -0.4209  0.2819
 2235SOL     OW18166   1.961   1.324   3.541 -0.1985  0.5695  0.0985
 2235SOL    HW118167   2.014   1.399   3.513  0.3988 -0.0390 -0.4014
 2235SOL    HW218168   2.037   1.266   3.532  1.0209  2.4329 -1.5194
 2236SOL     OW18169   0.972   0.182   7.627 -0.2085  0.4690 -0.0030
 2236SOL    HW118170   0.943   0.235   7.701 -3.6858 -1.1869 -0.2047
 2236SOL    HW218171   1.065   0.203   7.633 -0.0395 -0.0707 -0.7650
 2237SOL     OW18172   4.045   3.411   5.051  0.1673  0.3543 -0.2275
 2237SOL    HW118173   4.070   3.334   5.001 -0.9927  1.7602 -2.9908
 2237SOL    HW218174   3.951   3.398   5.068 -0.0099  1.9499  0.0585
 2238SOL     OW18175   3.481   4.346   6.480  0.1766 -0.5641 -0.2836
 2238SOL    HW118176   3.544   4.328   6.411  2.4072 -1.3359  1.9738
 2238SOL    HW218177   3.450   4.258   6.500  3.0151 -1.3687  0.5387
 2239SOL     OW18178   3.252   3.992   5.951  0.2357  0.0025 -0.3076
 2239SOL    HW118179   3.258   4.049   6.027 -2.5191 -0.0807 -0.0560
 2239SOL    HW218180   3.234   3.912   5.999 -0.9197  0.6490  0.3178
 2240SOL     OW18181   0.918   4.093   4.108  0.4620 -0.8421  0.1822
 2240SOL    HW118182   0.838   4.084   4.160  0.7394  3.0774  1.2543
 2240SOL    HW218183   0.872   4.080   4.025 -1.4488 -0.7748  1.2267
 2241SOL     OW18184   0.102   3.476  16.176 -0.2774 -0.0892  0.0234
 2241SOL    HW118185   0.124   3.565  16.149  1.0634 -0.4571 -0.0874
 2241SOL    HW218186   0.067   3.437  16.095 -1.0162  1.3910 -0.3638
 2242SOL     OW18187   4.126   1.276   6.098  0.1143 -0.2359 -0.0668
 2242SOL    HW118188   4.064   1.280   6.026  0.8391  2.0222 -0.5644
 2242SOL    HW218189   4.101   1.355   6.146  0.7207 -0.6823  0.9837
 2243SOL     OW18190   3.831   1.794   7.493  0.1934  0.1524 -0.6409
 2243SOL    HW118191   3.807   1.702   7.495 -0.9497  0.4726  0.2148
 2243SOL    HW218192   3.912   1.790   7.545  1.1735  1.0716 -2.0850
 2244SOL     OW18193   0.791   2.206   2.739 -0.4252 -0.4263  0.2260
 2244SOL    HW118194   0.838   2.245   2.666  0.0202  0.5928  1.0587
 2244SOL    HW218195   0.785   2.119   2.700  1.1890 -0.6813  0.5583
 2245SOL     OW18196   0.526   1.764  10.719 -0.4945 -0.2148  0.1715
 2245SOL    HW118197   0.535   1.843  10.774 -1.2189 -1.1916  1.7088
 2245SOL    HW218198   0.447   1.733  10.765 -1.3438 -1.0823 -1.8917
 2246SOL     OW18199   3.168   2.816   3.961 -0.1054 -0.0853 -0.1759
 2246SOL    HW118200   3.214   2.900   3.957 -1.8915  0.8382 -1.1245
 2246SOL    HW218201   3.168   2.785   4.052  2.2677 -1.4224 -0.6411
 2247SOL     OW18202   3.120   1.397  13.792 -0.2171  0.3018 -0.1112
 2247SOL    HW118203   3.109   1.470  13.731  0.5123 -1.2081 -2.0519
 2247SOL    HW218204   3.082   1.429  13.873  2.6821  0.8867  1.0164
 2248SOL     OW18205   2.328   1.497  10.150  0.2285  0.0077  0.0319
 2248SOL    HW118206   2.268   1.495  10.076  1.5457 -2.3157 -1.0026
 2248SOL    HW218207   2.361   1.587  10.153 -1.1795  0.4959  0.5600
 2249SOL     OW18208   1.535   4.018   3.586  0.0298  0.2356  0.4812
 2249SOL    HW118209   1.519   4.076   3.511 -1.2332 -1.3410 -0.4866
 2249SOL    HW218210   1.623   4.036   3.619  0.1267  1.6860 -0.6050
 2250SOL     OW18211   0.198   0.172   8.399 -0.2462 -0.0057  0.1372
 2250SOL    HW118212   0.250   0.188   8.478  0.1529 -2.3267  0.3475
 2250SOL    HW218213   0.268   0.162   8.334  0.8387 -0.1779  1.3379
 2251SOL     OW18214   2.557   2.116   2.614  0.5199 -0.0808  0.1344
 2251SOL    HW118215   2.560   2.165   2.532 -0.4864 -0.3155 -0.0444
 2251SOL    HW218216   2.525   2.033   2.577  2.5628 -1.2339  0.9418
 2252SOL     OW18217   2.507   3.476   5.185  0.5294 -0.3370 -0.5229
 2252SOL    HW118218   2.503   3.541   5.115 -1.1335 -0.9712 -0.9842
 2252SOL    HW218219   2.531   3.405   5.126 -1.3290  0.2751 -1.9766
 2253SOL     OW18220   2.687   1.771   5.395 -0.6244 -0.4671 -0.3991
 2253SOL    HW118221   2.601   1.802   5.364 -0.9035  0.7223  1.5570
 2253SOL    HW218222   2.658   1.692   5.440  1.2446 -0.4867  0.7872
 2254SOL     OW18223   4.155   3.349  11.485  0.0767  0.5553  0.2858
 2254SOL    HW118224   4.132   3.267  11.528 -1.7313  1.2408  0.6118
 2254SOL    HW218225   4.078   3.368  11.432  0.0282 -0.8890 -0.1536
 2255SOL     OW18226   3.911   1.217   2.708  0.2471 -0.0996  0.2210
 2255SOL    HW118227   3.858   1.170   2.644 -0.3486  2.3418 -1.0470
 2255SOL    HW218228   3.982   1.159   2.734 -0.2983 -0.2617  1.3446
 2256SOL     OW18229   1.443   0.443   3.998  0.3684 -0.9388 -0.0373
 2256SOL    HW118230   1.354   0.428   4.031  0.6578  1.4620  1.7792
 2256SOL    HW218231   1.436   0.463   3.904 -1.0573  4.9755  1.3457
 2257SOL     OW18232   3.312   3.619   4.500 -0.1540 -0.0031  0.4093
 2257SOL    HW118233   3.230   3.610   4.549  0.5699  1.5907  1.9168
 2257SOL    HW218234   3.293   3.708   4.469 -1.6520  0.7904  3.5923
 2258SOL     OW18235   0.796   0.512   6.873 -0.0096  0.0692  0.6121
 2258SOL    HW118236   0.749   0.588   6.908 -0.8340 -0.9134  1.6232
 2258SOL    HW218237   0.858   0.545   6.807 -0.8807  0.8894  0.2136
 2259SOL     OW18238   0.253   1.820   2.052 -0.3017  0.5652 -0.1551
 2259SOL    HW118239   0.192   1.785   2.116 -1.4935  2.0755 -0.4504
 2259SOL    HW218240   0.317   1.852   2.116 -0.6456  2.0666 -0.5433
 2260SOL     OW18241   0.817   0.901  13.170 -0.4334 -0.4850 -0.0221
 2260SOL    HW118242   0.764   0.974  13.137  0.6469 -0.3689 -1.4895
 2260SOL    HW218243   0.880   0.887  13.099  0.4308  0.9827  0.4474
 2261SOL     OW18244   4.468   3.792   2.998  0.1137 -0.9374  0.5549
 2261SOL    HW118245   4.441   3.749   3.078 -0.5297  0.4319  1.0699
 2261SOL    HW218246   4.461   3.881   3.033 -0.2795 -0.6594 -0.2309
 2262SOL     OW18247   0.677   3.938   2.693 -0.2288 -0.1466  0.5647
 2262SOL    HW118248   0.626   3.989   2.630  0.9609  1.3545  0.8190
 2262SOL    HW218249   0.763   3.975   2.677  0.6982 -2.6360 -0.1713
 2263SOL     OW18250   1.515   0.748   6.911  0.3095  0.4073  0.3526
 2263SOL    HW118251   1.553   0.723   6.826 -2.0445 -3.3238  0.3717
 2263SOL    HW218252   1.442   0.807   6.892 -1.1721 -1.2054  0.9832
 2264SOL     OW18253   4.684   0.837   1.106  0.0361 -0.3179 -0.1895
 2264SOL    HW118254   4.703   0.745   1.119  0.7164 -0.0147  0.9019
 2264SOL    HW218255   4.601   0.845   1.153  1.2896  1.6739  1.6941
 2265SOL     OW18256   2.340   2.882  16.077 -0.1235 -0.4674 -0.0883
 2265SOL    HW118257   2.264   2.826  16.060  1.6322 -1.8167 -3.5860
 2265SOL    HW218258   2.407   2.847  16.018  1.4756 -0.0620  1.4949
 2266SOL     OW18259   2.372   1.323   7.085 -0.4042 -0.6172 -0.6351
 2266SOL    HW118260   2.457   1.363   7.068 -0.1047 -0.1255  1.9995
 2266SOL    HW218261   2.329   1.389   7.140 -0.9833 -1.1222 -0.4834
 2267SOL     OW18262   0.930   4.491   1.705 -0.4350  0.2010  0.1861
 2267SOL    HW118263   0.978   4.429   1.649 -1.6349 -0.3760 -0.2125
 2267SOL    HW218264   0.891   4.545   1.637 -1.3033 -0.4249  0.1866
 2268SOL     OW18265   3.735   3.872   3.060 -0.0215 -0.3536  0.0223
 2268SOL    HW118266   3.804   3.805   3.062 -0.1848 -0.5212  0.0664
 2268SOL    HW218267   3.780   3.939   3.110  0.5758 -2.3859  2.2012
 2269SOL     OW18268   2.410   0.539   1.558  0.2521 -0.1744  0.1022
 2269SOL    HW118269   2.458   0.617   1.585 -0.5877  0.2753  0.3267
 2269SOL    HW218270   2.420   0.469   1.622  1.3413  1.8109  2.0878
 2270SOL     OW18271   1.877   3.470   8.122  0.3368  0.0937 -0.3789
 2270SOL    HW118272   1.834   3.395   8.164 -0.6310  1.0967  0.4095
 2270SOL    HW218273   1.810   3.535   8.104  1.0127  1.6104  2.5842
 2271SOL     OW18274   0.275   2.990   0.558 -1.1099 -0.4293 -0.2532
 2271SOL    HW118275   0.225   2.979   0.639 -1.1223  2.3565  0.1264
 2271SOL    HW218276   0.332   3.067   0.568  1.3847 -2.3809  0.6301
 2272SOL     OW18277   4.259   3.103   4.007 -0.4574 -0.2511  0.2058
 2272SOL    HW118278   4.272   3.181   4.061 -0.5754 -1.1341  1.5085
 2272SOL    HW218279   4.181   3.075   4.055 -1.0347  1.0515  0.0320
 2273SOL     OW18280   1.192   2.513   8.613 -0.8095 -0.1463 -0.0612
 2273SOL    HW118281   1.213   2.605   8.625 -0.0488 -0.3159 -0.0834
 2273SOL    HW218282   1.202   2.496   8.519 -1.3428  0.0555 -0.1549
 2274SOL     OW18283   2.138   3.918  13.310  0.4992  0.1873 -0.2321
 2274SOL    HW118284   2.101   3.831  13.328 -1.4047  1.3688  1.4988
 2274SOL    HW218285   2.185   3.935  13.391  1.2808  0.6947 -0.7900
 2275SOL     OW18286   2.168   3.423  10.348  0.3322  0.0474 -0.2298
 2275SOL    HW118287   2.208   3.442  10.433 -1.7675  1.2306  0.5167
 2275SOL    HW218288   2.180   3.328  10.347  0.9615  0.1273 -0.2939
 2276SOL     OW18289   0.313   0.642   2.104  0.2482 -0.1408 -0.0808
 2276SOL    HW118290   0.294   0.616   2.194  0.3743  0.4518  0.1168
 2276SOL    HW218291   0.237   0.605   2.060 -0.9552 -0.2952  2.1498
 2277SOL     OW18292   1.462   0.315   8.889  0.1942 -0.0253  0.1383
 2277SOL    HW118293   1.492   0.394   8.936 -1.2630  1.0797 -0.8048
 2277SOL    HW218294   1.539   0.298   8.835  1.6937  1.1838  1.8598
 2278SOL     OW18295   1.047   3.085  11.867  0.1602 -0.6944 -0.2461
 2278SOL    HW118296   1.141   3.066  11.874  0.1543 -0.2434  0.9728
 2278SOL    HW218297   1.047   3.139  11.788 -0.2578 -1.3299 -0.6856
 2279SOL     OW18298   2.017   3.444  12.412 -0.0491 -0.1873  0.2601
 2279SOL    HW118299   2.028   3.394  12.331 -1.7170 -0.3559  0.1400
 2279SOL    HW218300   1.968   3.390  12.474 -0.7459 -1.8560 -1.7391
 2280SOL     OW18301   0.953   0.052   4.906  0.3455 -0.3925  0.1107
 2280SOL    HW118302   1.039   0.037   4.867  0.6082 -1.9971  1.3038
 2280SOL    HW218303   0.975   0.113   4.977 -2.7012 -2.1598  2.5974
 2281SOL     OW18304   3.598   2.523   3.318 -0.1968  0.4509  0.1093
 2281SOL    HW118305   3.580   2.439   3.275 -1.6164  0.7970  0.0438
 2281SOL    HW218306   3.513   2.564   3.335  0.0813  1.2152 -0.3547
 2282SOL     OW18307   0.426   2.488   2.869  0.3551  0.1688  0.3362
 2282SOL    HW118308   0.430   2.573   2.824  2.8452 -0.9291 -1.4620
 2282SOL    HW218309   0.378   2.521   2.945 -1.6105 -2.1206  0.1014
 2283SOL     OW18310   1.771   0.853  16.368 -0.4883  0.7119 -0.0997
 2283SOL    HW118311   1.726   0.936  16.357  2.1440  2.0513 -0.8381
 2283SOL    HW218312   1.852   0.896  16.396  0.0421  0.3543 -1.0816
 2284SOL     OW18313   2.932   1.323  12.297  0.0841  0.3839 -0.3129
 2284SOL    HW118314   2.904   1.343  12.207 -0.5877  1.2828  0.0990
 2284SOL    HW218315   2.978   1.403  12.323 -1.5689  1.0071  0.7041
 2285SOL     OW18316   3.514   4.326   6.773  0.4419  1.3841  0.2056
 2285SOL    HW118317   3.533   4.420   6.766  1.7824  1.1728  0.9600
 2285SOL    HW218318   3.531   4.289   6.686  1.7515  0.2692  0.9323
 2286SOL     OW18319   3.263   1.884   8.137 -0.2661 -0.1141  0.1116
 2286SOL    HW118320   3.195   1.906   8.073  0.2082  1.7996  0.2809
 2286SOL    HW218321   3.212   1.875   8.217 -1.9292  2.4255 -0.6646
 2287SOL     OW18322   0.974   2.872   8.676 -0.0809  0.2980 -0.5206
 2287SOL    HW118323   0.962   2.950   8.622 -2.0052  1.1763  1.1720
 2287SOL    HW218324   1.050   2.827   8.638 -0.5060 -0.2111 -0.7710
 2288SOL     OW18325   1.810   1.412   0.423 -0.3589 -0.3078 -0.3923
 2288SOL    HW118326   1.853   1.414   0.337  1.0063 -0.1054  0.2982
 2288SOL    HW218327   1.805   1.317   0.436  0.5249 -0.2229  0.5396
 2289SOL     OW18328   0.171   1.219   7.967 -0.0776 -0.2619  0.0248
 2289SOL    HW118329   0.138   1.140   8.011  1.8781 -0.4529  1.1606
 2289SOL    HW218330   0.248   1.176   7.929  0.0881  0.3084 -0.2824
 2290SOL     OW18331   1.136   1.475  17.270  0.2644 -0.3325  0.6391
 2290SOL    HW118332   1.200   1.452  17.202 -1.4429  0.2256 -1.1609
 2290SOL    HW218333   1.159   1.564  17.297 -2.5645  0.7548 -0.4329
 2291SOL     OW18334   0.155   1.086   4.543  0.2649  0.2745 -0.4007
 2291SOL    HW118335   0.106   1.003   4.540 -0.6933  0.8055  0.7513
 2291SOL    HW218336   0.176   1.084   4.636 -0.5799  0.5466 -0.2061
 2292SOL     OW18337   1.009   4.697   3.346 -0.1306 -0.6746 -0.1955
 2292SOL    HW118338   1.074   4.663   3.408  1.6845  0.2545 -1.5733
 2292SOL    HW218339   0.953   0.032   3.392 -1.4417 -2.3607  0.4652
 2293SOL     OW18340   3.404   0.199   1.300 -0.8035 -0.0889 -0.3304
 2293SOL    HW118341   3.318   0.193   1.341 -0.2130  0.3424  0.9517
 2293SOL    HW218342   3.408   0.293   1.283 -0.5120 -0.0650 -0.1369
 2294SOL     OW18343   3.779   1.480   6.082  0.2778 -0.6730 -0.4217
 2294SOL    HW118344   3.727   1.546   6.035 -0.5061 -0.7823  0.2916
 2294SOL    HW218345   3.863   1.522   6.061 -0.5965  0.9271 -0.7427
 2295SOL     OW18346   0.469   2.136  14.140 -0.2617  0.1371  0.0314
 2295SOL    HW118347   0.456   2.069  14.072  0.0393 -0.0454  0.1520
 2295SOL    HW218348   0.554   2.165  14.107 -0.1353  1.7290  1.8062
 2296SOL     OW18349   0.420   1.103   3.232 -0.8429 -0.4082 -0.2868
 2296SOL    HW118350   0.506   1.122   3.268 -1.7315  2.7001  0.2637
 2296SOL    HW218351   0.402   1.169   3.165  1.5823  1.1038  0.5724
 2297SOL     OW18352   4.466   1.638   5.331 -0.1907  0.1265 -0.1657
 2297SOL    HW118353   4.545   1.586   5.346  0.7560  1.6701  0.1220
 2297SOL    HW218354   4.422   1.576   5.274 -1.5323  1.8833 -1.0315
 2298SOL     OW18355   3.191   1.273   6.543  0.1449  0.2756  0.1815
 2298SOL    HW118356   3.179   1.193   6.594 -1.4617 -0.0969 -0.7930
 2298SOL    HW218357   3.209   1.334   6.615 -1.6907  2.4100 -1.1737
 2299SOL     OW18358   0.974   4.201   7.770 -0.3630 -0.0850 -0.4888
 2299SOL    HW118359   0.984   4.266   7.840  1.8584 -1.2464  0.2641
 2299SOL    HW218360   0.959   4.258   7.695  0.7432 -0.4992 -1.0159
 2300SOL     OW18361   0.204   0.615   7.077  0.1561 -0.2522 -0.1214
 2300SOL    HW118362   0.242   0.528   7.078  1.8483  0.5011  1.1943
 2300SOL    HW218363   0.125   0.609   7.132 -1.3349  1.1287 -2.1142
 2301SOL     OW18364   2.634   0.636   8.045  0.6038 -0.1125  0.2545
 2301SOL    HW118365   2.696   0.697   8.005  0.1824 -0.3210 -0.7063
 2301SOL    HW218366   2.650   0.561   7.988 -2.9876 -0.7496  0.0928
 2302SOL     OW18367   3.146   2.895   0.367  0.0459  0.1258 -0.1280
 2302SOL    HW118368   3.060   2.930   0.393 -0.9788 -2.7879  0.4686
 2302SOL    HW218369   3.138   2.801   0.383 -2.2618  0.2091 -0.8267
 2303SOL     OW18370   1.883   2.836   5.143  0.0572  0.0913  0.0132
 2303SOL    HW118371   1.919   2.892   5.212  3.2753 -1.9721 -0.0075
 2303SOL    HW218372   1.805   2.892   5.138 -0.2980 -0.3552  0.4321
 2304SOL     OW18373   3.984   1.913   0.088  0.2898  0.4239 -0.2159
 2304SOL    HW118374   3.955   1.900  17.705 -3.1006  0.4196  0.8624
 2304SOL    HW218375   4.013   2.003   0.075  1.8315 -0.2429 -1.3688
 2305SOL     OW18376   3.766   1.275   4.395 -0.3845 -0.0589 -0.2921
 2305SOL    HW118377   3.804   1.300   4.480 -1.9365 -0.5305  0.5528
 2305SOL    HW218378   3.838   1.215   4.377  1.7395  2.2235  0.6593
 2306SOL     OW18379   3.697   3.731  15.062 -0.5398 -0.1151  0.0438
 2306SOL    HW118380   3.711   3.643  15.097 -1.9084 -1.0211 -1.7226
 2306SOL    HW218381   3.635   3.709  14.993 -0.2223  0.2235 -0.3510
 2307SOL     OW18382   0.892   2.857  10.540  0.8054  0.0196 -0.5050
 2307SOL    HW118383   0.980   2.836  10.507  0.4706 -0.3027 -1.1940
 2307SOL    HW218384   0.889   2.790  10.609  0.5857  0.7029  0.1388
 2308SOL     OW18385   0.346   2.546   7.766 -0.0777 -0.2171 -0.1550
 2308SOL    HW118386   0.407   2.617   7.784  2.2333 -2.3990  0.6132
 2308SOL    HW218387   0.294   2.588   7.698  0.9534  0.5006 -0.5026
 2309SOL     OW18388   2.906   0.021  16.934  0.2311 -0.2956  0.4224
 2309SOL    HW118389   2.858   0.028  17.017  2.1094  0.4174  1.4358
 2309SOL    HW218390   2.895   4.653  16.922  1.2453 -0.3009 -0.4321
 2310SOL     OW18391   1.862   2.284   8.259  0.0377  0.1321 -0.6871
 2310SOL    HW118392   1.937   2.275   8.200 -0.9259 -0.1527 -1.8575
 2310SOL    HW218393   1.815   2.210   8.220 -0.0359 -0.3754  0.3727
 2311SOL     OW18394   0.244   3.739   8.924 -0.0461  0.2517  0.5468
 2311SOL    HW118395   0.321   3.780   8.963  0.7878  0.9876 -1.9182
 2311SOL    HW218396   0.188   3.806   8.885  2.5709  0.8568 -2.0802
 2312SOL     OW18397   3.549   0.636   2.668 -0.0225 -0.0438 -0.3280
 2312SOL    HW118398   3.486   0.564   2.670 -0.6514  0.4953 -0.8218
 2312SOL    HW218399   3.587   0.620   2.754 -0.2864  1.2873  0.0254
 2313SOL     OW18400   0.106   3.479   7.920 -0.1634 -0.8596 -0.1108
 2313SOL    HW118401   0.010   3.478   7.917 -0.1124 -2.7021 -1.0991
 2313SOL    HW218402   0.127   3.548   7.856  2.0000  0.0144  1.5723
 2314SOL     OW18403   3.565   3.413   1.219  0.4136  0.5750 -0.2815
 2314SOL    HW118404   3.590   3.461   1.298  1.0987 -1.5193  0.7870
 2314SOL    HW218405   3.478   3.448   1.201 -0.7308 -1.4980  1.1357
 2315SOL     OW18406   4.716   4.462   2.681  0.3243 -0.0870 -0.3697
 2315SOL    HW118407   4.689   4.370   2.681  1.5865 -0.4491 -0.9621
 2315SOL    HW218408   0.080   4.468   2.652  0.0479 -0.3325 -1.2800
 2316SOL     OW18409   1.176   3.546  15.431  0.4055  0.0755 -0.1367
 2316SOL    HW118410   1.145   3.617  15.488 -2.2902 -1.5997  0.4530
 2316SOL    HW218411   1.226   3.603  15.373 -0.8536  1.4628  0.1308
 2317SOL     OW18412   2.432   4.716   7.571  1.0669 -0.6697 -0.0955
 2317SOL    HW118413   2.518   4.694   7.606  1.0166 -0.8323 -0.0724
 2317SOL    HW218414   2.377   4.689   7.645 -0.0185  1.0563 -0.2517
 2318SOL     OW18415   3.582   2.611   5.268 -0.2791 -0.1108  0.4192
 2318SOL    HW118416   3.635   2.545   5.223 -0.1592 -0.3011  0.8374
 2318SOL    HW218417   3.629   2.687   5.235  2.1688 -0.8514  2.1627
 2319SOL     OW18418   2.684   2.284   3.883 -0.2547 -0.9612  0.2638
 2319SOL    HW118419   2.773   2.318   3.893 -1.0047  0.1242  3.2610
 2319SOL    HW218420   2.648   2.261   3.968  4.0152  0.4017  2.4486
 2320SOL     OW18421   4.106   0.178   6.475 -0.4464  0.0596  0.7300
 2320SOL    HW118422   4.034   0.117   6.457 -1.7310  2.2744 -1.6143
 2320SOL    HW218423   4.101   0.250   6.411  2.0735 -0.7658 -0.3715
 2321SOL     OW18424   3.858   1.436  16.507 -0.3637  0.2050 -0.6630
 2321SOL    HW118425   3.817   1.492  16.572  1.2422 -0.7518  1.1797
 2321SOL    HW218426   3.942   1.480  16.519 -0.1126 -0.5134  0.2403
 2322SOL     OW18427   2.455   4.256   2.519  0.6426 -0.2491  0.6137
 2322SOL    HW118428   2.444   4.262   2.614  1.9554 -1.1385  0.8168
 2322SOL    HW218429   2.379   4.304   2.486  2.0037  0.1538 -1.9000
 2323SOL     OW18430   3.907   2.723  13.522 -0.6300 -0.0270  0.1135
 2323SOL    HW118431   3.969   2.705  13.592 -0.0533  0.4861 -0.2650
 2323SOL    HW218432   3.828   2.702  13.572 -2.0398  2.1121 -1.2157
 2324SOL     OW18433   0.811   0.238  11.516  0.0902 -0.3924  0.1705
 2324SOL    HW118434   0.775   0.314  11.560  0.1659  0.7103 -1.6892
 2324SOL    HW218435   0.878   0.269  11.455  1.3742 -1.4102  1.0593
 2325SOL     OW18436   4.426   3.209  17.360 -0.8255  0.0012  0.4899
 2325SOL    HW118437   4.501   3.149  17.357 -0.5579  0.5904 -4.9503
 2325SOL    HW218438   4.378   3.172  17.285  2.9860 -1.7500 -1.0606
 2326SOL     OW18439   0.595   2.292  11.192  0.6751  0.7144 -0.5071
 2326SOL    HW118440   0.564   2.232  11.125 -0.1743 -1.2254  1.6035
 2326SOL    HW218441   0.524   2.297  11.256 -1.7065 -0.7403 -3.0421
 2327SOL     OW18442   0.380   1.763  16.518 -0.2971 -0.8311 -0.2187
 2327SOL    HW118443   0.456   1.765  16.575 -0.5705 -0.8280  0.1435
 2327SOL    HW218444   0.408   1.710  16.443 -0.7752 -1.1113 -0.2025
 2328SOL     OW18445   3.594   1.417   9.727 -0.2806 -0.1712  0.5937
 2328SOL    HW118446   3.619   1.353   9.794  0.6882  0.5142  0.8857
 2328SOL    HW218447   3.564   1.360   9.656  2.0216  2.5307 -2.5284
 2329SOL     OW18448   1.642   4.573   4.510 -0.1845  0.1609 -0.6916
 2329SOL    HW118449   1.666   4.617   4.428 -0.9416  0.3043 -0.8343
 2329SOL    HW218450   1.701   4.625   4.565 -1.0277 -1.3101  1.5782
 2330SOL     OW18451   1.178   2.029   2.933 -0.4856  0.1888 -0.0716
 2330SOL    HW118452   1.231   1.983   2.999 -0.0854 -1.5498 -1.6017
 2330SOL    HW218453   1.161   1.956   2.874  3.4481  1.4599 -2.7516
 2331SOL     OW18454   0.311   1.043  12.356 -0.5397 -0.1619  0.6165
 2331SOL    HW118455   0.255   1.108  12.398 -3.4600 -0.0614 -3.3730
 2331SOL    HW218456   0.275   1.047  12.267 -0.6292 -0.2578  0.6476
 2332SOL     OW18457   2.453   3.154  17.501 -0.2837 -0.3470 -0.0814
 2332SOL    HW118458   2.358   3.143  17.498 -0.4123  0.8808 -0.6067
 2332SOL    HW218459   2.479   3.100  17.427  2.1739  0.3748  0.2601
 2333SOL     OW18460   3.991   1.144   4.308  0.1782  0.2403 -0.4074
 2333SOL    HW118461   4.055   1.100   4.364  2.1871 -1.9810 -4.4734
 2333SOL    HW218462   4.040   1.189   4.240  1.9666  0.1688  0.8312
 2334SOL     OW18463   4.024   1.438  11.792 -0.2325 -0.6411 -0.4624
 2334SOL    HW118464   4.021   1.357  11.842  0.4467  0.0366  0.6715
 2334SOL    HW218465   4.110   1.422  11.753  0.4010 -0.1602  0.7650
 2335SOL     OW18466   3.974   4.178   1.848  0.6543  0.0018 -0.4644
 2335SOL    HW118467   3.903   4.124   1.883 -0.5307 -0.0503 -2.9435
 2335SOL    HW218468   3.925   4.261   1.852 -0.0594 -0.4104 -0.6210
 2336SOL     OW18469   0.031   1.251   2.623 -0.1423 -0.4036 -0.2463
 2336SOL    HW118470   0.004   1.161   2.603  0.6866 -1.6488  4.0443
 2336SOL    HW218471   4.690   1.307   2.587 -1.0716 -0.9473  0.6559
 2337SOL     OW18472   1.888   0.693   4.625 -0.3220 -0.0526 -0.4513
 2337SOL    HW118473   1.804   0.735   4.607 -0.3878 -0.7338 -1.7256
 2337SOL    HW218474   1.919   0.705   4.535 -0.8102  0.6524 -0.5228
 2338SOL     OW18475   1.978   3.221  10.066 -0.7671  0.2692 -0.9980
 2338SOL    HW118476   2.071   3.203  10.054 -0.8533  0.1179 -1.4386
 2338SOL    HW218477   1.931   3.163  10.006 -1.9206 -1.4358  1.5387
 2339SOL     OW18478   1.924   1.501  10.296  0.6321  0.2138  0.5547
 2339SOL    HW118479   1.981   1.524  10.369  0.5140  2.4949 -0.0503
 2339SOL    HW218480   1.838   1.531  10.324  1.0342  1.8522  0.0483
 2340SOL     OW18481   4.036   1.071   7.118  0.3221  0.1012  0.0134
 2340SOL    HW118482   4.101   1.023   7.067 -1.5997 -2.8059  0.2781
 2340SOL    HW218483   4.015   1.145   7.062  1.3033 -0.3447 -0.9459
 2341SOL     OW18484   0.845   2.723   7.028  0.1577  0.1532 -0.4618
 2341SOL    HW118485   0.871   2.698   6.939 -0.3690  2.1133 -1.1473
 2341SOL    HW218486   0.931   2.737   7.069 -0.6031  2.8756  0.2139
 2342SOL     OW18487   1.854   4.121   4.637  0.1175 -0.4455  0.4910
 2342SOL    HW118488   1.830   4.031   4.615 -0.5944 -0.6210  2.0563
 2342SOL    HW218489   1.809   4.150   4.716  1.1783  0.8180  0.6253
 2343SOL     OW18490   3.051   3.983   4.680  0.4282 -0.0765 -0.2905
 2343SOL    HW118491   2.983   3.922   4.708 -1.8277  2.4009 -0.3175
 2343SOL    HW218492   3.004   4.060   4.648 -1.5201 -0.1971  2.2160
 2344SOL     OW18493   0.015   0.122   5.075 -0.0661 -0.4108  0.2472
 2344SOL    HW118494   0.068   0.147   5.151  1.1278  2.0213 -1.3934
 2344SOL    HW218495   0.089   0.088   5.024 -0.7015 -3.3091  1.2937
 2345SOL     OW18496   2.535   3.671   4.440 -0.6041  0.2610  0.0480
 2345SOL    HW118497   2.484   3.667   4.359 -2.4979 -1.2556  1.3104
 2345SOL    HW218498   2.591   3.598   4.414 -0.2778  0.4020  0.3522
 2346SOL     OW18499   1.825   3.402  15.168 -0.4014  0.1726  0.5498
 2346SOL    HW118500   1.799   3.439  15.083  1.1503  0.4619  0.1905
 2346SOL    HW218501   1.920   3.413  15.177 -0.3770 -1.0328  1.6674
 2347SOL     OW18502   2.382   3.415   7.743  0.2776 -0.4513  0.1049
 2347SOL    HW118503   2.468   3.426   7.784 -0.3132 -0.5904  1.3737
 2347SOL    HW218504   2.356   3.505   7.727 -0.9041 -0.8180 -0.0305
 2348SOL     OW18505   3.378   2.304  14.679  0.0206 -0.0627 -0.7907
 2348SOL    HW118506   3.390   2.378  14.738 -0.3124  0.6524 -1.6254
 2348SOL    HW218507   3.451   2.247  14.706  0.1847  0.8401  0.6704
 2349SOL     OW18508   0.446   3.181   4.764 -0.1454  0.0421  0.2567
 2349SOL    HW118509   0.402   3.098   4.784  0.0445 -0.4446 -1.3923
 2349SOL    HW218510   0.484   3.200   4.850 -0.6251  1.4280  0.1708
 2350SOL     OW18511   2.306   1.009  10.317 -0.2865  0.5013  0.0971
 2350SOL    HW118512   2.335   0.957  10.243 -0.1331 -0.3055  0.7193
 2350SOL    HW218513   2.335   0.957  10.392 -0.0321 -0.3009 -0.5573
 2351SOL     OW18514   3.709   2.794   6.833 -0.0505 -0.6584  0.0293
 2351SOL    HW118515   3.748   2.844   6.762  2.7080 -0.4654  1.6471
 2351SOL    HW218516   3.730   2.703   6.810 -0.8508 -0.3553 -1.8959
 2352SOL     OW18517   0.876   2.264   6.616  0.6602  0.1753  0.4178
 2352SOL    HW118518   0.786   2.254   6.583  1.7785 -2.4717 -1.8028
 2352SOL    HW218519   0.905   2.175   6.594 -1.8889 -0.4517 -0.4975
 2353SOL     OW18520   2.332   1.882   0.586 -0.2437 -0.2424 -0.0895
 2353SOL    HW118521   2.257   1.928   0.549  1.1391  1.8736 -0.2634
 2353SOL    HW218522   2.286   1.837   0.656  0.1844  1.1835  1.1083
 2354SOL     OW18523   1.794   1.680   9.472 -0.6347 -0.3520 -0.0188
 2354SOL    HW118524   1.847   1.715   9.544 -1.6262  1.1894 -0.0443
 2354SOL    HW218525   1.865   1.649   9.416  1.2008 -0.0553  2.1625
 2355SOL     OW18526   4.488   0.340   2.999 -0.2108  0.3014 -0.2016
 2355SOL    HW118527   4.563   0.290   2.968 -1.2835 -1.2346 -0.2926
 2355SOL    HW218528   4.434   0.267   3.028  2.2572 -1.2143  0.6095
 2356SOL     OW18529   1.958   1.891   0.860 -0.1415 -0.0186  0.7575
 2356SOL    HW118530   1.897   1.842   0.916 -0.5984  0.2168  0.4656
 2356SOL    HW218531   1.968   1.967   0.917  0.4736  1.1132 -0.8583
 2357SOL     OW18532   3.752   0.775  16.369 -0.3235  0.0732  1.0781
 2357SOL    HW118533   3.827   0.731  16.330 -0.9940  0.7552 -1.0029
 2357SOL    HW218534   3.793   0.858  16.393  0.3008 -0.3298  1.4125
 2358SOL     OW18535   4.081   2.901   0.228  0.6193  0.2908 -0.0608
 2358SOL    HW118536   4.103   2.839   0.159 -0.5351  0.6580 -0.7604
 2358SOL    HW218537   4.002   2.863   0.268 -0.0705  0.3154 -1.4098
 2359SOL     OW18538   2.022   4.713   7.087  0.0840  0.7905  0.5212
 2359SOL    HW118539   2.010   0.051   7.157  1.4548  0.1901  1.3112
 2359SOL    HW218540   2.036   4.639   7.146  0.6095  0.6927  0.2693
 2360SOL     OW18541   4.550   1.583  16.301  0.0697  0.4353 -0.5130
 2360SOL    HW118542   4.620   1.599  16.364 -0.1071  0.9359 -0.4465
 2360SOL    HW218543   4.576   1.493  16.280  2.0742  1.0173 -0.4698
 2361SOL     OW18544   0.137   3.990   4.428 -0.2338  0.1389  0.9155
 2361SOL    HW118545   0.140   3.945   4.512 -1.7426  0.3493  1.0853
 2361SOL    HW218546   0.077   3.939   4.373  1.6958  0.2177 -1.2895
 2362SOL     OW18547   3.869   1.445   3.106  0.1958 -0.4416 -0.2847
 2362SOL    HW118548   3.872   1.473   3.015  1.0977 -0.7857 -0.3559
 2362SOL    HW218549   3.888   1.530   3.146  4.0200 -0.0161 -2.9936
 2363SOL     OW18550   3.670   2.420   8.909 -0.3120  0.5137  0.3683
 2363SOL    HW118551   3.705   2.451   8.825  0.8678  2.1371  1.4793
 2363SOL    HW218552   3.578   2.442   8.897 -0.8735 -1.5389  0.8307
 2364SOL     OW18553   1.714   0.946   8.995  0.2835  0.7006 -0.4243
 2364SOL    HW118554   1.795   0.956   8.946 -0.1804  0.2014 -1.2986
 2364SOL    HW218555   1.698   1.036   9.023  1.2251  0.5714  0.5191
 2365SOL     OW18556   3.294   2.105   0.922 -0.2879 -0.8373 -0.3239
 2365SOL    HW118557   3.337   2.054   0.854  0.6473 -1.8336  1.0078
 2365SOL    HW218558   3.371   2.137   0.969 -0.7161  0.3018 -0.4011
 2366SOL     OW18559   3.236   4.009   6.599 -0.1488 -0.0610 -0.0678
 2366SOL    HW118560   3.218   3.953   6.523 -1.6739 -0.0709  0.3009
 2366SOL    HW218561   3.196   3.963   6.672 -0.1822 -1.5106 -0.9945
 2367SOL     OW18562   3.218   3.707  15.611  0.0222  0.0252 -0.1224
 2367SOL    HW118563   3.299   3.758  15.617  1.0940 -1.5198 -1.4249
 2367SOL    HW218564   3.148   3.773  15.607 -0.6904 -0.7755 -0.9999
 2368SOL     OW18565   4.352   0.370   5.574  0.0564  0.0746  0.2477
 2368SOL    HW118566   4.400   0.292   5.604 -1.0481 -1.0591 -0.8997
 2368SOL    HW218567   4.346   0.420   5.656 -0.8028  0.9767 -0.3704
 2369SOL     OW18568   2.431   0.154   2.867  0.4928  0.5865  0.5390
 2369SOL    HW118569   2.406   0.075   2.819  2.6241 -1.6756  3.1775
 2369SOL    HW218570   2.520   0.133   2.896  0.7168  2.0536  0.9122
 2370SOL     OW18571   0.265   2.924  11.158  0.3437 -0.2464  0.6253
 2370SOL    HW118572   0.190   2.973  11.193  2.2528  0.4699  3.6731
 2370SOL    HW218573   0.248   2.940  11.065  0.6805 -2.7366  0.1468
 2371SOL     OW18574   3.499   2.095   2.080 -0.3990 -0.2451 -0.5340
 2371SOL    HW118575   3.540   2.045   2.150 -2.9763 -1.0671  0.4102
 2371SOL    HW218576   3.568   2.155   2.052 -0.9835  0.4440 -0.5197
 2372SOL     OW18577   3.405   4.375   9.946 -0.0524 -0.1220  0.1041
 2372SOL    HW118578   3.336   4.335   9.999  0.1297 -1.1216 -0.4173
 2372SOL    HW218579   3.357   4.399   9.867 -1.0043 -1.3878  0.2989
 2373SOL     OW18580   2.724   4.696   2.703 -0.2246  1.1705 -0.4097
 2373SOL    HW118581   2.738   4.683   2.797  1.3308  3.0739 -0.3932
 2373SOL    HW218582   2.632   4.672   2.692  0.9767 -1.7767 -3.9344
 2374SOL     OW18583   4.139   0.967   9.373 -0.0104  0.3004 -0.7890
 2374SOL    HW118584   4.070   0.966   9.306  0.6592 -0.2686 -1.4629
 2374SOL    HW218585   4.145   1.063   9.375  0.7767  0.2093  0.7747
 2375SOL     OW18586   2.991   0.171   2.667 -0.0446 -0.1512  0.5425
 2375SOL    HW118587   2.897   0.184   2.655  0.2715  0.3001 -1.4852
 2375SOL    HW218588   3.024   0.157   2.578  0.5688  0.5702  0.6483
 2376SOL     OW18589   1.112   0.625   2.010 -0.5116  0.4534 -0.2958
 2376SOL    HW118590   1.072   0.538   2.008 -0.5880  0.5009 -0.9930
 2376SOL    HW218591   1.090   0.651   1.920 -0.9880 -0.1802 -0.3635
 2377SOL     OW18592   2.327   1.713  13.624 -0.4022  0.8949 -0.1733
 2377SOL    HW118593   2.243   1.677  13.652 -0.0091 -1.1950 -1.7085
 2377SOL    HW218594   2.325   1.807  13.644  1.5098  1.0700 -0.8214
 2378SOL     OW18595   1.494   0.748   3.926 -0.1172 -0.3496  0.1506
 2378SOL    HW118596   1.479   0.673   3.868  2.3836 -0.7007 -0.0610
 2378SOL    HW218597   1.413   0.797   3.913 -0.5406 -0.7974  1.1281
 2379SOL     OW18598   2.269   1.569   6.088  0.2739 -0.1975 -0.1276
 2379SOL    HW118599   2.343   1.624   6.113  1.8785 -2.4917  0.1350
 2379SOL    HW218600   2.196   1.597   6.144  0.6198 -1.1603  0.7915
 2380SOL     OW18601   0.057   0.735   8.126 -0.0726 -0.0349  0.0965
 2380SOL    HW118602   0.066   0.829   8.109  1.1913 -0.4404 -1.4207
 2380SOL    HW218603   4.689   0.729   8.135  0.0686 -2.8337 -0.2692
 2381SOL     OW18604   1.297   0.964   7.599 -0.0943  0.5445 -0.2638
 2381SOL    HW118605   1.212   0.935   7.631  0.8655  1.1771  2.8576
 2381SOL    HW218606   1.274   0.995   7.511  0.2702 -1.0102 -0.9102
 2382SOL     OW18607   1.649   1.265   8.732  0.4954  0.1296 -0.0102
 2382SOL    HW118608   1.613   1.213   8.661  0.1237  0.2556  0.0886
 2382SOL    HW218609   1.607   1.350   8.722  0.6500  0.5577  3.0030
 2383SOL     OW18610   0.489   4.310   2.706  0.3948 -0.1449  0.3521
 2383SOL    HW118611   0.469   4.372   2.776 -0.4473  0.9802 -0.9011
 2383SOL    HW218612   0.579   4.284   2.729  0.4528 -0.2233  0.0459
 2384SOL     OW18613   0.155   3.268  13.973  0.5178 -0.4392  0.4159
 2384SOL    HW118614   0.099   3.346  13.973  1.1698  0.0278  0.8911
 2384SOL    HW218615   0.224   3.300  14.031 -0.1916  0.4023  0.8047
 2385SOL     OW18616   0.266   4.553   2.093 -0.9914 -0.0940 -0.4298
 2385SOL    HW118617   0.345   4.500   2.106 -0.7624 -0.0130 -1.4800
 2385SOL    HW218618   0.253   4.549   1.998  2.0272  2.6355 -0.9478
 2386SOL     OW18619   3.830   2.923   4.683 -0.0902  0.0162  0.4327
 2386SOL    HW118620   3.755   2.982   4.673 -0.4717 -0.5677 -0.1953
 2386SOL    HW218621   3.794   2.835   4.671  1.2002 -0.5343  0.6785
 2387SOL     OW18622   1.936   0.099   4.409 -0.4630 -0.3603 -0.0079
 2387SOL    HW118623   1.912   0.145   4.329 -1.5502 -1.0618 -0.0815
 2387SOL    HW218624   1.953   0.011   4.375 -0.8196 -0.2459 -0.4885
 2388SOL     OW18625   2.507   4.539   6.774 -0.1735 -0.1921  0.9393
 2388SOL    HW118626   2.487   4.601   6.844  1.8116 -1.5198  2.6796
 2388SOL    HW218627   2.422   4.502   6.748 -1.4964  2.3306  1.7119
 2389SOL     OW18628   3.526   3.078   4.283 -0.2034  0.0372  0.1030
 2389SOL    HW118629   3.456   3.096   4.347  1.8940 -0.2674  2.4558
 2389SOL    HW218630   3.540   3.172   4.268  0.9589 -0.2389 -0.5189
 2390SOL     OW18631   1.330   4.351   5.561 -1.2000 -0.2517 -0.1342
 2390SOL    HW118632   1.426   4.356   5.558 -1.0817 -1.7707  1.1134
 2390SOL    HW218633   1.310   4.333   5.469  0.0927  0.4127 -0.5405
 2391SOL     OW18634   1.361   1.245   3.581  0.2140  0.2712 -0.2845
 2391SOL    HW118635   1.400   1.224   3.665 -0.7817 -0.7241 -0.0705
 2391SOL    HW218636   1.302   1.319   3.599 -1.9568 -1.0282 -2.0146
 2392SOL     OW18637   4.107   0.084   4.302 -0.2693  0.1867 -0.7780
 2392SOL    HW118638   4.088   0.088   4.208 -0.3237 -0.6332 -0.7957
 2392SOL    HW218639   4.162   0.006   4.303  0.1535  0.4907  0.1134
 2393SOL     OW18640   3.981   1.194   3.098 -0.2600  0.4392 -0.2098
 2393SOL    HW118641   3.956   1.156   3.182  1.3920  1.7947  0.9002
 2393SOL    HW218642   3.948   1.284   3.101 -1.8386 -0.1940  1.4170
 2394SOL     OW18643   0.260   1.878  15.314 -0.0231  0.2161  0.0378
 2394SOL    HW118644   0.286   1.920  15.231 -0.2270 -0.4243 -0.3491
 2394SOL    HW218645   0.350   1.861  15.343 -0.8397 -3.2811  0.4747
 2395SOL     OW18646   2.238   2.400   4.019 -0.0962 -0.4245  0.2976
 2395SOL    HW118647   2.253   2.346   3.941 -0.2797  1.6904 -1.2261
 2395SOL    HW218648   2.147   2.427   4.006  1.1987  3.3616 -1.1354
 2396SOL     OW18649   0.748   2.844   9.670  0.0788  0.1987  0.4861
 2396SOL    HW118650   0.665   2.884   9.647  1.4454  1.2642 -2.5826
 2396SOL    HW218651   0.728   2.822   9.761  1.7192 -1.5738  0.4176
 2397SOL     OW18652   2.544   4.567   7.120  0.6351 -0.3606 -0.1828
 2397SOL    HW118653   2.488   4.643   7.137  0.5363 -0.6354  0.6841
 2397SOL    HW218654   2.617   4.611   7.076 -1.9348  2.1554 -1.9007
 2398SOL     OW18655   2.414   1.217   2.585  0.1785 -0.3171 -0.0418
 2398SOL    HW118656   2.319   1.205   2.589  0.2752 -1.1842 -0.2905
 2398SOL    HW218657   2.421   1.234   2.491  0.4395 -3.8492 -0.6838
 2399SOL     OW18658   1.269   3.904   6.047  0.1811 -0.1641 -0.3008
 2399SOL    HW118659   1.283   3.999   6.042  1.7736 -0.4030 -0.3766
 2399SOL    HW218660   1.355   3.862   6.046  0.1192 -0.2390 -2.6766
 2400SOL     OW18661   2.591   0.576  13.775 -0.1571 -0.1559 -0.3298
 2400SOL    HW118662   2.553   0.660  13.801  1.0299  0.0331  0.8310
 2400SOL    HW218663   2.520   0.512  13.779 -1.0365  0.8807  0.7373
 2401SOL     OW18664   1.189   4.120   4.187 -0.3825 -0.4552 -0.1346
 2401SOL    HW118665   1.101   4.085   4.174 -0.2726 -0.4564 -0.8868
 2401SOL    HW218666   1.242   4.065   4.129  1.0944 -0.7542  1.4969
 2402SOL     OW18667   1.498   0.895   4.371 -0.1569 -0.4422 -0.1585
 2402SOL    HW118668   1.490   0.818   4.316 -1.8298 -1.2121  1.1751
 2402SOL    HW218669   1.571   0.937   4.325 -1.0338  0.9808 -0.2695
 2403SOL     OW18670   4.064   1.610  16.550  0.2497  1.0933  0.1798
 2403SOL    HW118671   4.145   1.582  16.592 -0.3791 -1.7307 -0.5357
 2403SOL    HW218672   4.095   1.629  16.462 -1.6137  0.5699 -0.6063
 2404SOL     OW18673   2.094   3.929   3.009 -0.0941  0.3415 -0.5382
 2404SOL    HW118674   2.020   3.898   2.958 -1.4555  1.8604  0.5058
 2404SOL    HW218675   2.059   3.997   3.067  1.3446 -2.4126  3.5243
 2405SOL     OW18676   0.306   3.182   3.180  0.1597  0.2449 -0.0193
 2405SOL    HW118677   0.360   3.169   3.102 -0.7558  2.3858 -1.0274
 2405SOL    HW218678   0.308   3.096   3.220 -2.8327  1.7266  3.2638
 2406SOL     OW18679   2.264   3.794   3.775  0.6671 -0.2280 -0.1773
 2406SOL    HW118680   2.287   3.849   3.850 -0.8695  0.5097 -0.2494
 2406SOL    HW218681   2.341   3.737   3.777 -1.0313 -2.5793 -1.8154
 2407SOL     OW18682   4.521   4.512   6.676 -0.0258  0.1759  0.1406
 2407SOL    HW118683   4.432   4.478   6.674 -0.0327  0.2833 -1.5669
 2407SOL    HW218684   4.499   4.599   6.709  3.4813  0.8800  0.5646
 2408SOL     OW18685   4.188   3.928   3.229 -0.8101 -0.0946 -0.1994
 2408SOL    HW118686   4.269   3.979   3.237 -0.5453 -0.6581  0.7662
 2408SOL    HW218687   4.165   3.929   3.322 -1.0173  1.1722 -0.2755
 2409SOL     OW18688   3.912   1.731   4.968 -0.2258  0.2521 -0.3830
 2409SOL    HW118689   3.919   1.818   4.927  1.6029  0.4766  0.4373
 2409SOL    HW218690   3.827   1.740   5.010 -0.8718 -0.8563 -1.4452
 2410SOL     OW18691   0.526   3.671  17.468 -0.4886 -0.4584 -0.8207
 2410SOL    HW118692   0.443   3.652  17.511 -0.4795  0.3351 -0.4658
 2410SOL    HW218693   0.527   3.766  17.467 -0.5148 -0.4559 -0.6400
 2411SOL     OW18694   2.147   4.656   6.243  0.2017  0.0484 -0.1691
 2411SOL    HW118695   2.202   4.596   6.293 -0.5839 -2.4919 -2.3567
 2411SOL    HW218696   2.063   4.661   6.289  0.0269  1.6764 -0.6460
 2412SOL     OW18697   4.427   3.627   6.422  0.0653 -0.3457 -0.3316
 2412SOL    HW118698   4.472   3.705   6.389  1.3355 -1.1602 -0.4856
 2412SOL    HW218699   4.438   3.638   6.516 -0.2605  2.5120 -0.6032
 2413SOL     OW18700   4.178   2.030   1.486  0.1399  0.1530 -0.0520
 2413SOL    HW118701   4.195   1.982   1.567 -2.2414  0.3809  0.5700
 2413SOL    HW218702   4.100   2.075   1.520 -0.7328 -1.2821 -0.1770
 2414SOL     OW18703   1.280   0.359  10.552  0.1732  0.5786 -0.1329
 2414SOL    HW118704   1.299   0.342  10.459  0.4357 -0.9377  0.1995
 2414SOL    HW218705   1.235   0.277  10.572  1.7913 -0.7310 -1.8757
 2415SOL     OW18706   2.320   4.444   7.113 -0.2796  0.0882  0.3447
 2415SOL    HW118707   2.310   4.451   7.208 -1.4484  0.0348  0.2196
 2415SOL    HW218708   2.410   4.476   7.112 -0.0166 -0.6597  0.0923
 2416SOL     OW18709   0.091   0.776  11.517  0.2178 -1.1474 -0.4267
 2416SOL    HW118710   0.068   0.738  11.603  1.3560  0.3750  0.5484
 2416SOL    HW218711   0.092   0.699  11.460 -1.0993 -0.7523 -0.9883
 2417SOL     OW18712   1.846   1.708   6.022 -0.0211  0.2218  0.0573
 2417SOL    HW118713   1.819   1.695   6.113 -2.5603  0.9380 -0.6049
 2417SOL    HW218714   1.793   1.643   5.977  1.3694 -1.2649  0.5236
 2418SOL     OW18715   3.032   2.131  14.977 -0.6112 -0.6322  0.0632
 2418SOL    HW118716   3.022   2.224  14.996  1.6087 -0.2964 -0.3760
 2418SOL    HW218717   3.090   2.133  14.901 -0.6800  1.3436  0.0485
 2419SOL     OW18718   1.962   0.143   5.020  0.1926 -0.4648 -0.1542
 2419SOL    HW118719   2.004   0.222   4.986 -2.1317  1.3532  1.2245
 2419SOL    HW218720   2.027   0.076   5.000  0.8839 -0.3165  1.5888
 2420SOL     OW18721   0.662   1.386   1.655  0.3606  0.2999  0.0594
 2420SOL    HW118722   0.575   1.395   1.615 -0.6357 -0.8905  1.9536
 2420SOL    HW218723   0.646   1.410   1.746  2.2095 -1.3307  0.8187
 2421SOL     OW18724   0.034   0.181   3.873  0.3746  0.1401 -0.0121
 2421SOL    HW118725   0.076   0.096   3.886 -0.3529 -0.2632 -0.2682
 2421SOL    HW218726   0.062   0.232   3.949  0.3217  1.1130 -0.6488
 2422SOL     OW18727   1.769   4.127  14.844  0.5870 -0.2214 -0.2719
 2422SOL    HW118728   1.731   4.062  14.784  1.4528 -2.6858  1.8657
 2422SOL    HW218729   1.731   4.209  14.814  1.0307  0.3031  0.6157
 2423SOL     OW18730   3.403   4.671   4.862 -0.0413  0.3026  0.2515
 2423SOL    HW118731   3.443   0.010   4.806 -0.6337 -0.2245 -0.7992
 2423SOL    HW218732   3.315   4.700   4.886  0.6149  1.9393  0.6743
 2424SOL     OW18733   4.045   0.115   9.449 -0.6298  0.4705  0.0366
 2424SOL    HW118734   4.037   0.206   9.477 -0.4257  0.4954  0.0104
 2424SOL    HW218735   3.968   0.070   9.485  0.1641  0.2713  1.4725
 2425SOL     OW18736   1.294   2.781   0.916  0.1283  0.4423  0.0856
 2425SOL    HW118737   1.286   2.875   0.901  0.3140  0.2540 -1.1782
 2425SOL    HW218738   1.218   2.745   0.872  0.1494  1.7691 -1.0516
 2426SOL     OW18739   1.221   1.523   7.598  0.1211 -0.2358 -0.2894
 2426SOL    HW118740   1.301   1.528   7.544 -0.0143  1.7140 -0.2959
 2426SOL    HW218741   1.258   1.563   7.676 -0.8134  0.5050 -0.2313
 2427SOL     OW18742   0.392   2.214   5.951  0.1874  0.0995  0.2124
 2427SOL    HW118743   0.486   2.197   5.957  0.4774  1.0696 -1.4351
 2427SOL    HW218744   0.385   2.264   5.869 -1.0808 -0.1534  0.1780
 2428SOL     OW18745   3.694   0.495   8.129  0.0209  0.3831  0.0486
 2428SOL    HW118746   3.711   0.416   8.181 -1.1681 -1.0630 -1.7402
 2428SOL    HW218747   3.668   0.449   8.049 -2.2892 -0.8960  1.5444
 2429SOL     OW18748   4.475   1.863  14.708 -0.1761 -0.1055 -0.3545
 2429SOL    HW118749   4.482   1.825  14.621  0.0662  0.2970 -0.5103
 2429SOL    HW218750   4.493   1.952  14.679  0.0494 -0.1337 -0.3015
 2430SOL     OW18751   1.485   0.858  10.457  0.1353  0.2311  0.2769
 2430SOL    HW118752   1.503   0.798  10.529  1.9725  1.0711  0.5061
 2430SOL    HW218753   1.570   0.855  10.414  0.3520  0.0761  0.7241
 2431SOL     OW18754   2.869   0.117   4.843  0.3347  0.3746  0.2696
 2431SOL    HW118755   2.869   0.212   4.848 -1.2267  0.3576  0.5371
 2431SOL    HW218756   2.802   0.095   4.908  0.3302  1.2536  0.5583
 2432SOL     OW18757   1.948   1.816   7.317 -0.5104 -0.0572 -0.5125
 2432SOL    HW118758   1.863   1.798   7.357 -1.8888 -0.4481 -3.6098
 2432SOL    HW218759   1.910   1.878   7.255 -1.0099  0.1538 -0.0053
 2433SOL     OW18760   0.863   3.948   7.347 -0.5943 -0.2032  0.0660
 2433SOL    HW118761   0.905   3.945   7.434  1.6341  2.1228 -0.9311
 2433SOL    HW218762   0.774   3.964   7.378 -0.4726  1.0291 -0.2365
 2434SOL     OW18763   3.349   0.842  16.322  0.1077  0.3618 -0.2997
 2434SOL    HW118764   3.428   0.820  16.272  0.5291 -0.1181  0.5782
 2434SOL    HW218765   3.319   0.919  16.273  0.5396 -1.2405 -3.0434
 2435SOL     OW18766   1.581   1.123   7.893 -0.2127  0.0374 -0.2815
 2435SOL    HW118767   1.654   1.118   7.830  0.4132 -1.8556  0.5984
 2435SOL    HW218768   1.561   1.031   7.904 -0.5879  0.3309  1.3907
 2436SOL     OW18769   1.824   0.104   3.197  0.2635  0.2509  0.0395
 2436SOL    HW118770   1.821   0.198   3.217  2.4583  0.2806  0.1734
 2436SOL    HW218771   1.898   0.079   3.252  0.6768  1.5821  0.0845
 2437SOL     OW18772   0.493   2.495  16.446 -0.7471 -0.2871 -0.1279
 2437SOL    HW118773   0.582   2.464  16.464 -0.2141  0.8345 -0.8484
 2437SOL    HW218774   0.499   2.590  16.435 -0.4113 -0.4512 -1.3678
 2438SOL     OW18775   2.564   3.339   2.570  0.3882  0.9695 -0.0454
 2438SOL    HW118776   2.585   3.418   2.521 -1.7203  0.4894 -1.6879
 2438SOL    HW218777   2.601   3.270   2.515 -0.6050  0.4777 -0.0998
 2439SOL     OW18778   0.676   2.303   1.003 -0.0429 -0.1523  0.4788
 2439SOL    HW118779   0.621   2.234   0.966 -0.4469 -0.4514  1.6460
 2439SOL    HW218780   0.621   2.360   1.056 -0.4301  0.8322 -0.9746
 2440SOL     OW18781   4.134   0.607  14.399 -0.0497  0.4438 -0.8648
 2440SOL    HW118782   4.180   0.683  14.363 -1.0601  1.1855 -0.5667
 2440SOL    HW218783   4.057   0.603  14.343  0.5839 -0.7587 -1.6302
 2441SOL     OW18784   0.988   4.506  11.360 -0.3995 -0.1890 -0.0622
 2441SOL    HW118785   1.070   4.554  11.350  0.8853 -2.1868  0.7103
 2441SOL    HW218786   0.930   4.565  11.408 -0.2212  0.1426 -0.2570
 2442SOL     OW18787   1.658   2.033   1.352 -0.2024 -0.8514  0.1814
 2442SOL    HW118788   1.687   1.941   1.356 -1.0072 -1.1515 -0.7917
 2442SOL    HW218789   1.562   2.031   1.358 -0.1511 -0.1918  1.1729
 2443SOL     OW18790   2.079   2.914  10.433 -0.0790 -0.9668 -0.0588
 2443SOL    HW118791   2.081   2.868  10.517  0.5571 -0.6360  0.1028
 2443SOL    HW218792   1.984   2.919  10.446  0.1279  1.2865  0.6112
 2444SOL     OW18793   1.332   0.593  10.321  0.1492  0.1579 -0.4442
 2444SOL    HW118794   1.415   0.604  10.275  2.2108  0.9438  3.4159
 2444SOL    HW218795   1.335   0.497  10.315 -1.2323  0.1563 -1.0906
 2445SOL     OW18796   0.830   3.120   0.901 -0.2719  0.7110  0.1719
 2445SOL    HW118797   0.860   3.058   0.968  1.6532  0.5835 -0.8032
 2445SOL    HW218798   0.738   3.098   0.912 -0.5483  1.6969 -0.1335
 2446SOL     OW18799   2.629   2.652   2.721 -0.6798 -0.4475  0.1944
 2446SOL    HW118800   2.642   2.746   2.726  0.4905 -0.6226  0.6129
 2446SOL    HW218801   2.660   2.627   2.633 -0.4487  1.2310 -0.1957
 2447SOL     OW18802   0.891   2.448   4.551 -0.5985  0.4125 -0.5876
 2447SOL    HW118803   0.913   2.406   4.468 -1.2190 -1.3226  0.1121
 2447SOL    HW218804   0.890   2.539   4.521 -0.6999  0.3468 -0.7797
 2448SOL     OW18805   0.700   3.901  13.697 -0.3499 -0.6674 -0.5995
 2448SOL    HW118806   0.738   3.915  13.783  0.4204  0.2382 -1.0773
 2448SOL    HW218807   0.613   3.937  13.716  0.6879  0.8039  1.2841
 2449SOL     OW18808   4.030   4.028   5.481  0.5325 -0.8733 -0.0484
 2449SOL    HW118809   4.054   4.016   5.389  2.6481 -0.9037  0.4992
 2449SOL    HW218810   4.056   3.941   5.512  1.6122 -0.6925 -0.4258
 2450SOL     OW18811   2.321   1.401   8.719 -0.2643 -0.8626 -0.6983
 2450SOL    HW118812   2.253   1.374   8.780 -0.8002  3.5526  0.6801
 2450SOL    HW218813   2.397   1.387   8.775 -0.1054  2.3079 -0.0800
 2451SOL     OW18814   1.301   1.330   7.120 -0.2691  0.3295 -0.4125
 2451SOL    HW118815   1.270   1.343   7.209  1.0833  0.0353  0.1004
 2451SOL    HW218816   1.272   1.414   7.084 -1.7592 -1.3723 -3.2400
 2452SOL     OW18817   4.367   0.464   7.765  0.1297  0.5802 -0.1863
 2452SOL    HW118818   4.437   0.452   7.701 -1.8347  0.5862 -2.3583
 2452SOL    HW218819   4.295   0.415   7.725  0.3989 -0.0530  0.1073
 2453SOL     OW18820   4.644   1.158   7.409 -0.8961  0.2294 -0.5420
 2453SOL    HW118821   4.714   1.223   7.399 -0.9808  0.2673 -0.8729
 2453SOL    HW218822   4.634   1.160   7.504 -1.4830 -0.7783 -0.5784
 2454SOL     OW18823   2.549   2.827  15.911 -1.1518 -0.3959 -0.6967
 2454SOL    HW118824   2.627   2.876  15.936 -1.4132  0.6062 -1.8108
 2454SOL    HW218825   2.544   2.840  15.816  0.8737 -3.2721 -1.1832
 2455SOL     OW18826   1.541   4.195  11.670 -0.7022  0.1978  0.0234
 2455SOL    HW118827   1.608   4.129  11.687  0.6719  1.8050  0.8686
 2455SOL    HW218828   1.470   4.145  11.710  0.6815 -1.7040  0.0897
 2456SOL     OW18829   3.726   2.309   1.944  0.4949  0.4345  0.6616
 2456SOL    HW118830   3.645   2.355   1.921 -0.6828 -1.2300  1.4182
 2456SOL    HW218831   3.787   2.331   1.873  0.2960  1.1061  0.7042
 2457SOL     OW18832   2.975   2.344   4.679  0.0902  0.7346  0.2310
 2457SOL    HW118833   3.021   2.350   4.762  0.8186 -0.5123 -0.0707
 2457SOL    HW218834   2.910   2.413   4.690 -0.6632  0.0569  0.0039
 2458SOL     OW18835   2.481   2.996   7.539  0.0583  0.0277  0.0436
 2458SOL    HW118836   2.452   3.041   7.459  0.4857 -0.2454 -0.2648
 2458SOL    HW218837   2.457   2.906   7.515  0.5306 -0.3408  0.9875
 2459SOL     OW18838   3.835   1.494   4.053  0.0755 -0.0634  0.0505
 2459SOL    HW118839   3.904   1.525   4.112  1.1327 -1.8520 -0.2499
 2459SOL    HW218840   3.762   1.508   4.114  0.3086  0.4127  0.2221
 2460SOL     OW18841   1.842   1.078   8.753  0.1996  0.0457 -0.1580
 2460SOL    HW118842   1.909   1.092   8.686 -0.2526  0.1955 -0.5758
 2460SOL    HW218843   1.779   1.150   8.748 -0.3068 -0.2128  2.6613
 2461SOL     OW18844   0.710   0.313   2.051 -0.7107 -0.6457  0.1058
 2461SOL    HW118845   0.622   0.341   2.024 -0.4911  0.8043  0.9276
 2461SOL    HW218846   0.687   0.260   2.128 -0.7934 -1.1454 -0.2580
 2462SOL     OW18847   1.135   0.963  12.664  0.4931 -0.2199 -0.4546
 2462SOL    HW118848   1.165   0.888  12.715  1.3216 -0.6199 -1.5212
 2462SOL    HW218849   1.160   1.037  12.719 -0.4439  0.1415 -0.5087
 2463SOL     OW18850   0.625   1.230  12.374  0.7875 -0.4328  0.1003
 2463SOL    HW118851   0.649   1.299  12.435  1.2458  0.2072 -0.8009
 2463SOL    HW218852   0.703   1.236  12.319  0.1525  1.2784 -0.6136
 2464SOL     OW18853   2.718   4.181  10.979 -0.0545  0.0107 -0.1529
 2464SOL    HW118854   2.647   4.174  11.043 -2.2052 -0.5483 -2.5692
 2464SOL    HW218855   2.686   4.245  10.915 -0.4483  0.5652  0.5986
 2465SOL     OW18856   1.302   3.182   7.454 -0.0766  0.8175  0.1670
 2465SOL    HW118857   1.289   3.268   7.414  0.6755  0.0327 -1.7773
 2465SOL    HW218858   1.355   3.140   7.386  1.4568  0.0486  1.8451
 2466SOL     OW18859   2.539   4.259   3.243 -0.5049  0.8165 -0.7388
 2466SOL    HW118860   2.558   4.346   3.209 -0.8870  0.2281 -2.4498
 2466SOL    HW218861   2.597   4.245   3.317 -0.4113 -2.0725 -1.3666
 2467SOL     OW18862   2.010   3.039   3.213 -0.1621  0.3597 -0.3811
 2467SOL    HW118863   2.003   3.088   3.131  0.2182  0.9554 -0.0570
 2467SOL    HW218864   1.927   3.066   3.252  0.5706  2.1954 -0.0815
 2468SOL     OW18865   3.584   2.262   5.773  0.1041  0.0330  0.1270
 2468SOL    HW118866   3.658   2.300   5.820  1.3955  0.8689 -2.5872
 2468SOL    HW218867   3.590   2.314   5.693 -0.1522 -3.3044 -2.0660
 2469SOL     OW18868   1.148   4.557   7.860 -0.5091  0.1593  0.2987
 2469SOL    HW118869   1.158   4.597   7.774  1.1486  1.2904  1.0245
 2469SOL    HW218870   1.193   4.473   7.849 -0.8453  0.1818 -1.2711
 2470SOL     OW18871   2.069   4.485  10.537 -0.8287 -0.0746 -0.1012
 2470SOL    HW118872   2.025   4.438  10.608 -1.5534  1.0996  0.2208
 2470SOL    HW218873   2.161   4.483  10.563 -0.7878 -0.0761 -0.2434
 2471SOL     OW18874   3.770   4.480   3.825  0.1722 -0.2441  0.2687
 2471SOL    HW118875   3.814   4.563   3.844 -0.0910 -0.1646  0.5318
 2471SOL    HW218876   3.729   4.501   3.741  0.8340 -0.7357 -0.1773
 2472SOL     OW18877   2.126   1.948   7.916 -0.0018 -0.4517 -0.1466
 2472SOL    HW118878   2.100   2.026   7.867 -0.7263  0.8154  2.2756
 2472SOL    HW218879   2.064   1.945   7.989  0.4297  0.3301  0.2517
 2473SOL     OW18880   0.824   4.255  15.017  0.2188  0.4207  0.3884
 2473SOL    HW118881   0.742   4.302  15.003 -0.5267 -0.9979 -0.0265
 2473SOL    HW218882   0.885   4.324  15.043  1.1150 -0.1975 -0.0616
 2474SOL     OW18883   1.120   2.655   7.684  0.7219 -0.6269 -0.1278
 2474SOL    HW118884   1.025   2.663   7.694  0.7863 -1.4028  1.1257
 2474SOL    HW218885   1.138   2.571   7.643  0.4349 -0.7175 -0.0664
 2475SOL     OW18886   4.142   3.275  13.120 -0.3387  0.1952 -0.2172
 2475SOL    HW118887   4.216   3.217  13.105 -1.1223 -0.8942  0.1902
 2475SOL    HW218888   4.128   3.256  13.212  1.1663 -1.5880 -0.3705
 2476SOL     OW18889   3.619   2.343   5.166 -0.7484  0.9538 -0.4641
 2476SOL    HW118890   3.685   2.283   5.131 -0.6608  0.4917  0.5014
 2476SOL    HW218891   3.557   2.332   5.094  1.0890 -0.2139 -1.8971
 2477SOL     OW18892   4.645   4.092  10.152 -0.3474 -0.5291  0.5332
 2477SOL    HW118893   4.606   4.179  10.163 -0.6106 -0.2276 -2.6636
 2477SOL    HW218894   4.640   4.088  10.056 -0.1301 -2.8658  0.6314
 2478SOL     OW18895   4.331   0.904  14.628  0.4912 -0.5695  0.6536
 2478SOL    HW118896   4.403   0.952  14.670  0.6253  0.2848 -0.5756
 2478SOL    HW218897   4.321   0.825  14.682 -1.4786 -1.5573 -1.1889
 2479SOL     OW18898   1.603   1.144   2.261 -0.4555 -0.6706  0.1836
 2479SOL    HW118899   1.639   1.084   2.196 -1.8451  1.2711 -2.4027
 2479SOL    HW218900   1.525   1.101   2.295 -1.1188  0.3620 -0.0274
 2480SOL     OW18901   1.286   1.391  17.057  0.4248 -0.0234 -0.0407
 2480SOL    HW118902   1.293   1.297  17.071 -0.0290 -0.1377 -0.5773
 2480SOL    HW218903   1.208   1.398  17.001  1.3739  1.5624 -1.1966
 2481SOL     OW18904   0.566   0.379   0.470  0.8069  0.0311  0.1246
 2481SOL    HW118905   0.549   0.377   0.564 -0.8092  2.9228 -0.1203
 2481SOL    HW218906   0.479   0.356   0.438  0.9681 -0.7933  0.2773
 2482SOL     OW18907   3.778   4.128  12.787 -0.0621 -0.3628  0.6891
 2482SOL    HW118908   3.736   4.108  12.871  0.1426 -1.3166  0.5674
 2482SOL    HW218909   3.856   4.073  12.786 -1.1897 -1.9582 -1.8878
 2483SOL     OW18910   2.924   3.601   6.929  0.0060  0.5529 -0.1619
 2483SOL    HW118911   3.012   3.594   6.891  0.2568  0.5433  0.4170
 2483SOL    HW218912   2.944   3.599   7.022  0.5538 -1.9719 -0.3228
 2484SOL     OW18913   0.251   1.405  12.957  0.1933 -0.8924  0.8348
 2484SOL    HW118914   0.343   1.428  12.971  0.4177 -1.2766 -0.0019
 2484SOL    HW218915   0.230   1.460  12.882 -0.0475 -1.9834  0.1104
 2485SOL     OW18916   4.391   1.060   9.501 -0.4289  0.6007  0.2650
 2485SOL    HW118917   4.466   1.100   9.457 -0.5034 -0.7349 -1.0594
 2485SOL    HW218918   4.364   0.988   9.444 -0.2648 -2.4228  3.9794
 2486SOL     OW18919   2.034   2.635   5.363 -0.5924 -0.2731 -0.0131
 2486SOL    HW118920   2.048   2.727   5.342 -0.3958 -0.3677 -0.2996
 2486SOL    HW218921   1.942   2.641   5.389 -0.9433 -2.3298 -0.7843
 2487SOL     OW18922   2.334   3.779   8.554  0.0153  0.3600 -0.1812
 2487SOL    HW118923   2.259   3.796   8.612  1.0144 -2.1246  1.8248
 2487SOL    HW218924   2.305   3.731   8.476 -0.9175 -0.8124  0.8854
 2488SOL     OW18925   0.065   0.049   5.880  0.0499  0.1220  0.5796
 2488SOL    HW118926   0.018   0.111   5.824 -0.5562 -2.1078 -1.3358
 2488SOL    HW218927   0.004   0.032   5.952  0.8087 -1.4250  0.8494
 2489SOL     OW18928   1.325   3.321   3.561 -0.4856  0.2390  0.1143
 2489SOL    HW118929   1.333   3.343   3.654 -0.5429 -0.9720  0.4097
 2489SOL    HW218930   1.262   3.249   3.570  0.4408 -0.5343  0.3800
 2490SOL     OW18931   0.236   4.592   6.659 -0.6112  0.1588 -0.2094
 2490SOL    HW118932   0.185   4.554   6.731  1.0886 -1.5176  0.1192
 2490SOL    HW218933   0.214   4.526   6.593  1.8079  0.5662 -1.4244
 2491SOL     OW18934   4.593   0.307   4.802 -0.2787  0.3312 -0.2369
 2491SOL    HW118935   4.510   0.354   4.799  0.0394  0.8962 -0.0215
 2491SOL    HW218936   4.640   0.371   4.856 -2.5955 -0.2696  2.5124
 2492SOL     OW18937   3.328   2.854   9.219 -0.1965  0.5797 -0.6063
 2492SOL    HW118938   3.355   2.768   9.252 -2.1026 -0.0001 -0.5777
 2492SOL    HW218939   3.366   2.915   9.283 -1.8189 -0.5312  1.4356
 2493SOL     OW18940   1.853   0.834   9.384  0.2969  0.4805  0.6085
 2493SOL    HW118941   1.802   0.815   9.463 -0.4024 -0.5987 -0.1101
 2493SOL    HW218942   1.942   0.839   9.419  1.3414 -2.6413 -1.6648
 2494SOL     OW18943   4.081   0.382   7.361  0.0932  0.1577 -0.2969
 2494SOL    HW118944   4.014   0.444   7.388  0.4668  1.5397 -2.5479
 2494SOL    HW218945   4.156   0.439   7.344  0.7951 -0.4859  0.6220
 2495SOL     OW18946   3.290   1.023  10.413 -0.1236 -0.6623  0.6726
 2495SOL    HW118947   3.264   1.115  10.422  0.2637 -0.8258  3.5452
 2495SOL    HW218948   3.381   1.032  10.439 -0.3993  1.1109  1.0637
 2496SOL     OW18949   2.389   2.990   0.159 -0.1679  0.2360 -0.2162
 2496SOL    HW118950   2.438   3.060   0.203 -0.0847 -1.0215  1.6601
 2496SOL    HW218951   2.448   2.915   0.160 -0.9287 -0.3182  1.6032
 2497SOL     OW18952   4.205   4.599  11.087 -0.2823 -0.1013 -0.0003
 2497SOL    HW118953   4.236   4.579  10.999 -1.1314 -0.1268 -0.2919
 2497SOL    HW218954   4.248   4.528  11.134 -0.3411 -0.0690  0.1031
 2498SOL     OW18955   3.863   0.010   3.857 -0.2776  0.4930  0.2694
 2498SOL    HW118956   3.797   0.072   3.826  0.0462  0.5688 -0.2760
 2498SOL    HW218957   3.896   0.051   3.938 -1.3290  1.6627  0.0952
 2499SOL     OW18958   2.943   2.434  17.101 -0.4088 -0.2876 -0.2096
 2499SOL    HW118959   2.895   2.374  17.044  3.0845 -3.3211  0.0611
 2499SOL    HW218960   2.994   2.477  17.032 -1.0681  0.0357 -0.5073
 2500SOL     OW18961   3.736   2.527   6.749  0.5648  0.2442 -0.6799
 2500SOL    HW118962   3.667   2.534   6.815  1.4997 -2.2351  0.5562
 2500SOL    HW218963   3.682   2.499   6.675 -0.1521  0.8338 -0.3872
 2501SOL     OW18964   1.319   0.995   5.702 -0.2148 -0.2988 -0.7160
 2501SOL    HW118965   1.340   0.943   5.624  1.3103  0.6646 -0.9481
 2501SOL    HW218966   1.392   0.980   5.761 -0.2535 -0.3093 -0.6709
 2502SOL     OW18967   1.958   0.533   3.460 -0.4145  0.0859 -0.0760
 2502SOL    HW118968   1.922   0.540   3.548 -1.2967  3.0626 -0.6594
 2502SOL    HW218969   1.914   0.607   3.417  0.4054  0.9641  0.6034
 2503SOL     OW18970   2.566   1.457  11.712 -0.9477  0.4991  0.4364
 2503SOL    HW118971   2.651   1.460  11.668 -0.7764 -1.6264  0.6026
 2503SOL    HW218972   2.539   1.548  11.697 -0.0603  0.8667  1.0211
 2504SOL     OW18973   4.297   0.661   8.617 -0.4417 -0.0315 -0.0453
 2504SOL    HW118974   4.207   0.661   8.650 -0.5918  0.2902 -0.4550
 2504SOL    HW218975   4.345   0.682   8.697 -0.0159 -4.1627  0.7820
 2505SOL     OW18976   0.650   3.425   8.477 -0.8709 -0.0248 -0.6000
 2505SOL    HW118977   0.612   3.341   8.451  0.9031  0.1329 -3.7254
 2505SOL    HW218978   0.582   3.466   8.530  0.8951  3.1363 -0.7802
 2506SOL     OW18979   3.699   0.106   3.574  0.1453  0.3377 -0.4178
 2506SOL    HW118980   3.636   0.178   3.565 -0.8497 -0.7719 -2.2712
 2506SOL    HW218981   3.769   0.132   3.516  1.4236  0.4632  1.1779
 2507SOL     OW18982   2.943   4.510   2.210 -0.3878 -0.4683  0.1574
 2507SOL    HW118983   2.906   4.562   2.139  0.8464  0.1788 -0.0280
 2507SOL    HW218984   3.004   4.451   2.165  1.2772  0.5720  1.0162
 2508SOL     OW18985   3.939   3.672   5.819  0.4830 -0.3454  0.3500
 2508SOL    HW118986   3.966   3.667   5.727 -1.8100 -0.2290 -0.3336
 2508SOL    HW218987   3.845   3.690   5.815  0.5417 -0.4775 -1.7862
 2509SOL     OW18988   2.126   0.486   2.787  0.1770  0.5329  0.2088
 2509SOL    HW118989   2.145   0.399   2.822 -0.9314 -0.0411 -0.6034
 2509SOL    HW218990   2.198   0.491   2.724 -1.1543 -2.0466 -1.5141
 2510SOL     OW18991   2.175   2.989   4.790 -0.1359 -0.0463 -0.2814
 2510SOL    HW118992   2.230   3.039   4.850 -0.4772  0.4161 -0.3457
 2510SOL    HW218993   2.169   2.905   4.835  0.2886  0.1780  0.1934
 2511SOL     OW18994   4.415   2.800  12.109  0.1327  0.4066 -0.3219
 2511SOL    HW118995   4.492   2.755  12.143  0.9020  0.3439 -2.1430
 2511SOL    HW218996   4.422   2.886  12.149  0.8852 -0.5726  1.6786
 2512SOL     OW18997   1.321   1.316  10.919  0.1485  0.1735  0.7188
 2512SOL    HW118998   1.336   1.347  11.008  0.9418  0.9508  0.3172
 2512SOL    HW218999   1.384   1.363  10.864  0.6773  1.7764  2.7166
 2513SOL     OW19000   0.536   2.446   0.110  0.5199  0.2671 -0.1667
 2513SOL    HW119001   0.567   2.522   0.061  0.1788  1.4977  1.4950
 2513SOL    HW219002   0.513   2.486   0.194  0.7960  1.6728 -0.7682
 2514SOL     OW19003   1.436   4.516   9.008 -0.6180 -0.8376  0.4762
 2514SOL    HW119004   1.388   4.570   9.072 -0.8642 -1.6298  0.9650
 2514SOL    HW219005   1.490   4.472   9.074  2.4257 -0.6872 -1.9646
 2515SOL     OW19006   1.627   1.780   3.859 -0.1217 -0.2751  0.0378
 2515SOL    HW119007   1.636   1.871   3.889  0.5794 -0.2923 -0.1105
 2515SOL    HW219008   1.658   1.784   3.769 -1.6329 -1.5453 -0.5440
 2516SOL     OW19009   0.524   3.193   8.425 -0.2386  0.5367  0.0687
 2516SOL    HW119010   0.434   3.185   8.396 -1.0992 -0.3248  2.9480
 2516SOL    HW219011   0.516   3.151   8.511 -1.1478  1.8496  0.6129
 2517SOL     OW19012   3.640   0.515  16.294 -0.2372 -0.8933  0.1467
 2517SOL    HW119013   3.658   0.595  16.343  0.1039 -0.2781 -0.9742
 2517SOL    HW219014   3.685   0.545  16.215 -0.3661 -0.0771  0.3861
 2518SOL     OW19015   2.941   0.278   4.117  0.5446 -0.3082  0.3330
 2518SOL    HW119016   2.863   0.249   4.165  0.4284  2.0465  1.5410
 2518SOL    HW219017   2.914   0.261   4.027 -0.9956  0.2628  0.6809
 2519SOL     OW19018   3.407   3.679   7.036  0.2963 -1.0937 -0.0889
 2519SOL    HW119019   3.480   3.680   7.098  1.2709 -3.6980 -1.2466
 2519SOL    HW219020   3.412   3.769   7.003  2.0465 -0.9838  0.4863
 2520SOL     OW19021   3.734   2.533  10.312 -0.2527 -0.1181 -0.4469
 2520SOL    HW119022   3.704   2.453  10.269  0.3362  0.2455 -1.5398
 2520SOL    HW219023   3.792   2.557  10.240 -1.5656  0.8431 -1.1944
 2521SOL     OW19024   0.386   1.203  11.371  0.2414 -0.5744  0.3040
 2521SOL    HW119025   0.330   1.189  11.295 -0.4833 -1.4393  0.9997
 2521SOL    HW219026   0.372   1.298  11.377 -0.2848 -0.5550 -1.2865
 2522SOL     OW19027   2.937   3.923  16.774 -0.0763  0.2983 -0.1918
 2522SOL    HW119028   2.911   3.933  16.866  1.0894 -1.5577  0.3444
 2522SOL    HW219029   3.031   3.906  16.784 -0.3004  0.3431  2.1294
 2523SOL     OW19030   3.993   0.945   2.363  0.8016  0.0728  1.2281
 2523SOL    HW119031   3.918   0.997   2.395 -0.6404 -0.7503 -0.8321
 2523SOL    HW219032   4.065   1.007   2.362  1.1322 -0.3858 -1.6771
 2524SOL     OW19033   1.199   4.603   8.337  0.1223  0.0507 -0.3989
 2524SOL    HW119034   1.228   4.555   8.415  2.0848 -0.1355 -1.2310
 2524SOL    HW219035   1.178   4.526   8.284 -0.2236 -0.3228  0.2783
 2525SOL     OW19036   0.026   1.214   4.349 -0.2674  0.0898 -0.8529
 2525SOL    HW119037   0.088   1.221   4.277  1.4236  2.3127  0.8172
 2525SOL    HW219038   0.074   1.160   4.412 -2.9328 -2.6044 -1.1416
 2526SOL     OW19039   1.123   3.428   1.992 -0.2267  0.2487  0.7088
 2526SOL    HW119040   1.119   3.418   1.897  2.2975 -1.3826  0.7854
 2526SOL    HW219041   1.107   3.337   2.016  1.0595 -0.8773 -2.6815
 2527SOL     OW19042   3.489   2.282   3.835 -0.6836  0.4185  0.1315
 2527SOL    HW119043   3.447   2.368   3.839 -0.3160  0.7566 -3.0538
 2527SOL    HW219044   3.578   2.289   3.869 -1.1482  1.9886  1.0277
 2528SOL     OW19045   4.300   0.885   6.039 -0.0930  0.3386 -0.5607
 2528SOL    HW119046   4.242   0.855   5.969 -0.6438  2.0423 -0.8313
 2528SOL    HW219047   4.373   0.924   5.992  0.6918 -0.1293  0.2735
 2529SOL     OW19048   0.680   1.540  15.196  1.0813 -0.2794  0.0827
 2529SOL    HW119049   0.671   1.626  15.155  1.7515 -0.1654  0.1777
 2529SOL    HW219050   0.746   1.544  15.265  0.5399 -1.0947  0.6457
 2530SOL     OW19051   1.696   2.744  13.568 -0.5217 -0.1259 -0.0750
 2530SOL    HW119052   1.727   2.724  13.656 -0.1296 -1.4006 -0.5047
 2530SOL    HW219053   1.616   2.795  13.584 -1.4684 -1.1527 -1.4758
 2531SOL     OW19054   2.216   1.242   3.461  0.4509  0.4864  0.4148
 2531SOL    HW119055   2.199   1.238   3.367 -1.1840  1.1670  0.6773
 2531SOL    HW219056   2.308   1.213   3.460 -0.0196 -1.0823  1.9204
 2532SOL     OW19057   4.722   0.443   7.344  0.0522 -0.7982  0.6010
 2532SOL    HW119058   4.632   0.417   7.358 -1.2217  2.9134 -0.7196
 2532SOL    HW219059   4.712   0.520   7.288 -0.3384 -2.5864 -1.7657
 2533SOL     OW19060   1.166   0.770   6.870 -0.4217  0.1295  0.3094
 2533SOL    HW119061   1.188   0.718   6.948  0.2320 -0.0733 -0.0057
 2533SOL    HW219062   1.152   0.687   6.824 -2.4679  1.7596 -1.9899
 2534SOL     OW19063   2.345   2.603  14.925  0.0057 -0.1335  0.3705
 2534SOL    HW119064   2.313   2.601  15.016 -3.6524 -0.9130 -0.9331
 2534SOL    HW219065   2.271   2.647  14.883 -1.5539 -3.9449 -0.8826
 2535SOL     OW19066   3.796   0.883   7.992  0.5055 -0.4556  0.1925
 2535SOL    HW119067   3.826   0.959   8.042  0.1288 -0.0698 -0.1668
 2535SOL    HW219068   3.793   0.915   7.901 -0.1404 -1.5921 -0.1814
 2536SOL     OW19069   2.446   4.028   2.144  0.4122  0.0870 -0.0669
 2536SOL    HW119070   2.381   4.082   2.191  1.2838  1.7996 -0.8307
 2536SOL    HW219071   2.496   4.096   2.099  1.8371  0.2890  1.7950
 2537SOL     OW19072   4.085   3.999   3.480 -0.2782 -0.6133  0.0026
 2537SOL    HW119073   4.042   4.072   3.523  1.5694 -1.2606  2.9765
 2537SOL    HW219074   4.090   3.940   3.556 -0.0153  0.9242  1.1832
 2538SOL     OW19075   0.276   1.084   2.055 -0.1025 -0.2014  0.4139
 2538SOL    HW119076   0.275   1.180   2.054 -0.3088 -0.2047  0.2889
 2538SOL    HW219077   0.353   1.067   2.001  0.1777  1.4418  0.3059
 2539SOL     OW19078   0.218   1.232   3.879 -0.3291  0.3843 -0.5753
 2539SOL    HW119079   0.280   1.296   3.844  0.4546 -0.6508 -1.0725
 2539SOL    HW219080   0.253   1.148   3.850 -0.0461  0.9836 -1.9553
 2540SOL     OW19081   0.639   1.704   7.439  0.0130  0.2797  0.3914
 2540SOL    HW119082   0.629   1.616   7.474 -0.1410  0.8779  1.8614
 2540SOL    HW219083   0.576   1.746   7.499 -0.6843 -0.9594  0.5180
 2541SOL     OW19084   4.470   3.920  13.035  0.6606 -0.2179 -0.3382
 2541SOL    HW119085   4.451   3.836  12.993  1.8476 -0.2521 -0.7876
 2541SOL    HW219086   4.447   3.983  12.966  2.6886  0.3018 -0.5353
 2542SOL     OW19087   3.646   3.410  14.843  0.6783  0.4854 -0.3706
 2542SOL    HW119088   3.607   3.496  14.833 -0.0748  0.3421  1.3444
 2542SOL    HW219089   3.729   3.431  14.886 -0.0911  0.7504  0.9785
 2543SOL     OW19090   2.315   2.048   4.971  0.7263  0.3848  0.1792
 2543SOL    HW119091   2.407   2.064   4.949  0.5406  1.2706  0.0381
 2543SOL    HW219092   2.287   2.134   5.003  1.2457  0.5474  0.1892
 2544SOL     OW19093   1.988   0.042   2.876  0.0395  0.9429 -0.1985
 2544SOL    HW119094   1.908   0.092   2.858  0.5750  1.7372 -0.3906
 2544SOL    HW219095   2.056   0.106   2.896  2.0543 -1.3142  0.1560
 2545SOL     OW19096   0.631   3.677   4.673  0.2445  0.1753 -0.2284
 2545SOL    HW119097   0.581   3.745   4.718 -1.3953 -1.6890  0.7710
 2545SOL    HW219098   0.662   3.622   4.744 -0.7018  0.4293  0.3935
 2546SOL     OW19099   0.694   0.811   3.248 -0.6716  0.1559 -0.2384
 2546SOL    HW119100   0.691   0.880   3.314 -0.8867 -0.2641  0.1868
 2546SOL    HW219101   0.616   0.759   3.263  0.1254 -0.9320  0.1468
 2547SOL     OW19102   2.790   0.648  10.732  0.4804  0.0878 -0.5375
 2547SOL    HW119103   2.791   0.683  10.643  1.6699  2.5972  0.4692
 2547SOL    HW219104   2.854   0.702  10.777  0.4784  0.4659 -0.9820
 2548SOL     OW19105   4.448   1.850   2.255 -0.1447  0.2955 -0.1092
 2548SOL    HW119106   4.419   1.759   2.255  0.6769  0.0327  0.0539
 2548SOL    HW219107   4.369   1.904   2.250 -1.4526 -1.6442 -0.3964
 2549SOL     OW19108   1.773   0.907   0.618 -0.2672  0.2882 -0.1540
 2549SOL    HW119109   1.699   0.847   0.630 -0.2013  0.1270 -0.5391
 2549SOL    HW219110   1.836   0.847   0.578 -0.5695  1.9227 -3.1230
 2550SOL     OW19111   2.630   2.658   2.416  0.3389  0.5204 -0.1434
 2550SOL    HW119112   2.671   2.605   2.348 -0.8349 -0.6770  0.0777
 2550SOL    HW219113   2.556   2.601   2.436  1.5247 -1.8174 -2.4315
 2551SOL     OW19114   2.648   3.756   8.229  0.5119 -0.3048 -0.5846
 2551SOL    HW119115   2.562   3.778   8.191  0.5136 -0.9822 -0.9772
 2551SOL    HW219116   2.635   3.816   8.302 -1.4154 -1.5026  0.0595
 2552SOL     OW19117   3.588   0.569   4.649 -0.0239 -0.7116 -0.2473
 2552SOL    HW119118   3.598   0.637   4.716  0.6053 -0.4782 -0.5766
 2552SOL    HW219119   3.599   0.625   4.572 -0.7325 -2.2541 -1.4765
 2553SOL     OW19120   2.307   2.717   0.946 -0.6567 -0.9036  0.1957
 2553SOL    HW119121   2.315   2.739   0.853  2.5788  0.4831  0.8027
 2553SOL    HW219122   2.387   2.666   0.948 -0.3133 -0.3668  0.1152
 2554SOL     OW19123   2.180   2.834   7.099 -0.1387  0.0690 -0.3877
 2554SOL    HW119124   2.175   2.930   7.093 -0.5038 -0.0470 -1.8570
 2554SOL    HW219125   2.274   2.823   7.114  0.0848  0.4258 -1.5406
 2555SOL     OW19126   1.153   1.342   8.313 -0.2437 -0.1936  0.9941
 2555SOL    HW119127   1.227   1.391   8.279  1.1870 -0.1047  4.3396
 2555SOL    HW219128   1.173   1.259   8.269 -0.7294 -0.7521  1.8273
 2556SOL     OW19129   4.352   3.393   1.178 -0.4365  0.4983 -0.4667
 2556SOL    HW119130   4.262   3.399   1.210 -0.3008  0.4138 -0.0706
 2556SOL    HW219131   4.335   3.460   1.112 -0.9874  0.4152 -0.4142
 2557SOL     OW19132   3.985   1.570   4.256 -0.2010  0.3706  0.8722
 2557SOL    HW119133   4.014   1.506   4.322  3.3879  1.4054  0.3175
 2557SOL    HW219134   3.918   1.616   4.306  0.3772  1.5564  0.5407
 2558SOL     OW19135   1.053   0.248  12.166 -0.4136 -0.2511  0.2089
 2558SOL    HW119136   1.036   0.163  12.126  0.9241 -1.7878  2.8989
 2558SOL    HW219137   1.120   0.272  12.103 -2.1524 -0.8991 -1.9084
 2559SOL     OW19138   0.705   3.760  12.178  0.4187 -0.0505 -0.2800
 2559SOL    HW119139   0.736   3.834  12.231  2.6588 -0.8235 -0.4985
 2559SOL    HW219140   0.642   3.715  12.234 -0.9542  1.1694 -0.8639
 2560SOL     OW19141   2.535   2.756   4.631 -0.2054  0.5590  0.0942
 2560SOL    HW119142   2.469   2.695   4.664  0.1742  0.3987  0.5525
 2560SOL    HW219143   2.547   2.716   4.545  1.5019  1.3019 -0.0068
 2561SOL     OW19144   4.204   3.148   8.991  0.3319  0.0735  0.6748
 2561SOL    HW119145   4.183   3.095   9.068 -1.0233 -0.0262  0.2449
 2561SOL    HW219146   4.120   3.194   8.982  0.9125  0.8534 -0.6479
 2562SOL     OW19147   2.869   4.457   5.349 -0.6123 -0.2189  0.5673
 2562SOL    HW119148   2.879   4.408   5.431  2.1893  1.9501  1.5094
 2562SOL    HW219149   2.944   4.427   5.298 -0.6709  1.2475 -0.3856
 2563SOL     OW19150   2.003   3.145   6.584  0.1590  0.0085  0.4783
 2563SOL    HW119151   1.925   3.171   6.634 -2.5977 -2.1666 -2.7355
 2563SOL    HW219152   2.026   3.057   6.613  0.1613 -0.8186 -2.1321
 2564SOL     OW19153   2.313   0.856   5.290 -0.8368 -0.0527 -0.0287
 2564SOL    HW119154   2.316   0.810   5.206  0.3839  0.4657 -0.2804
 2564SOL    HW219155   2.394   0.819   5.327 -0.9214 -1.4586 -1.2629
 2565SOL     OW19156   2.686   4.378   3.854  0.4667 -0.2129  0.2385
 2565SOL    HW119157   2.619   4.317   3.824  1.7505 -0.7053 -1.5989
 2565SOL    HW219158   2.674   4.374   3.949  0.8972 -0.3118  0.2885
 2566SOL     OW19159   0.960   1.257   9.233 -0.0927  0.6838 -0.4860
 2566SOL    HW119160   1.049   1.278   9.206  0.2145 -0.6074 -0.4786
 2566SOL    HW219161   0.925   1.336   9.274 -2.8138 -1.2724  0.9696
 2567SOL     OW19162   0.779   1.379   4.813  0.8517 -0.2509  0.4631
 2567SOL    HW119163   0.766   1.451   4.875 -0.6922 -1.8813  2.0516
 2567SOL    HW219164   0.704   1.397   4.757 -0.5390 -0.2834  2.3090
 2568SOL     OW19165   3.931   3.182   2.494 -0.0347 -0.1815  0.5127
 2568SOL    HW119166   3.888   3.105   2.456  2.0898 -0.0892 -2.1271
 2568SOL    HW219167   3.932   3.158   2.587 -0.4313  1.4011  0.9255
 2569SOL     OW19168   0.170   3.529   5.249  0.3137 -0.0371  0.1286
 2569SOL    HW119169   0.207   3.569   5.171  0.7884 -1.6687 -0.4809
 2569SOL    HW219170   0.098   3.588   5.268 -0.8206 -1.6878  1.0028
 2570SOL     OW19171   0.210   2.271   1.002  0.8360 -0.6638 -0.3678
 2570SOL    HW119172   0.183   2.356   1.037  1.5129 -0.7081  0.2631
 2570SOL    HW219173   0.281   2.236   1.056 -0.5824 -0.3923  1.6857
 2571SOL     OW19174   1.286   0.903  10.219 -0.1749  0.0905  0.0790
 2571SOL    HW119175   1.256   0.975  10.165  0.1809 -0.5740 -1.0047
 2571SOL    HW219176   1.343   0.862  10.153  1.8467  2.7658  0.1851
 2572SOL     OW19177   2.354   3.645   1.138 -0.0350 -0.3966  0.5990
 2572SOL    HW119178   2.380   3.633   1.047  1.2134  1.7672  0.6631
 2572SOL    HW219179   2.298   3.721   1.127 -0.1151 -0.6923 -1.0348
 2573SOL     OW19180   0.047   1.674   5.464 -0.0937 -0.1827 -0.2930
 2573SOL    HW119181   0.084   1.707   5.382 -3.0449 -1.0762 -1.9765
 2573SOL    HW219182   0.128   1.640   5.502 -0.2108 -0.6391 -0.4386
 2574SOL     OW19183   1.808   2.375   0.094  0.5214  0.3811 -0.1821
 2574SOL    HW119184   1.858   2.456   0.087 -0.3824  0.8147 -1.5119
 2574SOL    HW219185   1.740   2.392   0.028  2.3900  0.7083 -2.0049
 2575SOL     OW19186   4.465   3.212   6.943  0.2058  0.2574  0.5461
 2575SOL    HW119187   4.391   3.153   6.960 -0.5086  1.8264  2.8721
 2575SOL    HW219188   4.527   3.152   6.901 -0.3109 -1.4855  2.2425
 2576SOL     OW19189   2.640   1.009   5.348 -0.2378 -0.2751 -0.2135
 2576SOL    HW119190   2.715   0.967   5.306  0.9287  1.3920  0.1841
 2576SOL    HW219191   2.598   0.927   5.372  0.2987 -0.8853 -1.3498
 2577SOL     OW19192   4.347   1.066   5.443 -0.1374  0.3845  0.6111
 2577SOL    HW119193   4.408   1.040   5.512 -0.4516  3.4401  2.0584
 2577SOL    HW219194   4.391   1.028   5.367  2.2062  2.8319  0.7329
 2578SOL     OW19195   4.710   1.682   5.942  0.2857 -0.3581 -0.5789
 2578SOL    HW119196   0.070   1.705   5.977  0.1324  0.2690 -0.6022
 2578SOL    HW219197   4.670   1.769   5.940  0.7447 -0.1209  0.5746
 2579SOL     OW19198   0.891   3.184   4.803  0.0939 -0.4369  0.7146
 2579SOL    HW119199   0.911   3.274   4.829 -0.7665 -0.0807  0.1579
 2579SOL    HW219200   0.887   3.205   4.709 -1.1570  0.1615  0.9021
 2580SOL     OW19201   1.300   3.957   5.177  0.1135 -0.7557 -0.6638
 2580SOL    HW119202   1.387   3.936   5.145  0.3024  0.3578 -0.8760
 2580SOL    HW219203   1.330   4.005   5.255 -0.4848  0.6644 -1.3154
 2581SOL     OW19204   2.115   1.512  14.396 -0.0746  0.1149 -0.0888
 2581SOL    HW119205   2.020   1.518  14.388 -0.1458 -0.6119  0.1574
 2581SOL    HW219206   2.127   1.515  14.491  0.0205 -0.8548 -0.0693
 2582SOL     OW19207   3.275   0.229   7.155  0.9642  0.1658 -0.5780
 2582SOL    HW119208   3.294   0.312   7.111  0.0573 -1.1083 -3.4399
 2582SOL    HW219209   3.296   0.169   7.083 -1.8775 -2.0008  0.3966
 2583SOL     OW19210   0.077   1.054   5.642 -0.2023  0.5569  0.0927
 2583SOL    HW119211   0.102   1.124   5.582  1.4956 -0.1808 -0.0435
 2583SOL    HW219212   0.150   0.999   5.613 -0.3480 -1.3203  3.2573
 2584SOL     OW19213   3.579   1.066  13.480 -0.3391  0.0546 -0.1613
 2584SOL    HW119214   3.540   1.132  13.537  0.8123 -0.5446  1.3289
 2584SOL    HW219215   3.626   1.122  13.417 -0.1518  1.5891  1.3334
 2585SOL     OW19216   3.053   1.996   2.236 -0.1783 -0.3268  0.0023
 2585SOL    HW119217   3.026   2.013   2.326 -1.9476  1.2618 -0.8263
 2585SOL    HW219218   3.103   2.070   2.204  0.5575 -1.2483 -0.9744
 2586SOL     OW19219   0.924   1.818   5.422  0.3694 -0.3820  0.6417
 2586SOL    HW119220   0.846   1.780   5.462 -0.3078  1.5591  1.1840
 2586SOL    HW219221   0.988   1.749   5.440 -1.6463 -3.1346 -2.8592
 2587SOL     OW19222   2.691   4.118   2.594  0.4983  0.2826 -0.1231
 2587SOL    HW119223   2.604   4.154   2.581 -0.7775 -2.2030  1.5264
 2587SOL    HW219224   2.738   4.166   2.526 -1.3966  1.8141 -0.3241
 2588SOL     OW19225   1.422   3.436   5.308 -0.0907  0.3008  0.4026
 2588SOL    HW119226   1.342   3.386   5.293  0.4420 -0.8509  1.4029
 2588SOL    HW219227   1.489   3.369   5.318  0.2098  0.4919 -0.3371
 2589SOL     OW19228   0.578   0.211   7.103  0.2229 -0.4882 -0.5252
 2589SOL    HW119229   0.656   0.240   7.055 -0.2152 -0.5748 -1.2748
 2589SOL    HW219230   0.601   0.230   7.194 -0.4601 -1.0933 -0.2307
 2590SOL     OW19231   3.339   1.867   1.621  0.1466  0.4296  0.3603
 2590SOL    HW119232   3.404   1.934   1.641  0.9398 -1.0309  2.7136
 2590SOL    HW219233   3.383   1.825   1.547 -1.2262 -0.2370 -0.0810
 2591SOL     OW19234   2.741   4.375   7.413  0.0190 -0.0094  0.7698
 2591SOL    HW119235   2.818   4.326   7.386 -0.2908  0.3549 -0.7741
 2591SOL    HW219236   2.766   4.467   7.404 -0.5203  0.0195 -0.3619
 2592SOL     OW19237   0.424   4.551   4.877  0.2468 -0.5290 -0.3288
 2592SOL    HW119238   0.416   4.596   4.961 -1.7935 -2.2741  0.3941
 2592SOL    HW219239   0.464   4.615   4.818  2.1831  1.2253  2.9068
 2593SOL     OW19240   2.144   3.213   6.114 -0.2263  0.1824  0.2309
 2593SOL    HW119241   2.210   3.280   6.098  0.7203 -1.4513 -2.7099
 2593SOL    HW219242   2.116   3.200   6.023 -1.8705 -2.4965  1.1392
 2594SOL     OW19243   4.288   3.528  17.012 -0.2724  0.5327  0.4207
 2594SOL    HW119244   4.342   3.453  17.036  1.1419  1.1906 -0.6386
 2594SOL    HW219245   4.249   3.492  16.933 -0.2966  2.6944 -0.5749
 2595SOL     OW19246   2.676   4.244   3.504 -0.1599 -0.5235  0.6632
 2595SOL    HW119247   2.771   4.253   3.504 -0.3623  1.5844 -2.3342
 2595SOL    HW219248   2.655   4.158   3.541  0.7450 -1.1878 -0.3601
 2596SOL     OW19249   4.198   4.372   2.058  0.2382 -0.3700  0.2844
 2596SOL    HW119250   4.266   4.385   2.124  0.7036 -2.3636  0.2113
 2596SOL    HW219251   4.161   4.459   2.047  2.0324  0.3484 -0.1553
 2597SOL     OW19252   1.384   4.002   7.777  0.3563 -0.0897 -0.1453
 2597SOL    HW119253   1.435   4.053   7.839 -0.9511 -0.7314  1.4734
 2597SOL    HW219254   1.370   4.061   7.703  1.7994 -1.6814 -1.6744
 2598SOL     OW19255   4.345   3.113  13.155 -0.4286  0.4507  0.1820
 2598SOL    HW119256   4.354   3.057  13.232 -1.7927 -1.3874 -0.9769
 2598SOL    HW219257   4.434   3.146  13.151  0.1380 -1.3812 -2.3926
 2599SOL     OW19258   1.045   3.118   7.904  0.3923  0.3453  0.8673
 2599SOL    HW119259   1.100   3.069   7.965  1.9927 -0.1354 -0.9775
 2599SOL    HW219260   0.975   3.054   7.891 -1.8734  3.2124 -1.1795
 2600SOL     OW19261   1.904   4.695  10.595 -0.5775 -0.8002 -0.2144
 2600SOL    HW119262   1.935   4.633  10.529 -0.9251 -2.2332  0.9590
 2600SOL    HW219263   1.836   0.016  10.547 -0.2189 -1.8282 -1.7597
 2601SOL     OW19264   4.016   0.006  11.880  0.8567 -0.6371 -0.0080
 2601SOL    HW119265   4.067   0.045  11.951 -1.2270 -1.0206  1.7100
 2601SOL    HW219266   4.010   4.640  11.906 -0.3626 -0.6246 -0.2691
 2602SOL     OW19267   1.743   0.145   8.212 -0.5319  0.0894 -0.2040
 2602SOL    HW119268   1.833   0.154   8.181  0.4515  1.7424  3.1510
 2602SOL    HW219269   1.741   0.223   8.269 -0.6873  1.5228 -2.1590
 2603SOL     OW19270   2.158   3.228   8.518 -0.1865 -0.3089 -0.1608
 2603SOL    HW119271   2.198   3.287   8.582  0.0469 -1.4787  0.7544
 2603SOL    HW219272   2.080   3.281   8.502  0.5446  0.1911 -2.1248
 2604SOL     OW19273   2.542   1.587   5.134 -0.1359  0.6494 -0.1943
 2604SOL    HW119274   2.592   1.516   5.174 -1.5142  0.4859  1.2100
 2604SOL    HW219275   2.564   1.572   5.042 -0.2453 -0.9582  0.0361
 2605SOL     OW19276   4.668   0.663   6.305  0.1876 -0.7510  0.4520
 2605SOL    HW119277   4.712   0.743   6.278 -0.2725 -0.3116  1.0170
 2605SOL    HW219278   0.014   0.620   6.351  1.7094 -0.3362 -1.5380
 2606SOL     OW19279   1.434   4.271   3.788 -0.1333 -0.2708  0.4231
 2606SOL    HW119280   1.384   4.251   3.709 -0.5289 -2.5669  1.2636
 2606SOL    HW219281   1.482   4.343   3.747  1.1432  1.1819  4.5567
 2607SOL     OW19282   3.327   1.687  12.183 -0.5521  0.3162  0.0511
 2607SOL    HW119283   3.353   1.622  12.119  0.4424 -0.5745  1.3622
 2607SOL    HW219284   3.251   1.724  12.138  0.1312  0.7831 -0.7125
 2608SOL     OW19285   2.295   4.656  13.759  0.2151 -0.5436 -0.3944
 2608SOL    HW119286   2.377   4.628  13.800 -0.9673 -2.1733  0.8761
 2608SOL    HW219287   2.235   4.583  13.770 -1.1012  0.7740  1.2945
 2609SOL     OW19288   3.668   1.475  13.892 -0.5566 -0.1254 -0.0317
 2609SOL    HW119289   3.620   1.465  13.974 -0.9758 -2.0199 -0.4824
 2609SOL    HW219290   3.647   1.566  13.873  1.4439  0.5530  1.0312
 2610SOL     OW19291   0.258   3.130   9.623  0.2199  0.2595 -0.3269
 2610SOL    HW119292   0.172   3.092   9.606  0.1457  1.4220 -2.4191
 2610SOL    HW219293   0.250   3.144   9.718 -1.1283  1.1549 -0.5886
 2611SOL     OW19294   2.665   4.583   3.684 -0.2844  0.4120  0.2527
 2611SOL    HW119295   2.687   4.505   3.735  0.6896  0.4797 -0.0577
 2611SOL    HW219296   2.603   4.633   3.736  0.6174 -0.0988  1.8178
 2612SOL     OW19297   2.076   0.131  10.856  0.0570 -0.0270 -0.5074
 2612SOL    HW119298   2.115   0.208  10.814 -2.0198  0.7670 -0.9572
 2612SOL    HW219299   2.088   0.158  10.947 -1.3301  1.6937 -0.8375
 2613SOL     OW19300   0.950   0.721  10.778  0.3190 -0.2450 -0.0972
 2613SOL    HW119301   0.961   0.789  10.845  0.3789 -0.2441 -0.1079
 2613SOL    HW219302   1.036   0.714  10.737  0.0471 -0.5082 -0.6255
 2614SOL     OW19303   3.225   0.305  14.314 -0.5383  0.6449 -0.0484
 2614SOL    HW119304   3.137   0.268  14.312 -0.1210 -0.2925 -0.9624
 2614SOL    HW219305   3.281   0.229  14.330  0.1985  1.1682 -0.1040
 2615SOL     OW19306   4.686   4.386   4.243 -0.2110  0.1693 -0.0544
 2615SOL    HW119307   4.697   4.331   4.321 -0.2423  0.7819  0.3822
 2615SOL    HW219308   4.618   4.333   4.204 -1.9389  2.0856  0.3682
 2616SOL     OW19309   3.384   4.213  12.717 -0.0227  0.0659  0.5071
 2616SOL    HW119310   3.363   4.220  12.810  2.0563 -0.7205  1.0437
 2616SOL    HW219311   3.371   4.120  12.699 -0.2793  0.5000 -1.5219
 2617SOL     OW19312   1.063   4.316   2.107 -0.3410 -0.6158  0.2988
 2617SOL    HW119313   0.974   4.305   2.074  0.4449 -0.8457 -1.7652
 2617SOL    HW219314   1.068   4.403   2.067 -2.6024 -1.8652 -2.6872
 2618SOL     OW19315   3.518   3.940  13.582 -0.3628 -0.3131 -0.0438
 2618SOL    HW119316   3.577   3.865  13.577  0.1041  0.0169  0.4671
 2618SOL    HW219317   3.443   3.895  13.544  0.0599  0.9735 -2.3744
 2619SOL     OW19318   1.537   4.332   2.565  0.6519  0.2415 -0.3519
 2619SOL    HW119319   1.530   4.383   2.484 -2.1058  1.1215  0.4499
 2619SOL    HW219320   1.477   4.383   2.619  2.5697 -0.1923  2.1660
 2620SOL     OW19321   3.082   3.992   7.491 -0.5225 -0.0462 -0.2820
 2620SOL    HW119322   3.028   3.931   7.540 -0.3889 -0.5527 -0.7652
 2620SOL    HW219323   3.150   3.934   7.455  0.6768  0.9032  0.4488
 2621SOL     OW19324   2.445   2.406  12.274 -0.1441 -0.2198 -0.2682
 2621SOL    HW119325   2.444   2.364  12.188 -1.5835 -0.1949 -0.2723
 2621SOL    HW219326   2.513   2.353  12.315 -0.3206  0.0194  0.3391
 2622SOL     OW19327   0.943   2.854  16.098  0.4618 -0.3269 -0.2452
 2622SOL    HW119328   0.922   2.927  16.157 -0.1109 -1.5038  1.0023
 2622SOL    HW219329   0.887   2.865  16.022 -1.5145 -0.3371  1.2181
 2623SOL     OW19330   1.751   0.101   4.627  0.0456 -0.4189 -0.3151
 2623SOL    HW119331   1.817   0.131   4.566  0.0034 -2.0481 -1.1607
 2623SOL    HW219332   1.801   0.052   4.693  1.2828 -0.2139 -1.1100
 2624SOL     OW19333   4.660   2.658   8.537 -0.0499 -0.1887  0.6693
 2624SOL    HW119334   4.659   2.749   8.506  0.1597  0.3337  2.2236
 2624SOL    HW219335   4.636   2.595   8.469 -1.1406  0.5205  0.3970
 2625SOL     OW19336   0.255   0.292  15.822 -0.4238  0.2900 -0.0941
 2625SOL    HW119337   0.299   0.301  15.906 -0.9713 -0.0135  0.2221
 2625SOL    HW219338   0.164   0.307  15.848 -0.5477 -1.2621  0.3233
 2626SOL     OW19339   0.028   2.583   7.057  0.8139  0.2058 -0.5592
 2626SOL    HW119340   0.095   2.594   6.990  0.4021  0.7392 -0.8881
 2626SOL    HW219341   0.078   2.545   7.129 -0.7097  3.3082  2.0819
 2627SOL     OW19342   3.441   0.277   3.684  0.3176  0.0502  0.4951
 2627SOL    HW119343   3.368   0.329   3.653 -0.8157 -1.6375  0.3019
 2627SOL    HW219344   3.504   0.349   3.688  1.0310 -0.5184 -0.2960
 2628SOL     OW19345   0.078   0.358   3.492  0.1158  0.1413  0.4703
 2628SOL    HW119346   0.046   0.422   3.429  0.5120 -1.3216 -1.2426
 2628SOL    HW219347   4.720   0.322   3.517  0.9409 -0.5798  2.2330
 2629SOL     OW19348   2.259   2.105   9.705 -0.4646  0.5976  0.3223
 2629SOL    HW119349   2.261   2.200   9.711  0.5349  0.4271  2.3754
 2629SOL    HW219350   2.169   2.090   9.736 -1.0770  0.2903 -1.5766
 2630SOL     OW19351   0.455   1.478   7.747  0.2501  0.1507 -0.5180
 2630SOL    HW119352   0.457   1.450   7.839  1.6433 -1.6172 -1.0803
 2630SOL    HW219353   0.398   1.554   7.754  0.3016 -0.1194  2.8000
 2631SOL     OW19354   4.068   1.210  13.699 -0.6163 -0.5884 -0.4073
 2631SOL    HW119355   4.134   1.205  13.768 -0.1128  1.4136 -0.7452
 2631SOL    HW219356   4.000   1.262  13.742  0.0730 -1.9392  2.3578
 2632SOL     OW19357   4.436   1.414   4.236 -0.1886  0.2485  0.1585
 2632SOL    HW119358   4.369   1.472   4.200  0.1713  0.5356 -0.0469
 2632SOL    HW219359   4.400   1.377   4.316 -1.6729 -0.2411 -0.7431
 2633SOL     OW19360   1.419   1.581  12.778 -0.0097  0.5610 -0.4037
 2633SOL    HW119361   1.385   1.558  12.865  1.5080 -1.2134 -0.2725
 2633SOL    HW219362   1.427   1.677  12.785  0.8199  0.2724  2.7494
 2634SOL     OW19363   4.617   3.111   6.542  0.2251  0.2481  0.3957
 2634SOL    HW119364   4.611   3.187   6.483  1.4515  1.0376  1.2995
 2634SOL    HW219365   4.700   3.126   6.586  0.7111  2.2265 -1.1467
 2635SOL     OW19366   4.021   4.403   7.485  0.6614  0.2655 -0.4170
 2635SOL    HW119367   3.963   4.398   7.408  0.8529 -1.7923 -0.4298
 2635SOL    HW219368   3.955   4.436   7.547 -0.2436 -0.6566 -0.8834
 2636SOL     OW19369   4.108   3.234  12.118 -0.6396  0.6106  0.1648
 2636SOL    HW119370   4.062   3.294  12.060  0.2177  0.6971 -0.4287
 2636SOL    HW219371   4.173   3.291  12.160  1.9158 -0.4913 -2.2659
 2637SOL     OW19372   1.267   4.001   3.353  0.2855 -0.5165 -0.2655
 2637SOL    HW119373   1.346   3.951   3.331  0.4172 -0.2747 -0.3410
 2637SOL    HW219374   1.202   3.956   3.298  0.0734 -0.6682  0.1110
 2638SOL     OW19375   0.181   2.275   6.593 -0.1233 -0.0751 -0.0782
 2638SOL    HW119376   0.146   2.342   6.653 -0.7061 -0.3266 -0.1324
 2638SOL    HW219377   0.271   2.305   6.593 -0.2168  0.2238  1.8308
 2639SOL     OW19378   2.513   3.691   5.029 -0.7372  0.0149  0.1445
 2639SOL    HW119379   2.441   3.751   5.046 -1.2187 -0.2842 -0.8463
 2639SOL    HW219380   2.582   3.755   5.009  1.8001 -2.0339  2.3111
 2640SOL     OW19381   3.537   1.460  13.325 -0.1629 -0.2155  0.5249
 2640SOL    HW119382   3.579   1.496  13.404 -0.9832 -0.7039  1.1833
 2640SOL    HW219383   3.449   1.467  13.361  0.1259  2.9718  0.6486
 2641SOL     OW19384   0.466   2.307   5.696  0.0035  0.3588  0.0441
 2641SOL    HW119385   0.482   2.228   5.644  0.9762  2.4171 -2.8289
 2641SOL    HW219386   0.556   2.315   5.729  0.0829  1.3696 -0.3937
 2642SOL     OW19387   3.087   1.587  11.553  0.2153  0.5389  0.0307
 2642SOL    HW119388   3.157   1.579  11.489 -0.3086  0.5123 -0.5369
 2642SOL    HW219389   3.101   1.512  11.610  0.8608  0.8916  0.3315
 2643SOL     OW19390   0.591   4.612  10.537  0.0129 -0.6920 -0.1923
 2643SOL    HW119391   0.551   4.600  10.450  0.1792 -0.6267 -0.2762
 2643SOL    HW219392   0.558   4.529  10.573  0.1873 -1.0704 -0.8894
 2644SOL     OW19393   1.422   2.860   7.685 -0.1229  0.4251 -1.1493
 2644SOL    HW119394   1.414   2.898   7.597  0.7853 -1.4195 -2.0379
 2644SOL    HW219395   1.431   2.767   7.666  1.6256  0.2730  0.5072
 2645SOL     OW19396   1.461   3.318   0.592 -0.0539  0.3062 -0.0084
 2645SOL    HW119397   1.455   3.223   0.599 -2.1703  0.4329 -0.1421
 2645SOL    HW219398   1.547   3.329   0.633  0.5745 -0.3885 -1.1516
 2646SOL     OW19399   2.112   3.316   3.501  0.1610  0.2518 -0.7756
 2646SOL    HW119400   2.037   3.373   3.514  1.5877  2.0948 -0.7444
 2646SOL    HW219401   2.110   3.307   3.405 -2.0149 -1.4715 -0.5785
 2647SOL     OW19402   3.714   0.373   6.262  0.2336  0.3247  0.1351
 2647SOL    HW119403   3.670   0.309   6.206 -0.3532  0.2436  0.6851
 2647SOL    HW219404   3.696   0.329   6.346  1.6173  0.6593  0.6133
 2648SOL     OW19405   0.093   0.923   3.695  0.3862 -0.3773  0.5817
 2648SOL    HW119406   0.028   0.937   3.626  1.7888 -2.3917 -1.0924
 2648SOL    HW219407   0.063   0.841   3.734 -2.0725  0.3318  0.1749
 2649SOL     OW19408   2.332   4.483   7.373 -0.4880  0.0995 -0.0700
 2649SOL    HW119409   2.256   4.504   7.427  1.2231  1.3873  1.8587
 2649SOL    HW219410   2.380   4.443   7.446 -2.1296 -1.5684  0.0948
 2650SOL     OW19411   2.180   1.217   8.881  0.4199 -0.2423 -0.4078
 2650SOL    HW119412   2.176   1.131   8.924 -3.6328  0.4429  0.6419
 2650SOL    HW219413   2.200   1.281   8.949  2.5769 -0.3325 -0.9596
 2651SOL     OW19414   3.600   2.078   9.533  0.1950 -0.2269 -0.0978
 2651SOL    HW119415   3.637   1.995   9.503  0.1622  0.2752 -1.5114
 2651SOL    HW219416   3.510   2.044   9.529  0.2667 -0.2746 -1.5142
 2652SOL     OW19417   3.775   3.733   1.999  1.0269 -0.3001 -0.0851
 2652SOL    HW119418   3.811   3.682   2.072 -1.1621 -1.1690  0.3978
 2652SOL    HW219419   3.850   3.738   1.939  0.1195 -0.5765 -1.2483
 2653SOL     OW19420   1.165   2.022   8.509  0.3308 -0.1914  0.8555
 2653SOL    HW119421   1.084   1.974   8.490  0.4820 -1.5360  3.5612
 2653SOL    HW219422   1.173   1.982   8.596  1.7748  0.5806  1.0795
 2654SOL     OW19423   1.568   0.320   0.030  0.4115 -0.2406  0.6206
 2654SOL    HW119424   1.629   0.335   0.103  0.1664  0.7540  0.6153
 2654SOL    HW219425   1.537   0.410   0.022  0.7797 -0.2215 -0.5667
 2655SOL     OW19426   2.340   2.757   0.407  0.0352 -0.3643 -0.5188
 2655SOL    HW119427   2.256   2.737   0.449  1.4098 -1.1835  1.8237
 2655SOL    HW219428   2.340   2.703   0.328 -0.9426  0.7090 -1.2648
 2656SOL     OW19429   3.260   2.643   2.471  0.4893 -0.2597  0.2662
 2656SOL    HW119430   3.178   2.594   2.468 -0.3562  1.1538  0.6172
 2656SOL    HW219431   3.294   2.636   2.560  1.8568 -1.6877 -0.3671
 2657SOL     OW19432   0.190   4.440   4.091 -0.1682 -0.6486  0.2250
 2657SOL    HW119433   0.111   4.419   4.141 -1.8434 -1.2889 -2.6677
 2657SOL    HW219434   0.253   4.373   4.117 -0.0345  0.5840  3.0849
 2658SOL     OW19435   1.820   0.387  10.111  0.1653  0.0615 -0.1292
 2658SOL    HW119436   1.879   0.377  10.187 -0.1926  0.1903  0.1665
 2658SOL    HW219437   1.739   0.356  10.152  1.3769 -0.3908  1.9563
 2659SOL     OW19438   3.091   3.417   7.324  0.2118  0.0577 -0.3629
 2659SOL    HW119439   3.064   3.325   7.322  2.0305 -0.4590 -1.1505
 2659SOL    HW219440   3.062   3.446   7.410  0.7047 -2.1322  0.5443
 2660SOL     OW19441   2.130   3.344   6.818 -0.0060  0.0545  0.3460
 2660SOL    HW119442   2.179   3.407   6.764 -0.7538 -0.6620 -1.1839
 2660SOL    HW219443   2.117   3.270   6.758 -0.1249  0.5464 -0.2425
 2661SOL     OW19444   0.236   1.339   2.452 -0.6737 -0.1727  0.0506
 2661SOL    HW119445   0.158   1.339   2.508 -1.6934 -0.3518 -1.3752
 2661SOL    HW219446   0.272   1.254   2.477  0.7280  0.5951  0.6710
 2662SOL     OW19447   2.864   4.498  16.906  0.2393  0.4943  0.4395
 2662SOL    HW119448   2.927   4.426  16.919  0.2438  0.4495  0.1673
 2662SOL    HW219449   2.800   4.462  16.845  0.5926 -0.7736  0.8109
 2663SOL     OW19450   3.439   3.179   7.185  0.3756 -0.4059 -0.1739
 2663SOL    HW119451   3.457   3.229   7.105 -0.0601  1.0089  0.6040
 2663SOL    HW219452   3.431   3.089   7.155  0.0043 -1.0419  1.9048
 2664SOL     OW19453   2.346   1.764   2.276 -0.3460 -0.2838  0.2604
 2664SOL    HW119454   2.283   1.692   2.291  0.3532 -0.7490  0.9785
 2664SOL    HW219455   2.418   1.731   2.331  0.1385 -0.6889 -0.6286
 2665SOL     OW19456   2.172   1.088   4.048 -0.5564 -0.3896 -0.2846
 2665SOL    HW119457   2.194   1.025   3.979 -1.0640  0.9213 -1.6366
 2665SOL    HW219458   2.081   1.061   4.064 -0.0764 -2.9678 -1.9907
 2666SOL     OW19459   1.597   0.982   5.795 -0.4371  0.1553  0.1608
 2666SOL    HW119460   1.679   1.027   5.775  0.3587 -2.1546 -1.7424
 2666SOL    HW219461   1.607   0.922   5.869 -2.3756  1.0183  1.1397
 2667SOL     OW19462   2.702   3.867   9.529 -0.2489 -0.2772 -0.1930
 2667SOL    HW119463   2.649   3.826   9.461 -2.3933 -0.4722  1.5964
 2667SOL    HW219464   2.689   3.961   9.514 -3.0017 -0.6332 -0.0010
 2668SOL     OW19465   3.103   1.672   8.526 -0.2442 -0.0155  0.8679
 2668SOL    HW119466   3.055   1.725   8.590 -0.1920 -0.2344  1.0868
 2668SOL    HW219467   3.109   1.749   8.470 -0.8574 -0.5781  0.0209
 2669SOL     OW19468   2.070   1.502  15.020  0.2674  0.3205 -0.0189
 2669SOL    HW119469   2.011   1.553  15.074  1.0777  0.9198  0.3001
 2669SOL    HW219470   2.112   1.579  14.980  0.6580  1.1295  1.9625
 2670SOL     OW19471   0.953   1.809   3.791 -0.2473 -0.0345  0.1591
 2670SOL    HW119472   0.883   1.752   3.822 -1.6134 -0.2180 -3.3626
 2670SOL    HW219473   1.025   1.747   3.781  2.0621  2.4041  1.5275
 2671SOL     OW19474   0.899   3.632   3.054  0.2903  0.1796 -0.6907
 2671SOL    HW119475   0.859   3.547   3.074  0.9921  0.1379  0.5017
 2671SOL    HW219476   0.990   3.607   3.038  0.5158 -0.5412  1.7147
 2672SOL     OW19477   4.380   0.450   8.471 -0.6540 -0.2413 -0.1744
 2672SOL    HW119478   4.312   0.428   8.408 -1.5048 -1.0299  1.0065
 2672SOL    HW219479   4.330   0.507   8.530 -0.9308  0.0072 -0.6507
 2673SOL     OW19480   0.156   4.186   0.859 -0.2616 -0.5152 -0.7945
 2673SOL    HW119481   0.227   4.227   0.810 -1.4574  1.4875 -0.8656
 2673SOL    HW219482   0.193   4.111   0.904  1.2728  0.6180 -0.1552
 2674SOL     OW19483   1.320   3.016   1.892 -0.1746 -0.0240  0.4396
 2674SOL    HW119484   1.399   2.968   1.916  0.0944  0.1093 -0.1613
 2674SOL    HW219485   1.348   3.038   1.803 -0.2072 -1.1466  0.1482
 2675SOL     OW19486   0.596   1.294   3.412 -0.0921 -0.0751  0.3150
 2675SOL    HW119487   0.508   1.331   3.415  0.2257  0.8322 -1.6673
 2675SOL    HW219488   0.618   1.303   3.319 -0.6902  1.8880  0.3602
 2676SOL     OW19489   1.700   2.228   5.680  0.2427 -0.0361  0.0271
 2676SOL    HW119490   1.738   2.236   5.767  0.0924 -1.6130  0.2388
 2676SOL    HW219491   1.743   2.151   5.644  0.9088  0.0877  0.5674
 2677SOL     OW19492   3.051   0.097   6.856 -0.1833 -0.0386  0.2037
 2677SOL    HW119493   3.010   0.131   6.935  0.7606  1.7687 -0.0797
 2677SOL    HW219494   3.112   0.169   6.841  0.0116 -0.1979  0.2331
 2678SOL     OW19495   4.180   4.249  16.972 -0.5622 -0.0765  0.5148
 2678SOL    HW119496   4.237   4.253  16.895 -0.6122  1.2657  0.5571
 2678SOL    HW219497   4.223   4.313  17.029 -1.6835  0.3536  0.8692
 2679SOL     OW19498   4.626   2.178   2.153  0.3080  0.3782  0.5987
 2679SOL    HW119499   4.694   2.141   2.096 -0.2581 -1.2266  0.9594
 2679SOL    HW219500   4.670   2.186   2.237 -0.8782 -2.7321  1.5392
 2680SOL     OW19501   4.537   4.527   1.780 -0.4640  0.1894  0.4168
 2680SOL    HW119502   4.543   4.505   1.687  0.5578  0.5195  0.4023
 2680SOL    HW219503   4.586   4.455   1.819  1.9631  1.7222  0.2621
 2681SOL     OW19504   3.954   3.024  10.720  0.2071  0.2158  0.2641
 2681SOL    HW119505   4.041   2.984  10.726 -0.4442 -1.3330 -0.6495
 2681SOL    HW219506   3.909   2.968  10.783 -1.0904 -0.1743 -1.0141
 2682SOL     OW19507   0.935   0.451   3.889 -0.5765  1.1765 -0.0021
 2682SOL    HW119508   0.968   0.532   3.929  3.0474  0.1897 -0.9865
 2682SOL    HW219509   0.841   0.456   3.907 -1.0706  0.6291 -2.4988
 2683SOL     OW19510   4.627   3.206  16.420 -0.0831 -0.0777 -0.6352
 2683SOL    HW119511   4.706   3.208  16.366 -0.3179 -1.6051 -1.0325
 2683SOL    HW219512   4.667   3.211  16.507  0.2718  0.6739 -0.8398
 2684SOL     OW19513   1.292   3.800  11.445  0.8013  0.3898  0.0864
 2684SOL    HW119514   1.379   3.808  11.406  0.7767 -2.3152 -0.5472
 2684SOL    HW219515   1.281   3.894  11.459  0.0986  0.1975  0.8066
 2685SOL     OW19516   2.689   3.479  10.784 -0.1488 -0.0499  0.2005
 2685SOL    HW119517   2.674   3.434  10.702 -0.3650 -1.4557  1.0077
 2685SOL    HW219518   2.607   3.457  10.827  0.1512 -0.3592  0.6235
 2686SOL     OW19519   1.051   3.768   4.937 -0.4800  0.0484 -0.2441
 2686SOL    HW119520   1.066   3.770   4.842 -1.8610  1.1336 -0.4269
 2686SOL    HW219521   1.064   3.860   4.957  0.4511 -0.0676 -0.2822
 2687SOL     OW19522   3.651   0.066   1.324  0.6863 -0.1367 -0.2258
 2687SOL    HW119523   3.683   0.093   1.238  0.6542 -0.9303 -0.4826
 2687SOL    HW219524   3.563   0.104   1.329  1.4385  1.7430 -1.2108
 2688SOL     OW19525   0.660   2.952   3.228  0.0776  0.3898 -0.4727
 2688SOL    HW119526   0.681   3.037   3.190  1.6346  0.0464 -0.3741
 2688SOL    HW219527   0.599   2.920   3.162 -1.2552  3.7333 -0.8614
 2689SOL     OW19528   2.276   4.366   5.955  0.1647 -0.2820 -0.0477
 2689SOL    HW119529   2.369   4.381   5.942 -0.0412 -0.5391 -1.8216
 2689SOL    HW219530   2.239   4.454   5.943  1.2929  0.0298 -1.2755
 2690SOL     OW19531   0.037   4.696   7.366 -0.0889 -0.4113  0.5984
 2690SOL    HW119532   0.026   4.606   7.397 -0.7853 -0.7275 -0.5598
 2690SOL    HW219533   0.124   4.710   7.403 -1.0250  2.6331  1.5938
 2691SOL     OW19534   1.522   1.324   3.807 -0.0585 -0.1864  0.6015
 2691SOL    HW119535   1.530   1.393   3.873 -1.0823  0.9499 -0.4654
 2691SOL    HW219536   1.603   1.335   3.757 -0.0718  0.0969  0.6406
 2692SOL     OW19537   4.358   3.177   3.764  0.1495  0.4096  0.1630
 2692SOL    HW119538   4.288   3.239   3.750 -2.0187 -1.8356  1.0072
 2692SOL    HW219539   4.345   3.174   3.859  0.8485  0.9787  0.2826
 2693SOL     OW19540   4.709   2.370  13.739 -0.5322  0.4619 -0.0786
 2693SOL    HW119541   0.012   2.286  13.705 -0.6935  0.2433  0.3233
 2693SOL    HW219542   4.646   2.333  13.801 -0.1273 -2.2080 -1.2536
 2694SOL     OW19543   0.382   1.392   7.367 -0.3516 -0.1548  0.6988
 2694SOL    HW119544   0.447   1.445   7.414 -0.6208 -0.3321  1.2760
 2694SOL    HW219545   0.372   1.431   7.280  1.3074 -1.4331 -0.0913
 2695SOL     OW19546   2.288   1.729   6.931 -0.3847 -0.3730 -0.1251
 2695SOL    HW119547   2.344   1.775   6.993 -1.3699 -0.2113  0.6590
 2695SOL    HW219548   2.210   1.723   6.986 -0.6451  0.8835 -0.3656
 2696SOL     OW19549   3.474   4.097   5.273 -0.3657 -0.0716 -0.1362
 2696SOL    HW119550   3.497   4.186   5.300 -1.2657  0.4792 -1.1842
 2696SOL    HW219551   3.510   4.108   5.185  0.6537 -2.4072 -0.0051
 2697SOL     OW19552   3.538   3.583   6.469 -0.0077  0.3672  0.4917
 2697SOL    HW119553   3.467   3.599   6.532 -2.3210  0.7365 -2.2265
 2697SOL    HW219554   3.615   3.587   6.526  1.2290 -1.1156 -1.0704
 2698SOL     OW19555   1.584   3.198  17.109  0.0943 -0.5862 -0.2430
 2698SOL    HW119556   1.524   3.272  17.111  1.9146  0.8587  0.0784
 2698SOL    HW219557   1.633   3.223  17.030  1.3613  2.0621  1.3978
 2699SOL     OW19558   3.140   2.500   4.117  0.3160 -0.3287 -0.2031
 2699SOL    HW119559   3.103   2.440   4.180 -0.8204  0.3164 -0.2555
 2699SOL    HW219560   3.072   2.492   4.050  1.0554  0.0127 -0.9965
 2700SOL     OW19561   4.568   0.018   6.817  0.2944  0.2205  0.1132
 2700SOL    HW119562   4.512   0.096   6.818  1.4188  1.0321 -0.1947
 2700SOL    HW219563   4.647   0.071   6.828  0.6306 -0.0234 -1.0589
 2701SOL     OW19564   2.295   2.887  17.039  0.1256 -0.3004  0.2323
 2701SOL    HW119565   2.206   2.860  17.017 -0.0612  1.1291 -0.7557
 2701SOL    HW219566   2.305   2.975  17.002  0.7088 -0.9536 -1.1545
 2702SOL     OW19567   3.167   1.693   7.539 -0.1057 -0.2415 -0.1991
 2702SOL    HW119568   3.169   1.690   7.635 -0.2262 -1.0721 -0.2216
 2702SOL    HW219569   3.084   1.734   7.518 -0.1038  0.4308  1.1188
 2703SOL     OW19570   0.555   1.644   5.698  0.1816 -0.1595  0.0798
 2703SOL    HW119571   0.571   1.556   5.732 -1.4032 -0.2402  0.6502
 2703SOL    HW219572   0.462   1.637   5.677 -0.0628 -0.0055  1.0852
 2704SOL     OW19573   3.469   3.381   6.948 -0.1567 -0.4618  0.1830
 2704SOL    HW119574   3.469   3.476   6.959 -0.5851 -0.4998  0.5292
 2704SOL    HW219575   3.381   3.358   6.917 -0.3507  1.8354 -0.9733
 2705SOL     OW19576   1.717   3.808   8.417  0.2624  0.5476  0.1012
 2705SOL    HW119577   1.777   3.786   8.487 -0.6857 -1.0949  0.3946
 2705SOL    HW219578   1.663   3.729   8.409 -0.0810  0.9345 -1.4939
 2706SOL     OW19579   0.872   0.563  14.027 -0.0805  0.3396  0.0736
 2706SOL    HW119580   0.784   0.526  14.032  0.0178 -0.0021 -0.6716
 2706SOL    HW219581   0.928   0.497  14.067  1.2242  0.1078 -2.1113
 2707SOL     OW19582   0.331   1.823   3.745 -0.3239  0.3853  0.0929
 2707SOL    HW119583   0.271   1.895   3.722 -1.4437 -0.3455  0.7717
 2707SOL    HW219584   0.364   1.801   3.658 -0.3395 -0.0639  0.2038
 2708SOL     OW19585   4.092   3.372   9.344  0.3374 -0.2859  0.3216
 2708SOL    HW119586   4.062   3.310   9.278 -1.8399 -0.1378  1.1674
 2708SOL    HW219587   4.183   3.345   9.358  1.3584  2.1220 -1.6548
 2709SOL     OW19588   0.574   1.780   3.555 -0.0160  0.0917  0.0058
 2709SOL    HW119589   0.624   1.813   3.481  0.1416 -0.9375 -0.3537
 2709SOL    HW219590   0.642   1.737   3.607  0.6990 -0.1943 -1.1741
 2710SOL     OW19591   1.452   2.814   8.161  0.2945  0.2679  0.3063
 2710SOL    HW119592   1.517   2.832   8.229  1.9182  0.6614 -1.3632
 2710SOL    HW219593   1.480   2.734   8.118  1.5796  0.7477  0.2542
 2711SOL     OW19594   3.740   0.337  10.067 -0.0532  0.4720 -0.3105
 2711SOL    HW119595   3.758   0.390   9.990  1.4193 -1.0203 -1.0021
 2711SOL    HW219596   3.761   0.401  10.135 -0.0501  0.4991 -0.3376
 2712SOL     OW19597   4.582   1.855   9.218  0.1179 -0.1587 -0.2491
 2712SOL    HW119598   4.511   1.800   9.253 -0.1497 -0.4954 -1.3383
 2712SOL    HW219599   4.647   1.856   9.288  0.0992  1.0749 -0.2574
 2713SOL     OW19600   3.670   4.429   4.240  0.6504 -0.1324 -0.7290
 2713SOL    HW119601   3.628   4.493   4.183  1.6288  0.5369 -0.6877
 2713SOL    HW219602   3.747   4.480   4.262 -1.4273  2.1556  1.2036
 2714SOL     OW19603   0.157   2.360   2.798 -0.3028  0.4136 -0.3810
 2714SOL    HW119604   0.106   2.317   2.867  1.2399 -1.1383 -0.1952
 2714SOL    HW219605   0.102   2.344   2.722 -0.1149 -1.3228 -0.1442
 2715SOL     OW19606   2.472   1.834   1.580 -0.4717  0.2395 -0.5356
 2715SOL    HW119607   2.557   1.862   1.546 -0.2202  1.0383  0.7505
 2715SOL    HW219608   2.490   1.786   1.661 -0.9828  1.1063  0.0949
 2716SOL     OW19609   1.816   2.108  17.359 -0.0661  0.1021  0.4259
 2716SOL    HW119610   1.903   2.074  17.380  0.8915  1.3515 -1.5697
 2716SOL    HW219611   1.770   2.113  17.443 -2.7463  1.7436 -1.1330
 2717SOL     OW19612   1.869   1.177   1.964  0.4960 -0.6666 -0.0426
 2717SOL    HW119613   1.777   1.203   1.960 -0.2950 -3.5870 -0.7477
 2717SOL    HW219614   1.915   1.205   1.884 -0.1250  0.8283  0.1343
 2718SOL     OW19615   0.688   0.048   8.508  0.5371 -0.4057 -0.0927
 2718SOL    HW119616   0.654   4.685   8.506  0.0853 -0.1952 -1.9200
 2718SOL    HW219617   0.740   0.052   8.588  0.5491 -1.7419 -0.0256
 2719SOL     OW19618   3.480   2.818   8.912 -0.2348  0.2593  0.2485
 2719SOL    HW119619   3.406   2.816   8.972 -1.2682  1.8882 -0.9587
 2719SOL    HW219620   3.543   2.771   8.966 -3.3741 -2.2780  1.6864
 2720SOL     OW19621   2.398   0.001   5.517  0.2096 -0.0492  0.7695
 2720SOL    HW119622   2.379   0.032   5.606  2.4703 -0.0984  1.2834
 2720SOL    HW219623   2.449   0.069   5.472  3.0631 -2.4296  0.4566
 2721SOL     OW19624   3.789   1.670   0.345 -0.1526 -0.5314  0.2383
 2721SOL    HW119625   3.814   1.618   0.269  1.4980 -0.2343  0.5965
 2721SOL    HW219626   3.805   1.608   0.416 -1.0024 -1.0710 -0.0368
 2722SOL     OW19627   2.361   4.427   5.411  0.3476  0.2026 -0.5558
 2722SOL    HW119628   2.449   4.438   5.375  0.2422  0.3882 -0.7551
 2722SOL    HW219629   2.361   4.489   5.483 -1.5996  0.7508 -1.0239
 2723SOL     OW19630   2.329   3.174   5.757  0.0000 -0.0571 -0.6146
 2723SOL    HW119631   2.334   3.080   5.773  0.5941 -0.1516 -1.3334
 2723SOL    HW219632   2.234   3.187   5.761 -0.0804 -0.1089 -2.2200
 2724SOL     OW19633   1.283   2.471   8.073  0.4303 -0.2406  0.6660
 2724SOL    HW119634   1.301   2.451   7.981 -1.3754  2.4281 -0.2644
 2724SOL    HW219635   1.203   2.523   8.067  1.6251  1.5205 -0.0995
 2725SOL     OW19636   2.523   0.744  10.730  0.0556 -0.6570  0.9612
 2725SOL    HW119637   2.537   0.826  10.777 -1.2870  0.4804 -0.6463
 2725SOL    HW219638   2.607   0.701  10.744 -0.3757 -1.6242  0.5719
 2726SOL     OW19639   3.017   2.375   6.286 -0.4064  0.3389 -0.5069
 2726SOL    HW119640   3.054   2.443   6.229 -0.6169  1.7669  1.0490
 2726SOL    HW219641   2.940   2.348   6.237  1.0223 -1.1856 -1.8792
 2727SOL     OW19642   1.486   2.890   5.132  0.4097  0.8667 -0.1395
 2727SOL    HW119643   1.560   2.918   5.185  2.1341 -1.2805 -1.4035
 2727SOL    HW219644   1.471   2.971   5.083  1.0638 -0.3544 -2.3465
 2728SOL     OW19645   3.903   0.959   9.209  0.5732 -0.0676 -0.2765
 2728SOL    HW119646   3.813   0.982   9.189  0.2842  1.5002  2.8333
 2728SOL    HW219647   3.891   0.881   9.263 -0.3681  1.7951  2.1799
 2729SOL     OW19648   0.256   1.424   0.111  0.6353  0.0766  0.7976
 2729SOL    HW119649   0.267   1.446   0.203 -0.8045  0.9484  0.7495
 2729SOL    HW219650   0.161   1.410   0.106  0.4985  1.4590 -0.3980
 2730SOL     OW19651   3.235   2.483   2.223 -1.1565 -0.3279  0.2079
 2730SOL    HW119652   3.176   2.474   2.298 -0.1762 -2.4862  0.7199
 2730SOL    HW219653   3.235   2.576   2.199  2.2155 -0.3575  0.0457
 2731SOL     OW19654   2.022   2.728   6.254 -0.0850 -0.6227  0.2336
 2731SOL    HW119655   2.007   2.797   6.189  0.8176  0.3779  1.0953
 2731SOL    HW219656   1.944   2.675   6.238 -0.7233  1.0409 -2.1844
 2732SOL     OW19657   1.556   4.487   9.689  0.1616 -0.3273  0.1344
 2732SOL    HW119658   1.476   4.525   9.725 -1.2460 -2.0241 -1.2128
 2732SOL    HW219659   1.537   4.394   9.698  1.7407 -0.5221  1.4285
 2733SOL     OW19660   3.877   3.145   8.244  0.3252  1.0951 -0.1912
 2733SOL    HW119661   3.866   3.215   8.308 -0.4196  1.0406 -0.2538
 2733SOL    HW219662   3.855   3.067   8.295  1.1646  1.0608  0.1159
 2734SOL     OW19663   0.036   0.380   3.161 -0.4990 -0.1435  0.3062
 2734SOL    HW119664   0.012   0.436   3.234  0.7108  2.2414 -1.1164
 2734SOL    HW219665   4.686   0.324   3.155 -0.5162 -0.1641  0.7146
 2735SOL     OW19666   3.735   1.367   7.977  0.1029  0.1981  0.0739
 2735SOL    HW119667   3.714   1.299   7.913  0.6576 -1.1966  1.3600
 2735SOL    HW219668   3.675   1.439   7.958  1.6061  0.8629 -2.1184
 2736SOL     OW19669   2.582   3.017  13.800 -0.0456 -0.3553 -0.0729
 2736SOL    HW119670   2.552   2.975  13.881  1.4219 -0.4995  0.3983
 2736SOL    HW219671   2.534   3.099  13.800 -0.2574 -0.4779  1.2313
 2737SOL     OW19672   2.669   1.317  10.413 -0.1866 -0.0631 -0.3958
 2737SOL    HW119673   2.624   1.252  10.359 -2.3167  0.1713  1.1120
 2737SOL    HW219674   2.594   1.359  10.455  0.2494  0.1738  0.1451
 2738SOL     OW19675   3.900   3.863  12.170 -0.3235 -0.0760  0.2098
 2738SOL    HW119676   3.880   3.955  12.154 -1.7354 -0.0734  2.0995
 2738SOL    HW219677   3.934   3.869  12.259  0.3025 -0.4898  0.0001
 2739SOL     OW19678   3.155   3.163   8.724  0.0317  0.1494 -0.2675
 2739SOL    HW119679   3.169   3.229   8.657 -0.4128  1.0338  0.5084
 2739SOL    HW219680   3.203   3.088   8.690 -0.1341 -0.7170  1.4179
 2740SOL     OW19681   2.812   1.149  10.624 -0.5454  0.1117  0.3162
 2740SOL    HW119682   2.723   1.116  10.610 -0.1371 -0.7404 -0.2669
 2740SOL    HW219683   2.823   1.192  10.539  1.9525 -1.1524  0.0176
 2741SOL     OW19684   3.136   1.647  13.606  0.6420  0.0006 -0.3414
 2741SOL    HW119685   3.141   1.743  13.599 -0.6009  0.2689  2.5887
 2741SOL    HW219686   3.043   1.629  13.590  0.7600  0.1945 -1.2732
 2742SOL     OW19687   2.953   1.721   3.144  0.5175 -0.0237  0.0262
 2742SOL    HW119688   2.985   1.770   3.069  1.5949  0.7463  1.0028
 2742SOL    HW219689   3.036   1.688   3.178  1.2282  0.9323 -0.7880
 2743SOL     OW19690   1.565   2.802   0.987  0.6545  0.4963  0.3894
 2743SOL    HW119691   1.595   2.876   0.934  1.3678 -0.7013 -0.8826
 2743SOL    HW219692   1.472   2.804   0.967  0.8569 -0.4325 -0.6301
 2744SOL     OW19693   0.009   2.737   5.675  0.1903  0.1916 -0.6619
 2744SOL    HW119694   0.095   2.780   5.681  0.4883 -0.2984 -1.3913
 2744SOL    HW219695   4.703   2.781   5.597 -1.4247 -2.9530 -1.7312
 2745SOL     OW19696   0.527   0.928   5.980 -0.1400  0.2635  0.1930
 2745SOL    HW119697   0.572   0.983   6.044 -0.2709  0.6890 -0.0804
 2745SOL    HW219698   0.476   0.870   6.038 -0.3377 -0.6558 -0.9043
 2746SOL     OW19699   2.951   4.094  13.106 -0.2441  0.4021 -0.1419
 2746SOL    HW119700   2.940   4.072  13.014  2.9527 -0.6628 -0.2715
 2746SOL    HW219701   2.937   4.189  13.100 -0.2082  0.3593 -0.8961
 2747SOL     OW19702   1.294   1.206  14.725  0.1538 -0.9199 -0.3564
 2747SOL    HW119703   1.374   1.250  14.754  0.7149 -0.8395 -1.9951
 2747SOL    HW219704   1.227   1.258  14.768 -0.8023  0.9715 -4.1641
 2748SOL     OW19705   3.687   1.309   5.704 -0.2031  0.1398 -0.5827
 2748SOL    HW119706   3.638   1.387   5.729 -1.5988 -1.5209  1.8591
 2748SOL    HW219707   3.620   1.244   5.682 -0.4813  0.0101  0.6429
 2749SOL     OW19708   1.747   1.539   4.172  0.2646  0.4007 -0.2759
 2749SOL    HW119709   1.724   1.618   4.220 -1.7781 -0.1181 -0.3913
 2749SOL    HW219710   1.708   1.471   4.228 -2.0536  2.3213  0.4011
 2750SOL     OW19711   3.071   0.533   7.291 -0.0148 -0.7995  0.2705
 2750SOL    HW119712   3.021   0.614   7.277  1.6190  0.1705  0.0546
 2750SOL    HW219713   3.104   0.554   7.378 -0.0240 -0.0856  0.1029
 2751SOL     OW19714   0.589   3.295   2.556  0.1454 -0.0711  0.1467
 2751SOL    HW119715   0.668   3.251   2.525  0.6628 -0.9565  2.7688
 2751SOL    HW219716   0.580   3.234   2.629 -0.7950 -0.9363 -0.6967
 2752SOL     OW19717   3.713   3.641  10.098 -0.4925  0.0954 -0.3538
 2752SOL    HW119718   3.716   3.720  10.152  1.4163 -1.9814  2.5296
 2752SOL    HW219719   3.801   3.609  10.112 -0.6999 -0.2697  0.0981
 2753SOL     OW19720   1.413   4.267   0.246 -0.4704 -0.4571 -0.5732
 2753SOL    HW119721   1.383   4.192   0.194  0.1801  0.2432 -1.9490
 2753SOL    HW219722   1.367   4.256   0.329  0.8400 -1.8719 -0.0380
 2754SOL     OW19723   0.499   2.870   9.877  0.5757  0.0476 -0.6107
 2754SOL    HW119724   0.538   2.934   9.937  2.6010  0.0019 -1.8935
 2754SOL    HW219725   0.492   2.915   9.794 -1.0151 -1.2382 -1.1594
 2755SOL     OW19726   0.404   0.245   6.395  0.0346  0.0387  0.2315
 2755SOL    HW119727   0.405   0.174   6.459 -2.9220  0.8186  1.1228
 2755SOL    HW219728   0.499   0.251   6.385 -0.1340  1.9792 -0.2773
 2756SOL     OW19729   0.443   3.580   4.870  0.3601 -0.3268  0.2800
 2756SOL    HW119730   0.395   3.528   4.806 -0.9086  2.3344 -0.9190
 2756SOL    HW219731   0.529   3.542   4.855  0.6877  0.7442 -0.4815
 2757SOL     OW19732   0.358   3.308   4.007 -0.2874 -0.0072  0.2910
 2757SOL    HW119733   0.405   3.312   3.923 -0.4333  0.8672  0.2522
 2757SOL    HW219734   0.433   3.311   4.067 -0.9067 -2.4322  1.1795
 2758SOL     OW19735   0.982   3.432   3.651 -0.1425 -0.7553  0.7128
 2758SOL    HW119736   0.900   3.480   3.660  0.1911  0.0154 -0.4575
 2758SOL    HW219737   0.957   3.346   3.617 -0.5305 -0.9755  1.5604
 2759SOL     OW19738   3.771   4.074   6.275 -0.4032 -0.0282  0.3404
 2759SOL    HW119739   3.725   4.014   6.215  3.5966 -0.7690 -1.9750
 2759SOL    HW219740   3.758   4.150   6.218  2.5115 -1.1014 -1.7618
 2760SOL     OW19741   3.652   3.160   1.155  0.6012  0.1709 -0.4194
 2760SOL    HW119742   3.624   3.245   1.192 -1.6115 -0.2439 -1.1269
 2760SOL    HW219743   3.682   3.119   1.236 -1.4072 -1.8617 -0.7095
 2761SOL     OW19744   3.449   3.704  16.009 -0.8559 -0.4250  0.2159
 2761SOL    HW119745   3.496   3.644  15.952 -0.3724  0.2573 -0.1065
 2761SOL    HW219746   3.433   3.782  15.956 -1.0592 -1.8489 -1.8243
 2762SOL     OW19747   0.646   2.591   6.060  0.4598  0.2133 -0.0598
 2762SOL    HW119748   0.619   2.649   5.989 -0.5814  1.1525  1.1102
 2762SOL    HW219749   0.715   2.549   6.007  0.0130 -0.5784 -0.0139
 2763SOL     OW19750   3.439   0.956   6.082  0.2867 -0.0948 -0.4130
 2763SOL    HW119751   3.498   0.894   6.125  0.8293  1.0560  0.4766
 2763SOL    HW219752   3.424   1.025   6.147 -1.5466 -0.3508 -0.5617
 2764SOL     OW19753   4.544   2.937   4.823 -0.3031 -0.3199  0.5367
 2764SOL    HW119754   4.498   2.855   4.842  0.3665 -0.9366 -0.5209
 2764SOL    HW219755   4.575   2.950   4.913  0.5676 -0.7630  0.3016
 2765SOL     OW19756   2.294   2.735   7.957 -0.3637  0.3036  0.0031
 2765SOL    HW119757   2.365   2.708   8.015  0.5400 -1.9313 -2.1114
 2765SOL    HW219758   2.339   2.815   7.932  1.9243 -1.3013 -1.0117
 2766SOL     OW19759   3.444   2.036   5.624 -0.2453  0.5833 -0.1122
 2766SOL    HW119760   3.479   2.089   5.696 -0.9032  1.8138 -0.7020
 2766SOL    HW219761   3.481   2.074   5.545  0.4695  0.4248  0.1432
 2767SOL     OW19762   3.803   2.030   5.741  0.0779 -0.0798  0.4269
 2767SOL    HW119763   3.862   1.955   5.738 -0.7488 -0.7306  0.6052
 2767SOL    HW219764   3.820   2.047   5.648 -1.3223 -0.7075  0.0634
 2768SOL     OW19765   4.308   3.128  12.617  0.2098  0.4811 -0.1913
 2768SOL    HW119766   4.347   3.210  12.586 -0.5552  1.9282  2.6476
 2768SOL    HW219767   4.350   3.062  12.562  3.2769  2.5200 -0.2958
 2769SOL     OW19768   3.427   0.272   5.015  0.0819  0.4787 -0.0824
 2769SOL    HW119769   3.343   0.249   5.054 -0.0968  1.7803  0.3058
 2769SOL    HW219770   3.410   0.316   4.931 -2.7915 -0.4678  0.0168
 2770SOL     OW19771   0.055   0.615   3.005  0.0241  0.8575 -0.0971
 2770SOL    HW119772   0.104   0.627   2.925  1.7331 -1.7493  0.5802
 2770SOL    HW219773   0.061   0.520   3.017  0.5832  1.0038  0.7974
 2771SOL     OW19774   3.493   4.079   3.278  0.0402  0.2196  0.1357
 2771SOL    HW119775   3.516   4.040   3.363 -1.3033 -1.1439 -0.1221
 2771SOL    HW219776   3.489   4.008   3.214 -1.1622 -1.7813  2.4219
 2772SOL     OW19777   0.469   0.730  14.703  0.1489  0.2935  0.0314
 2772SOL    HW119778   0.482   0.824  14.697  1.4300 -0.1060 -3.3815
 2772SOL    HW219779   0.377   0.713  14.680  0.1973  0.0510  0.0170
 2773SOL     OW19780   2.494   0.488   7.487  0.2916 -0.5093  0.3160
 2773SOL    HW119781   2.548   0.559   7.520 -1.3779  0.9670 -0.0995
 2773SOL    HW219782   2.407   0.524   7.504 -0.3593 -2.0254  0.2198
 2774SOL     OW19783   3.051   2.993   5.860  0.3843 -0.5292  0.2234
 2774SOL    HW119784   2.977   3.053   5.852  0.9757  0.1780  0.0760
 2774SOL    HW219785   3.120   3.055   5.837 -0.9492 -0.0437 -2.5027
 2775SOL     OW19786   4.451   2.826   6.762  0.0736  0.1388 -0.4115
 2775SOL    HW119787   4.496   2.892   6.815 -0.8764  0.9548 -0.6373
 2775SOL    HW219788   4.460   2.750   6.820 -0.1152  0.0094 -0.5533
 2776SOL     OW19789   0.484   2.132   8.640 -0.4007  0.5572 -0.0358
 2776SOL    HW119790   0.469   2.037   8.645  0.5012  0.4479  0.5752
 2776SOL    HW219791   0.401   2.174   8.663 -1.0444 -0.4715 -0.4453
 2777SOL     OW19792   3.617   0.642   4.384  0.1564 -0.3217 -0.0033
 2777SOL    HW119793   3.653   0.708   4.325 -0.6402 -0.1330 -0.2751
 2777SOL    HW219794   3.529   0.676   4.401 -0.7993 -2.6379 -0.2242
 2778SOL     OW19795   4.331   4.256  11.584  0.1983 -0.5144 -0.4607
 2778SOL    HW119796   4.351   4.342  11.547 -0.2512 -0.4185 -0.4845
 2778SOL    HW219797   4.238   4.263  11.606  0.1062 -1.2003 -0.6314
 2779SOL     OW19798   1.661   4.045   5.964  0.7531  0.3779  0.0022
 2779SOL    HW119799   1.620   3.958   5.964 -0.1487  0.7980 -2.3577
 2779SOL    HW219800   1.592   4.101   5.999 -0.5878 -0.6615 -0.9703
 2780SOL     OW19801   1.363   0.580   6.238 -0.0675 -0.6346 -0.4478
 2780SOL    HW119802   1.431   0.632   6.281 -1.3577 -1.2062  2.3285
 2780SOL    HW219803   1.386   0.491   6.267 -2.6540 -1.4859 -0.9593
 2781SOL     OW19804   3.159   4.430  12.705  0.4663  0.1516  0.0724
 2781SOL    HW119805   3.231   4.475  12.749 -0.2435 -0.0046  1.3792
 2781SOL    HW219806   3.140   4.487  12.630 -0.1227  0.4711  0.4704
 2782SOL     OW19807   4.079   0.825   6.930 -0.6767 -0.1078  0.6889
 2782SOL    HW119808   4.118   0.741   6.954  2.5598  1.8425  2.1872
 2782SOL    HW219809   3.997   0.795   6.889 -0.2464 -2.0071  1.1907
 2783SOL     OW19810   0.443   2.294  15.592 -0.2085 -0.3871  0.0669
 2783SOL    HW119811   0.428   2.254  15.506 -0.7149  0.0710 -0.0568
 2783SOL    HW219812   0.360   2.272  15.634 -0.1344 -0.0931  0.3671
 2784SOL     OW19813   3.626   1.810   8.419  0.1276  0.0048  0.6289
 2784SOL    HW119814   3.682   1.848   8.487 -0.8894  3.2593 -0.3258
 2784SOL    HW219815   3.548   1.866   8.416  2.9266  3.9234  0.2448
 2785SOL     OW19816   1.311   2.277   3.001 -0.2511 -0.1194 -0.2143
 2785SOL    HW119817   1.241   2.223   2.965 -0.1993  0.0559 -0.5683
 2785SOL    HW219818   1.329   2.324   2.920 -1.4009 -1.1752 -1.0675
 2786SOL     OW19819   4.540   0.472  13.559  0.2791 -0.2592 -0.4552
 2786SOL    HW119820   4.548   0.425  13.643  1.2031  0.5649 -0.0801
 2786SOL    HW219821   4.634   0.488  13.545  0.4369 -0.8085 -0.0267
 2787SOL     OW19822   4.211   3.601   1.051  0.5666 -0.1002  0.1104
 2787SOL    HW119823   4.173   3.576   1.135 -2.3616  2.1372 -0.5527
 2787SOL    HW219824   4.250   3.688   1.057  0.9540 -0.2929  0.3664
 2788SOL     OW19825   1.638   1.060   4.169  0.1633 -0.4527  0.2394
 2788SOL    HW119826   1.574   1.130   4.155  3.0110  2.1282  0.0957
 2788SOL    HW219827   1.623   1.011   4.089 -3.8996  3.2676 -1.3040
 2789SOL     OW19828   4.072   0.818  16.648  0.2127  0.2511  0.5420
 2789SOL    HW119829   4.163   0.788  16.642  1.0340  2.5686  1.3125
 2789SOL    HW219830   4.041   0.735  16.685  1.7711  0.0005  1.2684
 2790SOL     OW19831   0.523   3.849   4.137  0.3001 -0.0197 -0.1445
 2790SOL    HW119832   0.472   3.782   4.092  0.1993  0.1398 -0.2687
 2790SOL    HW219833   0.503   3.929   4.089 -0.0114  0.9997  1.6621
 2791SOL     OW19834   3.940   2.681   9.586 -0.1829  0.0423  0.4309
 2791SOL    HW119835   3.953   2.651   9.676  1.6341 -2.3800 -0.6364
 2791SOL    HW219836   4.029   2.708   9.563 -1.1271  2.8046  0.0744
 2792SOL     OW19837   4.294   1.697   9.849  0.2779  0.0849 -0.1412
 2792SOL    HW119838   4.389   1.689   9.851  0.1739 -0.7870  1.4453
 2792SOL    HW219839   4.260   1.629   9.790 -0.3294 -1.5319  2.0686
 2793SOL     OW19840   0.126   0.292   2.682 -0.1934 -0.1885 -0.0156
 2793SOL    HW119841   0.128   0.197   2.672 -2.1870 -0.2434 -0.0110
 2793SOL    HW219842   0.053   0.320   2.626  0.9579  0.8316 -1.0078
 2794SOL     OW19843   3.109   0.796   5.620 -0.3020  0.3128  0.2851
 2794SOL    HW119844   3.044   0.846   5.671  1.1886  0.7321  1.7531
 2794SOL    HW219845   3.088   0.707   5.647  1.5634 -0.2873 -0.2968
 2795SOL     OW19846   0.834   1.032   0.208  0.1309 -0.5430  0.1775
 2795SOL    HW119847   0.846   0.938   0.217  2.0506 -0.1948  1.4523
 2795SOL    HW219848   0.742   1.044   0.188  0.2403 -1.2830 -0.7787
 2796SOL     OW19849   1.041   3.993  15.342  0.4037 -0.3442  0.0163
 2796SOL    HW119850   1.112   4.015  15.281  0.1927  1.2569  0.3409
 2796SOL    HW219851   0.970   4.049  15.314 -0.2164 -0.5983  1.0686
 2797SOL     OW19852   1.010   3.979   8.188 -0.5870 -0.7133  0.2564
 2797SOL    HW119853   1.068   3.959   8.261 -0.3515 -2.1369 -0.3174
 2797SOL    HW219854   0.938   4.031   8.224  1.5342  2.8598 -0.6608
 2798SOL     OW19855   0.640   2.629  10.647 -0.1027 -0.4009 -0.2854
 2798SOL    HW119856   0.634   2.565  10.719 -0.1117  1.5693  1.4459
 2798SOL    HW219857   0.545   2.643  10.656 -0.3127 -1.6117 -0.5703
 2799SOL     OW19858   3.650   1.034   9.097  0.6059  0.1423  0.1386
 2799SOL    HW119859   3.595   1.024   9.019 -2.6511  3.7883  1.9697
 2799SOL    HW219860   3.604   0.984   9.164 -1.6831  0.1981 -1.3881
 2800SOL     OW19861   0.248   2.889   5.709  0.0311 -0.2557  0.1098
 2800SOL    HW119862   0.281   2.977   5.729 -0.6102 -0.0124  0.1018
 2800SOL    HW219863   0.274   2.871   5.618 -0.8823  1.6967 -0.5413
 2801SOL     OW19864   4.440   3.467   7.136  1.0374  0.4810  0.0948
 2801SOL    HW119865   4.359   3.498   7.096  0.3827 -0.8156  0.4278
 2801SOL    HW219866   4.482   3.553   7.144 -1.6412  1.7143  0.9409
 2802SOL     OW19867   4.468   3.348   3.225 -0.1595  0.3895 -0.0284
 2802SOL    HW119868   4.409   3.280   3.193 -0.2756  0.6385 -0.3300
 2802SOL    HW219869   4.437   3.424   3.176  1.5769  1.3183  0.3216
 2803SOL     OW19870   2.640   0.545   4.288 -0.2355 -0.3930  0.2613
 2803SOL    HW119871   2.552   0.514   4.306 -0.1901 -1.0153 -0.5659
 2803SOL    HW219872   2.614   0.636   4.273 -1.4385 -0.6877  0.6232
 2804SOL     OW19873   2.086   1.293  14.738 -0.3785 -0.5714  0.6488
 2804SOL    HW119874   2.050   1.344  14.811  0.6205 -0.0174  0.7534
 2804SOL    HW219875   2.132   1.362  14.690  1.5811 -2.5287 -0.2695
 2805SOL     OW19876   3.910   1.419   0.635  0.0131 -0.1976  0.1723
 2805SOL    HW119877   3.923   1.481   0.708  0.8253 -0.6205  0.3884
 2805SOL    HW219878   3.979   1.450   0.576  0.2411 -0.0583  0.5096
 2806SOL     OW19879   2.312   2.262   7.813 -0.5422 -0.3124  0.3120
 2806SOL    HW119880   2.220   2.253   7.838 -0.4206  0.4480  1.0211
 2806SOL    HW219881   2.321   2.355   7.793 -2.0182  0.1399  1.7130
 2807SOL     OW19882   3.555   1.243   9.510  0.6981  0.2585  0.3143
 2807SOL    HW119883   3.643   1.227   9.476  1.3532 -0.1575  2.2396
 2807SOL    HW219884   3.522   1.153   9.508  0.3622  0.3691  1.0670
 2808SOL     OW19885   2.168   2.153   2.904 -0.0468  0.1703 -0.4841
 2808SOL    HW119886   2.243   2.195   2.947  0.2684 -0.2605 -0.6104
 2808SOL    HW219887   2.142   2.224   2.845  1.8167 -1.3654 -3.1502
 2809SOL     OW19888   2.867   0.861  15.538 -0.3667 -0.3753 -0.0599
 2809SOL    HW119889   2.868   0.766  15.551  1.1518 -0.0257  2.2645
 2809SOL    HW219890   2.846   0.874  15.446 -0.8151 -0.5871  0.0086
 2810SOL     OW19891   3.191   0.974   8.314  0.4757  0.1545 -0.4238
 2810SOL    HW119892   3.285   0.994   8.314 -0.2899  3.7196 -0.9080
 2810SOL    HW219893   3.182   0.952   8.406  3.0841  0.7545 -0.0063
 2811SOL     OW19894   2.615   2.344   8.686 -0.0203 -0.2747  0.2827
 2811SOL    HW119895   2.575   2.274   8.634 -0.5471  0.5409 -0.3857
 2811SOL    HW219896   2.611   2.294   8.768 -0.4371  0.0584  0.4613
 2812SOL     OW19897   1.901   1.446   5.384 -0.0686  0.4075 -0.4016
 2812SOL    HW119898   1.962   1.376   5.410  0.8828  1.4840  0.2319
 2812SOL    HW219899   1.852   1.396   5.318  0.3729 -1.1103  0.4147
 2813SOL     OW19900   3.960   3.514  10.265 -0.3157  0.0450 -0.3065
 2813SOL    HW119901   3.984   3.448  10.200 -0.2010 -2.1554  1.9601
 2813SOL    HW219902   4.044   3.558  10.272  0.1238 -1.1229  1.8472
 2814SOL     OW19903   3.238   2.340   2.552  0.0899  0.5877 -0.4573
 2814SOL    HW119904   3.186   2.387   2.487  0.5647  0.6270 -0.8125
 2814SOL    HW219905   3.176   2.283   2.599  1.9519 -1.0160  0.0621
 2815SOL     OW19906   1.717   2.564   2.751 -0.0076  0.0641  0.3474
 2815SOL    HW119907   1.628   2.591   2.726 -0.4502  0.0216  1.8549
 2815SOL    HW219908   1.770   2.602   2.681 -0.6082  1.3246  0.5739
 2816SOL     OW19909   4.327   1.600   7.242 -0.5254  0.0187  0.1462
 2816SOL    HW119910   4.311   1.693   7.254 -1.1634  0.0073 -0.6143
 2816SOL    HW219911   4.398   1.585   7.305  0.2132  2.1001 -0.1996
 2817SOL     OW19912   2.342   1.818   1.980 -0.1306  0.4531 -0.7285
 2817SOL    HW119913   2.320   1.908   1.956 -1.8027 -0.2350 -1.8316
 2817SOL    HW219914   2.333   1.818   2.075  0.7607  1.0542 -0.6458
 2818SOL     OW19915   1.816   4.005   7.367  0.0140 -0.0342  0.5788
 2818SOL    HW119916   1.891   3.946   7.381  0.9311  0.8322 -0.7657
 2818SOL    HW219917   1.820   4.068   7.439 -0.4972 -0.5598  1.0686
 2819SOL     OW19918   3.388   0.037   3.525 -0.1083 -0.2286  0.2435
 2819SOL    HW119919   3.292   0.042   3.519 -0.1360 -0.6636  0.3434
 2819SOL    HW219920   3.405   0.119   3.573  1.5318 -0.5130  0.1375
 2820SOL     OW19921   2.432   1.905  11.182 -0.7147  0.2849  0.0567
 2820SOL    HW119922   2.347   1.872  11.153  0.7034 -2.2474 -1.2102
 2820SOL    HW219923   2.412   1.979  11.239 -1.0719  1.6301 -1.8006
 2821SOL     OW19924   4.459   1.696   6.208  1.0018  0.1547  0.4178
 2821SOL    HW119925   4.547   1.670   6.236  1.1232  3.6570  3.2138
 2821SOL    HW219926   4.462   1.791   6.197  1.4104  0.2715  1.5562
 2822SOL     OW19927   4.017   0.358   9.567  0.1356 -0.3363  0.5936
 2822SOL    HW119928   3.991   0.432   9.622  0.2440  0.2519 -0.1381
 2822SOL    HW219929   4.105   0.385   9.540  0.2128 -1.1604  0.0043
 2823SOL     OW19930   2.676   0.683   7.547  0.2415  0.1374 -0.1445
 2823SOL    HW119931   2.729   0.749   7.503 -0.5824 -0.5841 -2.2068
 2823SOL    HW219932   2.737   0.664   7.619 -0.4022 -1.2999  0.0153
 2824SOL     OW19933   2.945   3.319   8.014 -0.8806 -0.0647 -0.5006
 2824SOL    HW119934   2.929   3.350   8.103  0.5664  2.5525 -1.1665
 2824SOL    HW219935   2.870   3.260   8.012 -0.7348 -0.2375 -0.9139
 2825SOL     OW19936   2.723   0.194  14.372 -0.1400 -0.0671  0.6196
 2825SOL    HW119937   2.811   0.218  14.343 -0.0199 -0.4973  0.6370
 2825SOL    HW219938   2.672   0.239  14.305 -0.6227  0.1303  1.1209
 2826SOL     OW19939   1.037   1.650   1.876  0.3991 -0.1770  0.1431
 2826SOL    HW119940   1.121   1.655   1.922  1.1279 -1.6564 -1.0123
 2826SOL    HW219941   1.021   1.556   1.875  0.2604 -0.1627  0.5817
 2827SOL     OW19942   2.010   4.295  11.181  0.4786 -0.0326  0.1111
 2827SOL    HW119943   2.015   4.389  11.165 -1.3163 -0.0691 -0.6250
 2827SOL    HW219944   2.101   4.282  11.210 -0.4469 -1.3628  2.3318
 2828SOL     OW19945   1.589   0.801   1.776  0.3302 -0.1147  0.4873
 2828SOL    HW119946   1.636   0.781   1.857  1.2204 -0.3606 -0.0884
 2828SOL    HW219947   1.546   0.883   1.800  3.3537  0.7043  3.0203
 2829SOL     OW19948   3.505   2.940   6.670 -0.3067 -0.2806  0.4827
 2829SOL    HW119949   3.537   2.866   6.721 -2.3371 -0.5999  1.2962
 2829SOL    HW219950   3.534   3.008   6.731  3.3053 -0.8408 -0.6175
 2830SOL     OW19951   3.231   0.741  11.847 -0.3420  0.1993  0.6371
 2830SOL    HW119952   3.142   0.724  11.877 -0.0226 -1.4728  0.6203
 2830SOL    HW219953   3.276   0.767  11.927  1.3996  0.9517 -0.5795
 2831SOL     OW19954   1.546   2.555   4.910 -0.1454 -0.5200  0.1079
 2831SOL    HW119955   1.459   2.554   4.870 -0.0201 -0.9773 -0.1568
 2831SOL    HW219956   1.592   2.522   4.833 -0.9355 -1.1905 -0.0753
 2832SOL     OW19957   3.414   0.390   2.796 -0.0471 -0.6244  0.3609
 2832SOL    HW119958   3.487   0.369   2.854  0.1341 -1.5204 -0.1930
 2832SOL    HW219959   3.379   0.301   2.793 -0.8015 -0.2823 -0.8340
 2833SOL     OW19960   0.355   3.011   6.021  0.1517  0.2322 -0.1983
 2833SOL    HW119961   0.416   2.961   6.075 -1.0643  2.6609  3.4621
 2833SOL    HW219962   0.280   3.010   6.080  0.2281 -0.5242 -0.1191
 2834SOL     OW19963   4.121   1.429   8.583  0.6663  0.0469  0.4664
 2834SOL    HW119964   4.079   1.451   8.666 -1.3566  1.7032 -1.0113
 2834SOL    HW219965   4.213   1.425   8.612  0.3914  0.0820  1.3560
 2835SOL     OW19966   1.918   0.724  16.181 -0.0250  0.4092 -0.1347
 2835SOL    HW119967   2.001   0.710  16.226 -1.3383  0.2720  2.2301
 2835SOL    HW219968   1.869   0.763  16.254 -0.3477 -0.7373  0.2696
 2836SOL     OW19969   3.595   1.933  16.511 -0.9019  0.2612  0.2126
 2836SOL    HW119970   3.584   2.020  16.473 -0.8496  0.4653  0.6744
 2836SOL    HW219971   3.685   1.911  16.489 -0.4053  1.2123  1.3315
 2837SOL     OW19972   1.137   3.721   7.715 -0.4456  0.0112  1.0038
 2837SOL    HW119973   1.219   3.720   7.665 -0.6414 -0.8074  0.6921
 2837SOL    HW219974   1.131   3.626   7.707 -0.9781  0.0054  1.5031
 2838SOL     OW19975   3.762   2.209  13.369 -0.8310 -0.1315  0.0508
 2838SOL    HW119976   3.752   2.170  13.282  0.4980 -0.1576 -0.0846
 2838SOL    HW219977   3.747   2.131  13.421  0.1915 -0.8069 -0.6629
 2839SOL     OW19978   0.069   4.544  15.034  0.4343  0.1774  0.5531
 2839SOL    HW119979   0.111   4.458  15.031 -0.8184 -0.4105 -0.1959
 2839SOL    HW219980   0.107   4.581  14.955  1.4651 -3.7145 -0.7852
 2840SOL     OW19981   4.457   3.334  17.077  0.3250  0.2061 -0.1948
 2840SOL    HW119982   4.512   3.353  17.153 -2.3824  1.4812  1.4711
 2840SOL    HW219983   4.374   3.314  17.120  1.8512 -1.2716  2.0436
 2841SOL     OW19984   4.261   1.718  14.812 -0.5893  0.1416 -0.1214
 2841SOL    HW119985   4.327   1.755  14.754  1.0122  0.1570  1.7177
 2841SOL    HW219986   4.195   1.784  14.789 -1.7923 -0.0488  2.7875
 2842SOL     OW19987   2.396   2.805   5.068  0.3264 -0.1664  0.1617
 2842SOL    HW119988   2.380   2.758   5.150  2.0025  0.9373  1.1299
 2842SOL    HW219989   2.337   2.762   5.007 -0.9428  1.9771 -0.1173
 2843SOL     OW19990   2.854   2.949   7.363 -0.0163  0.5070 -0.7211
 2843SOL    HW119991   2.847   3.025   7.421  0.3443 -0.3712  0.4565
 2843SOL    HW219992   2.933   2.905   7.394 -0.7017 -0.1808  0.0320
 2844SOL     OW19993   1.170   4.588   9.564 -0.4773 -0.3109 -0.6847
 2844SOL    HW119994   1.216   4.660   9.522 -0.3606 -0.3944 -0.6976
 2844SOL    HW219995   1.222   4.578   9.644 -1.6449  0.7440  0.2051
 2845SOL     OW19996   1.576   3.042   3.790 -0.1754  0.2019  0.0927
 2845SOL    HW119997   1.665   3.023   3.760 -1.1308 -0.8592 -2.1312
 2845SOL    HW219998   1.519   2.989   3.734 -0.0848 -0.4073  0.5834
 2846SOL     OW19999   2.184   3.425  10.965 -0.4251 -0.1325  0.1777
 2846SOL    HW120000   2.279   3.418  10.966 -0.4587 -0.6545 -1.1400
 2846SOL    HW220001   2.177   3.465  10.879  2.6550  0.8491  0.3840
 2847SOL     OW20002   4.433   1.112  15.237  0.4059  0.7441  0.3003
 2847SOL    HW120003   4.369   1.090  15.168  1.9377  0.7128 -1.1161
 2847SOL    HW220004   4.375   1.175  15.278 -0.4574 -0.9689  1.7040
 2848SOL     OW20005   2.882   1.912   1.656  0.0672 -0.1479  0.0257
 2848SOL    HW120006   2.977   1.901   1.665  0.1700  0.7460 -0.0146
 2848SOL    HW220007   2.867   1.925   1.749 -1.9436  0.6127 -0.4195
 2849SOL     OW20008   0.676   3.287   7.857 -0.1052  0.0050 -0.3255
 2849SOL    HW120009   0.596   3.274   7.908 -0.5887  0.3997 -0.9853
 2849SOL    HW220010   0.664   3.199   7.821 -1.4473  0.2097 -0.4072
 2850SOL     OW20011   1.308   4.113   5.729  0.5408 -0.1439 -0.5041
 2850SOL    HW120012   1.244   4.109   5.658  2.2017 -2.8603 -1.8785
 2850SOL    HW220013   1.383   4.157   5.688 -1.1662  0.8560 -2.5757
 2851SOL     OW20014   4.562   0.778  15.052 -0.5399  0.4998  0.1130
 2851SOL    HW120015   4.488   0.778  15.112  0.2098  2.9397  1.0641
 2851SOL    HW220016   4.561   0.686  15.025  2.5267  0.4099  0.3331
 2852SOL     OW20017   2.105   3.345   8.001 -0.4572 -0.3923  0.3867
 2852SOL    HW120018   2.164   3.419   7.990 -0.2948 -0.5912 -0.0601
 2852SOL    HW220019   2.031   3.390   8.042 -0.4436 -0.0539  0.0296
 2853SOL     OW20020   2.094   2.269   1.506 -0.6501 -0.2418 -0.7077
 2853SOL    HW120021   2.038   2.286   1.582  0.4915  1.4314 -0.2519
 2853SOL    HW220022   2.132   2.355   1.489 -0.5220 -0.0188  0.7083
 2854SOL     OW20023   0.299   1.768   4.203 -0.2359  0.0552  0.0333
 2854SOL    HW120024   0.224   1.714   4.177 -0.6567  1.0305 -0.7682
 2854SOL    HW220025   0.344   1.709   4.264  2.4634  2.1042  0.0175
 2855SOL     OW20026   0.238   4.311  14.343  0.3168 -0.5288  0.5298
 2855SOL    HW120027   0.217   4.390  14.293  2.6055  0.9193  1.8989
 2855SOL    HW220028   0.151   4.282  14.373  0.2607 -0.3481  0.5433
 2856SOL     OW20029   2.599   4.445   5.283  0.0337  0.7308 -0.3395
 2856SOL    HW120030   2.580   4.466   5.192  3.0765  0.2499 -1.0800
 2856SOL    HW220031   2.694   4.435   5.287 -0.1421 -0.7112  0.3168
 2857SOL     OW20032   4.714   3.875   4.666 -0.0732  0.3663  0.4321
 2857SOL    HW120033   4.694   3.968   4.663 -1.4117  0.1483  3.1123
 2857SOL    HW220034   4.629   3.831   4.660  0.1585 -0.4336  3.0843
 2858SOL     OW20035   0.206   1.737   2.639  0.4187  0.3219 -0.0946
 2858SOL    HW120036   0.220   1.814   2.584  2.6311 -1.0634 -1.4741
 2858SOL    HW220037   0.267   1.672   2.604  1.2725  1.8208 -1.4028
 2859SOL     OW20038   2.063   0.653   9.755 -0.7037  0.1444 -0.3831
 2859SOL    HW120039   1.989   0.707   9.780 -0.3634  0.3637  0.1550
 2859SOL    HW220040   2.091   0.633   9.844 -1.4268 -0.3130 -0.2611
 2860SOL     OW20041   1.744   3.520  14.624  0.2840 -0.6986  0.3475
 2860SOL    HW120042   1.736   3.612  14.647 -0.3166 -0.4052 -1.0191
 2860SOL    HW220043   1.838   3.513  14.607  0.5365 -2.0004  2.2370
 2861SOL     OW20044   4.187   2.416  14.908  0.3845  0.0488  0.9381
 2861SOL    HW120045   4.153   2.494  14.865 -1.2419 -1.8853 -1.2875
 2861SOL    HW220046   4.128   2.396  14.981 -1.0776 -2.0089 -0.8194
 2862SOL     OW20047   4.707   3.472  13.953  0.4091  0.3438 -0.1775
 2862SOL    HW120048   4.650   3.450  13.880  0.9730 -0.7649 -0.2840
 2862SOL    HW220049   0.023   3.549  13.916  0.3561  0.6550  0.4014
 2863SOL     OW20050   3.556   4.017   5.900  0.5392 -0.9139 -0.3808
 2863SOL    HW120051   3.518   4.004   5.987 -1.2236 -1.1586 -1.1869
 2863SOL    HW220052   3.542   4.108   5.874  2.7747 -0.4206  0.1124
 2864SOL     OW20053   0.562   3.551   6.416  0.4351  0.4024  0.1563
 2864SOL    HW120054   0.593   3.619   6.477 -0.5538 -0.6902  1.8825
 2864SOL    HW220055   0.642   3.502   6.400 -1.0030 -1.8973  0.0683
 2865SOL     OW20056   1.176   2.659   2.722  0.0903  0.5966 -0.2302
 2865SOL    HW120057   1.081   2.674   2.719 -0.0638 -0.3272  0.3029
 2865SOL    HW220058   1.173   2.599   2.796  3.1839 -0.0208 -0.6211
 2866SOL     OW20059   4.187   2.959   6.547  0.5143 -0.1950 -0.3468
 2866SOL    HW120060   4.227   3.045   6.559 -0.2833  0.1330 -0.0744
 2866SOL    HW220061   4.266   2.908   6.529  1.2142  0.4554  0.9443
 2867SOL     OW20062   2.339   2.718  12.640  0.3234  0.4602 -0.2612
 2867SOL    HW120063   2.407   2.713  12.708 -1.3397  1.2982  1.4597
 2867SOL    HW220064   2.310   2.627  12.646 -2.1856  1.4326  2.3874
 2868SOL     OW20065   2.871   3.093  13.734  0.1842  0.1749  0.2214
 2868SOL    HW120066   2.922   3.076  13.813 -1.2696  0.4080  1.2005
 2868SOL    HW220067   2.781   3.078  13.762  0.2315 -1.9777 -0.8325
 2869SOL     OW20068   2.444   2.945   2.470 -0.0685  0.7162  0.0416
 2869SOL    HW120069   2.371   3.005   2.451 -0.5989 -0.3711 -1.3309
 2869SOL    HW220070   2.459   2.920   2.379  1.7332 -2.7179  1.3057
 2870SOL     OW20071   3.845   0.248   1.191  0.0416 -0.2582 -0.3706
 2870SOL    HW120072   3.789   0.311   1.145  3.1239  1.8766 -1.1803
 2870SOL    HW220073   3.905   0.219   1.123  2.6572 -0.9975  2.2632
 2871SOL     OW20074   3.708   3.240   9.368  0.6528  0.0212  0.4464
 2871SOL    HW120075   3.669   3.215   9.452  0.3108 -2.9750 -0.6045
 2871SOL    HW220076   3.801   3.241   9.387  1.1441 -1.2811 -1.8575
 2872SOL     OW20077   2.995   4.365   7.852 -0.3272  0.5188 -0.0621
 2872SOL    HW120078   3.029   4.312   7.780 -0.5280  0.1961  0.0819
 2872SOL    HW220079   2.941   4.411   7.787  0.0655  0.1556 -0.6514
 2873SOL     OW20080   0.556   1.269  15.065 -0.2080 -0.1802 -0.4640
 2873SOL    HW120081   0.608   1.232  15.136  0.2404 -2.0896 -1.8144
 2873SOL    HW220082   0.556   1.364  15.082 -1.5063 -0.4692  1.1117
 2874SOL     OW20083   2.692   0.319  14.606 -0.4700  0.4972  0.0430
 2874SOL    HW120084   2.713   0.271  14.526  1.5272 -0.0244  0.8796
 2874SOL    HW220085   2.716   0.261  14.678  3.3675  2.9060  0.6748
 2875SOL     OW20086   3.790   0.860  10.883  0.1967  0.0290  0.9114
 2875SOL    HW120087   3.838   0.914  10.820 -1.6320 -0.6115 -1.0080
 2875SOL    HW220088   3.836   0.882  10.964  2.7604  0.3741 -0.6267
 2876SOL     OW20089   2.114   0.943  12.955  0.1948 -0.1736  0.3882
 2876SOL    HW120090   2.072   0.957  13.039  0.2429 -0.7858  0.5124
 2876SOL    HW220091   2.148   0.856  12.974 -1.6004 -0.8207  0.5893
 2877SOL     OW20092   1.614   1.034   6.987  0.9917  0.5857  0.3254
 2877SOL    HW120093   1.665   1.063   6.911  0.4244  0.8380  0.0367
 2877SOL    HW220094   1.683   0.993   7.039 -0.2592 -1.2793  0.5430
 2878SOL     OW20095   1.640   4.347   8.658 -0.3537  0.0901 -0.3779
 2878SOL    HW120096   1.639   4.434   8.699  1.2831 -0.8240  1.5624
 2878SOL    HW220097   1.638   4.290   8.734 -0.9448  0.6394  0.0257
 2879SOL     OW20098   0.932   2.391   7.388  0.3478  0.2107 -0.3235
 2879SOL    HW120099   0.960   2.367   7.477  0.1860 -0.3383 -0.4196
 2879SOL    HW220100   1.013   2.434   7.361  0.8574  0.7133  1.9985
 2880SOL     OW20101   4.558   2.553   7.682 -0.5181 -0.4337  0.2533
 2880SOL    HW120102   4.563   2.648   7.694 -0.1081 -0.6065  1.4828
 2880SOL    HW220103   4.612   2.515   7.751  0.1329 -1.3871 -0.7875
 2881SOL     OW20104   0.527   3.233  17.442  0.1069 -0.3328 -0.4364
 2881SOL    HW120105   0.605   3.284  17.462  1.7174 -2.4505 -1.3252
 2881SOL    HW220106   0.479   3.224  17.524  1.0127  1.4510  0.2949
 2882SOL     OW20107   4.300   4.352   7.540  0.4882  0.4270  0.1278
 2882SOL    HW120108   4.206   4.371   7.537  0.2484 -0.4233  3.0273
 2882SOL    HW220109   4.332   4.433   7.579 -1.0579 -0.8744  4.0652
 2883SOL     OW20110   3.089   2.839   9.404  0.1055 -0.3595 -0.1005
 2883SOL    HW120111   3.099   2.934   9.400  0.4973 -0.3968 -0.0597
 2883SOL    HW220112   3.117   2.814   9.493  0.9549  2.9515  0.5620
 2884SOL     OW20113   0.727   0.244   4.350 -0.0951  0.1660  0.1143
 2884SOL    HW120114   0.765   0.156   4.356 -1.5540 -0.4648 -0.0238
 2884SOL    HW220115   0.781   0.292   4.413 -0.1637  2.5119 -1.6176
 2885SOL     OW20116   3.515   2.607   6.484  0.4385 -0.3627  0.4303
 2885SOL    HW120117   3.552   2.695   6.471  3.6099 -1.5396  1.4086
 2885SOL    HW220118   3.435   2.619   6.432  0.3556  0.4702  0.7462
 2886SOL     OW20119   0.014   3.855   6.356  0.3860  0.1332 -0.0445
 2886SOL    HW120120   0.029   3.762   6.340  2.6371  0.9412 -2.7028
 2886SOL    HW220121   0.068   3.903   6.292 -0.5015  1.2979  0.0831
 2887SOL     OW20122   2.884   1.813  13.330 -0.1559  0.0611 -0.4051
 2887SOL    HW120123   2.923   1.868  13.398 -0.9279  0.2291 -0.0973
 2887SOL    HW220124   2.845   1.881  13.276  1.1448  1.5634  0.5504
 2888SOL     OW20125   0.252   1.529   8.305 -0.3239  0.3851 -0.0743
 2888SOL    HW120126   0.201   1.450   8.287 -0.2941  0.7007 -1.5721
 2888SOL    HW220127   0.195   1.594   8.264 -0.0631  0.5315 -0.2038
 2889SOL     OW20128   3.614   3.430   9.884 -0.4133  0.5247 -0.2624
 2889SOL    HW120129   3.543   3.467   9.831 -1.5289  0.3249  1.1231
 2889SOL    HW220130   3.629   3.504   9.943  0.3455  0.2294 -0.0920
 2890SOL     OW20131   4.078   2.890   8.032 -0.0447 -0.3339  0.3383
 2890SOL    HW120132   4.133   2.870   7.956 -1.6765 -1.8253 -0.4523
 2890SOL    HW220133   4.097   2.814   8.087  2.5156  1.4810  1.9512
 2891SOL     OW20134   0.220   3.007  10.692  0.1743  0.3234 -0.0102
 2891SOL    HW120135   0.193   3.046  10.775 -0.5027 -1.1665  0.4756
 2891SOL    HW220136   0.308   3.044  10.689  0.1392  0.6282  3.0278
 2892SOL     OW20137   0.673   2.897  15.408  0.0563 -0.8381  0.1894
 2892SOL    HW120138   0.639   2.969  15.355  0.3476 -0.7584  0.1067
 2892SOL    HW220139   0.738   2.946  15.459  0.5960 -1.7903  0.4240
 2893SOL     OW20140   0.547   2.026   5.637 -0.6912  0.2418  0.3610
 2893SOL    HW120141   0.595   1.971   5.699  1.9588  0.4736 -1.4909
 2893SOL    HW220142   0.618   2.056   5.580 -1.9987 -1.7291 -2.2795
 2894SOL     OW20143   0.343   0.033  14.161 -0.0717 -0.3844 -0.3918
 2894SOL    HW120144   0.347   0.012  14.255 -0.3674 -1.0859 -0.5339
 2894SOL    HW220145   0.265   4.710  14.136  0.1399  0.4555 -2.6868
 2895SOL     OW20146   2.974   0.343   3.008  0.0358  0.3948  0.0693
 2895SOL    HW120147   3.023   0.267   2.975 -0.0815  0.3602 -0.0272
 2895SOL    HW220148   3.031   0.364   3.081 -0.3439  0.5950  0.3106
 2896SOL     OW20149   0.293   3.127   2.908 -0.4581 -0.3393 -0.2890
 2896SOL    HW120150   0.229   3.101   2.841 -2.0707  1.3283  0.6171
 2896SOL    HW220151   0.240   3.195   2.949  0.7038  1.3030 -1.5066
 2897SOL     OW20152   0.760   0.928   8.084 -0.2187 -0.1293 -0.2343
 2897SOL    HW120153   0.716   0.863   8.139 -0.0845  0.8491  1.0229
 2897SOL    HW220154   0.837   0.946   8.138 -0.0439  2.0869 -1.2028
 2898SOL     OW20155   3.395   3.736  16.503  0.1373 -0.0596  0.0429
 2898SOL    HW120156   3.427   3.646  16.500  2.0107  0.6089  0.4523
 2898SOL    HW220157   3.428   3.767  16.587  0.3709 -0.6162  0.1540
 2899SOL     OW20158   3.660   3.496   1.666  0.4204 -0.5052 -0.1410
 2899SOL    HW120159   3.744   3.454   1.646  0.9920  0.9144 -0.7113
 2899SOL    HW220160   3.627   3.523   1.580  1.3887  0.4717 -0.2036
 2900SOL     OW20161   3.429   3.289   6.306  0.2931  0.3518 -0.5844
 2900SOL    HW120162   3.416   3.328   6.392  0.7572 -2.6523  0.8292
 2900SOL    HW220163   3.336   3.279   6.287 -0.0366 -0.2729  1.3753
 2901SOL     OW20164   0.983   1.671  10.399 -0.2412 -0.2853  0.0888
 2901SOL    HW120165   0.995   1.763  10.376  1.5961 -0.4420  0.3829
 2901SOL    HW220166   1.029   1.633  10.323  0.0147  1.4001 -0.5906
 2902SOL     OW20167   2.479   4.123   6.893  0.2215  0.2699  0.8325
 2902SOL    HW120168   2.533   4.201   6.907  0.2786  0.2218  0.8788
 2902SOL    HW220169   2.500   4.080   6.975  1.2065  2.0134  1.4963
 2903SOL     OW20170   4.602   4.189   1.998  0.0546 -0.1085  0.4042
 2903SOL    HW120171   4.690   4.152   1.998 -0.1789 -0.6666  0.3445
 2903SOL    HW220172   4.621   4.270   2.046  2.0683 -0.9647  1.0396
 2904SOL     OW20173   3.592   2.873   8.522 -0.4073  0.1278 -0.7310
 2904SOL    HW120174   3.538   2.923   8.460  2.7791  0.9920 -2.8283
 2904SOL    HW220175   3.542   2.793   8.537  1.4589 -0.8125  0.6011
 2905SOL     OW20176   2.590   4.009   7.722  0.1846 -0.0600 -0.2023
 2905SOL    HW120177   2.657   3.958   7.768  1.2292 -0.6827 -2.3775
 2905SOL    HW220178   2.631   4.022   7.636  1.4843  3.8370  1.0286
 2906SOL     OW20179   0.906   1.937  10.314 -0.1126 -0.0872 -0.6965
 2906SOL    HW120180   0.905   2.020  10.361 -0.9999 -1.2475  1.3148
 2906SOL    HW220181   0.860   1.964  10.234  1.0059  0.9527 -0.9859
 2907SOL     OW20182   3.212   4.049  16.079 -0.2307 -0.2184 -0.4151
 2907SOL    HW120183   3.278   4.107  16.117  1.2574 -1.5292 -0.9771
 2907SOL    HW220184   3.254   3.964  16.095 -0.1148 -0.5877 -2.7738
 2908SOL     OW20185   4.109   3.181   4.934  0.0982 -0.2178 -0.4210
 2908SOL    HW120186   4.182   3.145   4.884 -0.4423 -1.6851 -0.1677
 2908SOL    HW220187   4.052   3.103   4.935  0.1041 -0.2433 -2.3550
 2909SOL     OW20188   2.916   1.728   2.356  0.1707 -0.1206  0.4773
 2909SOL    HW120189   2.992   1.698   2.305  0.2555 -1.6937  1.5264
 2909SOL    HW220190   2.904   1.657   2.420  0.9352  0.7630  1.5951
 2910SOL     OW20191   2.214   2.646   2.736 -0.7052 -0.7516 -0.0912
 2910SOL    HW120192   2.240   2.584   2.667 -2.6732 -0.1146 -1.4198
 2910SOL    HW220193   2.151   2.593   2.786 -2.1205  1.8357  0.8506
 2911SOL     OW20194   0.020   2.008   5.692 -0.0209  0.1107 -0.2470
 2911SOL    HW120195   4.702   2.042   5.770 -1.9856 -0.2763 -1.2056
 2911SOL    HW220196   0.107   1.990   5.729 -0.0270 -1.3114 -0.9413
 2912SOL     OW20197   3.849   1.465  11.320 -0.5392  0.8010 -0.1852
 2912SOL    HW120198   3.923   1.523  11.301 -0.4785  1.0604  0.8620
 2912SOL    HW220199   3.782   1.532  11.333 -0.6791  0.4024  1.1003
 2913SOL     OW20200   0.196   3.139   1.677 -0.0387  0.2491 -0.3170
 2913SOL    HW120201   0.281   3.177   1.657  0.0109 -0.2707 -1.0805
 2913SOL    HW220202   0.180   3.189   1.757  0.4484  1.7610 -1.1645
 2914SOL     OW20203   1.753   3.288  15.820  0.2645  0.1592  0.3900
 2914SOL    HW120204   1.723   3.206  15.781  0.7139  1.0081 -1.7539
 2914SOL    HW220205   1.679   3.303  15.879 -1.6626 -1.1697 -1.6703
 2915SOL     OW20206   4.117   3.645   9.405 -0.1459 -0.2517 -0.3236
 2915SOL    HW120207   4.136   3.578   9.339 -0.9940 -0.9784  0.1623
 2915SOL    HW220208   4.051   3.603   9.461 -1.2602  1.6988 -0.1812
 2916SOL     OW20209   2.004   3.323  12.178  0.6311 -0.1604  0.2611
 2916SOL    HW120210   2.093   3.314  12.146 -0.1123 -1.1280 -1.5392
 2916SOL    HW220211   1.936   3.300  12.115  0.2596  1.6664 -0.0083
 2917SOL     OW20212   3.976   2.549   5.031  0.2012  0.2742  0.2168
 2917SOL    HW120213   3.945   2.577   5.117 -3.6218 -0.9894 -0.7385
 2917SOL    HW220214   4.066   2.575   5.051  0.3257 -1.4771  1.9017
 2918SOL     OW20215   3.226   4.390   5.476 -0.2066  0.3123 -0.0974
 2918SOL    HW120216   3.266   4.477   5.471 -0.6183  0.5629  1.2312
 2918SOL    HW220217   3.292   4.350   5.533 -0.4290  0.2407  0.1087
 2919SOL     OW20218   3.371   3.862  13.841 -0.6273  0.1703  0.3851
 2919SOL    HW120219   3.430   3.896  13.773  0.4386  0.8111  1.6401
 2919SOL    HW220220   3.441   3.828  13.896  0.1357  0.0461 -0.6525
 2920SOL     OW20221   0.335   4.015   2.117 -0.7038  0.5753  0.0127
 2920SOL    HW120222   0.424   4.007   2.084 -0.5312  1.0933  0.3569
 2920SOL    HW220223   0.342   3.947   2.185  0.2624  0.6811  0.0153
 2921SOL     OW20224   4.360   3.948   8.332 -0.2223  0.5100  0.0423
 2921SOL    HW120225   4.308   3.970   8.409 -2.0971 -0.4258 -0.9616
 2921SOL    HW220226   4.288   3.962   8.271  0.7718  2.3138 -0.7210
 2922SOL     OW20227   2.563   2.675   4.375 -0.4077  0.2736  0.4375
 2922SOL    HW120228   2.628   2.622   4.329 -0.2445  0.7078  0.1665
 2922SOL    HW220229   2.484   2.662   4.321 -1.5625  0.4388  2.0830
 2923SOL     OW20230   1.852   1.090   2.519  0.1501  0.7692 -0.0131
 2923SOL    HW120231   1.804   1.020   2.564  1.0556  1.0464  1.3839
 2923SOL    HW220232   1.778   1.125   2.469 -0.5935 -1.2848 -0.3920
 2924SOL     OW20233   0.150   0.325   8.842 -0.2787 -0.2465  0.0118
 2924SOL    HW120234   0.124   0.388   8.774 -0.7159 -0.3210  0.1122
 2924SOL    HW220235   0.213   0.269   8.796  0.0282  1.2825 -1.4469
 2925SOL     OW20236   3.654   3.711  17.655 -0.0067  0.0809 -0.2499
 2925SOL    HW120237   3.694   3.632  17.617 -0.5526 -1.4615  2.3533
 2925SOL    HW220238   3.723   3.776  17.638 -0.9192  0.9251 -0.6911
 2926SOL     OW20239   2.297   1.689  11.468  0.4209 -0.3325 -0.0768
 2926SOL    HW120240   2.367   1.634  11.434  0.6599 -0.5223  0.7314
 2926SOL    HW220241   2.345   1.713  11.548 -0.4844  1.0398  0.0666
 2927SOL     OW20242   4.261   0.807   5.735 -0.1830 -0.5398  0.0189
 2927SOL    HW120243   4.336   0.864   5.753 -0.3947 -0.6142  1.1325
 2927SOL    HW220244   4.204   0.874   5.699  0.7049 -0.8550 -1.9943
 2928SOL     OW20245   1.151   0.500  14.745 -0.2686  0.0894  0.3044
 2928SOL    HW120246   1.165   0.591  14.718 -1.4702 -0.1794 -1.2617
 2928SOL    HW220247   1.056   0.502  14.755 -0.2164  0.3317  0.7262
 2929SOL     OW20248   3.372   0.119   5.992 -0.5103 -0.3645  0.3754
 2929SOL    HW120249   3.312   0.062   6.042  0.7940 -0.2210  2.1091
 2929SOL    HW220250   3.307   0.189   5.997 -1.2750 -1.0191 -0.3937
 2930SOL     OW20251   4.487   0.592   3.116  0.1942 -0.0946  0.2111
 2930SOL    HW120252   4.485   0.499   3.096 -1.7588 -0.2834  1.2979
 2930SOL    HW220253   4.407   0.599   3.167  1.2396  0.0870  1.8254
 2931SOL     OW20254   2.232   0.836   3.593  0.7247 -0.1602  0.0253
 2931SOL    HW120255   2.307   0.840   3.533  1.4833 -2.2141  0.8313
 2931SOL    HW220256   2.160   0.847   3.531 -0.3827 -1.0969  1.1515
 2932SOL     OW20257   3.073   1.098   7.444  0.1616 -0.2032  0.2076
 2932SOL    HW120258   3.108   1.120   7.531 -0.8498 -0.0174  0.5691
 2932SOL    HW220259   2.989   1.137   7.470 -0.5691 -2.0779  0.6671
 2933SOL     OW20260   1.860   3.852   6.822  0.5822  0.7467  0.1482
 2933SOL    HW120261   1.878   3.772   6.773  0.9697  1.3207 -0.6412
 2933SOL    HW220262   1.803   3.906   6.768  1.0059 -0.4803 -1.5294
 2934SOL     OW20263   1.502   1.576   7.142 -0.2322 -0.0171 -0.9628
 2934SOL    HW120264   1.410   1.599   7.154  0.5997  2.0257  1.5509
 2934SOL    HW220265   1.529   1.632   7.069  1.0249 -0.8412 -1.1408
 2935SOL     OW20266   2.493   4.462  13.555 -0.0665  0.4255 -1.0219
 2935SOL    HW120267   2.503   4.413  13.473  0.4883  0.2341 -0.8398
 2935SOL    HW220268   2.400   4.440  13.550  0.5203 -2.6463  1.8938
 2936SOL     OW20269   3.539   0.178   7.367  0.5149  0.0372 -0.6044
 2936SOL    HW120270   3.609   0.243   7.369  1.6379 -1.1425 -1.3971
 2936SOL    HW220271   3.464   0.225   7.404  0.4213 -2.0234  1.8429
 2937SOL     OW20272   0.217   3.708  11.364  0.3223 -0.0272 -0.0826
 2937SOL    HW120273   0.203   3.766  11.289 -1.1773  0.5799  0.6663
 2937SOL    HW220274   0.229   3.770  11.437  1.1414  1.0581 -1.1408
 2938SOL     OW20275   3.644   4.231  11.831 -0.2130 -0.2941  0.4352
 2938SOL    HW120276   3.550   4.212  11.831 -0.1964 -0.3771  0.4169
 2938SOL    HW220277   3.659   4.268  11.918 -2.7802 -0.7942  1.1069
 2939SOL     OW20278   1.841   2.704   1.970 -0.4306 -0.5291 -0.4283
 2939SOL    HW120279   1.863   2.797   1.979  0.2699 -0.5103 -2.3478
 2939SOL    HW220280   1.832   2.684   2.063 -2.3856  0.3431 -0.4371
 2940SOL     OW20281   0.837   1.627   4.978  0.3996 -0.4575  0.3549
 2940SOL    HW120282   0.857   1.695   4.913 -1.9894 -0.7560 -0.6987
 2940SOL    HW220283   0.793   1.688   5.037 -0.8238 -1.0325  0.0558
 2941SOL     OW20284   4.412   1.788   7.646 -0.4657  0.6521 -0.1223
 2941SOL    HW120285   4.483   1.795   7.710 -3.1995 -1.5908  3.1310
 2941SOL    HW220286   4.458   1.729   7.586  2.7712  2.4212  0.6542
 2942SOL     OW20287   1.165   0.264   4.278 -0.6646  0.7084 -0.0264
 2942SOL    HW120288   1.232   0.327   4.303  1.3047 -1.0329 -0.9098
 2942SOL    HW220289   1.166   0.267   4.183 -1.5021 -1.0853 -0.0977
 2943SOL     OW20290   2.837   2.572  17.533  0.0814  0.6290  0.9431
 2943SOL    HW120291   2.831   2.616  17.448  0.8419  2.0976  1.6490
 2943SOL    HW220292   2.856   2.482  17.509 -1.9575  1.1042 -2.4878
 2944SOL     OW20293   2.666   4.535  11.284  1.0488 -0.5093 -0.1613
 2944SOL    HW120294   2.742   4.505  11.234 -1.3671 -1.1444 -3.4249
 2944SOL    HW220295   2.666   4.631  11.278  2.4030 -0.3072  3.1864
 2945SOL     OW20296   2.902   3.457  10.988  0.0300 -0.1027  0.0707
 2945SOL    HW120297   2.806   3.462  10.983  0.1284  0.8300 -1.1120
 2945SOL    HW220298   2.935   3.462  10.898  2.0842  1.4222  0.9006
 2946SOL     OW20299   3.059   2.101   0.377  0.0554 -0.8719  0.4284
 2946SOL    HW120300   3.053   2.167   0.308 -2.3202 -1.3389  0.2118
 2946SOL    HW220301   3.151   2.072   0.381  1.7900  4.4005 -0.7768
 2947SOL     OW20302   2.534   0.936  10.910 -0.1899  0.0447 -0.5282
 2947SOL    HW120303   2.581   0.938  10.993 -0.1098  2.1121 -0.6246
 2947SOL    HW220304   2.494   1.023  10.901  0.5862  0.5780  1.2511
 2948SOL     OW20305   0.298   3.411   4.701 -0.1993  0.2024 -0.0719
 2948SOL    HW120306   0.310   3.413   4.606 -2.2153  0.9024 -0.2915
 2948SOL    HW220307   0.331   3.324   4.723  4.1308  1.8233 -0.0749
 2949SOL     OW20308   2.059   4.232   4.514 -0.8183  0.1775  0.2062
 2949SOL    HW120309   2.023   4.233   4.425  0.9194  2.6861 -0.4561
 2949SOL    HW220310   1.981   4.196   4.558  0.1216  0.8200  2.3892
 2950SOL     OW20311   4.090   1.938   5.235  0.3512  0.1366 -0.8768
 2950SOL    HW120312   4.029   1.870   5.205  1.9590 -1.8101  0.3113
 2950SOL    HW220313   4.090   2.013   5.174  1.0299  0.8577  0.0204
 2951SOL     OW20314   0.807   1.564   6.823 -0.5329  0.2217  0.7764
 2951SOL    HW120315   0.858   1.622   6.878 -1.4629  1.1295  0.6823
 2951SOL    HW220316   0.874   1.501   6.797 -0.8555  0.6753 -1.2162
 2952SOL     OW20317   1.498   4.206   9.787 -0.3309  0.0453  0.6195
 2952SOL    HW120318   1.441   4.189   9.862  0.4908 -0.0064  1.2325
 2952SOL    HW220319   1.580   4.163   9.811  0.5030 -0.3995 -2.9928
 2953SOL     OW20320   2.096   3.823   2.403  0.1367 -0.0034  0.7323
 2953SOL    HW120321   2.098   3.903   2.351  1.0565 -0.0350  0.7303
 2953SOL    HW220322   2.150   3.838   2.480  0.5431 -1.2802  0.6915
 2954SOL     OW20323   4.161   4.232   5.918 -0.6258  0.4857 -0.4385
 2954SOL    HW120324   4.069   4.215   5.938  0.4363 -0.5580  3.4470
 2954SOL    HW220325   4.147   4.301   5.854 -2.4412  0.4550 -0.0802
 2955SOL     OW20326   0.599   3.172   4.549  0.0844 -0.1273  0.0386
 2955SOL    HW120327   0.625   3.085   4.577  0.6501 -0.2506 -0.8622
 2955SOL    HW220328   0.544   3.194   4.625 -0.9436  0.5919 -0.9111
 2956SOL     OW20329   2.306   2.029   2.297 -0.1376 -0.0871 -0.1535
 2956SOL    HW120330   2.231   2.014   2.355  0.0407 -1.9966 -0.4472
 2956SOL    HW220331   2.315   1.937   2.273  2.7615  0.0538  0.4899
 2957SOL     OW20332   4.074   2.716   4.243  0.0986  0.1026 -0.2449
 2957SOL    HW120333   4.063   2.638   4.297  2.4382  0.1160  0.2651
 2957SOL    HW220334   4.023   2.777   4.296  0.0978 -1.4394  1.5066
 2958SOL     OW20335   0.111   1.304   8.254  0.1724 -0.2016  0.0818
 2958SOL    HW120336   0.061   1.274   8.177  0.2613 -0.9240  0.3024
 2958SOL    HW220337   0.141   1.227   8.303 -1.0039  0.9318  2.5331
 2959SOL     OW20338   0.986   3.448  16.803 -0.3231 -0.4584  0.1942
 2959SOL    HW120339   0.983   3.490  16.889 -2.3768  2.9611 -1.5340
 2959SOL    HW220340   0.900   3.478  16.774 -0.0498 -1.6671 -1.8496
 2960SOL     OW20341   3.497   1.460  11.406  0.5737 -0.0636 -0.1631
 2960SOL    HW120342   3.548   1.515  11.346  0.3123  2.0293  1.5115
 2960SOL    HW220343   3.554   1.395  11.447  0.4740 -1.2087 -1.8443
 2961SOL     OW20344   2.420   4.605   8.446 -0.1949 -0.2154 -0.3147
 2961SOL    HW120345   2.365   4.681   8.424 -0.7737 -0.3711  0.5742
 2961SOL    HW220346   2.490   4.644   8.498 -0.7686 -1.7723  1.6137
 2962SOL     OW20347   0.360   1.047  11.618 -0.0592  0.7358 -0.2531
 2962SOL    HW120348   0.315   1.108  11.676 -1.1230 -0.5192  0.2333
 2962SOL    HW220349   0.374   1.103  11.542 -0.7220  0.6393 -0.4483
 2963SOL     OW20350   3.850   2.953   2.383  0.3064  0.4453  0.0075
 2963SOL    HW120351   3.771   2.975   2.334 -0.5582 -2.7058 -0.0182
 2963SOL    HW220352   3.839   2.858   2.372 -1.6187  0.9018 -2.1374
 2964SOL     OW20353   0.580   2.295   9.835  0.3906 -0.1275  0.1604
 2964SOL    HW120354   0.659   2.332   9.796  0.4854  1.3480  1.7630
 2964SOL    HW220355   0.612   2.285   9.924 -1.6017  3.2854  1.2760
 2965SOL     OW20356   0.638   2.799   2.248  0.4385  0.0050 -0.1163
 2965SOL    HW120357   0.600   2.861   2.186  2.4367  0.0315 -1.3162
 2965SOL    HW220358   0.575   2.791   2.319  0.6714  0.4725  0.1398
 2966SOL     OW20359   1.366   0.821   1.997  0.6944 -0.1002 -0.0591
 2966SOL    HW120360   1.349   0.864   1.913 -2.6704  0.3890  0.8747
 2966SOL    HW220361   1.296   0.756   1.999  0.4597  0.1366 -0.6375
 2967SOL     OW20362   1.597   3.117   2.049 -0.3430  0.4819  0.3871
 2967SOL    HW120363   1.608   3.115   2.144 -1.5307 -0.3428  0.4938
 2967SOL    HW220364   1.595   3.022   2.044  1.1996  0.4561  0.2113
 2968SOL     OW20365   0.307   4.602   6.187 -0.3175 -0.4620 -0.1228
 2968SOL    HW120366   0.305   4.681   6.133  0.0207  1.0331  2.0467
 2968SOL    HW220367   0.390   4.616   6.232  1.0440 -0.8251 -2.5401
 2969SOL     OW20368   0.026   2.693  16.366  0.0893  0.4681 -0.5176
 2969SOL    HW120369   0.017   2.622  16.429  2.1965 -0.1340 -0.8884
 2969SOL    HW220370   0.107   2.673  16.320 -1.2376 -0.2427 -2.5604
 2970SOL     OW20371   2.124   0.227   4.537 -0.4210 -0.1345  0.0519
 2970SOL    HW120372   2.121   0.165   4.610  3.2559  0.4662  0.7056
 2970SOL    HW220373   2.045   0.197   4.491  0.6090 -3.5969  0.4997
 2971SOL     OW20374   4.109   3.215   8.554  0.1229 -0.2540 -0.4739
 2971SOL    HW120375   4.158   3.282   8.602 -1.2858 -0.8427  1.8227
 2971SOL    HW220376   4.072   3.151   8.615  0.3271 -0.9400 -1.0669
 2972SOL     OW20377   1.904   4.445  15.679 -0.0290 -0.3480  0.1026
 2972SOL    HW120378   1.869   4.495  15.752  0.8240 -0.5215  0.6261
 2972SOL    HW220379   1.879   4.353  15.688 -0.8240 -0.1527 -0.1670
 2973SOL     OW20380   3.969   0.779  17.642  0.1576  0.2654 -0.7195
 2973SOL    HW120381   4.011   0.829  17.572 -0.6553  1.7615 -0.1215
 2973SOL    HW220382   3.875   0.794  17.636  0.0151 -0.9077 -1.4904
 2974SOL     OW20383   2.200   3.983  17.079 -0.0549  0.5864  0.3056
 2974SOL    HW120384   2.212   4.052  17.144  0.2765 -0.5131  1.4098
 2974SOL    HW220385   2.271   4.013  17.022  0.3494  0.0941  0.5438
 2975SOL     OW20386   3.949   3.340  16.544  0.2963 -0.3307  0.7879
 2975SOL    HW120387   3.866   3.293  16.554  0.2707 -0.3289  0.5669
 2975SOL    HW220388   3.917   3.418  16.499  0.7909  0.2918  1.4899
 2976SOL     OW20389   1.456   4.722  12.485  0.0656 -0.3053  0.2406
 2976SOL    HW120390   1.399   4.655  12.447  0.4239  0.4086 -1.5540
 2976SOL    HW220391   1.439   0.064  12.421 -0.5079  1.2392  2.0493
 2977SOL     OW20392   1.478   2.148   2.679  0.1714  0.3434  0.0472
 2977SOL    HW120393   1.533   2.138   2.601  1.6746  0.7045  1.0679
 2977SOL    HW220394   1.456   2.055   2.685  2.1914 -0.2442 -1.5520
 2978SOL     OW20395   0.396   3.254   4.407  0.1164  0.0007  0.1725
 2978SOL    HW120396   0.480   3.224   4.441  0.4832  2.6277  1.5831
 2978SOL    HW220397   0.339   3.222   4.477  2.7470 -1.1314  1.8335
 2979SOL     OW20398   3.880   4.468   2.720  0.0544 -0.3216  0.0842
 2979SOL    HW120399   3.905   4.436   2.806  1.3744  0.5501  0.0289
 2979SOL    HW220400   3.801   4.419   2.697  0.0881  0.2004 -1.1727
 2980SOL     OW20401   2.250   3.958  17.683  0.0208  0.0100  0.3544
 2980SOL    HW120402   2.269   3.987  17.594 -0.9350 -0.1125  0.1194
 2980SOL    HW220403   2.332   3.981   0.020  0.1296  0.8610 -0.2774
 2981SOL     OW20404   3.186   1.291   8.833 -0.0684  0.3682 -0.2376
 2981SOL    HW120405   3.226   1.321   8.752 -0.3280 -1.5496 -1.0575
 2981SOL    HW220406   3.097   1.325   8.822  0.6312  2.3322  0.1355
 2982SOL     OW20407   2.225   0.607  10.019 -0.1675  0.0577 -0.3982
 2982SOL    HW120408   2.300   0.665  10.006  0.5478 -0.9277 -0.7046
 2982SOL    HW220409   2.192   0.659  10.091 -1.2155 -1.9126  0.5541
 2983SOL     OW20410   4.061   3.898   7.643 -0.2163  0.0421  0.9152
 2983SOL    HW120411   4.131   3.959   7.667 -0.3710 -0.0588  1.6078
 2983SOL    HW220412   4.035   3.923   7.554 -3.5767 -2.3339  1.2175
 2984SOL     OW20413   4.139   0.214   8.450  0.3145  0.2901 -0.1674
 2984SOL    HW120414   4.119   0.142   8.389  0.6369  0.0549 -0.0011
 2984SOL    HW220415   4.148   0.292   8.395  2.9430 -0.1986 -0.4449
 2985SOL     OW20416   1.185   4.599  15.225 -0.3927 -0.0661  0.2314
 2985SOL    HW120417   1.272   4.602  15.185  0.2461 -1.4600  1.5290
 2985SOL    HW220418   1.143   4.680  15.194 -0.0235  0.1902  0.4054
 2986SOL     OW20419   2.450   3.388   2.843 -0.2518  0.1094  0.4435
 2986SOL    HW120420   2.493   3.380   2.757  0.0671 -0.4473  0.6511
 2986SOL    HW220421   2.370   3.343   2.814 -1.5863  3.0015 -0.3747
 2987SOL     OW20422   1.498   0.138   7.445 -0.0545  0.0640 -0.5192
 2987SOL    HW120423   1.500   0.105   7.535 -1.9936  2.4560  0.4228
 2987SOL    HW220424   1.402   0.144   7.440 -0.2361 -0.4144  2.4326
 2988SOL     OW20425   3.434   2.919   4.749 -0.0242  0.2731 -0.5929
 2988SOL    HW120426   3.481   2.850   4.701  0.7845  0.6015 -0.2671
 2988SOL    HW220427   3.480   2.997   4.719  0.5402 -0.5818 -1.9421
 2989SOL     OW20428   0.145   1.874   0.760  0.1127 -0.4762 -0.7315
 2989SOL    HW120429   0.065   1.841   0.802  0.6062  1.1827  1.4995
 2989SOL    HW220430   0.102   1.926   0.692  0.8118 -0.3214 -1.0544
 2990SOL     OW20431   0.868   4.553   2.172 -0.0981 -0.9191  0.3476
 2990SOL    HW120432   0.950   4.600   2.187 -1.1605  1.4483 -1.2589
 2990SOL    HW220433   0.852   4.529   2.264  1.4534  1.4323  1.2124
 2991SOL     OW20434   2.969   3.030   7.614  0.1869 -0.5584 -0.8427
 2991SOL    HW120435   3.004   3.101   7.668 -1.3063 -0.8575  0.4969
 2991SOL    HW220436   3.001   2.953   7.661 -1.8339 -0.5396  0.5760
 2992SOL     OW20437   4.095   3.516   3.645  0.2217  0.3399 -0.0084
 2992SOL    HW120438   4.032   3.555   3.585  0.4812 -2.1335 -1.8904
 2992SOL    HW220439   4.145   3.457   3.590 -0.6397 -0.4670  0.0737
 2993SOL     OW20440   1.344   3.306  13.906 -0.3219  0.2673 -0.4673
 2993SOL    HW120441   1.252   3.289  13.928 -0.3141 -0.9803 -1.4213
 2993SOL    HW220442   1.358   3.244  13.835  0.2797  0.6715 -0.7033
 2994SOL     OW20443   1.319   1.990   4.073  0.7241  0.0560 -0.0578
 2994SOL    HW120444   1.398   2.037   4.097 -0.5618  1.9028  0.5982
 2994SOL    HW220445   1.267   2.025   4.146 -0.7765 -0.2044 -0.9856
 2995SOL     OW20446   0.184   0.520   7.965 -0.5199 -0.1171  0.4108
 2995SOL    HW120447   0.157   0.605   7.999  1.6770  0.4701  0.6843
 2995SOL    HW220448   0.197   0.459   8.037 -1.8881 -0.4678  0.3711
 2996SOL     OW20449   3.890   1.536   7.339  0.8273  0.3828  0.3987
 2996SOL    HW120450   3.932   1.579   7.265 -0.1959 -1.8457 -1.5024
 2996SOL    HW220451   3.963   1.546   7.400  0.6384 -3.2426  1.2034
 2997SOL     OW20452   4.251   0.669   3.246 -0.3054 -0.3492 -0.1449
 2997SOL    HW120453   4.234   0.722   3.323  0.1713  0.2678 -0.4635
 2997SOL    HW220454   4.190   0.596   3.253  0.7109 -1.1661  0.0609
 2998SOL     OW20455   1.169   0.622   0.674 -0.3809 -0.4022  0.0636
 2998SOL    HW120456   1.194   0.714   0.678 -1.0935 -0.2427  0.8909
 2998SOL    HW220457   1.126   0.633   0.589 -2.4265 -0.7945  1.0516
 2999SOL     OW20458   2.124   1.567   9.976  0.0755 -0.5523  0.4317
 2999SOL    HW120459   2.103   1.476   9.958 -0.9961 -0.8840  3.3085
 2999SOL    HW220460   2.053   1.611   9.928  0.5493 -0.8181 -0.5159
 3000SOL     OW20461   2.549   0.956   4.558  0.9094  0.2751 -0.2951
 3000SOL    HW120462   2.641   0.969   4.578  1.3989 -2.1633 -0.9771
 3000SOL    HW220463   2.495   0.980   4.633 -0.7798  0.3189 -1.5131
 3001SOL     OW20464   4.571   3.943  11.572  0.0006 -0.7140 -0.2173
 3001SOL    HW120465   4.587   3.849  11.560  1.8164 -0.2612 -1.3528
 3001SOL    HW220466   4.611   3.975  11.490 -0.0275 -0.2425 -0.0435
 3002SOL     OW20467   3.261   3.311   8.921  0.1817  0.5074 -0.0249
 3002SOL    HW120468   3.211   3.286   8.843  3.2883 -2.6570 -0.9960
 3002SOL    HW220469   3.325   3.239   8.927 -2.2573 -1.7329 -0.5496
 3003SOL     OW20470   4.582   0.377   7.636 -0.4175  0.9882  0.1393
 3003SOL    HW120471   4.588   0.282   7.625 -1.7970  0.6899  1.8455
 3003SOL    HW220472   4.674   0.396   7.650 -0.1379 -0.7553  0.7643
 3004SOL     OW20473   4.059   2.840   3.446 -0.0588  1.0093 -0.5237
 3004SOL    HW120474   3.978   2.819   3.492 -0.2703  1.0690 -0.8623
 3004SOL    HW220475   4.106   2.894   3.509 -0.0187 -0.2476  0.5229
 3005SOL     OW20476   1.261   3.205  11.335  0.0465  0.6145 -0.0915
 3005SOL    HW120477   1.233   3.122  11.374 -2.5016  2.6467  2.3705
 3005SOL    HW220478   1.350   3.172  11.324 -0.3285 -0.4489  0.0154
 3006SOL     OW20479   4.046   1.251   3.819  0.1540 -0.1412 -0.0952
 3006SOL    HW120480   4.026   1.341   3.795  0.7168 -0.0657 -0.2837
 3006SOL    HW220481   4.134   1.252   3.780  0.2439  2.1499  0.1749
 3007SOL     OW20482   3.949   3.158  10.152 -0.2478  0.4020 -0.4448
 3007SOL    HW120483   3.880   3.221  10.135  0.2053  0.9943 -0.0956
 3007SOL    HW220484   3.921   3.123  10.237 -3.4413 -1.9179 -2.4533
 3008SOL     OW20485   3.893   0.423  12.035  0.2625 -0.4202 -0.1705
 3008SOL    HW120486   3.984   0.430  12.063  1.3685 -0.4457 -3.8051
 3008SOL    HW220487   3.903   0.431  11.940 -0.6097 -1.8716 -0.3839
 3009SOL     OW20488   3.394   0.951   4.322 -0.4465 -0.1239 -0.1326
 3009SOL    HW120489   3.358   1.036   4.298  0.2022 -0.4077 -2.1050
 3009SOL    HW220490   3.461   0.980   4.385  0.1909 -1.8272 -0.0397
 3010SOL     OW20491   0.472   4.445   4.561  0.1271 -0.0166  0.1150
 3010SOL    HW120492   0.458   4.375   4.497  0.8790  1.7191 -1.9424
 3010SOL    HW220493   0.399   4.506   4.554  0.8867  1.0011  1.0394
 3011SOL     OW20494   2.239   3.273   4.099 -0.6373  0.1231 -0.1028
 3011SOL    HW120495   2.168   3.210   4.089  0.2506 -0.5765 -1.9088
 3011SOL    HW220496   2.313   3.218   4.126 -1.1145 -0.0657  0.8199
 3012SOL     OW20497   1.870   1.424   0.725 -0.2293  0.3152  0.4943
 3012SOL    HW120498   1.898   1.333   0.731 -1.0842  0.0260  0.1527
 3012SOL    HW220499   1.900   1.451   0.638 -1.1011 -0.0024  0.0961
 3013SOL     OW20500   0.660   1.255  13.380  0.2620  0.0534  0.1936
 3013SOL    HW120501   0.707   1.223  13.303 -0.1269 -1.3941  0.5548
 3013SOL    HW220502   0.577   1.280  13.338  0.3806 -2.0647 -1.3270
 3014SOL     OW20503   2.555   1.513   7.789  0.1710  0.8280 -0.4711
 3014SOL    HW120504   2.566   1.455   7.713 -2.1793  0.1639 -0.2919
 3014SOL    HW220505   2.547   1.600   7.749  1.5052  0.9187 -0.5365
 3015SOL     OW20506   4.589   3.442   1.928  0.5671  0.3427  0.0661
 3015SOL    HW120507   4.640   3.366   1.956  0.5947  1.1883  2.3269
 3015SOL    HW220508   4.662   3.502   1.918  0.8560  0.1370  0.9808
 3016SOL     OW20509   0.515   4.212   0.239 -0.1904 -0.2000 -0.1224
 3016SOL    HW120510   0.575   4.162   0.183  0.4822  0.3544  0.0998
 3016SOL    HW220511   0.434   4.162   0.246 -0.7363  0.8388  0.8605
 3017SOL     OW20512   2.806   0.626   6.250  0.0258 -0.3946  0.3296
 3017SOL    HW120513   2.852   0.571   6.314  1.1665  1.4712  1.1026
 3017SOL    HW220514   2.714   0.625   6.275 -0.3610 -0.1499 -1.0913
 3018SOL     OW20515   2.018   2.091   6.086 -0.0585 -0.0979 -0.0342
 3018SOL    HW120516   1.957   2.063   6.017  0.5967  0.8110 -0.9914
 3018SOL    HW220517   2.104   2.079   6.045 -0.0248  3.7358 -1.1004
 3019SOL     OW20518   0.136   1.783  10.976  0.2531 -0.1996 -0.4779
 3019SOL    HW120519   0.111   1.784  11.068  0.0468 -0.4656 -0.5331
 3019SOL    HW220520   0.077   1.853  10.947 -1.3597 -1.5259 -0.3872
 3020SOL     OW20521   1.512   0.110  15.737  0.3552  0.3438  0.1977
 3020SOL    HW120522   1.497   0.088  15.829 -1.9066  2.8480  0.4395
 3020SOL    HW220523   1.601   0.146  15.737  0.8974 -1.0167  0.5072
 3021SOL     OW20524   3.812   2.429   5.769  0.3897  0.0132 -0.4768
 3021SOL    HW120525   3.783   2.511   5.729  0.6484  0.7839  0.8930
 3021SOL    HW220526   3.856   2.463   5.847  0.3495 -0.1816 -0.3688
 3022SOL     OW20527   0.122   0.438   6.471  0.1408  0.2153  0.1099
 3022SOL    HW120528   0.100   0.477   6.555 -1.8919  0.3065 -0.4645
 3022SOL    HW220529   0.131   0.345   6.491 -1.3242  0.5403  2.2621
 3023SOL     OW20530   1.852   3.774   5.183  0.1271  0.1113  0.5247
 3023SOL    HW120531   1.823   3.759   5.273  1.3670  1.4615  1.1481
 3023SOL    HW220532   1.772   3.753   5.135 -0.4410  1.8353  0.6885
 3024SOL     OW20533   3.127   2.024   1.492  0.1252  0.1972  0.2138
 3024SOL    HW120534   3.187   1.974   1.548 -1.2480  0.3445  1.8058
 3024SOL    HW220535   3.184   2.034   1.415 -2.5475  0.9459 -1.6792
 3025SOL     OW20536   1.702   3.546   1.552 -0.4098 -0.1553  0.1981
 3025SOL    HW120537   1.668   3.628   1.515  0.2216  0.4323  0.9020
 3025SOL    HW220538   1.673   3.553   1.643  0.1116 -1.1686  0.4449
 3026SOL     OW20539   2.871   2.847   1.775  0.1089 -0.1617 -0.2788
 3026SOL    HW120540   2.839   2.782   1.838 -1.0757 -0.0729 -0.8020
 3026SOL    HW220541   2.884   2.803   1.691  1.8043 -0.2099  0.0092
 3027SOL     OW20542   1.129   1.378  12.128 -0.0830  0.2556  0.0876
 3027SOL    HW120543   1.080   1.389  12.210 -0.8853 -0.3761 -0.3153
 3027SOL    HW220544   1.198   1.319  12.157 -0.9775 -1.2709 -0.8816
 3028SOL     OW20545   3.404   0.801   5.849  0.3454  0.8619  0.3831
 3028SOL    HW120546   3.350   0.734   5.893  2.4832 -1.5535 -0.7024
 3028SOL    HW220547   3.410   0.873   5.911 -0.2829  1.2441  0.0016
 3029SOL     OW20548   3.430   1.009   9.774  0.0382  0.3066 -0.0644
 3029SOL    HW120549   3.444   1.004   9.679  0.2945 -0.9058  0.0291
 3029SOL    HW220550   3.486   0.937   9.804  2.0041  1.3935 -1.1048
 3030SOL     OW20551   3.533   1.044  10.520  0.6915  0.1998  0.0592
 3030SOL    HW120552   3.599   1.107  10.491 -2.2460  1.8114 -3.1999
 3030SOL    HW220553   3.587   0.966  10.504 -0.1096 -0.3136 -0.1421
 3031SOL     OW20554   4.314   0.118  13.591  0.6120  0.2318 -0.3083
 3031SOL    HW120555   4.264   0.155  13.518 -0.8217  0.2165  0.6785
 3031SOL    HW220556   4.356   0.046  13.544  0.6134 -1.1049  1.7607
 3032SOL     OW20557   3.677   0.592   6.102 -0.1206 -0.1596  0.4585
 3032SOL    HW120558   3.694   0.508   6.144 -0.1617 -1.8148 -2.8466
 3032SOL    HW220559   3.725   0.583   6.020  1.7671 -0.7225  1.6219
 3033SOL     OW20560   0.666   0.631   7.235  0.7546 -0.0462 -0.1492
 3033SOL    HW120561   0.606   0.659   7.304  0.4424 -1.4543  0.1634
 3033SOL    HW220562   0.665   0.538   7.258  3.2292 -0.1056 -0.3092
 3034SOL     OW20563   0.051   2.349   9.523 -0.0235 -0.2995  0.0984
 3034SOL    HW120564   4.689   2.378   9.539  0.6389  1.8908 -0.2373
 3034SOL    HW220565   0.037   2.255   9.510  1.7605 -0.6208  0.4175
 3035SOL     OW20566   2.414   2.359   2.683 -0.0118  0.3163 -0.5809
 3035SOL    HW120567   2.406   2.354   2.778  1.3235 -0.1229 -0.4878
 3035SOL    HW220568   2.413   2.268   2.655  0.8711  0.7196 -1.9528
 3036SOL     OW20569   2.371   3.435   5.440 -0.3361 -0.9342  0.0866
 3036SOL    HW120570   2.372   3.517   5.490  0.2214  0.9141 -2.9323
 3036SOL    HW220571   2.397   3.463   5.352  2.0609 -0.6527  0.9061
 3037SOL     OW20572   2.361   1.618   0.057  0.0206 -0.2040 -0.7300
 3037SOL    HW120573   2.327   1.708   0.050  1.5842  0.2927 -1.7282
 3037SOL    HW220574   2.381   1.620   0.151  1.4226 -1.1724 -1.0223
 3038SOL     OW20575   4.244   0.808  15.162 -0.4429 -0.1024 -0.5527
 3038SOL    HW120576   4.289   0.749  15.223 -0.2634  1.6135  0.9752
 3038SOL    HW220577   4.173   0.847  15.213  0.3829  0.1946  0.3800
 3039SOL     OW20578   4.192   1.573  10.821 -0.2465 -0.5999 -0.6159
 3039SOL    HW120579   4.182   1.534  10.734  1.3640 -1.7480 -0.2983
 3039SOL    HW220580   4.284   1.555  10.842 -0.4183  1.5058  1.9855
 3040SOL     OW20581   4.116   0.468   9.225  0.0386  0.2230 -0.2724
 3040SOL    HW120582   4.021   0.469   9.238  0.0275  0.5648 -0.3927
 3040SOL    HW220583   4.146   0.454   9.315 -1.5242 -1.8245 -0.0571
 3041SOL     OW20584   4.714   2.484   4.734 -0.4138 -0.2666 -0.6688
 3041SOL    HW120585   0.050   2.427   4.778 -0.1189  0.1864 -0.5073
 3041SOL    HW220586   4.631   2.468   4.780 -0.0439  1.4598  0.5931
 3042SOL     OW20587   4.549   2.811   7.727 -0.3107  0.4762 -0.0832
 3042SOL    HW120588   4.495   2.886   7.753  0.3715  0.6469  0.8301
 3042SOL    HW220589   4.530   2.824   7.634 -2.0572  0.5436  0.2650
 3043SOL     OW20590   4.421   0.254   5.083  0.1804 -0.0796 -0.1846
 3043SOL    HW120591   4.387   0.303   5.159 -0.5565 -0.2264 -0.4211
 3043SOL    HW220592   4.489   0.318   5.062 -0.2497  0.0390 -1.1885
 3044SOL     OW20593   0.445   1.447   8.006  0.4700 -0.4428  0.6435
 3044SOL    HW120594   0.396   1.392   8.067  0.5693  1.5751  2.5421
 3044SOL    HW220595   0.531   1.408   8.019  0.1855 -1.1274  0.4555
 3045SOL     OW20596   4.145   4.395   4.767  0.3496  0.5922  0.1852
 3045SOL    HW120597   4.134   4.461   4.699  0.4228 -0.1872 -0.5783
 3045SOL    HW220598   4.097   4.441   4.836  0.6536 -0.9303  1.4307
 3046SOL     OW20599   3.620   2.846   6.426 -0.1038 -0.0534 -0.1102
 3046SOL    HW120600   3.700   2.899   6.434 -1.0897  1.3162  0.5715
 3046SOL    HW220601   3.573   2.878   6.502 -0.7787  3.3675 -1.9477
 3047SOL     OW20602   0.807   3.421   1.996  0.0093 -0.6339 -0.0063
 3047SOL    HW120603   0.713   3.404   2.002 -0.2394  0.8495  0.1575
 3047SOL    HW220604   0.834   3.350   1.938  0.2170  0.0384 -0.7264
 3048SOL     OW20605   2.735   2.353  11.582  0.6903 -0.1840 -0.2841
 3048SOL    HW120606   2.814   2.316  11.622  1.4087 -2.5794 -3.9281
 3048SOL    HW220607   2.681   2.283  11.618 -0.2228  0.4184 -0.4818
 3049SOL     OW20608   1.178   0.272   2.807 -0.4667  0.0690 -0.3602
 3049SOL    HW120609   1.229   0.353   2.796  1.5369 -1.1336  0.0389
 3049SOL    HW220610   1.115   0.295   2.739 -0.0709  2.2023 -0.0104
 3050SOL     OW20611   0.281   4.341  15.281 -0.1710 -0.4670  0.6970
 3050SOL    HW120612   0.189   4.324  15.302  0.0217  0.1234  2.0084
 3050SOL    HW220613   0.283   4.341  15.186  0.8105 -0.9565  0.7256
 3051SOL     OW20614   0.263   1.563   1.913  0.0360  0.1443 -0.4763
 3051SOL    HW120615   0.251   1.657   1.925 -0.5815 -0.0098  0.0597
 3051SOL    HW220616   0.178   1.535   1.945  0.6806 -1.5728 -0.2992
 3052SOL     OW20617   0.467   4.233   6.174 -0.1103 -0.2393 -0.1801
 3052SOL    HW120618   0.437   4.235   6.265 -1.0615  0.6696 -0.5133
 3052SOL    HW220619   0.500   4.144   6.174  1.7125  0.4528 -2.2118
 3053SOL     OW20620   0.685   4.677   9.409 -0.0216  0.0785 -0.0178
 3053SOL    HW120621   0.639   4.595   9.429 -0.8984  0.7774  0.8460
 3053SOL    HW220622   0.709   4.664   9.318 -1.3113 -0.1944 -0.3195
 3054SOL     OW20623   2.242   3.182  10.020  0.6983 -0.4085  0.3554
 3054SOL    HW120624   2.312   3.206   9.959 -0.9778 -0.0657 -1.4400
 3054SOL    HW220625   2.237   3.087  10.012  1.9299 -0.2605 -2.2172
 3055SOL     OW20626   1.234   4.500   0.497 -0.3477  0.4317 -0.0351
 3055SOL    HW120627   1.191   4.519   0.414  2.2382 -1.0184 -1.7318
 3055SOL    HW220628   1.278   4.415   0.487 -1.1582  0.2671 -2.0736
 3056SOL     OW20629   0.757   0.137   1.391  0.2765 -0.2029  0.0089
 3056SOL    HW120630   0.833   0.196   1.389  0.4872 -0.5042 -1.0167
 3056SOL    HW220631   0.763   0.100   1.302 -2.8432  2.1156 -1.1683
 3057SOL     OW20632   1.210   4.305   6.866  0.1095 -0.7782 -0.2214
 3057SOL    HW120633   1.150   4.286   6.938  0.7112  2.2049  1.0797
 3057SOL    HW220634   1.281   4.242   6.873 -0.7915 -2.0947 -3.1930
 3058SOL     OW20635   0.712   2.255   3.455  0.3816 -0.1095  0.7158
 3058SOL    HW120636   0.690   2.281   3.545 -0.9105  1.5628 -0.0887
 3058SOL    HW220637   0.795   2.303   3.448 -0.0364  0.6796  1.0969
 3059SOL     OW20638   3.360   0.437   4.788  0.4913  0.2002  0.3645
 3059SOL    HW120639   3.422   0.509   4.772  1.6119 -0.9893 -0.5964
 3059SOL    HW220640   3.345   0.394   4.703 -0.3200  0.6928  0.2521
 3060SOL     OW20641   3.385   3.815   1.949  0.2357  0.0514 -0.5357
 3060SOL    HW120642   3.446   3.837   1.880  2.9662 -0.2605  1.7782
 3060SOL    HW220643   3.320   3.762   1.903  0.1036  0.8150 -1.2176
 3061SOL     OW20644   2.438   0.846   8.428 -0.2601  0.7983  0.5849
 3061SOL    HW120645   2.491   0.854   8.349  1.6097 -2.5156  1.5196
 3061SOL    HW220646   2.360   0.796   8.400 -0.5164  0.5818  1.7041
 3062SOL     OW20647   1.898   0.248   4.127 -0.0176  0.2509  0.0580
 3062SOL    HW120648   1.858   0.233   4.042  1.5684  0.6559 -0.7514
 3062SOL    HW220649   1.987   0.229   4.098 -0.7538 -1.4716 -1.0492
 3063SOL     OW20650   3.377   3.121  11.882 -0.5394 -0.1970  0.0819
 3063SOL    HW120651   3.381   3.031  11.915 -1.7428  0.1511  1.1472
 3063SOL    HW220652   3.300   3.114  11.826 -0.3848 -0.5209 -0.0914
 3064SOL     OW20653   2.588   1.366  12.253  0.1916  0.0035  0.4857
 3064SOL    HW120654   2.537   1.407  12.323  1.4069  1.2396  0.6550
 3064SOL    HW220655   2.645   1.311  12.306 -0.4168 -1.2178 -0.1174
 3065SOL     OW20656   1.395   1.670   6.662  1.1060  0.5007 -0.3014
 3065SOL    HW120657   1.388   1.733   6.591 -0.2425  0.6557 -0.0247
 3065SOL    HW220658   1.317   1.620   6.637 -0.5853  2.0280  1.8453
 3066SOL     OW20659   1.976   4.344   1.786 -0.0574 -0.0830 -0.1894
 3066SOL    HW120660   1.971   4.433   1.821 -2.2709  0.0422 -0.8691
 3066SOL    HW220661   2.072   4.334   1.783  0.1206  1.6861 -0.3341
 3067SOL     OW20662   4.019   0.314   4.730 -0.4825 -0.3326 -0.0510
 3067SOL    HW120663   4.095   0.264   4.700  1.3115  1.7912  1.0171
 3067SOL    HW220664   4.029   0.401   4.691 -0.8753  0.3832  1.4375
 3068SOL     OW20665   0.533   2.614  11.101 -0.3226  0.0060 -0.8677
 3068SOL    HW120666   0.507   2.522  11.105  3.0900 -0.9751 -1.3845
 3068SOL    HW220667   0.482   2.651  11.173 -0.3146 -0.6388 -0.5349
 3069SOL     OW20668   0.166   2.365  14.692 -0.3762 -0.1416 -0.0883
 3069SOL    HW120669   0.232   2.429  14.665  0.2578 -0.4651  0.6912
 3069SOL    HW220670   0.134   2.396  14.776  0.4359  1.6036 -0.4307
 3070SOL     OW20671   2.344   1.118  13.198 -0.2165 -0.1064 -0.0585
 3070SOL    HW120672   2.276   1.181  13.172  0.5138  0.5872 -0.2793
 3070SOL    HW220673   2.390   1.115  13.114 -0.1088  1.4524 -0.0627
 3071SOL     OW20674   4.283   1.405  16.803 -0.3525 -0.3300  0.3976
 3071SOL    HW120675   4.318   1.494  16.813  0.4387 -0.3942 -1.9208
 3071SOL    HW220676   4.342   1.364  16.866  1.6308  1.9306 -0.0234
 3072SOL     OW20677   4.495   0.265  15.882  0.3211  0.0245  0.4143
 3072SOL    HW120678   4.565   0.325  15.909  1.4657 -1.9305  1.8092
 3072SOL    HW220679   4.462   0.303  15.800  1.9539  1.3184  0.3589
 3073SOL     OW20680   1.935   2.988  13.011  0.3000  0.4619  0.1336
 3073SOL    HW120681   1.993   2.941  13.072  0.2607 -1.7916 -1.5789
 3073SOL    HW220682   1.910   3.054  13.076 -1.2971 -1.4511  1.4976
 3074SOL     OW20683   1.587   3.965   5.082  0.4767  0.4523 -0.4905
 3074SOL    HW120684   1.598   3.889   5.025  0.8692 -1.1452  1.6959
 3074SOL    HW220685   1.681   3.980   5.072  0.9434 -1.9665  0.2156
 3075SOL     OW20686   2.437   3.280   3.097  0.6882 -0.2088  0.8980
 3075SOL    HW120687   2.433   3.192   3.060 -2.9055  0.8745 -1.2604
 3075SOL    HW220688   2.462   3.325   3.016 -0.2193 -0.7037  0.3492
 3076SOL     OW20689   0.054   2.002   5.196  0.5817  0.4836 -0.3357
 3076SOL    HW120690   0.068   1.914   5.159  1.5743  0.5943 -0.2103
 3076SOL    HW220691   4.701   1.987   5.248  0.9006 -1.4221 -0.3921
 3077SOL     OW20692   3.804   3.940   4.790 -0.3797 -0.5173  0.6358
 3077SOL    HW120693   3.865   3.955   4.718 -0.1501  1.8318  1.3347
 3077SOL    HW220694   3.762   3.864   4.748  0.3009 -1.8102  2.2953
 3078SOL     OW20695   2.605   3.551   2.396  0.2734  0.4915 -0.1268
 3078SOL    HW120696   2.573   3.540   2.307  4.0502 -0.6820 -1.3301
 3078SOL    HW220697   2.536   3.607   2.431 -1.5392 -0.2092 -2.6097
 3079SOL     OW20698   0.390   2.254   2.644  0.1183  0.0480  0.7002
 3079SOL    HW120699   0.352   2.319   2.703 -0.4254 -0.3515  0.7906
 3079SOL    HW220700   0.457   2.309   2.605  2.0296 -1.9574  1.1287
 3080SOL     OW20701   3.508   0.414   7.105 -0.6416 -0.3304 -0.3768
 3080SOL    HW120702   3.518   0.362   7.025 -0.6082 -0.3802 -0.3406
 3080SOL    HW220703   3.424   0.456   7.092  0.5933  1.2491 -3.2604
 3081SOL     OW20704   0.977   2.968  11.000 -0.1730  0.2290  0.5201
 3081SOL    HW120705   1.002   2.925  11.082  0.1667  0.5924  0.6079
 3081SOL    HW220706   0.992   3.061  11.015 -0.4991  0.1091  1.5412
 3082SOL     OW20707   3.510   2.957   9.421 -0.1871  0.2954  0.1096
 3082SOL    HW120708   3.600   2.955   9.452 -0.4492  0.8675  0.8811
 3082SOL    HW220709   3.456   2.940   9.498 -0.7230 -1.8612 -0.7297
 3083SOL     OW20710   4.460   3.586   5.913 -0.1597 -0.0031  0.2163
 3083SOL    HW120711   4.504   3.530   5.978 -1.7126 -3.1626 -1.4409
 3083SOL    HW220712   4.396   3.627   5.971  0.4785 -0.8442  1.5162
 3084SOL     OW20713   3.859   1.114   3.386 -0.1974 -0.3453 -0.3414
 3084SOL    HW120714   3.918   1.074   3.451  1.6581 -0.9042 -2.3901
 3084SOL    HW220715   3.777   1.075   3.416 -0.3147  1.8404  2.1576
 3085SOL     OW20716   0.838   1.610   8.963  0.2264  0.1849  0.4597
 3085SOL    HW120717   0.789   1.680   8.919 -1.7124 -0.6955  1.2175
 3085SOL    HW220718   0.801   1.622   9.050  0.5077  0.6957  0.5129
 3086SOL     OW20719   3.479   1.494   9.373 -0.2082  0.7219 -1.0360
 3086SOL    HW120720   3.438   1.546   9.442 -0.7547 -0.3922 -0.5092
 3086SOL    HW220721   3.488   1.411   9.420  0.2746  0.7209 -1.1311
 3087SOL     OW20722   4.315   2.705   2.390  0.1144  0.1500  0.1623
 3087SOL    HW120723   4.354   2.618   2.400  0.9155  0.4917 -0.0328
 3087SOL    HW220724   4.303   2.697   2.295 -1.4165 -0.4942  0.4054
 3088SOL     OW20725   3.880   3.664  17.393 -0.1290 -0.3132  0.1941
 3088SOL    HW120726   3.798   3.618  17.375 -1.1450  1.4466  0.2658
 3088SOL    HW220727   3.940   3.590  17.388  1.0026  0.6678 -0.4237
 3089SOL     OW20728   0.981   0.704   8.395 -0.2954  0.7584 -0.2954
 3089SOL    HW120729   0.981   0.650   8.316  0.3510  0.4016 -0.0485
 3089SOL    HW220730   1.005   0.639   8.460 -1.4532  2.7552  2.1265
 3090SOL     OW20731   2.704   2.815   9.904 -0.2823  0.2672 -0.2462
 3090SOL    HW120732   2.746   2.788   9.822  1.6693  1.3324  0.4092
 3090SOL    HW220733   2.624   2.853   9.870 -0.1450  0.4813 -0.3321
 3091SOL     OW20734   2.288   1.190   4.263 -0.4954  0.4266  0.0061
 3091SOL    HW120735   2.239   1.170   4.183  0.8400 -1.4915 -0.3378
 3091SOL    HW220736   2.372   1.177   4.217 -0.1151 -0.9216  1.0909
 3092SOL     OW20737   2.457   2.856  16.537  0.2950 -0.5162  0.1134
 3092SOL    HW120738   2.549   2.879  16.523  0.0786  0.1291 -0.1963
 3092SOL    HW220739   2.429   2.833  16.448 -1.0504  1.5358  0.0208
 3093SOL     OW20740   1.100   2.936   7.607 -0.2475  0.4994  0.5715
 3093SOL    HW120741   1.144   2.857   7.639 -3.4069 -1.5163  0.0317
 3093SOL    HW220742   1.154   3.002   7.651 -1.4849  2.9974 -1.6437
 3094SOL     OW20743   0.408   0.734   7.392  0.3633  0.4077 -0.0137
 3094SOL    HW120744   0.340   0.784   7.347  1.5217  0.7157 -1.4118
 3094SOL    HW220745   0.475   0.795   7.421  1.0633 -1.5731  2.4895
 3095SOL     OW20746   1.993   1.058   1.067  0.6304 -0.8603 -0.1626
 3095SOL    HW120747   1.961   1.145   1.040  2.1946  0.3521  1.8560
 3095SOL    HW220748   1.987   1.019   0.980  3.4262  0.3459 -0.9021
 3096SOL     OW20749   3.685   2.798   1.529  0.0750 -0.1710  0.1697
 3096SOL    HW120750   3.764   2.778   1.478  1.7049 -0.7577  2.9626
 3096SOL    HW220751   3.654   2.880   1.490  3.3170  0.7409 -0.5010
 3097SOL     OW20752   1.799   1.902   1.763 -0.0900 -0.1617 -0.8756
 3097SOL    HW120753   1.711   1.929   1.789  0.4139 -0.2702  0.9585
 3097SOL    HW220754   1.818   1.957   1.687 -1.0085  2.2795  0.6301
 3098SOL     OW20755   1.302   2.451   4.794 -1.1269  0.1014  0.4248
 3098SOL    HW120756   1.326   2.359   4.778  4.0484  1.8212 -1.6484
 3098SOL    HW220757   1.207   2.443   4.789 -1.1191 -0.5661  1.3561
 3099SOL     OW20758   0.161   4.705   2.627  0.3995  0.8685 -0.3526
 3099SOL    HW120759   0.067   4.721   2.621  0.3276  0.3956 -0.5577
 3099SOL    HW220760   0.179   4.657   2.546  1.4168  0.6587  0.0034
 3100SOL     OW20761   2.619   4.558   4.348 -0.2177 -0.0706  0.2887
 3100SOL    HW120762   2.544   4.618   4.349 -0.8508 -0.8059 -2.5544
 3100SOL    HW220763   2.693   4.614   4.325  1.0255 -1.5250  0.7438
 3101SOL     OW20764   2.017   3.542   5.664  0.2563  0.7661  0.6771
 3101SOL    HW120765   2.068   3.594   5.602  1.8640 -0.4134  1.0032
 3101SOL    HW220766   1.988   3.609   5.725 -2.5340  0.6645 -0.5068
 3102SOL     OW20767   1.097   4.187  17.145  0.1341 -0.4917 -0.6562
 3102SOL    HW120768   1.092   4.277  17.113 -0.4875 -0.4600 -0.4742
 3102SOL    HW220769   1.021   4.188  17.203 -2.2014 -0.7411 -3.7095
 3103SOL     OW20770   3.326   2.410   8.564  0.0225 -0.5934 -0.3735
 3103SOL    HW120771   3.416   2.395   8.592  0.3829 -0.7488 -1.6071
 3103SOL    HW220772   3.277   2.400   8.646  2.1014 -1.9820  0.6894
 3104SOL     OW20773   3.678   4.719  12.778  0.0405  0.3418 -0.2068
 3104SOL    HW120774   3.767   0.022  12.796  0.7711 -1.5670 -0.6919
 3104SOL    HW220775   3.636   0.014  12.861  1.6429  0.8237  0.4621
 3105SOL     OW20776   0.948   2.567  16.673  0.4673  0.1450  0.8656
 3105SOL    HW120777   0.895   2.597  16.747 -1.8407 -0.3695 -0.5726
 3105SOL    HW220778   0.979   2.654  16.646  0.3372 -0.1168 -0.1086
 3106SOL     OW20779   3.845   0.780   6.491 -0.1346 -0.3008  0.5082
 3106SOL    HW120780   3.766   0.810   6.537  1.3184  1.1969  2.0002
 3106SOL    HW220781   3.853   0.693   6.529 -0.4373 -0.5340  0.0333
 3107SOL     OW20782   4.706   3.605   5.821 -0.4805 -0.1675 -0.0367
 3107SOL    HW120783   4.715   3.684   5.768  1.4048 -0.3255  0.0437
 3107SOL    HW220784   4.616   3.613   5.851  0.0715  1.1184  1.2731
 3108SOL     OW20785   0.259   4.107   1.588 -0.2796 -0.5527  0.3498
 3108SOL    HW120786   0.206   4.184   1.610  0.6023  0.2657 -0.3699
 3108SOL    HW220787   0.340   4.115   1.638 -0.5246  1.4177  0.4632
 3109SOL     OW20788   3.382   3.203   5.110 -0.0847 -0.0137 -0.7157
 3109SOL    HW120789   3.372   3.112   5.138 -1.2157 -0.5139 -2.7685
 3109SOL    HW220790   3.463   3.206   5.060  0.8720 -1.5988  0.7582
 3110SOL     OW20791   1.105   2.330   3.183  0.2092  0.3568  0.2167
 3110SOL    HW120792   1.186   2.320   3.131  0.8224 -0.6275  1.3751
 3110SOL    HW220793   1.047   2.288   3.119 -1.1790 -0.8361  2.2658
 3111SOL     OW20794   0.501   3.251  14.216  0.2376  0.1704  0.0243
 3111SOL    HW120795   0.451   3.211  14.145  2.0627 -1.6209 -0.2470
 3111SOL    HW220796   0.435   3.302  14.264  0.8315  1.0986 -0.1490
 3112SOL     OW20797   2.581   2.043   3.348 -0.1959 -0.1246 -0.0145
 3112SOL    HW120798   2.518   2.108   3.318 -0.4386 -0.9972 -1.3811
 3112SOL    HW220799   2.549   2.018   3.435 -1.7300 -2.0455 -1.1110
 3113SOL     OW20800   4.456   0.296  13.355 -0.5262 -0.4138  0.3733
 3113SOL    HW120801   4.489   0.340  13.434 -0.1810  0.2583 -0.1490
 3113SOL    HW220802   4.363   0.291  13.378 -0.9411 -0.5508 -1.3666
 3114SOL     OW20803   2.121   0.251  11.086 -0.0837  0.6013 -0.6068
 3114SOL    HW120804   2.128   0.321  11.151 -0.9523  0.2050 -0.0939
 3114SOL    HW220805   2.085   0.184  11.144  1.8612  1.3786  1.4884
 3115SOL     OW20806   2.634   4.318   4.532 -0.0413 -0.3703 -0.1387
 3115SOL    HW120807   2.639   4.384   4.601  0.8494  0.2727 -0.8083
 3115SOL    HW220808   2.646   4.374   4.455 -0.3299  0.4328  0.4010
 3116SOL     OW20809   2.548   2.256   7.395 -0.7159 -0.2950  0.6216
 3116SOL    HW120810   2.632   2.246   7.350  0.8176  0.5522  3.2999
 3116SOL    HW220811   2.548   2.175   7.446 -0.3577 -0.6056  0.1243
 3117SOL     OW20812   2.340   0.567   8.753 -0.4528  0.2949 -0.0503
 3117SOL    HW120813   2.373   0.531   8.671  0.3712 -0.7922  0.7419
 3117SOL    HW220814   2.402   0.640   8.754 -2.8978  2.3442  1.3318
 3118SOL     OW20815   1.582   3.456   3.386  0.7985 -0.0639 -0.8151
 3118SOL    HW120816   1.551   3.483   3.473 -0.4171 -3.3558 -0.2460
 3118SOL    HW220817   1.530   3.521   3.338  0.4331  0.7536  0.6755
 3119SOL     OW20818   4.290   4.646   7.547  0.1019  0.1009 -0.0258
 3119SOL    HW120819   4.223   4.705   7.583  1.3566  2.8917 -2.2637
 3119SOL    HW220820   4.361   4.703   7.519  1.1525 -0.4252  1.5736
 3120SOL     OW20821   0.280   3.286   5.180  0.2210 -0.2869  0.0652
 3120SOL    HW120822   0.219   3.249   5.115  1.5140 -1.2232 -0.6138
 3120SOL    HW220823   0.246   3.375   5.193  2.7178  0.5014  1.0756
 3121SOL     OW20824   4.725   3.198   3.148 -0.0639 -0.2141 -0.7879
 3121SOL    HW120825   4.664   3.244   3.205  0.0917 -1.7329  0.5831
 3121SOL    HW220826   0.076   3.209   3.203  0.1608 -0.6731 -1.0144
 3122SOL     OW20827   4.603   3.428  14.209  0.7590 -0.2792  0.6745
 3122SOL    HW120828   4.641   3.424  14.121  1.1361 -0.2219  0.8372
 3122SOL    HW220829   4.625   3.516  14.239  1.7488 -0.0052 -0.8681
 3123SOL     OW20830   2.220   3.155  10.748  0.4621  0.0657  0.7669
 3123SOL    HW120831   2.151   3.146  10.682  0.5405  0.1484  0.6743
 3123SOL    HW220832   2.270   3.232  10.721 -0.0881  0.2106  0.1619
 3124SOL     OW20833   3.868   2.619   4.667 -0.4954  0.5406 -0.3577
 3124SOL    HW120834   3.780   2.583   4.678 -0.4865  1.5063  2.7769
 3124SOL    HW220835   3.911   2.544   4.626 -2.4813 -0.6170 -0.2980
 3125SOL     OW20836   4.196   0.177   3.782  0.0292  0.2039 -0.3541
 3125SOL    HW120837   4.145   0.106   3.745  0.6854 -1.1205  1.2471
 3125SOL    HW220838   4.135   0.245   3.809  0.7923  0.4883  0.6868
 3126SOL     OW20839   4.024   1.639   9.217 -0.0554 -0.4227  0.3557
 3126SOL    HW120840   3.945   1.599   9.183  0.4642 -2.9495  2.1343
 3126SOL    HW220841   3.997   1.666   9.305 -0.1519 -0.1685  0.2478
 3127SOL     OW20842   4.367   2.795   4.276  0.0838  0.4497  0.8043
 3127SOL    HW120843   4.272   2.803   4.285 -0.0989 -2.2960  1.0493
 3127SOL    HW220844   4.397   2.870   4.327  0.0755 -0.0910  1.5874
 3128SOL     OW20845   1.139   0.647   3.954  0.3944  0.4984 -0.2482
 3128SOL    HW120846   1.069   0.712   3.962  1.1372  1.4452 -1.2356
 3128SOL    HW220847   1.182   0.680   3.875 -0.5193 -1.9017 -1.7449
 3129SOL     OW20848   0.659   2.557   8.094  0.1519  0.3699  0.0212
 3129SOL    HW120849   0.576   2.551   8.141 -1.0742  1.4088 -2.0064
 3129SOL    HW220850   0.665   2.470   8.055  0.4193 -0.1922  1.2893
 3130SOL     OW20851   2.521   4.513   2.259  0.0366  0.2253  0.2732
 3130SOL    HW120852   2.541   4.584   2.198  1.4142 -0.5429 -0.1832
 3130SOL    HW220853   2.567   4.544   2.337 -1.3528  2.1816  0.3144
 3131SOL     OW20854   4.315   1.010   9.783 -0.1354  0.4364 -0.2225
 3131SOL    HW120855   4.342   1.056   9.862  0.2996 -0.3228  0.0661
 3131SOL    HW220856   4.380   1.046   9.723  0.6751 -0.6195  0.0149
 3132SOL     OW20857   1.670   3.568   5.478  0.2996 -0.2012  0.1790
 3132SOL    HW120858   1.684   3.601   5.567  0.0027 -3.2339  1.3383
 3132SOL    HW220859   1.576   3.587   5.476  1.0981  3.6688 -1.0245
 3133SOL     OW20860   1.744   3.003  16.079  0.2875 -0.6052  0.1075
 3133SOL    HW120861   1.820   3.060  16.074  0.5899 -0.9993  0.2300
 3133SOL    HW220862   1.663   3.052  16.065  1.2605  1.7354  2.6656
 3134SOL     OW20863   1.408   3.655   4.928 -0.9922 -0.2371 -0.2459
 3134SOL    HW120864   1.435   3.622   4.842 -1.0316 -0.9701  0.0252
 3134SOL    HW220865   1.415   3.748   4.906 -1.7578 -0.0243  0.4151
 3135SOL     OW20866   4.406   1.285   6.119 -0.1354 -0.1908 -0.1084
 3135SOL    HW120867   4.427   1.351   6.053 -0.9552  0.8290  0.6475
 3135SOL    HW220868   4.312   1.304   6.131 -0.4006 -2.0069  0.7177
 3136SOL     OW20869   4.409   4.249   5.107  0.1283  0.4547  0.1851
 3136SOL    HW120870   4.430   4.280   5.195  2.7026  0.9051 -0.5789
 3136SOL    HW220871   4.400   4.331   5.058  0.9961 -0.0119 -0.7680
 3137SOL     OW20872   1.723   2.621   6.745  0.1296  0.1071  0.5140
 3137SOL    HW120873   1.742   2.567   6.821  0.1606  0.1415  0.5306
 3137SOL    HW220874   1.779   2.573   6.684 -1.1984 -0.8933  0.0994
 3138SOL     OW20875   3.968   1.790   5.723  0.0912  0.3013  0.9041
 3138SOL    HW120876   4.052   1.776   5.766 -0.6662 -2.2268  1.5699
 3138SOL    HW220877   3.943   1.711   5.675  0.4150  0.5510  0.3336
 3139SOL     OW20878   0.358   3.187  17.640 -0.5311  0.3480 -0.0447
 3139SOL    HW120879   0.270   3.157  17.616 -0.3010 -0.5179  0.2154
 3139SOL    HW220880   0.338   3.241   0.009  0.1705  1.3092 -0.5347
 3140SOL     OW20881   2.026   2.658   1.771 -0.8327  0.2529 -0.4986
 3140SOL    HW120882   1.969   2.620   1.704  0.4140  1.7781 -2.4346
 3140SOL    HW220883   1.976   2.656   1.852  1.7842  2.0929  1.1894
 3141SOL     OW20884   2.092   2.284   6.301  0.6293  0.2581  0.3514
 3141SOL    HW120885   2.009   2.331   6.308  0.4999  0.3905 -2.2887
 3141SOL    HW220886   2.054   2.210   6.255 -0.9256  1.3773 -0.1489
 3142SOL     OW20887   0.129   3.076  10.115  0.0053  0.3750 -0.0411
 3142SOL    HW120888   0.092   3.009  10.172 -0.1883 -0.1467 -0.7880
 3142SOL    HW220889   0.098   3.155  10.158  1.7167  0.8593  0.3363
 3143SOL     OW20890   0.539   1.504   8.392 -0.3244 -0.0685  0.2931
 3143SOL    HW120891   0.472   1.490   8.326 -1.5886  1.4164  1.2653
 3143SOL    HW220892   0.608   1.538   8.334 -2.5523  0.7704 -1.8812
 3144SOL     OW20893   4.056   4.290   3.957 -0.1970 -0.5422  0.3510
 3144SOL    HW120894   4.060   4.366   4.016 -2.9335 -0.0880 -0.0537
 3144SOL    HW220895   3.963   4.292   3.934  0.3216  1.9707 -1.4982
 3145SOL     OW20896   2.550   3.974   7.115 -0.4674  0.1365  0.1188
 3145SOL    HW120897   2.490   3.975   7.189 -0.5778  3.1370  0.0247
 3145SOL    HW220898   2.635   3.979   7.159  0.1062  1.4072 -1.1044
 3146SOL     OW20899   0.404   4.554   7.712  0.1133 -0.0499 -0.5299
 3146SOL    HW120900   0.379   4.462   7.722 -1.9959  0.5330 -0.4096
 3146SOL    HW220901   0.453   4.576   7.791 -0.6230 -0.8789  0.1525
 3147SOL     OW20902   1.379   0.081  11.881 -0.2749  0.7363  0.1699
 3147SOL    HW120903   1.304   0.125  11.919 -1.5377 -1.9363  0.7904
 3147SOL    HW220904   1.414   0.155  11.831 -3.6454  0.7327 -2.1417
 3148SOL     OW20905   4.595   4.043  17.570 -0.2258  0.4222 -0.2728
 3148SOL    HW120906   4.572   4.030  17.479  4.0474  0.8804 -1.4378
 3148SOL    HW220907   4.571   4.134  17.591 -1.5320 -0.1478  0.6750
 3149SOL     OW20908   4.525   1.000  14.767 -0.1497 -0.7250  0.3934
 3149SOL    HW120909   4.594   0.934  14.776 -0.1121 -0.5986  1.0094
 3149SOL    HW220910   4.498   1.004  14.858  0.4725  1.6670  0.4765
 3150SOL     OW20911   4.477   0.803   3.688 -0.0085  0.3888  0.1208
 3150SOL    HW120912   4.536   0.818   3.614  1.7559  2.5719  1.9253
 3150SOL    HW220913   4.540   0.774   3.754  0.7684  1.7807  0.0029
 3151SOL     OW20914   3.280   1.401   6.064  0.5987  0.6483  0.1238
 3151SOL    HW120915   3.371   1.386   6.092  0.6003 -0.0372 -0.2637
 3151SOL    HW220916   3.226   1.395   6.142  0.2309 -2.1872 -0.3518
 3152SOL     OW20917   0.651   2.333  15.771 -0.1906 -0.6268  0.1129
 3152SOL    HW120918   0.719   2.267  15.779  0.5219  0.0616 -0.2048
 3152SOL    HW220919   0.593   2.291  15.708 -0.0281 -1.9120  0.8267
 3153SOL     OW20920   3.658   0.758   7.335 -0.6699 -0.0238 -0.0075
 3153SOL    HW120921   3.611   0.688   7.381  1.0627 -1.6370 -0.7172
 3153SOL    HW220922   3.623   0.743   7.248 -1.3779 -3.1123  0.8201
 3154SOL     OW20923   4.597   0.127  15.241 -0.1304 -0.1236 -0.1250
 3154SOL    HW120924   4.684   0.091  15.261  0.3536  1.2871  0.3710
 3154SOL    HW220925   4.620   0.212  15.202 -1.2295 -1.0628 -2.8030
 3155SOL     OW20926   3.920   2.012   7.822 -0.0615  0.8939  0.2720
 3155SOL    HW120927   3.898   1.920   7.835 -0.4423  0.5350 -2.7360
 3155SOL    HW220928   3.995   2.005   7.762 -0.7630 -0.2434 -0.4808
 3156SOL     OW20929   4.053   3.747   7.170 -0.1887 -0.1086 -0.1011
 3156SOL    HW120930   4.088   3.822   7.218 -1.7557  0.6070 -0.0655
 3156SOL    HW220931   4.042   3.791   7.086 -0.6010  0.7124  0.3833
 3157SOL     OW20932   3.628   3.914   0.622  0.7869  0.3668 -0.3480
 3157SOL    HW120933   3.702   3.966   0.590  0.6602  2.2868  2.4594
 3157SOL    HW220934   3.556   3.969   0.594  1.2502  1.8422  1.3844
 3158SOL     OW20935   3.977   4.636   1.792  0.7535 -0.2507 -0.0400
 3158SOL    HW120936   3.975   4.711   1.734 -1.6882  0.0813  0.4933
 3158SOL    HW220937   4.051   4.580   1.765 -0.7688 -1.2884 -2.0458
 3159SOL     OW20938   2.518   1.163   7.418 -0.1450 -0.2401  0.3402
 3159SOL    HW120939   2.452   1.110   7.374  1.4683 -0.8281 -1.3791
 3159SOL    HW220940   2.458   1.238   7.424  1.6398  1.1787  0.7340
 3160SOL     OW20941   0.523   0.449   0.137 -0.0010  0.1443  0.0599
 3160SOL    HW120942   0.428   0.458   0.130  0.0242 -0.1488 -0.6139
 3160SOL    HW220943   0.531   0.493   0.222  0.0609 -1.8251  1.0816
 3161SOL     OW20944   4.031   3.274   7.101  0.6581 -0.1934 -0.0014
 3161SOL    HW120945   4.114   3.262   7.147  1.3103 -0.7810 -1.3277
 3161SOL    HW220946   4.051   3.363   7.070  0.2996 -1.0036 -2.5251
 3162SOL     OW20947   2.447   3.274  13.912  0.9512  0.1239 -0.0748
 3162SOL    HW120948   2.500   3.257  13.990  0.2212 -0.7154  0.2300
 3162SOL    HW220949   2.387   3.200  13.908  1.3468 -0.2429  0.7558
 3163SOL     OW20950   2.222   0.540   5.962  0.3430  0.0798 -0.0317
 3163SOL    HW120951   2.182   0.583   5.886  0.0630  1.0431  0.6544
 3163SOL    HW220952   2.161   0.467   5.974  0.2735  0.2440  0.6401
 3164SOL     OW20953   2.732   0.614   0.031 -0.2029 -0.3310 -0.1666
 3164SOL    HW120954   2.687   0.698   0.042  0.6247  0.1122 -0.1771
 3164SOL    HW220955   2.794   0.642  17.672  0.5057  1.0781  1.0774
 3165SOL     OW20956   2.783   4.426   1.190 -0.2325 -0.4803  0.1235
 3165SOL    HW120957   2.790   4.361   1.120 -1.1178  0.6467 -1.0230
 3165SOL    HW220958   2.869   4.466   1.194  0.1717 -1.4528  1.0710
 3166SOL     OW20959   2.229   3.049  17.309 -0.3459 -0.0678  0.4391
 3166SOL    HW120960   2.309   2.996  17.303 -0.6101 -0.5783  1.4295
 3166SOL    HW220961   2.232   3.090  17.222 -1.8388 -0.5836  0.1548
 3167SOL     OW20962   2.481   3.111  10.859  0.1067 -0.6134  0.2926
 3167SOL    HW120963   2.396   3.112  10.814  0.5817 -0.7340 -0.5942
 3167SOL    HW220964   2.457   3.131  10.949 -1.1935  0.2695 -0.2470
 3168SOL     OW20965   3.132   4.664   1.414  0.2576  0.7776  0.5033
 3168SOL    HW120966   3.145   0.019   1.462 -0.1364  0.8210  0.5344
 3168SOL    HW220967   3.083   4.606   1.473  2.5748  0.2660  1.9398
 3169SOL     OW20968   0.340   3.291  12.408 -0.3417 -0.0216  0.0720
 3169SOL    HW120969   0.404   3.271  12.476 -1.5893  0.3093  1.3703
 3169SOL    HW220970   0.357   3.218  12.350  0.2198 -0.5400  0.8976
 3170SOL     OW20971   2.263   3.470  13.836  0.3032  0.1000  0.3946
 3170SOL    HW120972   2.336   3.431  13.886 -0.4112 -2.6694 -0.7282
 3170SOL    HW220973   2.193   3.435  13.891  0.3448 -1.9834 -0.9017
 3171SOL     OW20974   2.316   4.338   4.430  0.7225  0.2633  0.2310
 3171SOL    HW120975   2.367   4.270   4.475 -0.1260 -0.0163  0.7936
 3171SOL    HW220976   2.231   4.294   4.438  0.5654  0.3677 -0.9754
 3172SOL     OW20977   3.904   2.972  15.758  0.3274 -0.4613 -0.1149
 3172SOL    HW120978   3.995   2.946  15.743  1.3417  1.6418  2.4390
 3172SOL    HW220979   3.913   3.039  15.825  0.8349 -0.3049 -0.3414
 3173SOL     OW20980   4.131   1.731   6.876  0.3100 -0.0421  0.1313
 3173SOL    HW120981   4.118   1.823   6.900 -1.1110  0.0298 -0.9378
 3173SOL    HW220982   4.223   1.730   6.849  0.8724 -0.5526  2.0706
 3174SOL     OW20983   3.762   2.871   9.495 -0.1202 -0.1597  0.3372
 3174SOL    HW120984   3.825   2.803   9.520 -0.6792 -1.0023 -0.5699
 3174SOL    HW220985   3.752   2.902   9.585  1.0574  1.5548 -0.1303
 3175SOL     OW20986   1.206   2.324   9.891 -0.0642 -0.5136 -0.1324
 3175SOL    HW120987   1.124   2.325   9.942  1.0443 -1.1841  1.6620
 3175SOL    HW220988   1.192   2.264   9.817  1.1618 -1.4911  0.4309
 3176SOL     OW20989   1.333   0.194   0.001  0.3566 -0.7239  0.5864
 3176SOL    HW120990   1.417   0.240   0.007 -0.2822  0.5827 -0.5943
 3176SOL    HW220991   1.347   0.152  17.624  2.6156 -0.4109  0.7978
 3177SOL     OW20992   0.032   1.884   4.516 -0.0927 -0.6189  0.0654
 3177SOL    HW120993   0.041   1.979   4.516  0.3075 -0.6665  1.3705
 3177SOL    HW220994   0.121   1.848   4.508  0.6347  1.3902 -0.8262
 3178SOL     OW20995   4.715   1.642  16.593  0.0277  0.2204  0.0822
 3178SOL    HW120996   4.640   1.582  16.593 -0.6013  1.0113 -0.6110
 3178SOL    HW220997   4.696   1.690  16.674 -0.9371  1.6456 -0.9821
 3179SOL     OW20998   2.972   1.558  10.567  0.7998  0.4243 -0.2930
 3179SOL    HW120999   3.002   1.643  10.535  4.9980 -1.7349 -2.1120
 3179SOL    HW221000   3.057   1.516  10.581  0.4350 -1.0018 -2.4419
 3180SOL     OW21001   3.974   4.130   0.395  0.2884 -0.2270 -0.0805
 3180SOL    HW121002   3.899   4.120   0.454 -0.4388  1.3669 -0.6995
 3180SOL    HW221003   4.019   4.203   0.437 -1.8819  1.2309 -0.2611
 3181SOL     OW21004   0.698   2.255   5.286  0.1681 -0.2386 -0.0521
 3181SOL    HW121005   0.619   2.292   5.325 -0.4792 -3.6419  1.9536
 3181SOL    HW221006   0.667   2.245   5.196 -1.1461  1.2350  0.2421
 3182SOL     OW21007   3.269   2.734   7.215 -0.4523 -0.3503 -0.0583
 3182SOL    HW121008   3.235   2.820   7.238  2.8536  0.6503  1.0790
 3182SOL    HW221009   3.307   2.692   7.293 -3.0493  1.0983  2.0072
 3183SOL     OW21010   3.776   0.961   1.236 -0.1444  0.0721 -0.2521
 3183SOL    HW121011   3.703   0.986   1.293  0.6399  4.3446 -1.1623
 3183SOL    HW221012   3.763   0.866   1.241  0.2716 -0.0102 -0.7548
 3184SOL     OW21013   1.181   4.597  16.922 -0.2285  0.8075  0.0138
 3184SOL    HW121014   1.129   4.523  16.955 -0.6341  0.8578 -0.5248
 3184SOL    HW221015   1.222   4.632  17.002  0.0531 -0.1121  0.2692
 3185SOL     OW21016   2.591   0.482   7.222  0.0638  0.2179 -0.1880
 3185SOL    HW121017   2.583   0.392   7.191 -0.7453  0.3759 -0.4426
 3185SOL    HW221018   2.541   0.483   7.303 -0.0140 -0.2571 -0.2323
 3186SOL     OW21019   3.896   4.636  13.217  0.5929  0.2324  0.5961
 3186SOL    HW121020   3.863   4.724  13.197 -0.4779  0.0669  1.6378
 3186SOL    HW221021   3.825   4.604  13.272  1.4361  0.9047  2.0792
 3187SOL     OW21022   1.796   3.287   7.415 -0.0025  0.4700 -0.0718
 3187SOL    HW121023   1.724   3.285   7.352  1.4047  0.5157 -1.6988
 3187SOL    HW221024   1.838   3.201   7.417  0.3550  0.7305  2.9047
 3188SOL     OW21025   3.216   1.402   9.097  0.4313 -0.2938  0.0489
 3188SOL    HW121026   3.225   1.406   9.002 -1.2282 -1.3231 -0.1523
 3188SOL    HW221027   3.121   1.409   9.110  0.2779  1.5760 -1.9918
 3189SOL     OW21028   1.579   0.983   0.401  0.2412 -0.0569 -0.4541
 3189SOL    HW121029   1.582   0.919   0.472  0.2265  0.9143  0.4282
 3189SOL    HW221030   1.668   0.967   0.369  0.8084  2.9903 -0.4159
 3190SOL     OW21031   1.818   3.009   3.699  0.0729 -0.2500  0.0731
 3190SOL    HW121032   1.877   3.065   3.649 -0.2885 -1.3393 -1.6011
 3190SOL    HW221033   1.882   2.966   3.756 -1.0650 -0.6672  1.0243
 3191SOL     OW21034   1.927   1.113   3.727  1.0254  0.1387 -0.5795
 3191SOL    HW121035   1.908   1.202   3.696 -2.6310  0.0222  1.3413
 3191SOL    HW221036   1.856   1.065   3.686  0.6668  0.3034 -0.1473
 3192SOL     OW21037   1.855   4.419   1.547 -0.6056  0.6731 -0.3454
 3192SOL    HW121038   1.899   4.394   1.628  1.3289  1.4035 -1.1682
 3192SOL    HW221039   1.793   4.347   1.536 -0.0600  0.3625 -1.4419
 3193SOL     OW21040   4.570   1.735   3.702 -0.5153 -0.2567  0.3867
 3193SOL    HW121041   4.489   1.744   3.652 -0.1679 -0.9070 -0.2933
 3193SOL    HW221042   4.609   1.656   3.665  0.3030  0.2297  0.2186
 3194SOL     OW21043   3.482   2.885   1.306  0.0488  0.3741 -0.8974
 3194SOL    HW121044   3.423   2.958   1.286  0.8497  1.0090 -0.9085
 3194SOL    HW221045   3.549   2.898   1.238  3.0986 -1.7649  1.7407
 3195SOL     OW21046   1.148   4.260   5.896  0.5657 -0.2478 -0.1493
 3195SOL    HW121047   1.190   4.268   5.982 -1.6619  1.5815  0.7819
 3195SOL    HW221048   1.214   4.215   5.844 -0.1996 -2.1428  0.5263
 3196SOL     OW21049   2.392   1.693   4.450 -0.2857 -0.2622  0.2940
 3196SOL    HW121050   2.358   1.605   4.434  2.0379 -1.2982  0.9946
 3196SOL    HW221051   2.363   1.698   4.541 -1.1570  3.4051 -0.1809
 3197SOL     OW21052   2.462   0.148  17.374 -0.0317  0.2725  0.2274
 3197SOL    HW121053   2.374   0.184  17.362 -0.2769 -0.5736 -0.5206
 3197SOL    HW221054   2.457   0.058  17.341 -1.9139  0.6768 -0.6233
 3198SOL     OW21055   0.866   1.764   2.310  0.1663 -0.1135 -0.1564
 3198SOL    HW121056   0.777   1.799   2.298  0.0965 -0.1069  0.3644
 3198SOL    HW221057   0.854   1.669   2.309 -1.8919  0.1313 -0.4748
 3199SOL     OW21058   1.469   3.113   4.998  0.8132  0.3737  0.4865
 3199SOL    HW121059   1.397   3.172   4.973 -0.1165  0.4459  3.4084
 3199SOL    HW221060   1.498   3.082   4.912 -0.2270 -1.4467  0.7876
 3200SOL     OW21061   1.529   1.752   4.963 -0.1500  0.7925 -0.7231
 3200SOL    HW121062   1.448   1.700   4.955 -0.7865  1.8212 -0.9964
 3200SOL    HW221063   1.593   1.682   4.973 -0.4727  0.5722 -0.1993
 3201SOL     OW21064   2.695   2.079  10.832 -0.8898  0.2017 -0.1451
 3201SOL    HW121065   2.738   2.164  10.823 -1.1553  0.3916  0.3796
 3201SOL    HW221066   2.708   2.060  10.925 -0.6706  0.2782 -0.1613
 3202SOL     OW21067   1.541   2.369  11.472 -0.3597 -0.3022 -0.1625
 3202SOL    HW121068   1.594   2.352  11.395 -1.1922  1.0389 -1.0306
 3202SOL    HW221069   1.573   2.457  11.490 -1.8408  0.1070  0.4991
 3203SOL     OW21070   1.989   1.691   4.101 -0.0771  0.4286  0.4994
 3203SOL    HW121071   1.914   1.632   4.103 -0.1304  0.4916  0.2809
 3203SOL    HW221072   2.055   1.637   4.146  1.5982  3.2662  1.4639
 3204SOL     OW21073   3.821   4.127   2.626  0.4341  0.1939  0.4755
 3204SOL    HW121074   3.909   4.105   2.656  0.8074  0.7634 -0.1836
 3204SOL    HW221075   3.770   4.115   2.706 -0.1318 -0.5193  0.0140
 3205SOL     OW21076   2.046   0.399   9.449  0.0567  0.3121  0.1278
 3205SOL    HW121077   2.024   0.306   9.444 -1.7507  0.6087  2.7217
 3205SOL    HW221078   2.088   0.398   9.535  0.5867 -3.1175 -0.1789
 3206SOL     OW21079   0.199   1.115   8.445 -0.5808 -0.1596  0.2275
 3206SOL    HW121080   0.293   1.096   8.445 -0.0985  2.2974  0.3905
 3206SOL    HW221081   0.173   1.023   8.436 -2.1148  0.3234 -0.0936
 3207SOL     OW21082   1.580   3.737   7.139 -0.0940 -0.4504 -0.5577
 3207SOL    HW121083   1.572   3.685   7.059  0.3557  0.4456 -1.1770
 3207SOL    HW221084   1.659   3.789   7.127  0.3135 -1.3533 -1.8006
 3208SOL     OW21085   2.389   2.627  12.028  1.0800 -0.0453 -0.3961
 3208SOL    HW121086   2.339   2.549  12.051 -0.5993  0.4364 -2.4487
 3208SOL    HW221087   2.469   2.605  12.076  0.2560  1.0754  1.5348
 3209SOL     OW21088   0.719   0.242   1.752  0.5841 -0.1406 -0.4125
 3209SOL    HW121089   0.745   0.331   1.730 -1.4657  0.6296  0.2251
 3209SOL    HW221090   0.723   0.241   1.848 -2.6172 -1.1390 -0.2786
 3210SOL     OW21091   1.168   3.487   3.398  0.3778  0.0995 -0.0377
 3210SOL    HW121092   1.230   3.422   3.431 -0.7742 -1.2971 -0.6300
 3210SOL    HW221093   1.092   3.470   3.454 -0.3058 -0.0815 -1.0179
 3211SOL     OW21094   3.974   1.524   7.861 -0.1638 -0.5958  0.0845
 3211SOL    HW121095   4.024   1.522   7.942 -0.0675  0.4291  0.0542
 3211SOL    HW221096   3.906   1.462   7.885 -0.3607 -0.3109  0.2595
 3212SOL     OW21097   4.574   1.267   2.337  0.5049  0.2858  0.3108
 3212SOL    HW121098   4.605   1.187   2.295 -2.0421 -0.4130 -0.2866
 3212SOL    HW221099   4.524   1.218   2.403 -0.8946  1.9394  0.4795
 3213SOL     OW21100   4.459   0.397   7.395 -0.3074  0.4023  0.6312
 3213SOL    HW121101   4.406   0.473   7.419 -0.6610  0.4432 -0.2889
 3213SOL    HW221102   4.499   0.376   7.480 -0.6171  0.7223  0.8555
 3214SOL     OW21103   4.260   4.147   7.352  0.3200 -0.0249 -0.4589
 3214SOL    HW121104   4.333   4.149   7.290  2.6975  3.7428  2.5092
 3214SOL    HW221105   4.302   4.192   7.425 -1.5190  0.0014  0.5879
 3215SOL     OW21106   2.202   4.394   8.497  0.0227 -0.1735  0.1775
 3215SOL    HW121107   2.215   4.389   8.402 -1.4065  0.4005 -0.0518
 3215SOL    HW221108   2.273   4.458   8.500  0.0162 -0.1062 -0.8150
 3216SOL     OW21109   1.166   4.652   7.567 -0.0393 -0.4488 -0.1460
 3216SOL    HW121110   1.192   0.017   7.576 -2.7236  0.2098  1.0495
 3216SOL    HW221111   1.092   4.662   7.507 -0.0464  1.0512  0.1056
 3217SOL     OW21112   4.684   0.201  13.227 -0.1427  0.2000 -0.0160
 3217SOL    HW121113   4.607   0.233  13.274 -0.1791 -1.5999  1.1636
 3217SOL    HW221114   0.026   0.255  13.264 -0.1418  0.7654 -0.8534
 3218SOL     OW21115   2.713   1.448  13.923 -0.2039  0.2985  0.2118
 3218SOL    HW121116   2.656   1.435  13.847  0.3943 -1.0111 -0.0285
 3218SOL    HW221117   2.761   1.365  13.926 -0.9311 -0.0940  0.7867
 3219SOL     OW21118   0.499   1.230   8.924  0.2426 -0.1244 -0.5798
 3219SOL    HW121119   0.571   1.207   8.982 -1.0186  0.3572  1.1978
 3219SOL    HW221120   0.505   1.155   8.865  3.6271 -1.1415  1.0918
 3220SOL     OW21121   3.398   1.845   3.898  0.7600  0.5944  0.6770
 3220SOL    HW121122   3.411   1.787   3.973 -1.9881  0.1990  0.8510
 3220SOL    HW221123   3.319   1.807   3.860  1.6484 -1.5934  0.9863
 3221SOL     OW21124   3.431   3.026   3.273  0.2076 -0.7191 -0.0064
 3221SOL    HW121125   3.364   2.972   3.316  0.2853 -0.7290  0.1024
 3221SOL    HW221126   3.485   2.956   3.235 -0.3028 -2.3331  2.2197
 3222SOL     OW21127   0.483   0.337   4.511 -0.3643  0.2854  0.1618
 3222SOL    HW121128   0.535   0.376   4.582 -1.4597 -0.5806  1.4350
 3222SOL    HW221129   0.552   0.317   4.447  1.4880  2.4341  1.4715
 3223SOL     OW21130   2.943   3.882   2.133 -0.5620  0.3019 -0.5657
 3223SOL    HW121131   2.851   3.856   2.134 -1.0306  1.9452 -0.9898
 3223SOL    HW221132   2.973   3.814   2.072 -1.2840 -0.2739 -0.2820
 3224SOL     OW21133   0.330   0.786   9.510 -0.1476 -0.1774 -0.1650
 3224SOL    HW121134   0.414   0.794   9.555 -1.3180 -0.4313  2.0988
 3224SOL    HW221135   0.346   0.723   9.440  1.4551  1.5914 -1.3857
 3225SOL     OW21136   1.957   3.407   8.440 -0.1434  0.3087  0.2600
 3225SOL    HW121137   1.887   3.412   8.505 -1.9703 -2.1288 -1.5067
 3225SOL    HW221138   1.917   3.332   8.394  0.8691 -0.2123  0.2279
 3226SOL     OW21139   0.656   2.329   4.998  0.0582  0.2003 -0.2619
 3226SOL    HW121140   0.740   2.354   5.035  0.0410 -0.4504  0.2352
 3226SOL    HW221141   0.674   2.237   4.978 -1.2497 -0.4675  1.6698
 3227SOL     OW21142   0.100   2.766  10.230 -0.4620 -0.4046  0.2371
 3227SOL    HW121143   0.187   2.730  10.245 -1.1511 -2.7748 -1.5144
 3227SOL    HW221144   0.093   2.765  10.135  0.0446  1.3443  0.1755
 3228SOL     OW21145   4.128   0.763   2.997 -0.4689  0.4281  0.1453
 3228SOL    HW121146   4.154   0.752   3.088 -0.7724  0.4562  0.2366
 3228SOL    HW221147   4.168   0.698   2.939 -0.1296  0.5712  0.2158
 3229SOL     OW21148   2.943   3.803   1.425 -0.8895 -0.1381  0.4440
 3229SOL    HW121149   2.907   3.827   1.340 -1.0863  2.1315  1.1440
 3229SOL    HW221150   3.032   3.837   1.422 -0.9976  0.0473 -0.4582
 3230SOL     OW21151   4.711   1.801   2.263  0.4889  0.5413 -0.1817
 3230SOL    HW121152   4.631   1.854   2.264 -0.5699 -1.0658 -0.7348
 3230SOL    HW221153   4.676   1.713   2.255 -0.5119  1.0035 -0.8354
 3231SOL     OW21154   2.014   0.266  14.054  0.5591  0.0998 -0.4252
 3231SOL    HW121155   2.067   0.345  14.051  0.2762  0.2817 -0.6519
 3231SOL    HW221156   1.936   0.293  14.004 -0.8243  0.1374  1.7512
 3232SOL     OW21157   1.636   0.944   5.416  0.0758 -0.0601  0.6361
 3232SOL    HW121158   1.701   0.874   5.418 -1.5472 -1.5955  0.4946
 3232SOL    HW221159   1.675   1.009   5.474  1.4204  0.2158 -0.5887
 3233SOL     OW21160   0.388   4.431   0.146 -0.2288 -0.1619 -0.3615
 3233SOL    HW121161   0.361   4.373   0.074 -1.5521 -0.6809  0.5635
 3233SOL    HW221162   0.424   4.366   0.206 -0.0802 -0.5495 -0.8675
 3234SOL     OW21163   1.127   4.494   1.931 -0.0066 -0.5641 -0.0253
 3234SOL    HW121164   1.058   4.476   1.866 -0.1712  0.9283 -0.2550
 3234SOL    HW221165   1.150   4.579   1.894  2.0799  0.2987  3.3047
 3235SOL     OW21166   2.706   1.728   6.998 -0.5673  0.3969  0.3950
 3235SOL    HW121167   2.797   1.756   6.986 -0.3574 -0.7141 -0.5776
 3235SOL    HW221168   2.684   1.717   6.906 -1.7268 -0.5203  0.7721
 3236SOL     OW21169   2.562   4.509   5.640 -0.1204  0.3567 -0.2342
 3236SOL    HW121170   2.499   4.579   5.626  0.0103  0.3401 -0.8882
 3236SOL    HW221171   2.644   4.537   5.600 -0.3345  0.6698 -0.4500
 3237SOL     OW21172   2.307   0.650   2.199 -0.2448 -0.0862 -0.2870
 3237SOL    HW121173   2.316   0.633   2.105 -1.3662 -0.7885 -0.2657
 3237SOL    HW221174   2.212   0.650   2.209 -0.4747  2.1318 -2.6568
 3238SOL     OW21175   4.722   4.470   8.910 -0.3793  0.4057 -0.2119
 3238SOL    HW121176   4.672   4.419   8.973  1.3863  1.3265  1.9633
 3238SOL    HW221177   4.677   4.555   8.906 -1.0224  0.0110 -1.3330
 3239SOL     OW21178   3.674   3.351  15.725 -0.1884  0.1414  0.4582
 3239SOL    HW121179   3.730   3.282  15.688 -0.7289  0.9871 -1.9522
 3239SOL    HW221180   3.739   3.411  15.762  2.0054  0.1449 -3.3656
 3240SOL     OW21181   1.498   1.528   2.126  0.2828 -0.3845  0.0992
 3240SOL    HW121182   1.549   1.486   2.196  1.3503  1.6032  0.4972
 3240SOL    HW221183   1.462   1.448   2.088 -1.8248  1.4051 -1.6085
 3241SOL     OW21184   3.553   1.911   6.249  0.0432 -0.3705  0.3962
 3241SOL    HW121185   3.547   1.923   6.344 -1.5573  0.9502  0.1353
 3241SOL    HW221186   3.563   2.004   6.228 -4.0941 -0.2103 -0.9478
 3242SOL     OW21187   4.236   1.454  12.699 -0.1718 -0.5022  0.2252
 3242SOL    HW121188   4.280   1.371  12.719  1.6105  0.2901 -0.3585
 3242SOL    HW221189   4.258   1.494  12.783 -2.4955  2.6426 -0.6729
 3243SOL     OW21190   3.839   3.481   6.573 -0.0203 -0.3647 -0.6416
 3243SOL    HW121191   3.925   3.443   6.592 -0.4433 -0.7003  0.6083
 3243SOL    HW221192   3.780   3.412   6.603  0.2604 -0.3381 -0.0350
 3244SOL     OW21193   3.012   2.425   5.872 -0.2180 -0.2407  0.0822
 3244SOL    HW121194   3.046   2.336   5.861  1.8123  0.2361  2.3427
 3244SOL    HW221195   3.063   2.472   5.807 -2.5247  0.9259 -0.8703
 3245SOL     OW21196   0.988   0.797   6.164 -0.6152  0.2865  0.0345
 3245SOL    HW121197   1.062   0.845   6.126 -1.2132  1.9078  0.9129
 3245SOL    HW221198   1.008   0.809   6.257 -0.3851 -0.9896  0.1581
 3246SOL     OW21199   2.693   1.818  10.769 -0.3418  0.8788  0.2217
 3246SOL    HW121200   2.738   1.788  10.689 -2.8157 -1.7183 -0.2189
 3246SOL    HW221201   2.724   1.907  10.787 -0.3761  0.5926  1.6851
 3247SOL     OW21202   0.106   3.822   8.010 -0.0467  0.3189  0.2758
 3247SOL    HW121203   0.201   3.820   8.024 -0.5312  0.1715  3.5295
 3247SOL    HW221204   0.085   3.913   8.033 -1.3551  0.7636 -2.6543
 3248SOL     OW21205   1.148   0.073  11.216  0.0416 -0.1399  0.0640
 3248SOL    HW121206   1.196   0.117  11.146 -0.7000 -2.5269 -1.9298
 3248SOL    HW221207   1.061   0.069  11.177 -0.8639  4.2574  1.6084
 3249SOL     OW21208   2.378   1.110  17.620  0.2082  0.1557 -0.4450
 3249SOL    HW121209   2.334   1.193  17.642  0.3772 -0.3056  1.6439
 3249SOL    HW221210   2.327   1.083  17.544 -0.5127 -0.1806  0.1597
 3250SOL     OW21211   3.510   0.508   7.371 -0.3397  0.3206  0.0840
 3250SOL    HW121212   3.547   0.471   7.291 -0.2988  1.7431 -0.5585
 3250SOL    HW221213   3.436   0.447   7.369  0.6906 -0.9057 -0.8868
 3251SOL     OW21214   0.052   3.315  11.097  0.0506 -0.1306 -0.3543
 3251SOL    HW121215   0.042   3.381  11.166  0.2465  0.7428 -1.1537
 3251SOL    HW221216   4.690   3.280  11.085  0.9180 -2.1931 -0.6864
 3252SOL     OW21217   2.882   2.101   5.665 -0.0198 -0.0232 -0.6580
 3252SOL    HW121218   2.878   2.192   5.635  0.3859  0.4061  0.6086
 3252SOL    HW221219   2.931   2.107   5.747 -0.2409  0.9833 -0.6020
 3253SOL     OW21220   2.693   2.281   1.849  0.2489 -0.0158 -0.0715
 3253SOL    HW121221   2.665   2.273   1.758  0.6738 -1.1429 -0.1109
 3253SOL    HW221222   2.637   2.216   1.890  0.5785  0.6760  1.4703
 3254SOL     OW21223   4.656   1.004   2.331  0.0210 -0.0337  0.3354
 3254SOL    HW121224   4.585   0.940   2.330 -0.5540  0.5748  2.1618
 3254SOL    HW221225   4.719   0.965   2.271 -1.0442 -0.1697 -0.6814
 3255SOL     OW21226   2.623   3.056   6.503  0.1430  0.2775 -0.5009
 3255SOL    HW121227   2.666   3.129   6.457 -0.3838  2.7963  2.9971
 3255SOL    HW221228   2.701   3.010   6.534  0.5966  2.8438  2.1075
 3256SOL     OW21229   0.788   2.008   7.931  0.2020  0.0850  0.7405
 3256SOL    HW121230   0.697   2.018   7.960  0.7381  0.1694  2.3619
 3256SOL    HW221231   0.818   1.944   7.995  0.5103 -3.0507 -2.5341
 3257SOL     OW21232   3.723   0.440   6.852 -0.1124  0.9305 -0.1602
 3257SOL    HW121233   3.640   0.486   6.839 -0.0636  0.3498 -2.5538
 3257SOL    HW221234   3.689   0.351   6.857 -0.2291  0.8981 -1.4244
 3258SOL     OW21235   1.829   2.925  10.486  0.3061  0.1210  0.6795
 3258SOL    HW121236   1.792   2.976  10.559 -2.5366 -2.5442  1.1081
 3258SOL    HW221237   1.781   2.843  10.499 -1.1696  0.5778 -1.8756
 3259SOL     OW21238   1.060   3.255   8.273 -0.5155  0.0792 -0.1892
 3259SOL    HW121239   0.970   3.267   8.243 -0.6750 -0.5109  0.0468
 3259SOL    HW221240   1.063   3.306   8.354  1.3670  1.4789 -1.1650
 3260SOL     OW21241   1.475   2.161   3.423  0.0313  0.0284 -0.0044
 3260SOL    HW121242   1.497   2.242   3.377 -1.7385  1.0623  0.9694
 3260SOL    HW221243   1.399   2.131   3.372  1.0455  0.5623 -1.8350
 3261SOL     OW21244   4.704   1.209   9.039  0.1847  0.0359 -0.0543
 3261SOL    HW121245   0.062   1.174   9.012  0.2805 -0.5557  1.0223
 3261SOL    HW221246   4.708   1.264   9.117 -0.7642  1.5053 -1.0469
 3262SOL     OW21247   0.244   4.611   0.275 -0.0457  0.0047  0.6170
 3262SOL    HW121248   0.307   4.548   0.239 -0.9560 -0.7288  0.3346
 3262SOL    HW221249   0.205   4.551   0.338  1.3647 -0.3371  1.1728
 3263SOL     OW21250   3.816   1.552   9.852 -0.4522 -0.6840  0.2549
 3263SOL    HW121251   3.811   1.642   9.819  3.7598 -1.2154 -1.9173
 3263SOL    HW221252   3.750   1.498   9.808 -0.6009 -1.9337  2.0221
 3264SOL     OW21253   1.625   0.529   2.099 -0.1899  0.1305 -0.1743
 3264SOL    HW121254   1.623   0.434   2.110  0.1985  0.1520  0.0635
 3264SOL    HW221255   1.581   0.535   2.014 -3.2743 -0.7792  1.3321
 3265SOL     OW21256   2.662   3.813   1.785  0.5204 -0.0116  0.6735
 3265SOL    HW121257   2.686   3.857   1.704 -0.1315 -0.6434  0.1334
 3265SOL    HW221258   2.750   3.792   1.814  1.3735  1.7468 -0.6655
 3266SOL     OW21259   4.132   3.542   6.497  0.0762  0.0008  0.0752
 3266SOL    HW121260   4.116   3.569   6.587 -0.4190  3.3536 -1.0260
 3266SOL    HW221261   4.227   3.529   6.494  0.1626  0.6986 -0.1768
 3267SOL     OW21262   1.165   4.286   8.281 -0.2552  0.2822  0.0924
 3267SOL    HW121263   1.236   4.293   8.217 -1.3870 -0.0665 -1.2022
 3267SOL    HW221264   1.206   4.242   8.356  0.3301  0.7924  0.0724
 3268SOL     OW21265   1.336   3.232   2.838 -0.2768  0.3095  0.3985
 3268SOL    HW121266   1.258   3.260   2.790  1.9221  2.3542 -1.9627
 3268SOL    HW221267   1.397   3.226   2.765  1.1096 -1.5157  1.6980
 3269SOL     OW21268   3.094   2.269   0.162 -0.8301  0.6487  0.4200
 3269SOL    HW121269   3.063   2.212   0.092 -0.2274 -0.6952  1.2319
 3269SOL    HW221270   3.078   2.358   0.130 -0.1536  0.5857 -0.0868
 3270SOL     OW21271   2.020   0.363   2.046 -0.0595 -0.3419  0.2264
 3270SOL    HW121272   2.042   0.449   2.009  3.5199 -3.0807 -3.9816
 3270SOL    HW221273   1.925   0.366   2.034  0.2572  0.2351 -1.9764
 3271SOL     OW21274   3.057   2.548  16.893  0.6165 -0.2522  0.0554
 3271SOL    HW121275   3.105   2.620  16.934  3.3867 -0.7664 -2.2811
 3271SOL    HW221276   3.099   2.539  16.807  2.5459  1.3262  0.8367
 3272SOL     OW21277   4.594   3.129   7.887  0.1833  0.2765  0.2351
 3272SOL    HW121278   4.643   3.089   7.959 -2.2751 -0.5495  1.4472
 3272SOL    HW221279   4.509   3.086   7.898  0.6664 -0.9802 -0.8796
 3273SOL     OW21280   1.391   0.090   2.448 -0.4288 -0.1589 -0.1407
 3273SOL    HW121281   1.313   0.076   2.501  0.1832 -1.0916  0.5279
 3273SOL    HW221282   1.382   0.028   2.375 -0.0534 -1.3302  0.8097
 3274SOL     OW21283   3.835   0.105   5.072  0.3144 -0.0474 -0.8237
 3274SOL    HW121284   3.931   0.112   5.063  0.5868 -0.2809  1.9941
 3274SOL    HW221285   3.805   0.159   4.999 -1.3199  1.4629  0.9634
 3275SOL     OW21286   1.969   3.193  10.565 -0.1259  0.0104  0.2166
 3275SOL    HW121287   1.907   3.246  10.514  1.6744 -0.5566 -2.5906
 3275SOL    HW221288   2.009   3.136  10.499 -0.4136 -0.1376  0.1720
 3276SOL     OW21289   3.564   2.831   3.119  0.0893 -0.1839 -0.8863
 3276SOL    HW121290   3.622   2.795   3.053  0.9245 -1.8877  0.7752
 3276SOL    HW221291   3.509   2.755   3.136 -1.0772  1.0783  0.9904
 3277SOL     OW21292   1.242   0.804   3.571 -0.4039 -0.6131  0.6352
 3277SOL    HW121293   1.263   0.872   3.507 -1.3568 -0.6113  0.3276
 3277SOL    HW221294   1.182   0.758   3.512 -0.2577 -0.4470  0.3560
 3278SOL     OW21295   4.087   0.025   8.247  0.6382 -0.3558  0.1781
 3278SOL    HW121296   4.158   4.687   8.245  0.3668 -0.6169 -1.0419
 3278SOL    HW221297   4.026   4.707   8.188 -1.2747  0.9533  1.1700
 3279SOL     OW21298   4.392   2.834  16.058  0.3134  0.0634 -0.3052
 3279SOL    HW121299   4.372   2.743  16.033 -0.1397  0.2964 -0.8029
 3279SOL    HW221300   4.425   2.813  16.145 -0.4971  1.6555  0.3799
 3280SOL     OW21301   3.076   0.579   0.300 -0.3798  0.3893 -0.7798
 3280SOL    HW121302   3.120   0.547   0.222  0.6746 -1.2281  0.4643
 3280SOL    HW221303   3.055   0.671   0.288  0.2292  0.9177  2.2060
 3281SOL     OW21304   3.579   3.911   0.899  0.0764  0.2658 -0.5608
 3281SOL    HW121305   3.641   3.875   0.964 -0.5823 -0.1042 -0.1336
 3281SOL    HW221306   3.613   3.895   0.811 -1.5491 -1.6083 -0.8593
 3282SOL     OW21307   4.709   1.717  11.190 -0.3831  0.4688  0.2063
 3282SOL    HW121308   4.713   1.652  11.260  2.4503  1.3389  0.8575
 3282SOL    HW221309   4.634   1.771  11.219  1.7627  3.5556  0.0271
 3283SOL     OW21310   3.124   1.217   4.107 -0.2768  0.0965  0.3343
 3283SOL    HW121311   3.105   1.123   4.110  0.0312  0.0222  0.0048
 3283SOL    HW221312   3.161   1.235   4.193 -0.5188 -2.2632  0.9407
 3284SOL     OW21313   4.061   1.277  15.637 -0.4557 -0.3331  0.7196
 3284SOL    HW121314   4.020   1.194  15.614  0.4675 -0.8663  1.0012
 3284SOL    HW221315   3.998   1.313  15.700  1.8624  2.9945  1.1314
 3285SOL     OW21316   1.262   2.600  14.843 -0.3914  0.7460 -0.0307
 3285SOL    HW121317   1.305   2.558  14.918 -0.1524 -0.0478 -0.6136
 3285SOL    HW221318   1.286   2.692  14.847  1.9638  0.0578  1.9063
 3286SOL     OW21319   1.247   4.690   5.505  0.1773  0.0618  0.4850
 3286SOL    HW121320   1.231   4.623   5.571 -0.2674  0.5994  0.9343
 3286SOL    HW221321   1.339   4.705   5.525 -0.0161  1.0059  0.6996
 3287SOL     OW21322   3.835   3.542   7.042  0.0182 -0.0472 -0.0329
 3287SOL    HW121323   3.829   3.599   6.965  1.9189  1.0384  0.6392
 3287SOL    HW221324   3.829   3.453   7.007  0.0239  0.7424 -2.0511
 3288SOL     OW21325   4.232   0.021  17.507 -0.1420 -0.4289 -0.0016
 3288SOL    HW121326   4.274   0.017  17.422  1.9753  0.3247  1.0016
 3288SOL    HW221327   4.175   4.672  17.502 -2.0699  1.0554 -0.7555
 3289SOL     OW21328   4.126   0.732   9.865  0.6537 -0.6789  0.2098
 3289SOL    HW121329   4.219   0.710   9.870  0.8968 -0.1858 -1.7908
 3289SOL    HW221330   4.127   0.809   9.808 -0.1484  0.0893  1.2310
 3290SOL     OW21331   3.795   2.919   7.726 -0.3110  0.7092  0.0648
 3290SOL    HW121332   3.850   2.963   7.791  0.1152  0.1326  0.0964
 3290SOL    HW221333   3.746   2.990   7.686 -2.3037 -0.2520  0.7829
 3291SOL     OW21334   2.591   0.154   1.688 -0.6755 -0.0077  0.7042
 3291SOL    HW121335   2.562   0.165   1.597  0.5058 -1.2195  0.1726
 3291SOL    HW221336   2.662   0.090   1.695 -1.0332 -0.5013 -0.2070
 3292SOL     OW21337   3.474   1.341  13.078 -0.6607  0.1617  0.2046
 3292SOL    HW121338   3.567   1.331  13.056 -0.9131 -1.3417 -0.1670
 3292SOL    HW221339   3.475   1.407  13.147  0.7070  0.7149 -0.3458
 3293SOL     OW21340   2.501   1.330   8.925 -0.2414 -0.6776 -0.0013
 3293SOL    HW121341   2.550   1.405   8.957 -0.2652 -1.1570  1.1638
 3293SOL    HW221342   2.494   1.263   8.993 -0.5437  0.9298  1.5242
 3294SOL     OW21343   4.545   3.284   4.844  0.2097 -0.0272 -0.5210
 3294SOL    HW121344   4.631   3.283   4.802  0.6882 -2.9938  0.5301
 3294SOL    HW221345   4.536   3.376   4.868 -3.2349  0.0153 -1.9803
 3295SOL     OW21346   4.013   4.517   6.288  0.0138  0.0936  0.5818
 3295SOL    HW121347   4.046   4.493   6.374  1.4187 -1.9810 -0.5503
 3295SOL    HW221348   4.077   4.484   6.224  0.4495  0.2913  0.9195
 3296SOL     OW21349   3.535   1.059  12.926 -0.2448 -0.2722  0.2831
 3296SOL    HW121350   3.581   0.977  12.913 -0.7328 -0.5343  0.2089
 3296SOL    HW221351   3.605   1.123  12.941  0.1980 -0.7132  0.0706
 3297SOL     OW21352   0.529   3.554   2.915  0.2912  0.1018  0.1848
 3297SOL    HW121353   0.511   3.612   2.841 -1.3182  0.0688  0.5402
 3297SOL    HW221354   0.603   3.497   2.894  2.0482  2.8005 -0.9634
 3298SOL     OW21355   1.936   2.282  12.104  0.0182  0.2989  0.4455
 3298SOL    HW121356   1.886   2.204  12.130  2.4660 -1.4370 -0.0657
 3298SOL    HW221357   1.859   2.329  12.072  1.1233  1.1402 -0.9160
 3299SOL     OW21358   3.640   1.097  13.864  0.2303 -0.2261  0.2404
 3299SOL    HW121359   3.706   1.112  13.796  0.8471 -0.0551  0.8732
 3299SOL    HW221360   3.585   1.174  13.850  0.3758 -0.0851  0.4436
 3300SOL     OW21361   4.108   2.085   3.697  0.0035  0.2943  0.1565
 3300SOL    HW121362   4.159   2.063   3.620 -0.4022  1.7600 -0.5252
 3300SOL    HW221363   4.128   2.018   3.763 -0.1311  0.8896  0.7958
 3301SOL     OW21364   0.036   3.375   3.414  0.0405 -0.2421  0.4117
 3301SOL    HW121365   4.693   3.414   3.362 -0.2207 -0.8731  0.2957
 3301SOL    HW221366   4.717   3.315   3.473  1.9629 -0.0862  2.0792
 3302SOL     OW21367   1.812   0.549  16.658 -0.1343 -0.0839  0.2917
 3302SOL    HW121368   1.907   0.556  16.656 -0.1651 -0.3586 -2.6730
 3302SOL    HW221369   1.796   0.458  16.682 -1.2079 -0.0649 -0.3023
 3303SOL     OW21370   3.368   3.936  12.719  0.8720  0.4710 -0.1911
 3303SOL    HW121371   3.347   3.844  12.703 -0.3451  0.8072 -0.4884
 3303SOL    HW221372   3.414   3.926  12.803  3.3008  0.3864 -1.5267
 3304SOL     OW21373   0.897   2.734   2.160  0.3123  0.4657 -0.0046
 3304SOL    HW121374   0.879   2.657   2.105 -1.6611  0.4494  0.6602
 3304SOL    HW221375   0.814   2.734   2.208  0.6243  3.2902  0.5173
 3305SOL     OW21376   0.113   2.106   3.838 -0.3969  0.0592 -0.4523
 3305SOL    HW121377   0.091   2.184   3.889  0.0176  0.3879 -0.7802
 3305SOL    HW221378   0.052   2.044   3.878 -0.6530  1.7530  1.7603
 3306SOL     OW21379   3.966   0.116  13.563  0.3348  0.4482  0.5865
 3306SOL    HW121380   3.967   0.131  13.658 -0.9666  2.2534  0.3137
 3306SOL    HW221381   3.871   0.126  13.554  0.5002  3.2689  1.7221
 3307SOL     OW21382   2.659   1.923   4.763  0.3509  0.0982 -0.1312
 3307SOL    HW121383   2.597   1.985   4.802  1.8729  1.1257  0.6577
 3307SOL    HW221384   2.738   1.977   4.757  0.1519  0.3986 -0.0436
 3308SOL     OW21385   0.986   0.991   5.740  0.1277  0.0704  0.0907
 3308SOL    HW121386   1.037   0.953   5.669  0.4617 -1.4495  1.1463
 3308SOL    HW221387   0.936   0.913   5.765 -1.0176  0.4061 -1.1422
 3309SOL     OW21388   3.932   1.909   7.051 -0.7477 -0.0754 -0.0676
 3309SOL    HW121389   3.976   1.985   7.091 -4.3964  1.5763  0.7725
 3309SOL    HW221390   3.898   1.956   6.975 -0.1470 -0.2350 -0.4356
 3310SOL     OW21391   1.382   3.554   1.686  0.4139 -0.3474  0.1894
 3310SOL    HW121392   1.330   3.633   1.672  0.4443 -0.5458 -1.0750
 3310SOL    HW221393   1.444   3.561   1.613  1.7221 -1.7278  1.1610
 3311SOL     OW21394   1.873   1.117  16.826 -0.0748 -0.4808  0.4310
 3311SOL    HW121395   1.792   1.068  16.809  0.2059 -0.7542 -0.0947
 3311SOL    HW221396   1.846   1.209  16.826  0.7290 -0.2376  2.4766
 3312SOL     OW21397   3.446   1.963   4.274  0.1260 -0.1441  0.4022
 3312SOL    HW121398   3.429   1.870   4.258 -1.1192  0.3624 -1.2164
 3312SOL    HW221399   3.367   2.009   4.246 -0.3781 -1.2780 -0.0726
 3313SOL     OW21400   3.164   3.767   8.840 -0.5537 -0.2641 -0.4042
 3313SOL    HW121401   3.240   3.783   8.784 -0.3327  0.6474  0.1572
 3313SOL    HW221402   3.206   3.782   8.925  1.1311 -0.8617 -1.1211
 3314SOL     OW21403   0.450   0.200  14.612  0.6706 -0.3491 -0.0894
 3314SOL    HW121404   0.481   0.111  14.592 -1.5855 -0.5217 -2.8117
 3314SOL    HW221405   0.355   0.194  14.600  0.9146 -1.8551 -1.3034
 3315SOL     OW21406   0.278   4.514  15.580 -0.1722 -0.9731  0.4762
 3315SOL    HW121407   0.245   4.436  15.625 -0.0857 -1.9034 -1.0496
 3315SOL    HW221408   0.201   4.535  15.527 -1.6696 -2.9861  1.8207
 3316SOL     OW21409   2.641   0.573  14.616 -0.1701  0.0999  0.3290
 3316SOL    HW121410   2.648   0.479  14.598 -0.4438  0.1361  0.0274
 3316SOL    HW221411   2.556   0.591  14.576 -1.0118 -2.4221  0.9718
 3317SOL     OW21412   3.457   1.365   6.698  0.0482  0.0379  0.3562
 3317SOL    HW121413   3.547   1.393   6.714  0.4337 -0.7464 -0.4064
 3317SOL    HW221414   3.422   1.355   6.786 -1.0258  0.2995 -0.0399
 3318SOL     OW21415   3.595   1.396   4.956  0.0553  0.1415  0.1506
 3318SOL    HW121416   3.645   1.454   4.899 -1.1619  0.9368 -0.1048
 3318SOL    HW221417   3.647   1.316   4.958  1.4032  0.9928 -0.5859
 3319SOL     OW21418   2.889   4.309   5.551 -0.5914 -0.6135 -0.1936
 3319SOL    HW121419   2.946   4.232   5.549  0.8906  0.4853  0.2680
 3319SOL    HW221420   2.804   4.264   5.549  0.6410 -2.9400 -0.2690
 3320SOL     OW21421   1.865   1.868   0.593  0.6469  0.6730 -0.1271
 3320SOL    HW121422   1.906   1.874   0.680  1.6151 -2.0813 -0.4107
 3320SOL    HW221423   1.775   1.895   0.612 -0.1922 -1.9711 -0.3987
 3321SOL     OW21424   1.238   1.036   3.396 -0.6023 -0.2783  0.6114
 3321SOL    HW121425   1.284   1.105   3.444  0.8849 -0.7376 -0.1861
 3321SOL    HW221426   1.146   1.057   3.416 -1.5181 -1.8659 -1.9545
 3322SOL     OW21427   4.215   0.786   9.536 -0.2012  0.2804 -0.3991
 3322SOL    HW121428   4.226   0.831   9.619 -1.6273 -0.5258  0.2285
 3322SOL    HW221429   4.181   0.856   9.479 -0.7889 -1.3067 -1.9866
 3323SOL     OW21430   0.789   3.240   6.944 -0.4558  0.0918  0.0360
 3323SOL    HW121431   0.832   3.159   6.920 -1.4187  0.0198 -1.4743
 3323SOL    HW221432   0.698   3.214   6.959 -0.5412  0.6136  0.4273
 3324SOL     OW21433   3.716   1.424   6.767 -0.1675  0.1145 -0.0131
 3324SOL    HW121434   3.744   1.506   6.808 -2.6046  1.1031 -0.2743
 3324SOL    HW221435   3.785   1.410   6.702 -0.0078 -1.9923  0.6232
 3325SOL     OW21436   2.089   4.629  13.441 -0.2001 -0.1663  0.3916
 3325SOL    HW121437   2.041   4.619  13.522 -1.3419 -0.2991 -0.3014
 3325SOL    HW221438   2.156   4.698  13.449 -0.7268  0.5612 -1.4097
 3326SOL     OW21439   0.812   2.961   7.844 -0.0062 -0.1923 -0.5550
 3326SOL    HW121440   0.836   2.870   7.829  0.9662  0.3271 -2.2445
 3326SOL    HW221441   0.757   2.944   7.920 -0.8432  0.4158 -1.0210
 3327SOL     OW21442   0.464   0.941   4.811 -0.3074  0.2044 -0.2332
 3327SOL    HW121443   0.446   0.898   4.727  0.1437 -1.5220  0.5575
 3327SOL    HW221444   0.383   0.993   4.817 -0.2691  0.0971  1.2278
 3328SOL     OW21445   3.539   2.534   1.522  0.3231  0.3399 -0.2739
 3328SOL    HW121446   3.585   2.618   1.526  1.4371 -0.2163 -1.1691
 3328SOL    HW221447   3.454   2.570   1.497  0.1900 -1.2344 -2.0930
 3329SOL     OW21448   3.392   3.853   5.385 -0.3186 -0.5130 -0.6779
 3329SOL    HW121449   3.334   3.804   5.328 -0.7778 -1.8351  0.9393
 3329SOL    HW221450   3.419   3.933   5.339  0.5261 -0.2041  0.3611
 3330SOL     OW21451   2.278   1.329  14.947 -0.2897 -0.3779 -0.2821
 3330SOL    HW121452   2.339   1.388  14.901  1.3434 -1.0498  0.9951
 3330SOL    HW221453   2.197   1.378  14.953 -0.5787 -0.7773 -1.0410
 3331SOL     OW21454   4.383   3.623   6.681  0.2453  0.4268 -0.0060
 3331SOL    HW121455   4.304   3.674   6.697  0.6059  1.2154 -0.7565
 3331SOL    HW221456   4.362   3.539   6.721  1.1998 -0.3415 -1.1287
 3332SOL     OW21457   1.963   3.675  10.087  0.0184 -0.1790 -0.8818
 3332SOL    HW121458   1.921   3.622  10.155 -1.3596  0.7871 -0.9953
 3332SOL    HW221459   1.956   3.610  10.017 -0.6448  0.3736 -1.3225
 3333SOL     OW21460   2.615   2.971   5.981 -0.2502 -0.3515 -0.2423
 3333SOL    HW121461   2.531   2.982   5.935 -0.7861 -3.2581  0.0670
 3333SOL    HW221462   2.608   2.876   5.985 -0.9097 -0.2623  0.7210
 3334SOL     OW21463   4.374   4.669  12.740  0.5823 -0.0934  0.3935
 3334SOL    HW121464   4.321   0.007  12.786 -1.6349 -0.6370 -1.3888
 3334SOL    HW221465   4.461   4.701  12.763  0.6454 -0.4668  0.6758
 3335SOL     OW21466   3.104   3.875   2.710  0.0976 -0.2125  0.0060
 3335SOL    HW121467   3.142   3.788   2.704  0.6527 -0.1076  2.0914
 3335SOL    HW221468   3.127   3.891   2.802  2.1737  1.4410 -0.7716
 3336SOL     OW21469   2.148   2.723   1.417  0.3627 -0.1814 -0.1719
 3336SOL    HW121470   2.153   2.699   1.325 -1.1213  1.5184 -0.7018
 3336SOL    HW221471   2.200   2.803   1.424 -0.5841  0.4588 -0.4023
 3337SOL     OW21472   2.350   3.625   9.034  0.1267 -0.5861  0.0805
 3337SOL    HW121473   2.436   3.589   9.011  1.1305  1.4738  0.5808
 3337SOL    HW221474   2.303   3.602   8.954  0.5276 -1.0954 -0.0112
 3338SOL     OW21475   3.547   2.739   4.546 -0.6507  0.3691 -0.1489
 3338SOL    HW121476   3.586   2.775   4.466 -0.8514  1.0273  0.0527
 3338SOL    HW221477   3.528   2.655   4.505  1.0728 -0.8423  1.5380
 3339SOL     OW21478   1.629   3.316   2.916 -0.1201  0.0866 -0.1637
 3339SOL    HW121479   1.573   3.246   2.881  1.9926 -3.1552  2.9856
 3339SOL    HW221480   1.579   3.391   2.884 -1.0753 -0.4290  0.1183
 3340SOL     OW21481   3.103   0.978   2.116 -0.0042  0.2226 -0.3474
 3340SOL    HW121482   3.019   1.008   2.081  0.5860 -0.7180 -2.5336
 3340SOL    HW221483   3.116   0.901   2.061  1.1039  1.2091 -1.4562
 3341SOL     OW21484   4.376   3.984   4.643 -0.0945 -0.2336  0.2273
 3341SOL    HW121485   4.404   3.981   4.552 -2.1839  2.0791 -0.4571
 3341SOL    HW221486   4.410   3.898   4.668 -0.2764 -0.5699 -0.6852
 3342SOL     OW21487   0.973   1.506   7.876  0.0890  0.2052  0.4471
 3342SOL    HW121488   0.905   1.558   7.917 -1.2141 -0.9480 -0.2712
 3342SOL    HW221489   1.015   1.484   7.959  1.9838 -0.4387 -0.6550
 3343SOL     OW21490   3.964   3.014   8.668  0.4564 -0.1957  0.1192
 3343SOL    HW121491   3.945   2.966   8.587  1.6878 -0.8874  0.2313
 3343SOL    HW221492   3.907   2.980   8.737 -1.2089  0.1946 -1.0576
 3344SOL     OW21493   0.811   3.200   2.412 -0.2883  0.2617  0.0006
 3344SOL    HW121494   0.807   3.185   2.317 -0.0419  2.0639 -0.2932
 3344SOL    HW221495   0.904   3.222   2.419 -0.1533 -0.2765 -0.0848
 3345SOL     OW21496   0.394   4.554   5.423 -0.1079  0.4083 -0.2508
 3345SOL    HW121497   0.482   4.583   5.401  0.4525  0.1868  1.6745
 3345SOL    HW221498   0.381   4.597   5.507  1.4523  0.5328 -0.0742
 3346SOL     OW21499   0.245   1.944   8.444  0.0120  0.4327 -0.0926
 3346SOL    HW121500   0.309   1.872   8.446  0.0111  0.4370  0.1607
 3346SOL    HW221501   0.170   1.914   8.496  0.1462 -0.9600 -0.6996
 3347SOL     OW21502   2.262   3.900   6.085 -0.1280 -0.0383 -0.2623
 3347SOL    HW121503   2.348   3.941   6.073  0.4520 -1.1165  0.1556
 3347SOL    HW221504   2.290   3.809   6.076  0.8779  0.2302  0.0922
 3348SOL     OW21505   0.700   1.745   9.150 -0.0670  0.2488  0.0464
 3348SOL    HW121506   0.649   1.758   9.070  2.1021 -0.0055 -1.3653
 3348SOL    HW221507   0.745   1.828   9.164 -1.7992  1.6869 -2.8571
 3349SOL     OW21508   2.281   0.124  12.666 -0.5923  0.1050 -0.3604
 3349SOL    HW121509   2.222   0.055  12.697 -1.0566  1.1414  1.0812
 3349SOL    HW221510   2.259   0.198  12.723  0.3911  0.7717 -0.8449
 3350SOL     OW21511   0.996   0.820   6.436 -0.1810 -0.2709 -0.0868
 3350SOL    HW121512   1.047   0.893   6.470 -1.5793  0.9866 -0.7258
 3350SOL    HW221513   0.921   0.820   6.496 -0.8028 -2.1293 -0.8602
 3351SOL     OW21514   4.605   1.732   7.385 -0.5139  0.0103 -0.2795
 3351SOL    HW121515   4.535   1.796   7.373 -0.8392 -0.1547  0.7557
 3351SOL    HW221516   4.683   1.784   7.370 -0.6923  0.2391 -0.4078
 3352SOL     OW21517   0.267   0.654   8.851 -0.3261  0.3501  0.2676
 3352SOL    HW121518   0.287   0.588   8.785 -2.8160 -0.9114  0.7562
 3352SOL    HW221519   0.307   0.731   8.810 -0.7930 -1.1865 -3.0761
 3353SOL     OW21520   3.343   2.958  15.376 -0.7374  0.1062 -0.4140
 3353SOL    HW121521   3.393   2.917  15.306 -0.4709  1.9538 -1.3061
 3353SOL    HW221522   3.358   3.050  15.357 -0.9482  0.1235 -0.4973
 3354SOL     OW21523   1.566   3.086   2.329  0.0358  0.7282  0.2339
 3354SOL    HW121524   1.487   3.094   2.383  0.8542 -0.8785  1.6839
 3354SOL    HW221525   1.597   3.000   2.355  0.2286  0.4754 -0.8618
 3355SOL     OW21526   4.299   1.436   3.381  0.6163 -0.0308  0.6265
 3355SOL    HW121527   4.355   1.432   3.303  2.1555 -0.9236  1.7774
 3355SOL    HW221528   4.294   1.343   3.401 -0.3527 -0.1977 -0.4021
 3356SOL     OW21529   1.318   4.351   7.861 -0.4928 -0.1971 -0.4656
 3356SOL    HW121530   1.393   4.293   7.851 -3.2915 -3.4964 -2.4281
 3356SOL    HW221531   1.268   4.314   7.934 -0.4427 -1.4617 -1.0720
 3357SOL     OW21532   2.063   3.850  11.794 -0.1606  0.4417  0.4963
 3357SOL    HW121533   2.139   3.843  11.851 -1.4754 -0.7988  2.0899
 3357SOL    HW221534   2.044   3.759  11.773 -3.3695  1.2016  0.0673
 3358SOL     OW21535   2.692   2.181  17.488  0.0548 -0.0512  0.0610
 3358SOL    HW121536   2.644   2.255  17.525  1.7457  1.5353 -0.9100
 3358SOL    HW221537   2.755   2.221  17.429 -0.4619 -1.6156 -1.5479
 3359SOL     OW21538   0.410   4.286   2.402  0.0833  0.4322  0.4419
 3359SOL    HW121539   0.445   4.287   2.491  0.0591 -0.6839  0.4669
 3359SOL    HW221540   0.464   4.357   2.366 -2.3628  2.8367  1.5980
 3360SOL     OW21541   3.130   0.091  10.402 -0.3504  0.1855 -0.0319
 3360SOL    HW121542   3.052   0.041  10.379 -1.2825 -0.2277  4.0060
 3360SOL    HW221543   3.118   0.105  10.496  0.3177 -2.4228  0.4435
 3361SOL     OW21544   2.395   2.051   1.242 -0.0237 -0.3474 -0.0920
 3361SOL    HW121545   2.481   2.088   1.260 -0.0029  0.1081 -1.1145
 3361SOL    HW221546   2.362   2.021   1.327  0.3879  0.1478  0.2398
 3362SOL     OW21547   4.079   1.963   7.328 -0.1541 -0.1690 -0.0080
 3362SOL    HW121548   4.060   2.057   7.331  0.7375 -0.1072  4.1565
 3362SOL    HW221549   4.004   1.924   7.373  1.0828 -0.5305  1.7469
 3363SOL     OW21550   1.543   3.815  17.650  0.2557 -0.5134  0.2140
 3363SOL    HW121551   1.624   3.775  17.616  0.4267  0.1712 -0.1848
 3363SOL    HW221552   1.579   3.869   0.012  1.0315  0.9418 -1.2977
 3364SOL     OW21553   3.334   3.615   2.163 -0.0706  0.2456 -0.1273
 3364SOL    HW121554   3.286   3.620   2.246  1.2753  0.3233  0.6526
 3364SOL    HW221555   3.275   3.563   2.109 -0.7824 -0.0940  0.9717
 3365SOL     OW21556   0.819   4.667   6.996  0.2394  0.2707  0.3220
 3365SOL    HW121557   0.750   4.639   7.056  0.0844  2.1273  0.9923
 3365SOL    HW221558   0.814   0.035   7.005 -1.0690  0.2729 -0.3696
 3366SOL     OW21559   1.611   0.600   2.806  0.2156 -0.0747  0.2281
 3366SOL    HW121560   1.670   0.524   2.806 -0.7034 -0.7837  0.5695
 3366SOL    HW221561   1.611   0.615   2.711 -4.0648  1.7963  0.5315
 3367SOL     OW21562   3.824   4.132   0.621  0.6728  0.6539  0.3026
 3367SOL    HW121563   3.867   4.128   0.706  0.3479 -2.7290  0.3040
 3367SOL    HW221564   3.754   4.194   0.639 -0.2334 -0.5447  0.9308
 3368SOL     OW21565   1.520   2.512   8.432 -0.0816  0.2141 -0.7024
 3368SOL    HW121566   1.524   2.606   8.449  0.8346 -0.2364  1.6825
 3368SOL    HW221567   1.604   2.497   8.389  0.4254 -1.1270  0.7445
 3369SOL     OW21568   3.739   3.460  17.564  0.2868  0.1713  0.4422
 3369SOL    HW121569   3.678   3.387  17.556 -1.7136  1.7072  1.5162
 3369SOL    HW221570   3.827   3.422  17.572 -0.3382 -1.3390  0.0726
 3370SOL     OW21571   4.351   2.995  14.901 -0.1173  0.2630  0.0697
 3370SOL    HW121572   4.423   3.050  14.932  0.5846 -0.7653  0.2652
 3370SOL    HW221573   4.388   2.909  14.919 -0.3346  0.1662  0.0492
 3371SOL     OW21574   1.372   0.884   0.749 -0.3546 -0.0762  0.0571
 3371SOL    HW121575   1.442   0.897   0.813 -0.0943 -1.5372  0.0537
 3371SOL    HW221576   1.315   0.958   0.767  1.1237  1.4531 -1.4549
 3372SOL     OW21577   3.822   0.301   3.076 -0.7510 -0.0226 -0.0590
 3372SOL    HW121578   3.873   0.371   3.034  1.8610 -0.4132  2.4954
 3372SOL    HW221579   3.855   0.222   3.034  1.4058  1.8224 -1.8738
 3373SOL     OW21580   0.266   0.569   2.348  0.0203 -0.6088  0.4721
 3373SOL    HW121581   0.303   0.482   2.366  2.0797  0.4544  1.4573
 3373SOL    HW221582   0.172   0.555   2.342 -0.3440  1.5142  1.2804
 3374SOL     OW21583   2.546   0.613   6.335 -0.5361 -0.3609 -0.6605
 3374SOL    HW121584   2.503   0.623   6.251 -0.1908 -2.3642 -1.0784
 3374SOL    HW221585   2.479   0.566   6.386  1.8025 -0.7977  2.0321
 3375SOL     OW21586   2.154   2.424   7.572 -0.2924 -0.5879  0.1813
 3375SOL    HW121587   2.230   2.483   7.575  0.7286 -1.8301 -1.1440
 3375SOL    HW221588   2.098   2.468   7.635  1.8125  0.4645  1.3313
 3376SOL     OW21589   0.820   2.864   3.449  0.1863 -0.2750 -0.3275
 3376SOL    HW121590   0.796   2.893   3.360  2.4155  0.2905 -0.7487
 3376SOL    HW221591   0.789   2.774   3.446  0.6130 -0.5004  2.2284
 3377SOL     OW21592   4.174   3.648  13.273  0.8858  0.1935 -0.3285
 3377SOL    HW121593   4.196   3.564  13.313 -0.0336  0.9902  1.8756
 3377SOL    HW221594   4.237   3.699  13.324 -1.3048  2.6548 -0.1104
 3378SOL     OW21595   3.521   0.059   2.937 -0.0072 -1.2763  0.3291
 3378SOL    HW121596   3.462   0.010   2.994 -3.8813  1.2717 -1.4929
 3378SOL    HW221597   3.498   0.020   2.853  1.2701  0.3358 -0.7796
 3379SOL     OW21598   2.291   3.756   5.732 -0.2834  0.5085  0.2945
 3379SOL    HW121599   2.275   3.836   5.784  0.2164 -0.4897  1.9756
 3379SOL    HW221600   2.356   3.709   5.783  0.5820 -1.6603 -2.8149
 3380SOL     OW21601   2.180   0.391  11.316 -0.5143 -0.2567 -0.3674
 3380SOL    HW121602   2.270   0.368  11.341 -1.0376 -0.2897  1.4367
 3380SOL    HW221603   2.146   0.406  11.404 -1.7006 -5.2860  0.0229
 3381SOL     OW21604   0.266   2.139  16.115  0.3033 -0.0804 -0.0207
 3381SOL    HW121605   0.316   2.211  16.152  2.4168 -0.1567 -2.7454
 3381SOL    HW221606   0.179   2.180  16.113  0.5508  0.3474 -2.4619
 3382SOL     OW21607   1.152   1.201   5.636 -0.1394 -0.4892 -0.9432
 3382SOL    HW121608   1.230   1.165   5.678 -0.7314  0.5694  1.0793
 3382SOL    HW221609   1.082   1.147   5.672  0.2561  0.0375  0.5920
 3383SOL     OW21610   2.060   2.879   6.026 -0.8544 -0.7213 -0.1689
 3383SOL    HW121611   2.071   2.830   5.945  0.9911  0.1759 -0.4698
 3383SOL    HW221612   2.153   2.879   6.051 -1.2438  0.6070  1.3082
 3384SOL     OW21613   2.664   1.394  16.437  0.7280 -0.3521 -0.8142
 3384SOL    HW121614   2.687   1.398  16.529 -2.5150  2.6975 -0.1229
 3384SOL    HW221615   2.625   1.480  16.421  0.1407 -0.3688  0.5994
 3385SOL     OW21616   0.122   3.637   9.233  0.1492 -0.2600  0.7866
 3385SOL    HW121617   0.178   3.713   9.247  1.0465 -1.5157  4.1337
 3385SOL    HW221618   0.178   3.567   9.267 -1.7248 -0.5984  3.2115
 3386SOL     OW21619   0.036   0.207  11.997  0.8548 -0.5683 -0.0410
 3386SOL    HW121620   0.076   0.169  11.918  0.6064  1.6142 -1.2096
 3386SOL    HW221621   4.721   0.290  11.976 -0.8729 -1.2289  0.7046
 3387SOL     OW21622   2.097   1.206   1.790 -0.6079 -0.2180  0.5662
 3387SOL    HW121623   2.120   1.116   1.766 -1.4647 -0.6840  1.4485
 3387SOL    HW221624   2.092   1.243   1.703 -0.2470 -0.1981  0.5570
 3388SOL     OW21625   1.759   4.224   2.330 -0.7514  0.2514  0.4058
 3388SOL    HW121626   1.690   4.290   2.335 -2.0630 -1.0523 -0.7009
 3388SOL    HW221627   1.811   4.264   2.260  0.1485  3.0043  2.6333
 3389SOL     OW21628   1.818   0.384   4.347  0.3035  0.1854  0.0242
 3389SOL    HW121629   1.851   0.370   4.258 -2.9021 -0.7964 -0.9970
 3389SOL    HW221630   1.733   0.343   4.335  0.5545 -0.8256  1.7510
 3390SOL     OW21631   3.255   3.177   6.815  0.2591  0.1679 -0.0592
 3390SOL    HW121632   3.173   3.159   6.769 -0.9106  0.9393  1.7451
 3390SOL    HW221633   3.322   3.137   6.759  1.5343  0.5731  1.1535
 3391SOL     OW21634   3.495   2.779   0.757  0.1903 -0.1289 -0.2821
 3391SOL    HW121635   3.584   2.812   0.770 -0.6233  1.2143  2.0635
 3391SOL    HW221636   3.472   2.780   0.850 -0.5715 -0.4198 -0.4670
 3392SOL     OW21637   4.046   3.066   4.168  0.4769  0.3971  0.1127
 3392SOL    HW121638   4.030   3.010   4.245 -1.9435  2.0102  0.7738
 3392SOL    HW221639   3.981   3.134   4.185 -0.9476 -0.1064 -3.2977
 3393SOL     OW21640   2.194   3.249   9.074  0.1031 -0.3001  0.5013
 3393SOL    HW121641   2.141   3.214   9.003  1.1479 -1.8089  0.4616
 3393SOL    HW221642   2.210   3.173   9.129  1.1093 -2.1346 -2.3349
 3394SOL     OW21643   1.995   2.575  10.168 -0.2404  0.4056  0.4861
 3394SOL    HW121644   1.947   2.553  10.088  2.4659  3.5067 -2.0000
 3394SOL    HW221645   2.049   2.495  10.170  0.3641  0.8094  0.4080
 3395SOL     OW21646   1.988   1.235   2.196 -0.0253  0.2218 -0.1458
 3395SOL    HW121647   2.076   1.197   2.198  0.8665  2.2578  0.0180
 3395SOL    HW221648   1.957   1.205   2.110 -0.6068  2.2447 -0.6575
 3396SOL     OW21649   1.108   3.900  10.629 -0.4305 -0.4773  0.8825
 3396SOL    HW121650   1.071   3.920  10.715  0.5178 -1.9646  1.6317
 3396SOL    HW221651   1.141   3.979  10.584  0.5284 -0.5739  1.4078
 3397SOL     OW21652   2.130   3.104   7.002 -0.1659 -0.1685  0.4390
 3397SOL    HW121653   2.052   3.129   7.052  0.1150  0.1090  0.7437
 3397SOL    HW221654   2.164   3.188   6.970  0.6894 -0.4514  0.5882
 3398SOL     OW21655   1.351   1.784   4.578  0.4778  0.3972 -0.5708
 3398SOL    HW121656   1.294   1.846   4.625 -1.3791 -1.9960  0.3154
 3398SOL    HW221657   1.315   1.807   4.493  0.5516  2.4448 -0.0551
 3399SOL     OW21658   2.661   4.546   4.705 -0.0032 -0.0131  0.1137
 3399SOL    HW121659   2.583   4.601   4.699 -0.7798 -1.3451 -2.0473
 3399SOL    HW221660   2.712   4.586   4.634 -1.3530  0.9010 -0.3450
 3400SOL     OW21661   0.697   2.198   0.552  0.1928  0.3195 -0.5578
 3400SOL    HW121662   0.723   2.286   0.578  3.1621 -0.6076 -0.4084
 3400SOL    HW221663   0.683   2.211   0.458  1.3952 -1.3361 -0.9569
 3401SOL     OW21664   3.067   2.340   4.422 -0.4080  0.1886  0.2785
 3401SOL    HW121665   3.058   2.257   4.375  1.8344  0.0282  0.1200
 3401SOL    HW221666   3.008   2.333   4.496 -0.6455 -1.0970 -0.0421
 3402SOL     OW21667   0.450   0.413   1.994 -0.0042  0.0588  0.6943
 3402SOL    HW121668   0.441   0.363   1.913 -1.4478  0.4748  0.5948
 3402SOL    HW221669   0.389   0.486   1.987  0.5745  0.7241  2.6738
 3403SOL     OW21670   1.198   0.662  10.579  0.2144  0.2430 -0.0533
 3403SOL    HW121671   1.243   0.671  10.663  1.3882  2.0777 -0.8729
 3403SOL    HW221672   1.222   0.573  10.555  1.3809  0.0120  1.9587
 3404SOL     OW21673   1.467   0.576  11.900 -0.2791 -0.0794  0.4282
 3404SOL    HW121674   1.444   0.602  11.989  1.0770  0.2051  0.7030
 3404SOL    HW221675   1.481   0.665  11.870  1.9025 -0.9200 -1.0323
 3405SOL     OW21676   1.643   1.914   0.741 -0.6842  0.7792 -0.0593
 3405SOL    HW121677   1.551   1.920   0.716 -1.3374 -0.7808  2.0152
 3405SOL    HW221678   1.652   1.819   0.734  0.0060  0.6915  2.2462
 3406SOL     OW21679   0.238   0.324   4.588 -0.2722 -0.3800  0.1142
 3406SOL    HW121680   0.327   0.327   4.552 -0.5268  0.7296 -0.4214
 3406SOL    HW221681   0.220   0.230   4.584 -0.4027 -0.3250 -0.5744
 3407SOL     OW21682   2.450   1.403   6.614 -0.2524 -0.4363  0.0623
 3407SOL    HW121683   2.480   1.451   6.691  1.3682 -3.6390  1.4345
 3407SOL    HW221684   2.363   1.375   6.642 -0.4661  0.1659  0.0186
 3408SOL     OW21685   4.663   0.692   0.842  0.1012  0.1871  0.8504
 3408SOL    HW121686   4.714   0.732   0.913  0.7247 -0.5172  0.7908
 3408SOL    HW221687   4.660   0.599   0.865  0.0701 -0.0848 -0.2617
 3409SOL     OW21688   4.335   3.782   8.964 -0.6599 -0.6538  0.0893
 3409SOL    HW121689   4.428   3.779   8.943 -0.0772 -0.5302  2.7523
 3409SOL    HW221690   4.341   3.871   8.999 -1.3433 -1.4197  2.1164
 3410SOL     OW21691   4.604   1.502  14.491  0.4524 -0.3128 -0.2018
 3410SOL    HW121692   4.541   1.483  14.560 -1.3160 -0.0788 -1.7596
 3410SOL    HW221693   4.643   1.420  14.460  0.5508  0.1604 -1.3622
 3411SOL     OW21694   3.016   3.186   3.410  1.0074  0.6546 -0.1305
 3411SOL    HW121695   2.991   3.144   3.492  1.2815  0.7418 -0.0040
 3411SOL    HW221696   3.090   3.239   3.438  0.8852  0.9725 -0.4180
 3412SOL     OW21697   3.356   0.616   6.232  0.1818  0.0778  0.2159
 3412SOL    HW121698   3.347   0.575   6.318  1.1172  0.9454  0.7268
 3412SOL    HW221699   3.435   0.668   6.246  1.0458 -0.7921 -1.4332
 3413SOL     OW21700   0.156   2.891   1.288 -0.0335 -0.6671  0.0548
 3413SOL    HW121701   0.086   2.838   1.325 -0.0672  0.3165  1.3803
 3413SOL    HW221702   0.216   2.902   1.362  0.3776 -0.7243 -0.2635
 3414SOL     OW21703   4.247   1.036   8.683 -0.3933 -0.0277  0.8353
 3414SOL    HW121704   4.243   1.102   8.753 -1.0999  0.1114  0.6611
 3414SOL    HW221705   4.280   0.965   8.738 -2.8164 -2.7648 -1.2216
 3415SOL     OW21706   2.669   1.888  16.458 -0.5327 -0.0386  0.3051
 3415SOL    HW121707   2.753   1.844  16.468 -1.8563 -2.2975  1.4489
 3415SOL    HW221708   2.674   1.920  16.368  2.5351 -0.3996  0.3312
 3416SOL     OW21709   1.412   2.556  12.715 -0.1414 -0.5266 -0.4702
 3416SOL    HW121710   1.472   2.612  12.666  1.2172 -0.9137  0.7516
 3416SOL    HW221711   1.348   2.621  12.744 -1.4592 -1.3630 -1.5263
 3417SOL     OW21712   4.514   4.409   8.720 -0.0853 -1.0140 -0.3757
 3417SOL    HW121713   4.597   4.441   8.756 -1.3785  0.9351  0.9042
 3417SOL    HW221714   4.523   4.320   8.756 -0.9567 -0.8360  0.2952
 3418SOL     OW21715   4.400   3.028  12.242  0.0236  0.3236  0.4076
 3418SOL    HW121716   4.427   3.117  12.265 -2.7188  0.5526  2.6615
 3418SOL    HW221717   4.402   2.988  12.329  0.3892 -0.7030 -0.0796
 3419SOL     OW21718   1.435   0.804   6.413 -0.1623 -0.3046 -0.6338
 3419SOL    HW121719   1.442   0.865   6.340  0.4700 -0.0667 -0.3789
 3419SOL    HW221720   1.368   0.849   6.464  1.4058 -0.0855  1.2430
 3420SOL     OW21721   1.875   0.894   1.955 -0.2567  0.3519  0.3597
 3420SOL    HW121722   1.877   0.989   1.968  1.3499  0.1126  1.7922
 3420SOL    HW221723   1.852   0.864   2.043  0.2862 -0.4353  0.2329
 3421SOL     OW21724   1.927   3.534  10.315 -0.5051 -0.4826 -0.5988
 3421SOL    HW121725   2.020   3.511  10.310 -0.4370 -0.1602 -0.8028
 3421SOL    HW221726   1.888   3.447  10.308 -1.3928 -0.0969 -0.3638
 3422SOL     OW21727   3.220   1.754   7.795 -0.0233 -0.3717 -0.1628
 3422SOL    HW121728   3.225   1.849   7.802 -2.9858 -0.1519 -0.8238
 3422SOL    HW221729   3.269   1.724   7.871 -0.3975 -0.3202  0.0976
 3423SOL     OW21730   2.478   0.932   8.151 -0.7106  0.2913 -0.3656
 3423SOL    HW121731   2.384   0.914   8.146 -0.8021  1.0687 -1.5233
 3423SOL    HW221732   2.503   0.929   8.059  0.6434 -0.2471  0.0210
 3424SOL     OW21733   4.149   1.161   7.359 -0.0147 -0.3334  0.0656
 3424SOL    HW121734   4.240   1.177   7.334  0.8072 -3.6077  0.9026
 3424SOL    HW221735   4.116   1.108   7.286  1.8917 -0.5416 -0.6437
 3425SOL     OW21736   3.344   2.862  10.375  0.8976 -0.3233  0.8736
 3425SOL    HW121737   3.430   2.899  10.395  0.3193  0.4794  1.8857
 3425SOL    HW221738   3.339   2.783  10.429  1.4240 -0.6487  0.4414
 3426SOL     OW21739   2.551   1.184   4.145 -0.4627 -0.5745 -0.1609
 3426SOL    HW121740   2.635   1.193   4.189 -2.2107  2.3672  2.5638
 3426SOL    HW221741   2.571   1.115   4.082 -0.3731 -0.0700 -0.6872
 3427SOL     OW21742   3.949   0.988   2.933 -0.2387  0.6944  0.3581
 3427SOL    HW121743   3.950   1.058   2.999 -1.6501 -0.7243  1.8647
 3427SOL    HW221744   3.968   0.913   2.990 -1.5286 -1.0542 -1.5067
 3428SOL     OW21745   3.053   0.802   6.319 -0.0069 -0.8533  0.0273
 3428SOL    HW121746   3.109   0.801   6.396 -1.2959 -1.3985  0.9770
 3428SOL    HW221747   2.973   0.756   6.345  0.1960 -0.8647  0.6373
 3429SOL     OW21748   4.141   3.223  13.398  0.0462  0.4050 -0.1890
 3429SOL    HW121749   4.199   3.147  13.407  1.6370  1.4483 -1.6448
 3429SOL    HW221750   4.065   3.185  13.442 -1.1504  3.4618  0.3241
 3430SOL     OW21751   2.261   4.150   3.310 -0.8525  0.0028  0.0239
 3430SOL    HW121752   2.180   4.144   3.260 -0.2716  0.2395 -0.9317
 3430SOL    HW221753   2.330   4.154   3.244  0.3418  0.5734  1.3098
 3431SOL     OW21754   1.831   3.355   6.318  0.3770 -0.1811  0.1617
 3431SOL    HW121755   1.848   3.265   6.293 -1.6142 -0.6133  0.3744
 3431SOL    HW221756   1.752   3.372   6.266 -0.9010 -0.5972  1.9506
 3432SOL     OW21757   3.143   4.135  12.542  0.2999  0.5299 -0.3719
 3432SOL    HW121758   3.171   4.056  12.587 -2.1990  0.4864  1.1637
 3432SOL    HW221759   3.052   4.134  12.574  0.4237 -0.7171 -0.0616
 3433SOL     OW21760   3.313   2.097  17.595  0.4972  0.1668 -0.2747
 3433SOL    HW121761   3.353   2.130  17.676 -3.5747  1.4681  1.1750
 3433SOL    HW221762   3.225   2.079  17.625  0.3501  0.8687 -0.2839
 3434SOL     OW21763   3.966   2.683  10.191 -0.3491  0.2759 -0.2399
 3434SOL    HW121764   4.058   2.689  10.166 -0.7013  0.2039 -1.5160
 3434SOL    HW221765   3.987   2.646  10.277  1.0067 -0.5383 -0.9257
 3435SOL     OW21766   1.712   3.638   2.409  0.1364 -0.4812  0.4421
 3435SOL    HW121767   1.617   3.642   2.418  0.0313  2.0415 -1.7938
 3435SOL    HW221768   1.737   3.727   2.431 -2.5011  0.0557  1.2258
 3436SOL     OW21769   4.401   4.395   4.640 -0.6729  0.0417 -0.4456
 3436SOL    HW121770   4.494   4.399   4.659 -0.6373  0.8041 -0.7613
 3436SOL    HW221771   4.361   4.438   4.716  1.3001 -1.2263  1.3002
 3437SOL     OW21772   3.376   1.277  13.954 -0.5003 -0.0815  0.0688
 3437SOL    HW121773   3.390   1.286  14.048 -1.6617 -1.5607  0.3766
 3437SOL    HW221774   3.327   1.354  13.927 -1.0824 -0.8669 -1.1234
 3438SOL     OW21775   3.778   1.890   0.899  0.6698  0.0750  0.7217
 3438SOL    HW121776   3.729   1.971   0.891 -0.7965 -0.9842 -1.1954
 3438SOL    HW221777   3.829   1.910   0.977 -1.6801 -0.4078  2.3639
 3439SOL     OW21778   3.963   1.653   2.065  0.5995  0.4775 -0.4331
 3439SOL    HW121779   3.883   1.701   2.048 -0.9378 -1.8777  0.1611
 3439SOL    HW221780   3.935   1.594   2.136  1.8622  1.1147  0.5980
 3440SOL     OW21781   1.789   3.475   9.141 -0.9978 -0.1234  0.1204
 3440SOL    HW121782   1.857   3.462   9.208 -0.5780 -1.3293 -0.5337
 3440SOL    HW221783   1.773   3.568   9.156 -1.7123 -0.0068 -1.3968
 3441SOL     OW21784   3.042   2.232   8.998  0.2223 -0.3479 -0.2440
 3441SOL    HW121785   3.080   2.156   9.041 -2.8814 -1.6917  0.0855
 3441SOL    HW221786   2.957   2.201   8.967 -1.1651  1.6740  1.5418
 3442SOL     OW21787   0.714   4.276   2.150  0.0029 -0.2774  0.5274
 3442SOL    HW121788   0.719   4.181   2.138  0.6594 -0.0307 -1.1512
 3442SOL    HW221789   0.735   4.279   2.244  0.3246  0.7864  0.4142
 3443SOL     OW21790   1.072   2.375   2.616 -0.3550  0.4132  0.7297
 3443SOL    HW121791   1.073   2.398   2.709 -0.3886  1.3417  0.5000
 3443SOL    HW221792   1.042   2.461   2.585  1.0538  0.6858  0.1173
 3444SOL     OW21793   4.513   1.059   5.952  0.1186 -0.2425 -0.0078
 3444SOL    HW121794   4.480   1.130   6.007 -0.4946 -0.9797  0.5770
 3444SOL    HW221795   4.573   1.110   5.897  0.9130  0.2710  1.3320
 3445SOL     OW21796   0.977   3.926   2.354  0.0881 -0.0073 -0.0372
 3445SOL    HW121797   1.037   3.955   2.285 -1.4089  0.5515 -1.0912
 3445SOL    HW221798   1.015   3.838   2.363 -2.5998 -1.0744  0.7129
 3446SOL     OW21799   0.940   0.065  11.985 -0.5047  0.0171 -0.2120
 3446SOL    HW121800   0.988   0.032  11.910  1.5300 -0.3484  1.2663
 3446SOL    HW221801   0.878   0.123  11.939  0.2130  1.0391  0.1135
 3447SOL     OW21802   3.957   4.014   3.108 -0.0981 -0.2080  0.2632
 3447SOL    HW121803   4.027   3.975   3.160  0.1265 -0.0171  0.1057
 3447SOL    HW221804   3.989   3.974   3.027 -1.1347 -0.3852 -0.0589
 3448SOL     OW21805   1.725   2.316  15.312  0.0800 -0.1655 -0.4992
 3448SOL    HW121806   1.642   2.357  15.338  0.2702 -0.6509  0.9203
 3448SOL    HW221807   1.712   2.237  15.366  0.2095  0.1623  0.0144
 3449SOL     OW21808   4.487   1.803   4.537 -0.3317  0.3007  0.1682
 3449SOL    HW121809   4.580   1.801   4.518 -0.4062 -0.9857 -0.0825
 3449SOL    HW221810   4.473   1.897   4.545  2.3047  0.5406  1.8803
 3450SOL     OW21811   0.994   4.344   4.003  0.3737 -0.5779  0.1975
 3450SOL    HW121812   0.976   4.257   4.039  1.9102 -0.4470  1.2725
 3450SOL    HW221813   0.915   4.366   3.953 -0.6058 -0.5025  1.7805
 3451SOL     OW21814   0.494   1.091   8.463  0.4600  0.4377  0.4504
 3451SOL    HW121815   0.562   1.027   8.481 -1.0116 -1.1054  0.4793
 3451SOL    HW221816   0.491   1.097   8.368 -2.0002 -2.4052  0.3670
 3452SOL     OW21817   1.074   3.460   7.688 -0.5176 -0.8299 -0.0459
 3452SOL    HW121818   0.996   3.452   7.633 -0.1968  0.1130 -0.6179
 3452SOL    HW221819   1.031   3.426   7.767 -1.5085  1.6524  0.4740
 3453SOL     OW21820   0.849   0.004  12.928 -0.9840 -0.3164 -0.7732
 3453SOL    HW121821   0.829   0.054  12.850  1.8108  0.3266 -1.0816
 3453SOL    HW221822   0.773   4.676  12.948 -0.7051 -0.0753  1.0010
 3454SOL     OW21823   1.951   2.764   8.329 -0.8200 -0.3147 -0.3378
 3454SOL    HW121824   1.976   2.814   8.407  0.2647 -0.3859 -0.6409
 3454SOL    HW221825   2.037   2.747   8.290 -0.6228  1.6299 -0.7275
 3455SOL     OW21826   4.654   3.840   5.670 -0.5842 -0.2934 -0.3817
 3455SOL    HW121827   0.010   3.885   5.653 -0.1938 -0.7205  0.3634
 3455SOL    HW221828   4.597   3.908   5.708 -0.0084 -0.9612  1.6935
 3456SOL     OW21829   3.595   4.276   6.116 -0.5659 -0.0094 -0.4141
 3456SOL    HW121830   3.665   4.334   6.146 -1.2747  1.1961 -1.1037
 3456SOL    HW221831   3.607   4.296   6.023 -0.8356 -0.7001 -0.5967
 3457SOL     OW21832   2.533   1.824   3.795 -0.0907 -0.0945 -0.2458
 3457SOL    HW121833   2.491   1.738   3.797 -1.2281  0.4426 -1.0075
 3457SOL    HW221834   2.542   1.850   3.887  0.4804 -0.8739 -0.0842
 3458SOL     OW21835   1.921   4.611  13.666 -0.0304 -0.2589 -0.5069
 3458SOL    HW121836   1.967   4.547  13.721  0.0268  0.7875  0.6446
 3458SOL    HW221837   1.878   4.665  13.732 -0.4995  1.3427 -2.1431
 3459SOL     OW21838   3.266   3.035   6.496 -0.4371  0.4085  0.0163
 3459SOL    HW121839   3.334   2.994   6.550 -1.2714 -1.2635 -0.2052
 3459SOL    HW221840   3.281   3.006   6.406  0.4282  0.7161  0.0560
 3460SOL     OW21841   1.565   4.498  11.193 -0.0481 -0.0209  0.3350
 3460SOL    HW121842   1.539   4.490  11.285 -0.5977 -0.2926  0.1578
 3460SOL    HW221843   1.580   4.592  11.185  0.1840 -0.1146 -0.3639
 3461SOL     OW21844   0.352   4.123   3.010 -0.9605  0.0365  0.1003
 3461SOL    HW121845   0.436   4.092   2.975  0.6846  1.8455  2.4209
 3461SOL    HW221846   0.318   4.035   3.022  0.4859 -0.7866 -1.7648
 3462SOL     OW21847   0.195   0.469   1.512  0.3632  0.1036 -0.0150
 3462SOL    HW121848   0.167   0.560   1.519 -2.8655 -0.8535 -0.6207
 3462SOL    HW221849   0.112   0.422   1.510  0.1898  0.5023 -1.7988
 3463SOL     OW21850   1.662   4.265   8.923 -0.0939  0.2043 -0.1148
 3463SOL    HW121851   1.679   4.171   8.932  0.3034  0.5735  3.0120
 3463SOL    HW221852   1.747   4.287   8.886 -0.1992  0.1667 -0.3744
 3464SOL     OW21853   3.273   1.292   0.568  0.4885  0.3702 -0.4104
 3464SOL    HW121854   3.217   1.265   0.496  0.2220  2.5423 -1.0064
 3464SOL    HW221855   3.350   1.235   0.563 -0.0916 -0.2852 -1.8348
 3465SOL     OW21856   0.776   2.032   5.467  0.0054  0.0318 -0.4521
 3465SOL    HW121857   0.857   1.985   5.448 -0.0858  0.3589 -1.7048
 3465SOL    HW221858   0.784   2.115   5.420  1.5643 -1.4396 -2.8306
 3466SOL     OW21859   3.371   4.202   2.632 -0.7494  0.0374  0.1567
 3466SOL    HW121860   3.380   4.153   2.550  1.0001 -0.1811  0.4821
 3466SOL    HW221861   3.361   4.122   2.685  0.1914 -0.0149  0.2539
 3467SOL     OW21862   3.759   1.952   8.856 -0.0886 -0.4002 -0.3445
 3467SOL    HW121863   3.670   1.950   8.893 -0.5492  1.2772 -1.3963
 3467SOL    HW221864   3.804   1.912   8.930  3.6110  1.0771 -1.8279
 3468SOL     OW21865   0.309   4.374   7.382 -0.8180 -0.0266 -0.0396
 3468SOL    HW121866   0.289   4.283   7.403  0.9780 -0.2741  0.6186
 3468SOL    HW221867   0.222   4.411   7.397 -0.9998 -0.1217 -0.8486
 3469SOL     OW21868   0.813   0.208   3.763 -0.0746  0.6830  0.0869
 3469SOL    HW121869   0.833   0.281   3.821 -1.4074  0.8879  0.2793
 3469SOL    HW221870   0.718   0.203   3.757  0.1181 -1.3789 -1.4274
 3470SOL     OW21871   1.795   2.957   2.963 -0.7740 -0.0370  0.0072
 3470SOL    HW121872   1.836   3.018   2.902  0.6668 -0.2450  0.7826
 3470SOL    HW221873   1.858   2.885   2.964 -0.2858  0.4266  2.0385
 3471SOL     OW21874   1.936   2.061   3.683 -0.0432 -0.5084 -0.1532
 3471SOL    HW121875   1.881   2.006   3.738  0.0721 -1.6005 -1.1107
 3471SOL    HW221876   1.923   2.017   3.599 -1.2260 -1.0121  0.3060
 3472SOL     OW21877   2.093   2.447   8.517 -0.2697 -0.2684  0.4118
 3472SOL    HW121878   2.074   2.479   8.606  2.3042  2.0861  0.1481
 3472SOL    HW221879   2.025   2.488   8.464  1.1045  0.8103 -0.5219
 3473SOL     OW21880   1.892   3.702   0.177 -0.2768 -0.1023  0.1436
 3473SOL    HW121881   1.969   3.758   0.164 -0.7713  0.8810  1.5047
 3473SOL    HW221882   1.893   3.666   0.088 -0.7983  0.6322 -0.1654
 3474SOL     OW21883   3.603   1.620   8.973  0.0914  0.3045  0.5841
 3474SOL    HW121884   3.523   1.591   9.017 -1.1087  0.4087 -1.5633
 3474SOL    HW221885   3.599   1.713   8.999  0.5753  0.0925  1.4144
 3475SOL     OW21886   1.348   0.490  11.410 -0.3326 -0.0788  0.4054
 3475SOL    HW121887   1.320   0.531  11.328  0.1460 -2.5564 -1.0257
 3475SOL    HW221888   1.297   0.408  11.403  0.5309 -0.6105  0.3429
 3476SOL     OW21889   2.470   0.850  10.464 -0.1891 -0.5730  0.3572
 3476SOL    HW121890   2.485   0.762  10.431  1.6621  0.4906 -1.6280
 3476SOL    HW221891   2.488   0.837  10.558  1.9972  2.0641  0.3068
 3477SOL     OW21892   3.728   0.255   4.180  0.2953  0.2045 -0.0143
 3477SOL    HW121893   3.782   0.297   4.247  1.3216 -1.4578  0.1907
 3477SOL    HW221894   3.702   0.334   4.132  0.4635 -0.7185 -1.6253
 3478SOL     OW21895   2.199   4.012   7.170 -0.1639 -0.0941  0.6114
 3478SOL    HW121896   2.145   4.091   7.163 -2.4812 -1.8265 -1.4895
 3478SOL    HW221897   2.260   4.035   7.239 -0.7850  0.8908  0.8201
 3479SOL     OW21898   0.716   3.113  10.576 -0.2399  0.7278  0.2916
 3479SOL    HW121899   0.636   3.075  10.612 -0.0923 -1.6017 -1.8500
 3479SOL    HW221900   0.760   3.029  10.563 -1.6691  0.4376 -2.6138
 3480SOL     OW21901   2.229   2.423  14.015 -0.4115 -0.2809 -0.1560
 3480SOL    HW121902   2.266   2.480  14.083 -3.6775 -0.4868  1.8039
 3480SOL    HW221903   2.307   2.411  13.960 -0.8505  0.1160 -0.8537
 3481SOL     OW21904   0.619   1.402  11.140 -0.6193 -0.4424 -0.3223
 3481SOL    HW121905   0.637   1.354  11.059  0.6324 -1.0871  0.3343
 3481SOL    HW221906   0.706   1.409  11.179 -0.7735 -0.1310 -0.0258
 3482SOL     OW21907   3.287   0.587   3.387 -0.3577 -0.3150  0.2711
 3482SOL    HW121908   3.225   0.617   3.320 -2.0135 -2.2082  0.9229
 3482SOL    HW221909   3.338   0.665   3.404 -2.9869  1.0035  2.1470
 3483SOL     OW21910   4.553   3.770   6.843 -0.4294  0.4887  0.5163
 3483SOL    HW121911   4.470   3.773   6.890 -0.5959 -1.3439  0.3428
 3483SOL    HW221912   4.545   3.683   6.804  4.2125 -0.0631  0.7647
 3484SOL     OW21913   0.109   1.872   9.343 -0.1401  0.0522 -0.3733
 3484SOL    HW121914   0.179   1.833   9.291  0.3595  0.4564 -0.0022
 3484SOL    HW221915   0.142   1.959   9.366 -0.1791 -0.1315  0.3787
 3485SOL     OW21916   0.765   4.081   8.377 -0.3538 -0.2755 -0.2513
 3485SOL    HW121917   0.791   4.172   8.366 -0.9274 -0.0390  0.3391
 3485SOL    HW221918   0.680   4.075   8.333 -0.6861  0.6969  0.2636
 3486SOL     OW21919   0.247   1.111   8.993 -0.6273 -0.5211  0.9293
 3486SOL    HW121920   0.332   1.143   8.962 -1.7181 -1.3292 -2.8535
 3486SOL    HW221921   0.268   1.018   9.001 -0.5429 -0.5930 -0.2078
 3487SOL     OW21922   4.562   1.853   5.575  0.5903  0.1949  0.5286
 3487SOL    HW121923   4.623   1.784   5.548 -2.6766 -2.4965  0.1271
 3487SOL    HW221924   4.624   1.914   5.616 -0.7196  0.7752  1.6366
 3488SOL     OW21925   3.794   1.142   3.759 -0.4532 -0.3391 -0.1551
 3488SOL    HW121926   3.888   1.128   3.763 -0.4688 -0.5446 -0.5756
 3488SOL    HW221927   3.775   1.162   3.851 -2.1312  0.4435 -0.6667
 3489SOL     OW21928   3.008   1.641  12.335  0.2907  0.0245 -0.3905
 3489SOL    HW121929   2.998   1.660  12.242  0.4020 -0.6157 -0.5394
 3489SOL    HW221930   2.991   1.726  12.375  1.2858  0.7520 -1.5275
 3490SOL     OW21931   1.735   2.980  12.829  0.2208  0.2819  0.0508
 3490SOL    HW121932   1.801   2.964  12.897  0.0479 -0.6241  0.0022
 3490SOL    HW221933   1.652   3.013  12.863  0.5279  0.5882  0.5062
 3491SOL     OW21934   2.766   3.533   3.365  0.7857  0.2947  0.2296
 3491SOL    HW121935   2.704   3.481   3.314  2.2658 -2.8694  1.6015
 3491SOL    HW221936   2.738   3.510   3.454  0.8627  1.5692  0.5790
 3492SOL     OW21937   1.026   1.080   2.568 -0.6658 -0.5829  0.2252
 3492SOL    HW121938   1.003   1.027   2.492 -0.4051 -2.0203  1.1404
 3492SOL    HW221939   1.039   1.004   2.626  0.4915 -1.5617 -1.3132
 3493SOL     OW21940   0.048   3.198   0.858  0.0781 -0.4885 -0.4677
 3493SOL    HW121941   0.013   3.118   0.896  0.2652 -0.2174  0.2690
 3493SOL    HW221942   4.706   3.249   0.900  0.9334  0.1811  0.1077
 3494SOL     OW21943   1.438   3.550   0.400 -0.2146 -0.2235  0.0915
 3494SOL    HW121944   1.462   3.471   0.351 -0.8601 -1.7608  2.2400
 3494SOL    HW221945   1.434   3.507   0.485  0.4937 -1.2441 -0.3816
 3495SOL     OW21946   0.986   1.462   8.465  0.4060  0.3947 -0.1935
 3495SOL    HW121947   1.038   1.410   8.404 -1.0312  0.5749 -1.5579
 3495SOL    HW221948   1.056   1.508   8.511  0.3898 -0.3968  0.6259
 3496SOL     OW21949   1.814   0.498  12.024  0.0693 -0.1793  0.0834
 3496SOL    HW121950   1.798   0.569  11.962 -0.1943  0.8841  1.3879
 3496SOL    HW221951   1.851   0.540  12.101 -1.4807 -0.5906  1.0387
 3497SOL     OW21952   4.082   1.852   6.196 -0.2568  0.1266 -0.4642
 3497SOL    HW121953   4.055   1.791   6.127  0.6815 -0.4385 -0.3404
 3497SOL    HW221954   4.146   1.904   6.146  1.5597 -0.9296  0.7617
 3498SOL     OW21955   4.065   3.011   6.800 -0.1699 -0.0681 -0.2072
 3498SOL    HW121956   4.121   2.948   6.755  0.7955  0.7008 -0.0855
 3498SOL    HW221957   4.115   3.039   6.877  0.0465 -0.1820 -0.3081
 3499SOL     OW21958   2.541   0.216  17.615  0.0621  0.1692 -0.7187
 3499SOL    HW121959   2.499   0.191  17.533 -1.8116  2.5431 -0.4956
 3499SOL    HW221960   2.534   0.311  17.626  0.1779  0.2145 -1.0542
 3500SOL     OW21961   1.412   2.456   2.428 -0.3659  0.1427 -0.5397
 3500SOL    HW121962   1.340   2.395   2.442 -0.4259  0.5009  0.7712
 3500SOL    HW221963   1.459   2.410   2.359  1.8784 -1.2209  1.8776
 3501SOL     OW21964   3.578   0.136   6.175  0.9030 -0.0591  0.0264
 3501SOL    HW121965   3.644   0.095   6.118 -0.4671 -1.2797 -0.6686
 3501SOL    HW221966   3.503   0.138   6.116  1.2476  0.8097 -0.3789
 3502SOL     OW21967   0.514   2.818  12.302 -0.1836 -0.1380 -1.0286
 3502SOL    HW121968   0.556   2.779  12.226  0.7689  1.6691 -1.4130
 3502SOL    HW221969   0.523   2.740  12.357 -1.6130 -0.7172 -1.5987
 3503SOL     OW21970   2.165   1.198   5.344 -0.0347 -0.1044  0.6473
 3503SOL    HW121971   2.257   1.180   5.364 -0.0849  0.3985  1.3536
 3503SOL    HW221972   2.129   1.156   5.422 -0.1075 -0.9581  0.1431
 3504SOL     OW21973   1.857   2.750   0.419 -0.1971  0.3123 -0.5839
 3504SOL    HW121974   1.861   2.780   0.329 -0.5876  3.0668  0.3220
 3504SOL    HW221975   1.833   2.826   0.472  0.4911  0.0593  0.0898
 3505SOL     OW21976   1.206   1.961   4.764  0.2031 -0.1230 -0.4569
 3505SOL    HW121977   1.225   1.972   4.857 -0.2931 -2.2603 -0.1222
 3505SOL    HW221978   1.118   1.926   4.773 -0.1143  0.9320  0.5713
 3506SOL     OW21979   4.132   4.580  13.095  0.3184 -0.9808 -0.6049
 3506SOL    HW121980   4.038   4.587  13.110  0.8306  0.9440  1.6552
 3506SOL    HW221981   4.160   4.671  13.103  2.2484 -1.7977  1.8534
 3507SOL     OW21982   1.793   1.792   1.367  0.2098 -0.0417  0.1451
 3507SOL    HW121983   1.750   1.719   1.321  0.4888  0.5149 -0.9927
 3507SOL    HW221984   1.777   1.765   1.457  0.0896  0.7894  0.3712
 3508SOL     OW21985   0.481   0.598   6.469  0.3265 -0.5129  0.1015
 3508SOL    HW121986   0.474   0.515   6.516 -1.3476  1.1299  2.7499
 3508SOL    HW221987   0.573   0.609   6.443 -0.3007  0.0010 -1.9099
 3509SOL     OW21988   3.721   3.145   3.213 -0.3078  0.2197 -0.0177
 3509SOL    HW121989   3.679   3.075   3.263 -1.5722 -0.1278 -1.5613
 3509SOL    HW221990   3.652   3.168   3.151  0.2445  0.5863 -0.4971
 3510SOL     OW21991   2.028   3.495   2.863 -0.4600  0.2627 -0.6407
 3510SOL    HW121992   1.975   3.572   2.883 -1.6045 -0.6418 -0.1974
 3510SOL    HW221993   2.119   3.527   2.866 -0.8450  1.1294  2.2147
 3511SOL     OW21994   0.609   3.466   0.635  0.2202  0.2940  0.6374
 3511SOL    HW121995   0.580   3.525   0.706 -1.1398 -2.3072  2.2297
 3511SOL    HW221996   0.677   3.413   0.676  1.3663  2.9201  2.1291
 3512SOL     OW21997   3.639   3.193   4.929  0.1953 -0.7428  0.3216
 3512SOL    HW121998   3.629   3.162   4.839 -0.3541 -0.4319  0.2755
 3512SOL    HW221999   3.667   3.109   4.966  2.8783  1.2035  2.5984
 3513SOL     OW22000   2.068   3.572   5.268  0.2536  0.0613 -0.8529
 3513SOL    HW122001   2.120   3.619   5.333  0.7996 -1.5433 -0.1478
 3513SOL    HW222002   2.015   3.641   5.228 -1.8763 -1.0454  0.0546
 3514SOL     OW22003   4.516   2.585   1.136 -1.0223  0.3216 -0.2653
 3514SOL    HW122004   4.450   2.537   1.187 -1.0628 -0.8921 -1.4830
 3514SOL    HW222005   4.458   2.601   1.062  0.4991  0.0806 -1.4878
 3515SOL     OW22006   1.883   1.601  11.566 -0.4776  0.5470 -0.5097
 3515SOL    HW122007   1.789   1.592  11.581 -0.1871  1.4911  1.7688
 3515SOL    HW222008   1.908   1.606  11.658 -0.7164 -0.3773 -0.3981
 3516SOL     OW22009   3.209   0.378   3.588 -0.3702 -0.9536  0.1294
 3516SOL    HW122010   3.118   0.398   3.611 -0.2374  1.7680 -1.6635
 3516SOL    HW222011   3.224   0.451   3.529 -1.4097  0.8922  2.1375
 3517SOL     OW22012   1.797   1.090   3.350 -0.2462  0.6794 -0.8237
 3517SOL    HW122013   1.748   1.061   3.427  0.0054  0.8155 -0.6126
 3517SOL    HW222014   1.785   1.185   3.351  0.7993  0.7758  1.0862
 3518SOL     OW22015   3.740   1.809   3.424  0.1765 -0.2628  0.3444
 3518SOL    HW122016   3.744   1.903   3.443 -0.6505 -0.3751  1.1061
 3518SOL    HW222017   3.653   1.800   3.463 -0.0757  0.7499  0.0084
 3519SOL     OW22018   4.623   3.773   8.631  0.3348  0.2371  0.8053
 3519SOL    HW122019   4.587   3.746   8.546  1.7067  0.4552  0.1599
 3519SOL    HW222020   4.665   3.688   8.643  1.1679  1.1147  4.0678
 3520SOL     OW22021   2.443   1.877   8.440  0.4701 -0.1725  0.0928
 3520SOL    HW122022   2.400   1.883   8.355  2.1662 -0.2871 -0.7685
 3520SOL    HW222023   2.484   1.792   8.423 -0.5399 -0.6546  0.0695
 3521SOL     OW22024   4.714   0.024  16.866  0.4173 -0.2212 -0.5937
 3521SOL    HW122025   0.032   4.671  16.839  0.0665  0.0253 -1.9178
 3521SOL    HW222026   0.053   0.095  16.863  1.1912 -0.9641 -1.1281
 3522SOL     OW22027   0.678   2.049   4.957 -0.2222 -0.0435 -0.1963
 3522SOL    HW122028   0.601   1.998   4.983  0.6474 -1.9445 -1.4128
 3522SOL    HW222029   0.744   2.006   5.010 -1.0085  0.4027  1.1614
 3523SOL     OW22030   2.227   0.324  16.748  0.2000  0.0298 -0.3245
 3523SOL    HW122031   2.300   0.365  16.794  0.3708 -3.6095  2.7036
 3523SOL    HW222032   2.202   0.390  16.684 -3.9961 -2.2018 -1.0106
 3524SOL     OW22033   1.414   1.754   5.569  0.3399  0.0858 -0.1542
 3524SOL    HW122034   1.455   1.746   5.483 -1.6581 -1.2768 -0.9899
 3524SOL    HW222035   1.363   1.831   5.543 -1.9421 -1.9394 -1.7143
 3525SOL     OW22036   1.835   1.157   6.839  0.0620 -0.3431  0.1156
 3525SOL    HW122037   1.815   1.239   6.794  0.6184  0.4500  1.2878
 3525SOL    HW222038   1.835   1.093   6.768  1.3164 -1.1909  0.8820
 3526SOL     OW22039   4.612   0.716   6.921 -0.3437  0.0375 -0.1874
 3526SOL    HW122040   4.613   0.725   6.826  0.6462  0.0907 -0.1723
 3526SOL    HW222041   4.678   0.648   6.932  1.3621  2.0403  1.7248
 3527SOL     OW22042   1.793   1.742  14.607 -0.2864 -0.0185  0.2693
 3527SOL    HW122043   1.841   1.821  14.583 -1.0307 -0.1321 -1.5377
 3527SOL    HW222044   1.702   1.771  14.603 -0.4664 -0.5734  0.3499
 3528SOL     OW22045   4.120   1.063   9.030 -0.1529  0.0456 -0.1565
 3528SOL    HW122046   4.077   1.127   8.973  2.0718  0.2084 -1.6630
 3528SOL    HW222047   4.048   1.025   9.080 -0.7830  2.4648  0.8078
 3529SOL     OW22048   0.611   3.709   2.044  0.1012 -0.0709  0.2803
 3529SOL    HW122049   0.533   3.660   2.072 -0.2852 -0.7508 -1.9723
 3529SOL    HW222050   0.615   3.674   1.955 -0.3104  1.0828 -0.1859
 3530SOL     OW22051   0.431   4.040  13.221 -0.5367 -0.5120  0.2445
 3530SOL    HW122052   0.462   4.031  13.311 -0.5318 -1.6804  0.1224
 3530SOL    HW222053   0.457   3.958  13.179  0.4438 -0.4159  0.6677
 3531SOL     OW22054   1.999   0.689   5.104  0.0972 -0.1252  0.2438
 3531SOL    HW122055   2.091   0.711   5.088 -0.1589  0.8718  0.1482
 3531SOL    HW222056   1.958   0.734   5.030  1.0484 -0.5040 -0.5181
 3532SOL     OW22057   1.452   1.557   4.387  0.2371  0.3642  0.4043
 3532SOL    HW122058   1.430   1.594   4.302  1.2012  2.1308  0.9349
 3532SOL    HW222059   1.442   1.633   4.443  0.7632  0.5116  0.2946
 3533SOL     OW22060   0.665   3.463   0.372 -0.4620 -0.4796  0.4457
 3533SOL    HW122061   0.651   3.484   0.465  0.3082 -0.7075  0.6184
 3533SOL    HW222062   0.750   3.419   0.373 -0.1496  0.0844 -1.1941
 3534SOL     OW22063   3.061   0.536   1.883 -0.0530  0.2462 -0.3224
 3534SOL    HW122064   3.085   0.447   1.909 -2.1591 -0.4482 -0.7299
 3534SOL    HW222065   2.972   0.514   1.856  0.1137  0.1936 -0.8406
 3535SOL     OW22066   0.376   4.494   8.693  0.0788  0.0803 -0.1601
 3535SOL    HW122067   0.467   4.497   8.665  0.1902  0.8895  0.2844
 3535SOL    HW222068   0.334   4.457   8.616  0.6016  1.3719 -1.0644
 3536SOL     OW22069   2.793   1.919  17.182  0.1212 -0.3251  0.1291
 3536SOL    HW122070   2.813   1.869  17.102 -0.7822  0.9112 -0.8644
 3536SOL    HW222071   2.712   1.882  17.216  0.1811  0.7099  1.3542
 3537SOL     OW22072   2.501   0.982   5.058  0.4282 -0.2375 -0.5003
 3537SOL    HW122073   2.471   1.060   5.105  1.3562 -0.6173  0.7256
 3537SOL    HW222074   2.455   0.918   5.112  1.1996 -1.1341 -0.9069
 3538SOL     OW22075   4.348   0.880   8.130 -0.0995  0.4000 -0.4175
 3538SOL    HW122076   4.290   0.953   8.153  0.0737  0.5696 -0.5169
 3538SOL    HW222077   4.293   0.802   8.126 -1.3557  1.2901 -0.2152
 3539SOL     OW22078   3.186   3.960  14.572 -0.0892 -0.0924 -0.9281
 3539SOL    HW122079   3.096   3.933  14.591  0.5924 -0.7237  1.4208
 3539SOL    HW222080   3.161   4.025  14.507 -0.5278  0.7401  0.0731
 3540SOL     OW22081   4.380   1.944   2.914 -0.1154 -0.3066  0.0560
 3540SOL    HW122082   4.296   1.979   2.940 -0.8442  0.0106 -2.7535
 3540SOL    HW222083   4.419   1.932   3.001 -0.4156  3.5304  0.7090
 3541SOL     OW22084   1.368   1.782  17.305 -0.2772  0.1124  0.3227
 3541SOL    HW122085   1.326   1.859  17.268  0.9601  0.4243 -0.4267
 3541SOL    HW222086   1.393   1.724  17.233 -0.0126 -2.0651  2.1715
 3542SOL     OW22087   4.435   4.554   7.801  0.2291 -0.1218 -0.2612
 3542SOL    HW122088   4.389   4.623   7.752 -0.9973 -0.4201  0.4840
 3542SOL    HW222089   4.366   4.505   7.846 -0.7871 -0.0345 -1.7137
 3543SOL     OW22090   3.758   0.766  13.543 -0.6891  0.0446  0.1980
 3543SOL    HW122091   3.813   0.843  13.554  2.5381 -2.2176 -0.0245
 3543SOL    HW222092   3.709   0.767  13.625  1.5431  1.2624  1.5109
 3544SOL     OW22093   0.884   0.643   7.928 -0.2632 -0.1927 -0.3170
 3544SOL    HW122094   0.923   0.724   7.895 -1.2418  0.6429  0.5893
 3544SOL    HW222095   0.943   0.629   8.003  1.1553  0.0783 -1.3748
 3545SOL     OW22096   1.186   0.661   7.122  0.7269  0.0522  0.1467
 3545SOL    HW122097   1.100   0.637   7.157 -1.2185  2.2867 -3.0800
 3545SOL    HW222098   1.232   0.582   7.150 -1.1982 -1.1453 -0.0837
 3546SOL     OW22099   2.684   1.973  13.227 -0.6544 -0.0176 -0.2068
 3546SOL    HW122100   2.629   1.935  13.295 -0.9071  2.2902  0.8573
 3546SOL    HW222101   2.680   2.066  13.246 -1.5312 -0.7400  3.1066
 3547SOL     OW22102   1.147   4.040   2.163  0.0071  0.5698 -0.4472
 3547SOL    HW122103   1.115   4.118   2.120  0.2425  0.8441 -0.1255
 3547SOL    HW222104   1.232   4.037   2.120  0.1299 -0.9342 -0.1165
 3548SOL     OW22105   1.448   3.825   3.193  0.2509 -0.1845  0.0422
 3548SOL    HW122106   1.511   3.812   3.263  1.9421  1.4980 -1.1821
 3548SOL    HW222107   1.494   3.900   3.155  0.1529 -0.9917 -1.6920
 3549SOL     OW22108   2.476   0.859   5.958  0.4091  0.1257  0.3833
 3549SOL    HW122109   2.470   0.941   6.007  1.9379 -0.6479  1.8631
 3549SOL    HW222110   2.563   0.875   5.920  0.7932  0.0927  1.2476
 3550SOL     OW22111   3.750   2.981   3.436  0.7238  0.4290  0.0451
 3550SOL    HW122112   3.738   2.892   3.402 -2.4887  0.9049 -0.1291
 3550SOL    HW222113   3.842   3.000   3.417  0.0289  1.6785 -2.1238
 3551SOL     OW22114   3.174   0.197   6.310 -0.4228  0.5202  0.0451
 3551SOL    HW122115   3.131   0.159   6.387  0.1572  1.8566  1.0275
 3551SOL    HW222116   3.196   0.110   6.278  1.1274  0.8279  0.2410
 3552SOL     OW22117   2.921   2.407   6.950 -0.3996 -0.5501  0.3355
 3552SOL    HW122118   2.946   2.493   6.985  1.6088 -0.6556 -0.8727
 3552SOL    HW222119   2.913   2.437   6.860  0.5205 -0.5045  0.2665
 3553SOL     OW22120   2.413   0.845   3.408 -0.1642 -0.2874 -0.3281
 3553SOL    HW122121   2.435   0.752   3.401 -0.8167 -0.4580 -0.0535
 3553SOL    HW222122   2.396   0.875   3.319  1.1694 -2.2528 -1.2497
 3554SOL     OW22123   3.130   1.108  13.934 -0.4265 -0.4340  0.8677
 3554SOL    HW122124   3.065   1.175  13.913 -0.2661 -0.7308 -0.5867
 3554SOL    HW222125   3.217   1.147  13.933 -0.9007  0.6580  1.8243
 3555SOL     OW22126   0.045   3.908   8.815  0.0698  0.2410 -0.3601
 3555SOL    HW122127   4.725   3.874   8.739  0.2692  0.5391 -0.6185
 3555SOL    HW222128   4.710   3.870   8.877 -0.2253 -0.2331 -0.9498
 3556SOL     OW22129   2.818   3.255  10.637  0.6005 -0.5163  0.3794
 3556SOL    HW122130   2.872   3.304  10.698  1.1733  0.6729 -1.0949
 3556SOL    HW222131   2.882   3.202  10.589  1.0404 -1.3838  1.9328
 3557SOL     OW22132   2.448   0.756  12.356 -0.1509  0.1676 -0.5321
 3557SOL    HW122133   2.391   0.777  12.283  0.8821 -1.0889 -1.6972
 3557SOL    HW222134   2.489   0.842  12.368 -1.2738  0.5077  0.9103
 3558SOL     OW22135   0.516   3.956   9.988 -0.1430  0.1378 -0.0114
 3558SOL    HW122136   0.528   3.924  10.078  1.2843  0.1407 -0.1901
 3558SOL    HW222137   0.432   3.923   9.959 -0.9025  1.7951  0.2938
 3559SOL     OW22138   2.594   0.943   1.998 -0.0402 -0.0692  0.6865
 3559SOL    HW122139   2.534   1.017   2.006  0.4876  0.3323  0.8933
 3559SOL    HW222140   2.625   0.942   2.089 -0.2483  1.4222  0.7669
 3560SOL     OW22141   0.919   0.812   3.957  0.0291 -0.1050 -0.1376
 3560SOL    HW122142   0.825   0.830   3.958  0.5641  2.7314  1.2997
 3560SOL    HW222143   0.941   0.799   4.050 -0.8311 -3.0782 -0.3666
 3561SOL     OW22144   2.445   0.435   4.441 -0.4334 -0.5560  0.2212
 3561SOL    HW122145   2.383   0.504   4.461 -0.7745 -0.9611  0.5553
 3561SOL    HW222146   2.496   0.422   4.521  1.2158  0.2156 -0.7042
 3562SOL     OW22147   2.218   1.771   0.800  0.3451  0.2385 -0.0228
 3562SOL    HW122148   2.192   1.683   0.827  3.4675 -1.3673 -2.3371
 3562SOL    HW222149   2.134   1.817   0.796 -0.0097 -0.2589  1.4169
 3563SOL     OW22150   1.733   3.102   8.044 -0.0716  0.4000 -0.1182
 3563SOL    HW122151   1.646   3.068   8.026  0.3883 -0.7821 -0.1369
 3563SOL    HW222152   1.768   3.039   7.980 -0.8751  1.7334 -1.8601
 3564SOL     OW22153   4.511   3.966   4.392  0.8058  0.6662  0.1135
 3564SOL    HW122154   4.511   4.033   4.324  1.6489  0.4638 -0.0846
 3564SOL    HW222155   4.580   3.905   4.364 -0.5976 -0.0647 -1.7220
 3565SOL     OW22156   2.726   1.456   2.456  0.4274  0.2268 -0.5872
 3565SOL    HW122157   2.742   1.407   2.375  0.5452 -0.2550 -0.2670
 3565SOL    HW222158   2.770   1.403   2.522  0.2953  0.6881 -0.1286
 3566SOL     OW22159   0.720   1.275  15.294 -0.1901 -0.1290 -0.3718
 3566SOL    HW122160   0.711   1.368  15.272 -0.8155 -0.2724 -0.7355
 3566SOL    HW222161   0.795   1.248  15.241 -0.0257 -3.3268  1.5230
 3567SOL     OW22162   1.874   3.155  12.669  0.0815  0.1085  0.3695
 3567SOL    HW122163   1.834   3.169  12.583  0.4978 -1.2585 -0.0390
 3567SOL    HW222164   1.809   3.098  12.711  0.2362  0.8698  1.6421
 3568SOL     OW22165   0.753   0.259   2.555 -0.0175 -0.0875  1.0418
 3568SOL    HW122166   0.808   0.278   2.631  2.2026  1.4627 -0.9181
 3568SOL    HW222167   0.687   0.327   2.564 -0.9891 -0.7616 -0.9942
 3569SOL     OW22168   3.366   2.988   7.828 -0.6585 -1.0226  0.2085
 3569SOL    HW122169   3.422   2.995   7.905 -2.4371  2.3686  1.1873
 3569SOL    HW222170   3.284   2.986   7.879 -0.2926 -4.3493  0.6970
 3570SOL     OW22171   3.045   0.379   6.168 -0.3085 -0.3602  0.0045
 3570SOL    HW122172   3.091   0.326   6.233  0.5419  1.3752  0.8009
 3570SOL    HW222173   3.101   0.455   6.153 -0.5158 -0.5418 -1.6648
 3571SOL     OW22174   1.101   3.162  13.869 -0.3980  0.4545 -0.5065
 3571SOL    HW122175   1.009   3.158  13.842 -0.4930  0.2831 -0.1565
 3571SOL    HW222176   1.111   3.076  13.909  0.6768  1.1346  0.6829
 3572SOL     OW22177   2.130   2.662   1.164 -0.1854 -0.1404  0.2338
 3572SOL    HW122178   2.054   2.644   1.108  0.0984 -0.5932 -0.0024
 3572SOL    HW222179   2.192   2.693   1.098  1.3454  0.4344  1.9760
 3573SOL     OW22180   4.429   3.764   7.985  0.4086  0.4134  0.0277
 3573SOL    HW122181   4.397   3.854   7.985 -1.6746 -0.3202 -0.2645
 3573SOL    HW222182   4.486   3.767   8.061  2.4693 -2.0209 -1.4266
 3574SOL     OW22183   0.376   2.462   9.086 -0.2610  0.3084  0.5454
 3574SOL    HW122184   0.407   2.552   9.081  0.0700  0.0586 -1.9578
 3574SOL    HW222185   0.457   2.411   9.086 -0.0046  0.7178  1.2378
 3575SOL     OW22186   0.700   2.914  13.677  0.6572 -0.5107 -0.7892
 3575SOL    HW122187   0.774   2.886  13.731  1.5570  1.1833 -1.1431
 3575SOL    HW222188   0.741   2.970  13.612  0.7721  0.2099 -0.1051
 3576SOL     OW22189   0.868   3.375   7.512  0.0561 -0.3788  0.0344
 3576SOL    HW122190   0.787   3.423   7.498 -0.3946 -0.7471  1.3573
 3576SOL    HW222191   0.848   3.294   7.466 -0.5826 -0.4181  0.3829
 3577SOL     OW22192   3.002   3.708   5.027  0.4294 -0.7750  0.0751
 3577SOL    HW122193   2.947   3.756   4.964 -3.1596 -3.2563  1.3260
 3577SOL    HW222194   2.962   3.622   5.016 -0.0625 -0.3562 -1.4581
 3578SOL     OW22195   3.626   2.469   4.807 -0.1814 -0.0389 -0.3483
 3578SOL    HW122196   3.639   2.380   4.842 -2.3447  0.3373  1.4054
 3578SOL    HW222197   3.531   2.473   4.802 -0.0847  1.7584 -0.5391
 3579SOL     OW22198   4.293   3.567  11.411  0.0912 -0.4442 -0.3213
 3579SOL    HW122199   4.291   3.472  11.399 -1.2180 -0.3907 -0.5225
 3579SOL    HW222200   4.270   3.562  11.504  2.8110 -1.8967  0.2715
 3580SOL     OW22201   1.849   0.481   6.671 -0.2597 -0.1384 -0.0084
 3580SOL    HW122202   1.774   0.540   6.656  1.4617  1.9299 -0.5222
 3580SOL    HW222203   1.819   0.431   6.747  0.1832 -1.8021 -0.9490
 3581SOL     OW22204   0.538   3.198   7.031  0.4424  0.0378 -0.2581
 3581SOL    HW122205   0.487   3.261   6.981  0.4735  0.8924  0.7799
 3581SOL    HW222206   0.487   3.203   7.113 -0.5619 -0.6614 -0.8330
 3582SOL     OW22207   2.396   1.564  13.276 -0.0348  0.1175 -0.4820
 3582SOL    HW122208   2.398   1.650  13.318 -1.6617 -0.2726  0.4029
 3582SOL    HW222209   2.442   1.587  13.196 -0.5953  0.0261 -0.8311
 3583SOL     OW22210   3.191   3.561   5.461 -0.4560  0.4646  0.3051
 3583SOL    HW122211   3.138   3.595   5.390 -0.8752 -0.0929  0.3588
 3583SOL    HW222212   3.133   3.492   5.491 -0.1722 -0.4583 -1.2951
 3584SOL     OW22213   0.425   2.381  11.373  0.0955  0.2213 -0.2416
 3584SOL    HW122214   0.397   2.322  11.442  1.8270  1.7364  1.7718
 3584SOL    HW222215   0.427   2.464  11.420  1.6130  0.4531 -0.7091
 3585SOL     OW22216   4.086   2.700  12.115  0.1099 -0.0810 -0.0194
 3585SOL    HW122217   4.103   2.657  12.199  0.3318 -1.4205 -0.7429
 3585SOL    HW222218   4.116   2.790  12.126 -0.8175  0.4029 -1.5300
 3586SOL     OW22219   1.190   4.675   8.802 -0.4074  0.7323  0.1037
 3586SOL    HW122220   1.175   0.041   8.817  0.5590  1.0099 -0.6217
 3586SOL    HW222221   1.282   4.674   8.778 -0.4657  1.4764 -0.1321
 3587SOL     OW22222   1.748   3.563   2.098 -0.0327 -0.1086  0.2130
 3587SOL    HW122223   1.829   3.523   2.130  0.3150 -0.3191 -0.9177
 3587SOL    HW222224   1.720   3.602   2.181  2.8848  0.4262  0.9493
 3588SOL     OW22225   2.221   2.692   8.241  0.9701  0.2877 -0.1055
 3588SOL    HW122226   2.247   2.701   8.333 -0.4032 -0.4243  0.3590
 3588SOL    HW222227   2.255   2.609   8.208 -1.0462 -0.6382  0.1499
 3589SOL     OW22228   3.731   1.306   0.466  0.3280 -0.0766  0.1007
 3589SOL    HW122229   3.805   1.319   0.524 -1.2795  1.4165  1.8344
 3589SOL    HW222230   3.774   1.302   0.380 -1.7879 -1.4084 -0.9075
 3590SOL     OW22231   1.685   4.474   4.848 -0.0339 -0.1165 -0.0532
 3590SOL    HW122232   1.772   4.497   4.815  0.1580 -1.1730 -0.2697
 3590SOL    HW222233   1.677   4.553   4.901  1.0841 -0.6955  0.9834
 3591SOL     OW22234   4.499   4.051   3.078  0.2421  0.1878 -0.0079
 3591SOL    HW122235   4.513   4.136   3.120 -0.0591  0.2185  0.0260
 3591SOL    HW222236   4.456   4.081   2.998  0.0216 -0.0068  0.0397
 3592SOL     OW22237   3.355   0.091  15.236 -0.0095 -0.1877 -0.2586
 3592SOL    HW122238   3.404   0.009  15.240  0.2824 -0.0341 -0.6132
 3592SOL    HW222239   3.398   0.142  15.168  1.4894 -0.2301  0.6518
 3593SOL     OW22240   1.326   1.730   3.964 -0.2852  0.2569  0.2719
 3593SOL    HW122241   1.421   1.726   3.950 -0.7408 -0.6464 -2.6978
 3593SOL    HW222242   1.314   1.819   3.999 -1.1545  0.0313  0.5220
 3594SOL     OW22243   3.622   2.832   5.619 -0.1953 -0.1394  0.2237
 3594SOL    HW122244   3.614   2.903   5.554  0.3638  0.2757  0.6110
 3594SOL    HW222245   3.679   2.873   5.684  0.5256  0.3404 -0.7003
 3595SOL     OW22246   3.348   3.296   8.160  0.0325 -0.0793  0.1015
 3595SOL    HW122247   3.294   3.293   8.082  1.2580  0.7313 -0.7812
 3595SOL    HW222248   3.364   3.388   8.179 -0.0373  0.2487 -1.4713
 3596SOL     OW22249   2.116   3.958   6.791 -0.2200 -0.0820 -0.1042
 3596SOL    HW122250   2.039   3.925   6.838  0.9278 -0.9684  1.1439
 3596SOL    HW222251   2.093   3.921   6.705  1.9839  0.0279 -0.7406
 3597SOL     OW22252   0.621   3.966  13.439  0.2009 -0.4732  0.1585
 3597SOL    HW122253   0.685   4.021  13.393  1.3013 -0.9965  1.0603
 3597SOL    HW222254   0.662   3.954  13.524 -0.6526  1.2614  0.8139
 3598SOL     OW22255   0.669   1.940   8.392  0.2211 -0.6020  0.7008
 3598SOL    HW122256   0.757   1.953   8.357 -0.6966  0.1091 -1.3293
 3598SOL    HW222257   0.684   1.854   8.431 -3.5984 -0.7262  1.9533
 3599SOL     OW22258   4.263   0.604  13.581  0.0933  0.8111  0.0879
 3599SOL    HW122259   4.335   0.540  13.576 -0.9371 -0.4792  1.8301
 3599SOL    HW222260   4.293   0.664  13.650 -0.7078  1.1915  0.1030
 3600SOL     OW22261   4.007   1.784  15.817 -0.0184 -0.3390 -0.0054
 3600SOL    HW122262   3.922   1.757  15.852 -0.7863  1.4947 -0.4566
 3600SOL    HW222263   4.022   1.727  15.742 -1.3504  0.1370 -0.6347
 3601SOL     OW22264   3.005   3.744   7.249 -0.1956 -0.2702 -0.4904
 3601SOL    HW122265   3.095   3.754   7.280 -0.7217  2.2851  0.2044
 3601SOL    HW222266   2.969   3.674   7.303  1.2065 -1.7863 -1.5196
 3602SOL     OW22267   3.136   0.957   8.040 -0.2220 -0.4935 -0.4805
 3602SOL    HW122268   3.112   0.866   8.020 -1.0809 -0.4102  0.1946
 3602SOL    HW222269   3.138   0.942   8.134 -2.0875 -1.5746 -0.6056
 3603SOL     OW22270   0.143   3.534   6.981 -0.3162  0.1595 -0.1178
 3603SOL    HW122271   0.164   3.591   7.055 -1.3099 -0.3595  0.5488
 3603SOL    HW222272   0.144   3.599   6.910  1.0700  0.3440  0.0749
 3604SOL     OW22273   1.932   3.329  17.322 -0.6849  0.0465 -0.2622
 3604SOL    HW122274   1.883   3.354  17.244  0.5582  0.2221 -0.9946
 3604SOL    HW222275   2.019   3.355  17.291 -1.1135 -0.9997 -2.3664
 3605SOL     OW22276   3.965   0.183   8.660  0.3748  0.2981 -0.2905
 3605SOL    HW122277   4.032   0.228   8.609  0.1973 -0.3981 -1.1366
 3605SOL    HW222278   3.901   0.175   8.589  0.7179  1.1071 -0.6858
 3606SOL     OW22279   1.512   2.380   9.033  0.6905 -0.0342  0.3415
 3606SOL    HW122280   1.593   2.409   9.075  0.5001  0.4077  0.4108
 3606SOL    HW222281   1.474   2.468   9.040  1.5316  0.3347  0.2250
 3607SOL     OW22282   0.045   1.043   5.027 -0.7605  0.3778  0.2258
 3607SOL    HW122283   0.008   1.059   5.114 -0.9982  1.3096 -0.0468
 3607SOL    HW222284   0.109   0.981   5.063 -0.1544 -0.8301 -2.9370
 3608SOL     OW22285   2.461   3.505   3.876  0.2139  0.3612  0.0584
 3608SOL    HW122286   2.514   3.479   3.951  0.1846 -3.1210 -1.1244
 3608SOL    HW222287   2.420   3.424   3.843  1.6651 -0.8539  1.2658
 3609SOL     OW22288   4.562   1.938   5.304  0.1510 -0.4751  0.6802
 3609SOL    HW122289   4.509   1.858   5.298 -0.8026  0.3284 -1.8552
 3609SOL    HW222290   4.564   1.934   5.400  1.1012 -1.9191  0.6018
 3610SOL     OW22291   1.242   1.039   4.855  0.0625 -0.4182  0.0958
 3610SOL    HW122292   1.185   1.042   4.779  3.3613  1.0707 -2.3196
 3610SOL    HW222293   1.227   1.133   4.868  1.2719 -0.1602 -0.3238
 3611SOL     OW22294   2.756   0.834   3.329 -0.3732 -0.2682  0.1931
 3611SOL    HW122295   2.679   0.890   3.318  0.1827  0.6054  0.7480
 3611SOL    HW222296   2.824   0.893   3.297  1.4313 -2.4669 -0.0130
 3612SOL     OW22297   0.523   2.564  15.574 -0.3248 -0.0086  0.0037
 3612SOL    HW122298   0.509   2.470  15.581 -0.0723  0.0153  0.8176
 3612SOL    HW222299   0.435   2.589  15.547 -1.2400 -1.9215  1.2362
 3613SOL     OW22300   2.699   3.182   7.414  0.2042  0.0569 -0.2225
 3613SOL    HW122301   2.740   3.213   7.333  0.4775  1.2974  0.3833
 3613SOL    HW222302   2.651   3.103   7.391  0.9737 -0.7218  0.8862
 3614SOL     OW22303   3.060   3.951   7.938  0.2763  0.5765  0.3226
 3614SOL    HW122304   3.125   3.936   8.006 -1.5570 -1.8772  1.5129
 3614SOL    HW222305   3.119   3.992   7.874 -0.9848  0.8249 -0.7079
 3615SOL     OW22306   3.720   3.461   2.904 -0.2143  0.4985  0.1912
 3615SOL    HW122307   3.735   3.442   2.996  0.8713  3.2993  0.5884
 3615SOL    HW222308   3.813   3.449   2.883 -0.4337 -0.7794 -0.0547
 3616SOL     OW22309   3.379   4.404   7.496  1.0254 -0.0271  0.0188
 3616SOL    HW122310   3.434   4.410   7.418  0.3417  2.5580 -0.2988
 3616SOL    HW222311   3.398   4.312   7.513  2.1305  0.0704 -0.7214
 3617SOL     OW22312   0.085   2.489   5.813 -0.6860  0.2012  0.1350
 3617SOL    HW122313   0.037   2.558   5.767  0.5373  0.1431 -1.2205
 3617SOL    HW222314   0.143   2.552   5.856  1.3491 -1.8946  0.4551
 3618SOL     OW22315   1.052   4.015   7.030 -0.2768  0.0063  0.1968
 3618SOL    HW122316   1.141   3.986   7.050 -0.2918  0.3686  0.7868
 3618SOL    HW222317   1.006   3.939   6.996  0.9595  0.5309 -2.6435
 3619SOL     OW22318   1.006   1.812   7.955 -0.4521 -0.9028  0.7440
 3619SOL    HW122319   0.913   1.790   7.946 -0.4799 -0.7227  0.5926
 3619SOL    HW222320   1.028   1.784   8.044 -0.4949 -0.0283  1.0282
 3620SOL     OW22321   2.907   0.787   8.637 -0.1609 -0.5558 -0.0183
 3620SOL    HW122322   2.887   0.772   8.544  2.7972 -0.5334 -0.6482
 3620SOL    HW222323   2.876   0.874   8.661  3.3143  0.2097  1.6224
 3621SOL     OW22324   2.409   3.921   6.743 -0.4189  0.2638 -0.5054
 3621SOL    HW122325   2.431   3.979   6.816 -0.5751  0.5495 -0.6894
 3621SOL    HW222326   2.315   3.911   6.754 -0.1578 -0.8301  0.7803
 3622SOL     OW22327   4.464   4.607   2.766  0.0713 -0.0211 -0.2237
 3622SOL    HW122328   4.478   4.664   2.841 -1.5166 -0.0962  0.1273
 3622SOL    HW222329   4.551   4.571   2.753 -0.4493 -1.3477 -0.0611
 3623SOL     OW22330   1.066   1.509   0.361 -0.2085 -0.6812  0.2009
 3623SOL    HW122331   1.043   1.602   0.363  2.1367 -0.0986  0.1808
 3623SOL    HW222332   1.058   1.493   0.267  1.8766 -1.1512  0.0993
 3624SOL     OW22333   3.708   2.611   7.867  0.5342 -0.2656 -0.3033
 3624SOL    HW122334   3.779   2.599   7.930 -0.3199  1.7752  1.0511
 3624SOL    HW222335   3.736   2.701   7.850  1.2555 -0.3818  0.2969
 3625SOL     OW22336   0.763   0.580   5.467 -0.1783 -0.1918 -0.2986
 3625SOL    HW122337   0.710   0.592   5.546 -0.1363 -1.5879 -0.0575
 3625SOL    HW222338   0.821   0.657   5.464 -1.0275  0.4062 -1.4946
 3626SOL     OW22339   3.480   1.176   1.652 -0.7703  0.1899 -0.2802
 3626SOL    HW122340   3.503   1.107   1.590 -0.4671  0.8143 -0.8676
 3626SOL    HW222341   3.537   1.147   1.723  0.3379  3.4152  0.1560
 3627SOL     OW22342   0.202   2.390  11.198  0.0155 -0.9555 -0.1042
 3627SOL    HW122343   0.135   2.406  11.264  1.0571  0.2376  0.6743
 3627SOL    HW222344   0.283   2.406  11.247  0.0662  0.6102 -0.6725
 3628SOL     OW22345   0.194   2.792   9.525  0.4083  0.0727  0.2080
 3628SOL    HW122346   0.180   2.736   9.601  1.2431 -1.7840 -1.0248
 3628SOL    HW222347   0.120   2.853   9.530  0.7997  0.5312  0.4457
 3629SOL     OW22348   2.925   2.128   6.117  0.3499  0.1200  0.5730
 3629SOL    HW122349   2.830   2.121   6.127  0.0744  1.8263 -0.9689
 3629SOL    HW222350   2.938   2.102   6.026 -1.6681 -2.2240  0.9304
 3630SOL     OW22351   4.677   2.047   4.270  0.0649 -0.3962 -0.1082
 3630SOL    HW122352   4.622   1.969   4.259  0.4789 -0.6508 -0.3721
 3630SOL    HW222353   0.013   2.031   4.341 -0.0504 -2.7370 -0.5205
 3631SOL     OW22354   0.923   3.014   4.378 -0.3429  0.7222  0.0218
 3631SOL    HW122355   0.901   2.954   4.306  0.9343 -0.5828  0.7040
 3631SOL    HW222356   0.860   3.000   4.449 -0.0162 -0.0712  0.1507
 3632SOL     OW22357   0.712   4.004   4.268  0.0864 -0.0374  0.1128
 3632SOL    HW122358   0.641   3.950   4.234 -1.2616  0.1645  2.6371
 3632SOL    HW222359   0.675   4.038   4.349 -0.8314  1.0351 -0.7463
 3633SOL     OW22360   1.964   2.089  11.236 -0.0698  0.3526  0.1802
 3633SOL    HW122361   2.026   2.017  11.241 -0.1325  0.3948  1.7105
 3633SOL    HW222362   1.934   2.104  11.326  0.0811  0.1275  0.2683
 3634SOL     OW22363   1.961   2.408  16.263  0.0885  0.1812 -0.1445
 3634SOL    HW122364   1.989   2.498  16.245  1.2372  0.0022  0.8234
 3634SOL    HW222365   1.871   2.414  16.230  0.9139  0.6802 -2.2836
 3635SOL     OW22366   0.203   0.034   4.537  0.3556  0.1028  0.3667
 3635SOL    HW122367   0.193   4.665   4.535  1.0326  0.0176  1.3598
 3635SOL    HW222368   0.112   0.062   4.552 -0.3390 -1.2496 -1.2731
 3636SOL     OW22369   1.351   0.224   8.130 -0.5131 -0.9431  0.6165
 3636SOL    HW122370   1.400   0.301   8.156  0.9388 -1.3498 -0.9402
 3636SOL    HW222371   1.301   0.205   8.209 -1.7446 -0.4189 -0.0260
 3637SOL     OW22372   0.050   4.287   8.273 -0.2013  0.5049 -0.2232
 3637SOL    HW122373   4.726   4.357   8.233  0.7465  1.6623  0.6037
 3637SOL    HW222374   0.056   4.325   8.361 -0.3387  1.3417 -0.5772
 3638SOL     OW22375   3.135   2.244   8.155 -0.1453 -0.0238  0.2026
 3638SOL    HW122376   3.184   2.305   8.210 -0.0154 -1.9609  2.2669
 3638SOL    HW222377   3.200   2.199   8.101 -0.2670  1.3103 -1.0355
 3639SOL     OW22378   3.296   4.611   7.204  0.0297  0.7700 -0.2380
 3639SOL    HW122379   3.300   4.661   7.122  1.0110 -0.8330 -1.1825
 3639SOL    HW222380   3.216   4.559   7.202  0.3265  0.3929 -2.3684
 3640SOL     OW22381   1.746   2.264   6.768  0.2860 -0.0240  0.1401
 3640SOL    HW122382   1.729   2.222   6.851 -0.2363 -2.3142 -1.1336
 3640SOL    HW222383   1.811   2.335   6.777  1.3966 -0.7628 -1.9906
 3641SOL     OW22384   0.376   3.870  12.332 -0.1831 -0.1179 -0.6288
 3641SOL    HW122385   0.417   3.783  12.325 -1.6785 -0.8616 -0.1060
 3641SOL    HW222386   0.413   3.896  12.416  0.6905 -0.0951 -1.0189
 3642SOL     OW22387   3.639   1.066   2.911 -0.3152 -0.4828 -0.1013
 3642SOL    HW122388   3.734   1.053   2.913 -0.3359 -0.4226  2.1363
 3642SOL    HW222389   3.626   1.085   2.819  1.3641  1.0752 -0.0178
 3643SOL     OW22390   2.799   2.549   4.234 -0.2352  0.1291 -0.0900
 3643SOL    HW122391   2.821   2.640   4.214 -0.7386  0.7746  2.3457
 3643SOL    HW222392   2.864   2.497   4.187 -0.7834  0.7922 -1.5889
 3644SOL     OW22393   3.829   1.873   1.546  0.8527 -0.3270  0.2127
 3644SOL    HW122394   3.842   1.879   1.640  0.0862  3.2831  0.0908
 3644SOL    HW222395   3.849   1.963   1.521 -0.8188  0.4568  1.7308
 3645SOL     OW22396   4.246   2.142   5.781  0.2486  0.0056  0.7218
 3645SOL    HW122397   4.248   2.138   5.686 -2.4491 -0.7781  0.7046
 3645SOL    HW222398   4.152   2.160   5.786  0.1850 -0.0267 -0.4396
 3646SOL     OW22399   2.222   2.659   2.087  0.1018  0.0418 -0.2958
 3646SOL    HW122400   2.203   2.595   2.018 -0.2596  1.5902 -1.6440
 3646SOL    HW222401   2.251   2.738   2.040  0.2164  0.0822 -0.1577
 3647SOL     OW22402   4.337   2.472   6.711  0.6206  0.3556 -0.2487
 3647SOL    HW122403   4.403   2.486   6.779 -1.4270  0.9276  1.6325
 3647SOL    HW222404   4.266   2.532   6.734  2.1322  1.7281  0.7938
 3648SOL     OW22405   1.294   3.778   6.494  0.3181  0.6177 -0.8223
 3648SOL    HW122406   1.371   3.770   6.550 -0.7741  0.3713  0.6442
 3648SOL    HW222407   1.219   3.768   6.553  1.1806  1.7445  0.4638
 3649SOL     OW22408   3.072   3.328   6.961 -0.6399 -0.3779 -0.3034
 3649SOL    HW122409   3.075   3.257   6.896  1.8982 -0.5178 -0.0400
 3649SOL    HW222410   3.118   3.395   6.910  0.5383 -1.3036 -0.4748
 3650SOL     OW22411   1.631   4.235   6.624  0.5308 -0.6197  0.0755
 3650SOL    HW122412   1.542   4.269   6.630  0.5707 -0.2066 -1.5931
 3650SOL    HW222413   1.660   4.269   6.708  0.8057 -3.7144  1.2296
 3651SOL     OW22414   0.042   2.726  15.928 -0.3787 -0.2098 -1.0070
 3651SOL    HW122415   0.046   2.821  15.915  2.6772 -0.4054 -1.5679
 3651SOL    HW222416   0.052   2.687  15.841  2.8030  0.3642 -0.8859
 3652SOL     OW22417   3.659   1.929   4.501 -0.7102  0.3532 -0.6123
 3652SOL    HW122418   3.705   2.009   4.527 -0.6254 -0.3807  1.5107
 3652SOL    HW222419   3.597   1.949   4.431 -0.9952  2.1634  0.1328
 3653SOL     OW22420   3.882   4.460  11.916  0.0974  0.2836  0.5038
 3653SOL    HW122421   3.957   4.428  11.866  0.4052 -0.1457  1.2463
 3653SOL    HW222422   3.862   4.383  11.969  2.0103  0.3591  1.3409
 3654SOL     OW22423   1.666   2.488   5.589 -0.2008 -0.0916  0.2680
 3654SOL    HW122424   1.690   2.521   5.675  0.0554 -0.3226  0.2865
 3654SOL    HW222425   1.649   2.397   5.613  1.0628 -0.7508 -1.3179
 3655SOL     OW22426   2.837   1.890   2.885  0.1846  0.1088  0.2343
 3655SOL    HW122427   2.829   1.981   2.855 -0.9380 -0.5633 -1.4985
 3655SOL    HW222428   2.834   1.904   2.980 -1.6060  0.0199  0.1832
 3656SOL     OW22429   0.756   0.875  11.023  0.3402 -0.2435 -0.1608
 3656SOL    HW122430   0.736   0.959  11.065 -1.3626 -0.9508  0.4622
 3656SOL    HW222431   0.850   0.885  11.011  0.1771  2.8906  1.0221
 3657SOL     OW22432   2.487   1.369  13.595  0.4153 -0.2710 -1.0686
 3657SOL    HW122433   2.406   1.389  13.641  0.4990  0.0843 -1.0696
 3657SOL    HW222434   2.455   1.312  13.525 -0.8974  0.6440 -1.2132
 3658SOL     OW22435   4.392   1.496   4.819  0.2584  0.1570  0.0652
 3658SOL    HW122436   4.406   1.430   4.887  1.9872 -1.0840 -1.4833
 3658SOL    HW222437   4.480   1.519   4.788  0.5969 -1.6787 -0.3448
 3659SOL     OW22438   1.006   1.150   3.324  0.2370  0.1069  0.1708
 3659SOL    HW122439   0.973   1.188   3.243 -2.2092 -1.3506  0.4678
 3659SOL    HW222440   1.050   1.074   3.286  1.4450  0.8564  0.0694
 3660SOL     OW22441   0.184   2.687   2.375  0.3680 -0.3311 -0.0670
 3660SOL    HW122442   0.234   2.636   2.438  1.0468  1.0467  0.5089
 3660SOL    HW222443   0.121   2.743   2.420  2.0198  1.8161 -0.4274
 3661SOL     OW22444   3.056   4.326  16.941 -0.2555 -0.1134  0.1648
 3661SOL    HW122445   3.139   4.283  16.961 -0.1506 -0.0629 -0.1632
 3661SOL    HW222446   3.028   4.276  16.864  1.8483 -1.9064  0.5897
 3662SOL     OW22447   2.426   2.486   7.499  0.3980  0.4067  0.0355
 3662SOL    HW122448   2.425   2.459   7.591  0.2487  0.9960  0.2037
 3662SOL    HW222449   2.483   2.420   7.459  1.0680  1.5771 -0.9603
 3663SOL     OW22450   2.234   3.068   5.182 -0.5433 -0.1685  0.0867
 3663SOL    HW122451   2.248   3.139   5.244  0.5122  1.5782 -2.1191
 3663SOL    HW222452   2.281   3.095   5.103 -0.1490  0.4762  0.5522
 3664SOL     OW22453   3.840   3.993   8.966  0.4200 -0.3589 -0.1060
 3664SOL    HW122454   3.784   4.025   8.896  0.1243  0.1657  0.3658
 3664SOL    HW222455   3.902   4.065   8.977  0.5807 -0.2916 -1.5027
 3665SOL     OW22456   0.659   2.797  10.417 -0.2337 -0.0924  1.0147
 3665SOL    HW122457   0.621   2.745  10.489 -1.0015 -1.2086 -0.2034
 3665SOL    HW222458   0.735   2.833  10.464 -0.7701  1.4600  0.6871
 3666SOL     OW22459   2.141   1.556   7.583 -0.1635 -0.4418 -0.2833
 3666SOL    HW122460   2.207   1.611   7.542 -1.4865  0.1616 -1.6381
 3666SOL    HW222461   2.163   1.559   7.675  1.5554 -3.1151 -0.5969
 3667SOL     OW22462   4.358   0.507   2.617  0.3046 -0.5154 -0.7158
 3667SOL    HW122463   4.349   0.534   2.525 -0.2877  1.4016 -0.1031
 3667SOL    HW222464   4.443   0.543   2.643 -0.4598  2.2204 -2.0136
 3668SOL     OW22465   1.592   1.889   5.782  0.2238  0.6861  0.1956
 3668SOL    HW122466   1.523   1.955   5.777  0.3378  0.7199 -0.9910
 3668SOL    HW222467   1.550   1.811   5.746  1.5745 -0.0468  0.2322
 3669SOL     OW22468   1.588   1.754   6.939 -0.5571 -0.2109  0.0986
 3669SOL    HW122469   1.559   1.821   7.001  1.3884  0.8886 -0.1839
 3669SOL    HW222470   1.528   1.765   6.866 -0.3256  0.1596 -0.0305
 3670SOL     OW22471   1.476   1.339   0.784  0.5044  0.2769 -0.2776
 3670SOL    HW122472   1.508   1.383   0.705  1.5238 -0.1430 -0.1059
 3670SOL    HW222473   1.534   1.263   0.781  0.8686  0.5587 -0.4011
 3671SOL     OW22474   3.907   0.783   2.735  0.5187  0.0506  0.3711
 3671SOL    HW122475   3.925   0.854   2.797 -0.0903  0.1687  0.4134
 3671SOL    HW222476   3.991   0.753   2.699  0.6016  2.5185 -1.4210
 3672SOL     OW22477   0.971   1.388   8.818  0.0674  0.2557 -0.1866
 3672SOL    HW122478   1.052   1.411   8.775  0.9005 -0.5310  0.9539
 3672SOL    HW222479   0.950   1.477   8.847 -0.5109  0.1874 -0.3921
 3673SOL     OW22480   0.594   4.222   4.805 -0.4029 -0.4092  0.5965
 3673SOL    HW122481   0.594   4.292   4.740 -1.3589 -0.9801 -0.0105
 3673SOL    HW222482   0.616   4.264   4.888 -1.4707 -0.5467  0.9508
 3674SOL     OW22483   1.812   3.726   9.196 -0.2403 -0.3610  0.0080
 3674SOL    HW122484   1.766   3.810   9.200  0.1686 -0.1062 -0.7081
 3674SOL    HW222485   1.893   3.744   9.149  0.6656 -1.1793  1.2868
 3675SOL     OW22486   3.592   4.015   9.081  0.6326 -0.3759 -0.3246
 3675SOL    HW122487   3.679   3.989   9.050  0.5250  0.9976 -1.7864
 3675SOL    HW222488   3.532   4.019   9.007 -1.4907 -4.5152  1.1809
 3676SOL     OW22489   3.656   4.186   7.625 -0.2412 -0.3011 -0.6563
 3676SOL    HW122490   3.729   4.249   7.630  0.0854 -0.5187 -2.9268
 3676SOL    HW222491   3.673   4.122   7.695  2.0138  1.0924  0.0891
 3677SOL     OW22492   2.292   2.327   2.259 -0.0798 -0.1022  0.1900
 3677SOL    HW122493   2.352   2.370   2.319  0.4334  0.7565 -0.9330
 3677SOL    HW222494   2.293   2.232   2.264 -1.4326 -0.0362  1.8919
 3678SOL     OW22495   1.722   3.981   6.633 -0.2403 -0.3273 -0.2192
 3678SOL    HW122496   1.669   3.976   6.554 -1.0494 -2.3040  0.4574
 3678SOL    HW222497   1.707   4.073   6.658 -1.5090 -1.1581  2.1005
 3679SOL     OW22498   2.554   3.032   5.027  0.7333  0.2048  0.2579
 3679SOL    HW122499   2.636   2.998   4.991  0.8959  2.4388 -1.4349
 3679SOL    HW222500   2.483   2.972   5.003  0.7678  0.6095 -0.8478
 3680SOL     OW22501   1.989   1.632   1.225 -0.0351 -0.0057 -0.4667
 3680SOL    HW122502   1.927   1.699   1.197 -2.4010 -1.0392  2.2967
 3680SOL    HW222503   2.067   1.645   1.171  0.5127 -1.1439  0.0549
 3681SOL     OW22504   3.030   1.575  17.208  0.0291  0.1271 -0.5978
 3681SOL    HW122505   2.973   1.606  17.278 -0.9818 -1.1623 -0.8662
 3681SOL    HW222506   2.965   1.515  17.171 -0.4004  0.7741 -0.8952
 3682SOL     OW22507   3.101   2.851   6.895 -0.3142 -0.4316  0.0701
 3682SOL    HW122508   3.169   2.918   6.897  0.5310 -1.4053  3.2378
 3682SOL    HW222509   3.126   2.810   6.812 -0.3556  1.5946 -0.9352
 3683SOL     OW22510   0.787   1.603   6.555 -0.0911 -0.0481 -0.6197
 3683SOL    HW122511   0.775   1.571   6.645  2.9119 -1.7006 -0.8090
 3683SOL    HW222512   0.716   1.668   6.555  0.7517  0.8698 -1.2916
 3684SOL     OW22513   1.905   1.370   8.562  0.0089 -0.4724 -0.3420
 3684SOL    HW122514   1.951   1.286   8.562  1.0043  0.0769  0.7581
 3684SOL    HW222515   1.962   1.430   8.611 -0.5193 -0.4756  0.2673
 3685SOL     OW22516   3.107   4.337   7.598  0.3581 -0.2227 -0.0883
 3685SOL    HW122517   3.052   4.302   7.528 -0.2517  0.5975 -0.0190
 3685SOL    HW222518   3.176   4.372   7.542 -1.2000  0.5849 -1.4990
 3686SOL     OW22519   0.141   3.413   3.674  0.4793 -0.2685  0.3524
 3686SOL    HW122520   0.080   3.340   3.681 -1.8866  1.6570 -0.0745
 3686SOL    HW222521   0.114   3.457   3.593 -1.9417 -3.0396 -0.3181
 3687SOL     OW22522   0.406   2.965   8.243  0.2683 -0.1704  0.7937
 3687SOL    HW122523   0.494   2.997   8.266  1.0806 -1.8713 -0.0103
 3687SOL    HW222524   0.351   3.043   8.253 -3.2521 -2.5378 -0.2757
 3688SOL     OW22525   0.790   1.611  10.816  0.0508 -0.3654 -0.1265
 3688SOL    HW122526   0.785   1.657  10.900  1.5628 -1.3088  0.4725
 3688SOL    HW222527   0.806   1.682  10.754 -1.3330  0.4559  0.4456
 3689SOL     OW22528   2.798   2.364   3.187 -0.3278 -0.0995  0.1808
 3689SOL    HW122529   2.740   2.421   3.136  0.8015  0.9571  0.0871
 3689SOL    HW222530   2.775   2.388   3.277 -1.7341 -0.1253 -0.1700
 3690SOL     OW22531   4.672   1.716   6.825 -0.4777  0.1326 -0.1147
 3690SOL    HW122532   0.025   1.741   6.871  0.6781 -1.0305 -1.5014
 3690SOL    HW222533   4.695   1.725   6.733 -0.3642 -0.5829 -0.1489
 3691SOL     OW22534   0.791   1.729   1.932 -0.4662 -0.4943 -0.1720
 3691SOL    HW122535   0.881   1.706   1.910 -0.8059 -1.7198 -0.2906
 3691SOL    HW222536   0.807   1.810   1.980 -1.7784 -0.5076  0.2895
 3692SOL     OW22537   3.980   3.834   1.848 -0.4014 -0.0352 -0.7375
 3692SOL    HW122538   4.057   3.887   1.867 -1.9123  1.2195  1.8907
 3692SOL    HW222539   4.016   3.749   1.823  0.6161  0.6872 -1.7032
 3693SOL     OW22540   0.473   0.107   4.038  0.3079  0.2742  0.4931
 3693SOL    HW122541   0.536   0.036   4.022  0.1974  0.6834 -1.6443
 3693SOL    HW222542   0.422   0.052   4.098 -1.5222 -0.7311 -2.0147
 3694SOL     OW22543   4.449   1.662   2.735 -0.4432 -0.1064  0.0442
 3694SOL    HW122544   4.366   1.656   2.782  0.8011  1.3201  2.4396
 3694SOL    HW222545   4.522   1.647   2.795 -0.8252 -2.1046  0.0206
 3695SOL     OW22546   1.723   1.807  15.600  0.2100  0.2865  0.7722
 3695SOL    HW122547   1.627   1.806  15.606  0.1647 -2.0375 -0.3230
 3695SOL    HW222548   1.759   1.857  15.672 -2.7680 -1.3249  3.3955
 3696SOL     OW22549   1.271   2.073   4.337 -0.2664  0.0468 -0.2820
 3696SOL    HW122550   1.345   2.087   4.396  1.2921  0.0468 -2.2527
 3696SOL    HW222551   1.249   1.980   4.349 -0.7099  0.4088  1.7411
 3697SOL     OW22552   4.536   0.793   9.382 -0.1869 -0.1419  0.4795
 3697SOL    HW122553   4.629   0.773   9.386  0.1341  1.1997 -0.1382
 3697SOL    HW222554   4.513   0.788   9.474 -0.8942  2.0165  0.4272
 3698SOL     OW22555   1.603   4.034   2.193  0.0268  0.5372 -0.4128
 3698SOL    HW122556   1.538   4.053   2.125 -1.2272 -1.5087  0.2146
 3698SOL    HW222557   1.619   4.126   2.213  1.0414 -0.0004  1.2815
 3699SOL     OW22558   4.275   4.544   8.235  0.3766  0.4011 -0.1522
 3699SOL    HW122559   4.349   4.600   8.215 -0.8484  2.0052 -0.1524
 3699SOL    HW222560   4.315   4.483   8.297 -3.1680  0.8231  2.5530
 3700SOL     OW22561   4.001   3.493   0.532  0.6432  0.2248  0.2998
 3700SOL    HW122562   3.932   3.545   0.572  1.8589  1.3991  0.8470
 3700SOL    HW222563   3.968   3.488   0.442  0.2550  0.3112  0.4390
 3701SOL     OW22564   0.812   4.530  10.980 -0.1820  1.1331 -0.0286
 3701SOL    HW122565   0.816   4.535  10.884  1.3823  2.4379  0.0843
 3701SOL    HW222566   0.833   4.440  11.004  1.8765  1.1854 -1.6269
 3702SOL     OW22567   0.939   3.154   5.632  0.2169 -0.6763  0.3812
 3702SOL    HW122568   0.971   3.191   5.549 -2.3877 -0.3472 -0.4964
 3702SOL    HW222569   0.871   3.217   5.658  1.5234  1.3882 -1.1813
 3703SOL     OW22570   0.447   3.633   3.168  0.3626 -0.2087 -0.2657
 3703SOL    HW122571   0.465   3.601   3.079 -0.2683  1.8887 -1.1745
 3703SOL    HW222572   0.411   3.553   3.204 -1.3640  0.6661 -0.0408
 3704SOL     OW22573   2.510   0.836  13.802  0.1375 -0.0628  0.2973
 3704SOL    HW122574   2.508   0.801  13.713 -0.8534  1.1860 -0.1702
 3704SOL    HW222575   2.424   0.878  13.809  0.0993 -0.2238  0.8603
 3705SOL     OW22576   3.559   2.411  10.745 -0.1521 -0.0747  0.0387
 3705SOL    HW122577   3.479   2.449  10.780  0.9439  2.2243  0.0494
 3705SOL    HW222578   3.537   2.318  10.756 -1.7853  0.5000  1.4540
 3706SOL     OW22579   0.554   2.898   7.491  0.4199  0.2444 -0.2767
 3706SOL    HW122580   0.643   2.886   7.457 -0.2372 -1.8968 -1.1822
 3706SOL    HW222581   0.505   2.897   7.410 -1.2338 -1.3789  0.7465
 3707SOL     OW22582   3.872   2.656   8.082 -0.2723 -0.3189 -0.7470
 3707SOL    HW122583   3.813   2.720   8.122  0.1920  0.3436 -1.1089
 3707SOL    HW222584   3.948   2.676   8.136 -0.3632  1.0239 -1.1188
 3708SOL     OW22585   0.817   4.143   2.403  0.1796 -0.4264  0.3903
 3708SOL    HW122586   0.886   4.076   2.401  0.9293  0.3703 -0.7446
 3708SOL    HW222587   0.744   4.098   2.445  0.2888 -0.7564  0.2338
 3709SOL     OW22588   1.178   2.561   7.385 -0.2358  0.0215 -0.6825
 3709SOL    HW122589   1.224   2.517   7.314  1.0421 -1.7025  1.2216
 3709SOL    HW222590   1.236   2.623   7.430  0.2517 -2.1168  1.5988
 3710SOL     OW22591   0.489   3.563   8.198  0.5905 -0.1360  0.6765
 3710SOL    HW122592   0.477   3.651   8.231 -0.4959  0.0929 -0.3338
 3710SOL    HW222593   0.531   3.579   8.114 -1.9447  0.7192 -0.4206
 3711SOL     OW22594   1.655   3.441   7.591 -0.6977 -0.1156 -0.6492
 3711SOL    HW122595   1.674   3.405   7.678 -0.3676  1.2715 -0.1569
 3711SOL    HW222596   1.721   3.402   7.534 -0.7857  0.3028 -1.0278
 3712SOL     OW22597   4.104   4.710   5.303 -0.1065  0.0336  0.3192
 3712SOL    HW122598   4.098   4.619   5.276  1.5168  0.1907 -0.5829
 3712SOL    HW222599   4.187   0.010   5.263 -0.7505 -0.2875 -1.2458
 3713SOL     OW22600   1.169   4.504   6.378  0.6107  0.2304 -0.6700
 3713SOL    HW122601   1.119   4.461   6.448  0.7360  0.2960 -0.5391
 3713SOL    HW222602   1.262   4.492   6.395  0.7302 -1.5812 -2.5746
 3714SOL     OW22603   1.885   2.596  12.528 -0.4536 -0.2781  0.2804
 3714SOL    HW122604   1.936   2.578  12.449  1.7661  0.7863  1.4729
 3714SOL    HW222605   1.852   2.510  12.554  0.0020 -1.6203 -3.4797
 3715SOL     OW22606   0.991   4.535   6.146 -0.1284 -0.0338 -0.2648
 3715SOL    HW122607   1.071   4.516   6.196  1.0298  0.3526 -1.9683
 3715SOL    HW222608   0.950   4.613   6.182 -0.2397 -2.0335  3.9320
 3716SOL     OW22609   1.180   0.333   5.749 -0.3841  0.1150  0.1534
 3716SOL    HW122610   1.195   0.296   5.662  0.7277 -2.2309  1.3365
 3716SOL    HW222611   1.133   0.415   5.737 -2.3633 -0.9436  0.6104
 3717SOL     OW22612   1.485   1.821  14.849 -0.2356  0.0772  0.9691
 3717SOL    HW122613   1.414   1.855  14.904 -1.2819 -1.0763  0.3302
 3717SOL    HW222614   1.557   1.827  14.912  1.8901  0.1633 -1.4585
 3718SOL     OW22615   4.278   0.115  12.911  0.4442  0.1062 -0.2167
 3718SOL    HW122616   4.319   0.113  12.997  1.5234  2.5707 -0.6855
 3718SOL    HW222617   4.252   0.206  12.901  1.9502  0.9776  3.9330
 3719SOL     OW22618   0.825   3.808  15.636 -0.4412 -0.3850 -0.4310
 3719SOL    HW122619   0.745   3.860  15.620  0.1327  1.0143  1.2792
 3719SOL    HW222620   0.786   3.735  15.684  1.4090 -1.9998 -1.3932
 3720SOL     OW22621   3.160   2.684  17.617  1.1583  0.3669  0.0230
 3720SOL    HW122622   3.148   2.763  17.565 -1.3634  0.5294  0.8208
 3720SOL    HW222623   3.070   2.658  17.636  0.3889  1.3300 -2.3717
 3721SOL     OW22624   0.428   1.927   4.982  0.2164 -1.1928  0.0114
 3721SOL    HW122625   0.391   2.002   4.935  0.8086 -0.8095  0.1514
 3721SOL    HW222626   0.359   1.904   5.045 -1.2545 -0.0024 -1.1638
 3722SOL     OW22627   1.268   0.997   7.090  0.2481 -0.3744 -0.5909
 3722SOL    HW122628   1.184   1.034   7.060 -1.1921 -1.6447  1.9135
 3722SOL    HW222629   1.245   0.905   7.100  0.6602 -0.5609 -1.3487
 3723SOL     OW22630   1.756   0.614   8.158 -0.2180 -0.0514 -0.3062
 3723SOL    HW122631   1.730   0.703   8.179 -1.3522 -0.4635  0.0772
 3723SOL    HW222632   1.799   0.587   8.239 -0.6613 -0.4342 -0.1955
 3724SOL     OW22633   3.282   4.365  10.320 -0.4264 -0.1924  0.4615
 3724SOL    HW122634   3.371   4.397  10.331 -0.7282  0.2376  1.6792
 3724SOL    HW222635   3.262   4.355  10.227 -0.6590 -0.7558  0.5693
 3725SOL     OW22636   0.220   4.596   0.941  0.0439  0.0463 -0.6356
 3725SOL    HW122637   0.305   4.553   0.935 -0.4702 -1.0989  0.4328
 3725SOL    HW222638   0.225   4.633   0.853  1.3014 -0.0599 -0.6060
 3726SOL     OW22639   3.346   2.605   1.727  0.0923 -0.3261 -0.3853
 3726SOL    HW122640   3.359   2.641   1.639  0.1714  1.1340  0.2145
 3726SOL    HW222641   3.392   2.677   1.771  0.3229 -0.5380 -0.2790
 3727SOL     OW22642   3.488   0.230   2.524 -0.2674 -0.3697 -0.6157
 3727SOL    HW122643   3.509   0.201   2.435  1.7019  0.3062 -0.3771
 3727SOL    HW222644   3.449   0.317   2.517 -2.7499 -1.1920  3.2903
 3728SOL     OW22645   3.906   4.368  12.381  0.6282 -0.2624  0.1738
 3728SOL    HW122646   3.862   4.290  12.417 -0.3478 -0.0434 -0.5664
 3728SOL    HW222647   3.926   4.404  12.468  1.4643 -2.3344  0.8731
 3729SOL     OW22648   3.906   0.160   2.117 -0.6307  0.5998 -0.3527
 3729SOL    HW122649   3.985   0.153   2.062 -0.5148 -1.8943  0.1202
 3729SOL    HW222650   3.951   0.198   2.192 -0.7944  1.0441 -0.4786
 3730SOL     OW22651   4.105   4.564  16.759  0.1842  0.0758 -0.0532
 3730SOL    HW122652   4.014   4.548  16.734 -0.3301  0.1540  1.7321
 3730SOL    HW222653   4.144   4.481  16.734  0.5142  0.1686  0.1542
 3731SOL     OW22654   0.599   3.530   9.587 -0.3912 -0.3018 -0.0533
 3731SOL    HW122655   0.557   3.562   9.666  1.3910 -0.4806  0.9680
 3731SOL    HW222656   0.540   3.458   9.563 -1.5220  0.8187 -0.6565
 3732SOL     OW22657   1.136   3.904   6.313  0.5828  0.0643  0.2524
 3732SOL    HW122658   1.207   3.867   6.366  0.1152 -0.8052  0.2651
 3732SOL    HW222659   1.165   3.879   6.225 -2.1108  0.0520 -0.6224
 3733SOL     OW22660   1.457   0.120  11.497 -0.3941 -0.2711 -0.5308
 3733SOL    HW122661   1.506   0.198  11.521  1.2983 -0.6348 -2.7539
 3733SOL    HW222662   1.490   0.094  11.411 -0.4399 -0.3630 -0.5214
 3734SOL     OW22663   1.714   0.630  11.706  0.2636  0.6057 -0.0987
 3734SOL    HW122664   1.773   0.704  11.718 -0.5231  1.3377 -0.7280
 3734SOL    HW222665   1.633   0.680  11.720 -0.3526 -0.6197  0.7680
 3735SOL     OW22666   0.630   2.241   4.350 -0.6631  0.0053  0.3680
 3735SOL    HW122667   0.614   2.161   4.299 -0.0956  0.3747 -0.3880
 3735SOL    HW222668   0.606   2.204   4.435  0.7385  2.3675  1.7694
 3736SOL     OW22669   3.495   1.345  15.774  0.2175 -0.1598  0.8473
 3736SOL    HW122670   3.570   1.381  15.727  0.8921  0.7573  2.6031
 3736SOL    HW222671   3.461   1.419  15.824  1.1112 -0.1055  1.3795
 3737SOL     OW22672   2.839   0.764  14.650  0.1660 -0.1193 -0.3312
 3737SOL    HW122673   2.851   0.751  14.744 -0.8840 -0.9610 -0.3177
 3737SOL    HW222674   2.768   0.700  14.645  1.3559 -1.4046 -0.9736
 3738SOL     OW22675   1.308   4.564   4.271  0.7855  0.3864 -0.2376
 3738SOL    HW122676   1.260   4.484   4.292  0.5960  0.3275 -0.8985
 3738SOL    HW222677   1.312   4.544   4.177  0.8627  0.2002 -0.1958
 3739SOL     OW22678   1.336   2.821   7.013  0.6672  0.0241 -0.0701
 3739SOL    HW122679   1.346   2.767   6.935 -0.7724  0.0651 -0.2836
 3739SOL    HW222680   1.424   2.858   7.025  1.1399 -1.6425  1.6166
 3740SOL     OW22681   3.467   2.615   3.908 -0.2830  0.1103 -0.3799
 3740SOL    HW122682   3.450   2.707   3.929 -0.1212  0.2766 -0.9724
 3740SOL    HW222683   3.386   2.575   3.875 -0.3020  0.0409 -0.2490
 3741SOL     OW22684   3.930   0.605  14.206  0.3171  0.0269  0.2860
 3741SOL    HW122685   3.848   0.568  14.240 -0.5044  0.2971 -1.4311
 3741SOL    HW222686   3.906   0.698  14.201 -0.5908 -0.1998  0.5227
 3742SOL     OW22687   4.225   0.308   4.381  0.9061  0.0647 -0.1378
 3742SOL    HW122688   4.178   0.236   4.338  1.2420 -0.0258 -0.3570
 3742SOL    HW222689   4.226   0.281   4.472 -0.3485  1.6768  0.3673
 3743SOL     OW22690   3.809   0.031   2.925 -0.1183 -0.3506  0.1365
 3743SOL    HW122691   3.790   0.011   2.833  0.8471  1.7031 -0.4943
 3743SOL    HW222692   3.723   0.050   2.963  0.5049  1.0714  0.7981
 3744SOL     OW22693   4.438   3.830  14.495  0.7962  0.2713  0.1378
 3744SOL    HW122694   4.414   3.739  14.509 -0.4102  0.6574  0.5107
 3744SOL    HW222695   4.355   3.873  14.514  0.4440 -0.0371 -0.6944
 3745SOL     OW22696   0.220   3.374   6.230 -0.1103  0.7575  0.6489
 3745SOL    HW122697   0.182   3.341   6.148 -0.1124  1.9968  0.1509
 3745SOL    HW222698   0.147   3.432   6.251 -0.4169  1.0150 -1.1367
 3746SOL     OW22699   4.632   1.383   4.602  0.7044 -0.1534  0.5730
 3746SOL    HW122700   4.659   1.454   4.661  1.6402 -0.7051  0.8160
 3746SOL    HW222701   4.703   1.377   4.537  0.4638 -2.5579  0.5399
 3747SOL     OW22702   4.486   0.422   0.310 -0.0565  0.5452 -0.4844
 3747SOL    HW122703   4.396   0.396   0.290 -0.4976  1.8956 -0.2565
 3747SOL    HW222704   4.529   0.415   0.225  1.1526  0.3235  0.1533
 3748SOL     OW22705   4.097   4.366   3.174  0.2965 -0.2251  0.0068
 3748SOL    HW122706   4.056   4.420   3.107  0.7353  0.9039  0.6414
 3748SOL    HW222707   4.044   4.391   3.249  0.7221  2.4983 -0.5948
 3749SOL     OW22708   1.175   1.647   3.751  0.2481  0.5583 -0.3170
 3749SOL    HW122709   1.235   1.690   3.690 -0.4757  1.7383 -0.1856
 3749SOL    HW222710   1.222   1.667   3.832  0.6669 -1.9632  0.0517
 3750SOL     OW22711   3.558   1.923   9.856 -1.0190 -0.2869  0.2285
 3750SOL    HW122712   3.652   1.937   9.853 -1.0370  0.1450  1.6515
 3750SOL    HW222713   3.549   1.829   9.839  0.8766 -0.7587  1.9067
 3751SOL     OW22714   4.539   4.200   1.753 -0.4545 -0.3725  0.0575
 3751SOL    HW122715   4.562   4.197   1.846 -2.6190 -0.3389  0.6129
 3751SOL    HW222716   4.449   4.166   1.752 -0.8559  0.6415  1.0276
 3752SOL     OW22717   2.565   2.761  13.141 -0.4035 -0.0199  0.0812
 3752SOL    HW122718   2.479   2.793  13.166 -0.6174 -0.4419 -0.1155
 3752SOL    HW222719   2.604   2.768  13.229 -1.0885 -0.6282  0.4287
 3753SOL     OW22720   4.429   3.044   4.428  0.0648  0.0769 -0.2801
 3753SOL    HW122721   4.360   3.110   4.430 -0.1135 -0.1465  0.8404
 3753SOL    HW222722   4.482   3.090   4.364  1.2792 -0.7310  0.1403
 3754SOL     OW22723   2.693   2.387   2.784  0.5096 -0.6130 -0.1665
 3754SOL    HW122724   2.774   2.436   2.801  0.2668  0.4569 -2.0777
 3754SOL    HW222725   2.642   2.463   2.757  0.1895  0.1224  2.5295
 3755SOL     OW22726   3.266   1.234   4.363 -0.0014 -0.2381  0.3634
 3755SOL    HW122727   3.331   1.200   4.425 -1.6135 -1.2081  1.5222
 3755SOL    HW222728   3.265   1.325   4.391  0.1963  0.7134 -2.6384
 3756SOL     OW22729   0.107   1.198   1.423  0.4776  0.1510 -0.0305
 3756SOL    HW122730   0.193   1.183   1.381  0.6073 -0.7705  0.5610
 3756SOL    HW222731   0.070   1.271   1.373 -0.8836  0.1671  1.0449
 3757SOL     OW22732   1.639   0.778   9.206 -0.2816 -0.0098 -0.0700
 3757SOL    HW122733   1.713   0.803   9.262 -0.6779  1.4677 -0.1829
 3757SOL    HW222734   1.657   0.836   9.132 -4.3446 -0.0511 -1.1258
 3758SOL     OW22735   0.488   1.434  10.841 -0.2171  0.3711 -0.4103
 3758SOL    HW122736   0.464   1.484  10.764  1.6833  2.9770  0.7075
 3758SOL    HW222737   0.407   1.430  10.892 -1.6945 -0.5044 -2.8664
 3759SOL     OW22738   1.514   3.397   2.090  0.2544 -0.0600  0.0806
 3759SOL    HW122739   1.593   3.450   2.078  0.2560  0.0750  0.6759
 3759SOL    HW222740   1.546   3.307   2.097 -0.1756  0.0656  3.8740
 3760SOL     OW22741   4.090   1.813   0.370  0.6548 -0.1098  0.2251
 3760SOL    HW122742   4.184   1.799   0.382  0.9742 -0.0539 -2.2922
 3760SOL    HW222743   4.055   1.864   0.443  0.1353  0.3446 -0.3427
 3761SOL     OW22744   3.591   0.756   3.744 -0.3099  0.6130  0.1324
 3761SOL    HW122745   3.562   0.846   3.731 -0.8899  0.9938  3.9263
 3761SOL    HW222746   3.550   0.726   3.825  1.4099  0.0971  0.8293
 3762SOL     OW22747   1.936   4.498   8.287  0.2565 -0.4437  0.2868
 3762SOL    HW122748   1.853   4.539   8.266 -0.2157 -0.2708  2.5060
 3762SOL    HW222749   1.919   4.432   8.355  1.6206 -0.9940  0.1097
 3763SOL     OW22750   3.724   1.312   7.010  0.7381 -0.0736  0.4764
 3763SOL    HW122751   3.815   1.282   7.001  0.1593 -1.3874 -0.9577
 3763SOL    HW222752   3.710   1.342   6.921 -0.0389 -0.2342  0.5482
 3764SOL     OW22753   2.702   4.240   8.046  0.8172 -0.1173  0.2337
 3764SOL    HW122754   2.609   4.218   8.057  0.8733 -1.2193 -1.4187
 3764SOL    HW222755   2.746   4.164   8.006  0.1234 -0.6386  0.4490
 3765SOL     OW22756   3.539   2.876   3.920  0.2142 -0.0676  0.0031
 3765SOL    HW122757   3.590   2.938   3.972 -1.1033  0.1265  1.0457
 3765SOL    HW222758   3.598   2.861   3.845 -1.6383 -0.0805 -1.4377
 3766SOL     OW22759   0.148   2.475   8.922  0.3169  0.2084 -0.3161
 3766SOL    HW122760   0.218   2.484   8.987 -0.1147 -1.8513  0.4283
 3766SOL    HW222761   0.091   2.548   8.947 -0.4896 -0.4391 -0.2848
 3767SOL     OW22762   2.541   0.817   9.107 -0.1995 -0.1999 -0.0983
 3767SOL    HW122763   2.453   0.784   9.124 -0.0746  0.0272  0.9971
 3767SOL    HW222764   2.601   0.757   9.153  0.2991 -0.6176 -1.2981
 3768SOL     OW22765   2.782   2.350  12.203  0.2241  0.1577  0.0247
 3768SOL    HW122766   2.803   2.382  12.115 -0.4717  2.1315  0.5954
 3768SOL    HW222767   2.807   2.414  12.269  0.4427 -0.1195  0.2124
 3769SOL     OW22768   2.277   4.092   2.822  0.2510  0.3394 -0.0386
 3769SOL    HW122769   2.251   4.160   2.884 -0.8248  1.4919 -1.7356
 3769SOL    HW222770   2.370   4.097   2.842  0.4717 -0.3865 -0.8710
 3770SOL     OW22771   0.208   0.092   3.193 -0.4137  0.2837  0.1594
 3770SOL    HW122772   0.143   0.140   3.142  0.9221  1.3061 -0.5854
 3770SOL    HW222773   0.148   0.031   3.235  0.9451 -0.5666  0.8767
 3771SOL     OW22774   2.613   4.134   2.872 -0.1100  0.1807  0.3249
 3771SOL    HW122775   2.640   4.223   2.893  0.5180  0.1139 -0.2069
 3771SOL    HW222776   2.607   4.138   2.777 -0.3495 -0.5199  0.3060
 3772SOL     OW22777   1.800   3.729   0.446  0.0616  0.7642  0.1938
 3772SOL    HW122778   1.828   3.692   0.362 -0.9417  2.0712 -0.7228
 3772SOL    HW222779   1.807   3.823   0.434  1.8772  1.1311  4.1195
 3773SOL     OW22780   4.149   0.190   0.008 -0.3069  0.4181  0.6813
 3773SOL    HW122781   4.221   0.200   0.070 -0.1444 -1.2925  0.7874
 3773SOL    HW222782   4.175   0.117  17.659 -3.5924 -0.8056  0.7254
 3774SOL     OW22783   4.193   0.104   5.951  0.2296  0.2978 -0.5368
 3774SOL    HW122784   4.119   0.044   5.945  0.4557 -0.2739  2.3089
 3774SOL    HW222785   4.161   0.168   6.014  0.3608 -1.3171  1.1792
 3775SOL     OW22786   0.172   1.534   5.054 -0.5391  0.1529 -0.2441
 3775SOL    HW122787   0.077   1.522   5.046 -0.7812  2.1939 -0.4540
 3775SOL    HW222788   0.203   1.564   4.968 -2.5818 -1.8674 -1.6867
 3776SOL     OW22789   2.884   2.443  15.331 -0.1271  0.1412  0.1643
 3776SOL    HW122790   2.807   2.444  15.388 -0.7019 -1.4104 -0.5881
 3776SOL    HW222791   2.866   2.521  15.279  1.2061  0.0046 -0.4856
 3777SOL     OW22792   0.646   1.366   3.835 -0.3897 -0.2107  0.3289
 3777SOL    HW122793   0.626   1.274   3.852  1.5629 -0.3228  1.9169
 3777SOL    HW222794   0.560   1.409   3.829 -1.2908 -2.0608  0.1578
 3778SOL     OW22795   4.042   2.020  13.300 -0.3188  0.9142 -0.8595
 3778SOL    HW122796   4.121   2.069  13.274 -0.4233  1.5169 -0.0388
 3778SOL    HW222797   4.015   1.984  13.216  0.4896 -0.8972 -0.3292
 3779SOL     OW22798   2.337   1.662  15.879  0.2927  0.0232  0.1964
 3779SOL    HW122799   2.286   1.689  15.803  1.0638 -0.9469 -0.6800
 3779SOL    HW222800   2.312   1.570  15.885 -0.0227  0.0927 -0.1097
 3780SOL     OW22801   2.809   2.798   2.160 -0.2485  0.1525  0.2079
 3780SOL    HW122802   2.736   2.769   2.105  1.8852 -1.9717 -1.4428
 3780SOL    HW222803   2.880   2.742   2.130 -0.6622  0.9600 -2.2379
 3781SOL     OW22804   2.950   1.273   7.085 -0.2395  0.0018 -0.4216
 3781SOL    HW122805   2.893   1.350   7.077 -0.7212 -0.1646  1.5870
 3781SOL    HW222806   2.990   1.295   7.168  0.2520  0.7540 -0.8561
 3782SOL     OW22807   2.494   1.429  14.746  0.1451 -0.3968 -0.0167
 3782SOL    HW122808   2.564   1.370  14.773  1.2818  1.3559  0.9378
 3782SOL    HW222809   2.539   1.485  14.683 -1.2240 -2.4376 -2.8002
 3783SOL     OW22810   2.291   2.397   3.534  0.1872 -0.7448 -1.0417
 3783SOL    HW122811   2.205   2.391   3.493 -0.3042 -0.0739 -0.1163
 3783SOL    HW222812   2.271   2.386   3.627  1.0330  1.9290 -0.5302
 3784SOL     OW22813   0.240   0.775   6.685 -0.5924  0.0557  0.2378
 3784SOL    HW122814   0.229   0.810   6.774  0.1992 -4.5695  2.1188
 3784SOL    HW222815   0.261   0.856   6.638  2.0546 -0.6477  0.2433
 3785SOL     OW22816   2.935   2.839  14.134  0.1229 -0.0820  0.4173
 3785SOL    HW122817   2.996   2.800  14.196  0.8033  0.2259 -0.0550
 3785SOL    HW222818   2.850   2.819  14.174 -0.2441  2.6755  1.0291
 3786SOL     OW22819   3.646   2.163   0.875 -0.0975  0.5375  0.0611
 3786SOL    HW122820   3.628   2.256   0.865  0.7560  0.7594  0.6472
 3786SOL    HW222821   3.581   2.134   0.811 -2.4569  2.7687  1.4361
 3787SOL     OW22822   2.221   0.339  16.322 -0.1837 -0.1879  0.4497
 3787SOL    HW122823   2.257   0.268  16.375  0.6494 -0.0191  0.1114
 3787SOL    HW222824   2.303   0.374  16.287 -0.8746  1.2770  0.2799
 3788SOL     OW22825   4.459   3.762  12.673  0.7677  0.5854  0.2588
 3788SOL    HW122826   4.429   3.823  12.605 -0.2732  0.8248  0.9315
 3788SOL    HW222827   4.476   3.683  12.621 -0.1582  0.4265  0.1938
 3789SOL     OW22828   3.450   1.771   8.662  0.0962  0.5117  0.1205
 3789SOL    HW122829   3.430   1.679   8.643  0.0412  0.5916 -0.2151
 3789SOL    HW222830   3.439   1.808   8.574  0.2751  1.2555  0.4109
 3790SOL     OW22831   1.193   3.355   9.103  0.1108  0.3100 -0.1567
 3790SOL    HW122832   1.245   3.309   9.037  0.4935 -2.3907  2.0277
 3790SOL    HW222833   1.259   3.400   9.156 -1.5724 -0.8115  2.9090
 3791SOL     OW22834   1.717   2.171   7.772  0.1339  0.4320 -0.0652
 3791SOL    HW122835   1.681   2.086   7.797 -1.5640  1.5037  1.1787
 3791SOL    HW222836   1.754   2.137   7.691 -0.8912 -1.5368  0.3020
 3792SOL     OW22837   2.857   1.813  15.817  0.3884  0.1927 -0.3736
 3792SOL    HW122838   2.814   1.771  15.892 -1.7108 -0.9768 -2.2528
 3792SOL    HW222839   2.941   1.836  15.858  0.2076 -1.8955  1.1607
 3793SOL     OW22840   3.208   0.435   5.535 -0.3339 -0.3841 -0.9658
 3793SOL    HW122841   3.216   0.412   5.442  0.4463  0.7252 -1.1698
 3793SOL    HW222842   3.197   0.352   5.581 -1.7935  0.9179  1.0384
 3794SOL     OW22843   1.946   1.475   6.786  0.5805  0.4213 -0.3562
 3794SOL    HW122844   1.888   1.498   6.858 -0.2145 -2.5915 -0.0396
 3794SOL    HW222845   1.896   1.408   6.739 -2.5308  0.6449  2.7053
 3795SOL     OW22846   0.592   4.028   2.449 -0.3832  0.1746  0.4305
 3795SOL    HW122847   0.606   3.949   2.397 -2.4076 -0.4534  0.8133
 3795SOL    HW222848   0.497   4.040   2.449 -0.2266  1.3702 -2.3966
 3796SOL     OW22849   4.145   4.692   3.529  0.4219  0.0970 -0.1506
 3796SOL    HW122850   4.107   4.606   3.549 -0.9856  1.4019  2.8120
 3796SOL    HW222851   4.231   4.672   3.565  0.9837 -0.0051 -1.5470
 3797SOL     OW22852   2.690   4.114   5.278 -0.3576 -0.4252 -0.3073
 3797SOL    HW122853   2.665   4.165   5.355 -0.8002 -0.2436 -0.5741
 3797SOL    HW222854   2.754   4.059   5.324 -0.2059  0.6405  0.7547
 3798SOL     OW22855   0.457   1.081   8.205  0.2044 -0.5217  0.4650
 3798SOL    HW122856   0.408   0.998   8.203  0.5625 -0.6848 -1.5713
 3798SOL    HW222857   0.487   1.087   8.114 -0.9740 -0.1933  0.1024
 3799SOL     OW22858   0.622   0.168   4.975  0.4373 -0.4021  0.1982
 3799SOL    HW122859   0.672   0.158   5.056  1.2782  2.0155 -0.0263
 3799SOL    HW222860   0.598   0.260   4.987 -0.1845 -0.2588 -2.1387
 3800SOL     OW22861   0.372   2.867  10.470  0.0374  0.5890 -0.1666
 3800SOL    HW122862   0.401   2.801  10.407 -0.7672  0.3033 -0.2402
 3800SOL    HW222863   0.365   2.942  10.411 -0.4834 -0.6413 -1.6622
 3801SOL     OW22864   1.542   2.566   1.106 -0.1188  0.4595  0.0409
 3801SOL    HW122865   1.574   2.505   1.040  2.4162  2.2163 -0.3872
 3801SOL    HW222866   1.556   2.653   1.067  0.4230  0.1662 -0.4207
 3802SOL     OW22867   3.514   3.534   4.841 -0.0928 -0.0509 -0.2158
 3802SOL    HW122868   3.426   3.556   4.872  0.1714  0.7072 -0.0003
 3802SOL    HW222869   3.570   3.599   4.884  3.3880 -1.9038 -1.9431
 3803SOL     OW22870   1.304   2.764   9.420 -0.4757 -0.2095  0.0254
 3803SOL    HW122871   1.304   2.778   9.515  0.8828  1.5817 -0.2409
 3803SOL    HW222872   1.220   2.722   9.399 -0.0137 -1.2297  0.2046
 3804SOL     OW22873   4.330   3.175   6.622  0.2449 -0.1734 -0.0043
 3804SOL    HW122874   4.409   3.149   6.575 -0.5695 -1.3631 -0.7210
 3804SOL    HW222875   4.346   3.269   6.628  2.3626 -0.5194 -0.5047
 3805SOL     OW22876   3.512   2.469   2.113 -0.0169  0.1290 -0.2645
 3805SOL    HW122877   3.471   2.448   2.029 -0.5263  3.3068 -0.8094
 3805SOL    HW222878   3.440   2.469   2.176 -0.4805  1.7033 -0.7861
 3806SOL     OW22879   3.804   0.946   5.979  0.6757  0.1144 -0.6292
 3806SOL    HW122880   3.791   1.036   6.010  1.3256  0.2388 -0.7069
 3806SOL    HW222881   3.810   0.907   6.066 -1.2687  0.5490 -0.3107
 3807SOL     OW22882   3.384   4.136   7.557 -0.1710  0.5494 -0.5354
 3807SOL    HW122883   3.475   4.146   7.583 -0.1746 -2.7362  0.8150
 3807SOL    HW222884   3.392   4.045   7.527  0.9801  0.6141 -0.4158
 3808SOL     OW22885   2.771   1.163  12.439 -0.2091 -0.4564  0.2517
 3808SOL    HW122886   2.808   1.080  12.407 -0.5519  0.1794 -1.7660
 3808SOL    HW222887   2.824   1.234  12.404 -0.5555  0.4861  1.6763
 3809SOL     OW22888   0.205   0.107   1.840  0.5389  0.1481  0.5747
 3809SOL    HW122889   0.253   0.052   1.778 -0.0206 -1.6886  1.7619
 3809SOL    HW222890   0.246   0.192   1.825 -0.8139  0.6384 -0.3614
 3810SOL     OW22891   0.183   3.079   6.998  0.1559 -0.0609  0.5012
 3810SOL    HW122892   0.191   3.159   7.049 -0.7311 -0.1252  0.7395
 3810SOL    HW222893   0.158   3.019   7.069  1.0147  0.2246  1.0467
 3811SOL     OW22894   4.249   4.545  11.552 -0.5945 -0.2020 -0.4085
 3811SOL    HW122895   4.166   4.498  11.542  0.2068 -1.9270  1.0370
 3811SOL    HW222896   4.256   4.533  11.647 -1.0522 -0.2003 -0.3753
 3812SOL     OW22897   1.593   3.417   6.633  0.2463  0.1939  0.6237
 3812SOL    HW122898   1.550   3.482   6.577  0.1591 -0.5670 -0.1927
 3812SOL    HW222899   1.553   3.335   6.605  0.8996 -0.5842  1.9460
 3813SOL     OW22900   1.341   3.041   0.846  0.1710 -0.0984 -0.0646
 3813SOL    HW122901   1.273   3.071   0.786 -1.0301  0.8337  1.7603
 3813SOL    HW222902   1.328   3.086   0.930  2.1955 -0.8004  0.6362
 3814SOL     OW22903   3.243   0.792  10.301 -0.3116 -0.0774  0.2330
 3814SOL    HW122904   3.264   0.868  10.355 -0.6015  0.8987 -1.0135
 3814SOL    HW222905   3.311   0.796  10.234  0.7721  0.2195  1.3486
 3815SOL     OW22906   1.532   2.488   3.728  0.4217 -0.1528  0.3236
 3815SOL    HW122907   1.605   2.467   3.670  0.5970  0.1529  0.4352
 3815SOL    HW222908   1.464   2.513   3.665  0.1656  0.6290  0.9175
 3816SOL     OW22909   0.093   1.126   5.294  0.4161  0.3654  0.7684
 3816SOL    HW122910   0.147   1.203   5.274  1.2508 -0.5507 -0.4673
 3816SOL    HW222911   0.146   1.088   5.364  0.0449 -0.7965  0.4213
 3817SOL     OW22912   2.107   1.177  10.747 -0.2977 -0.4274  0.3453
 3817SOL    HW122913   2.127   1.131  10.829  1.6815 -2.0951 -1.1109
 3817SOL    HW222914   2.139   1.264  10.773  0.9761 -0.5080 -1.0326
 3818SOL     OW22915   3.939   2.251   6.113 -0.5217  0.3647  0.5045
 3818SOL    HW122916   3.965   2.237   6.022  2.1061  0.0110  1.3146
 3818SOL    HW222917   4.029   2.267   6.141 -0.1722  2.0335 -1.6246
 3819SOL     OW22918   2.685   2.889   7.159 -0.0952 -0.7045  0.1160
 3819SOL    HW122919   2.719   2.934   7.236 -2.7443  0.3851  0.6447
 3819SOL    HW222920   2.720   2.939   7.085  1.9382 -0.1136  1.4742
 3820SOL     OW22921   1.175   3.533   2.978 -0.1530 -0.4839  0.1086
 3820SOL    HW122922   1.229   3.606   2.949 -0.0293 -1.0803 -1.1537
 3820SOL    HW222923   1.237   3.487   3.036 -0.4779  2.1034  2.5150
 3821SOL     OW22924   3.283   3.533   3.398  0.1786 -0.6585  0.1728
 3821SOL    HW122925   3.334   3.461   3.361  0.1919 -1.0264  0.8926
 3821SOL    HW222926   3.191   3.522   3.372  0.2091  0.2612 -0.3169
 3822SOL     OW22927   3.978   2.060   3.065 -0.8751 -0.4881 -0.3710
 3822SOL    HW122928   3.957   2.083   3.155 -1.7334 -0.8452 -0.4812
 3822SOL    HW222929   3.934   2.127   3.013  1.8177  2.2535  0.8837
 3823SOL     OW22930   0.256   0.326   5.093 -0.1924  0.1065 -0.2136
 3823SOL    HW122931   0.212   0.387   5.033  0.1920  2.1370  1.5870
 3823SOL    HW222932   0.260   0.246   5.040 -1.1520  0.1814 -0.3958
 3824SOL     OW22933   4.523   3.159   5.916  0.0852  0.4262 -0.5595
 3824SOL    HW122934   4.617   3.143   5.931  0.1416  0.9011 -0.4207
 3824SOL    HW222935   4.527   3.141   5.822 -1.5556  0.0487 -0.5549
 3825SOL     OW22936   3.320   4.668   5.520  0.4294  0.3598  0.2113
 3825SOL    HW122937   3.353   0.030   5.509 -0.1779  0.7208  1.2331
 3825SOL    HW222938   3.290   4.676   5.611  2.2664 -0.2448  0.8602
 3826SOL     OW22939   1.814   0.249   9.044 -0.1090 -0.1838  0.0054
 3826SOL    HW122940   1.791   0.181   9.107  0.9907 -0.7981 -0.2505
 3826SOL    HW222941   1.736   0.266   8.990 -0.5509  2.2697  1.4582
 3827SOL     OW22942   0.922   0.033  10.203  0.2093 -0.4745  0.2356
 3827SOL    HW122943   0.866   0.039  10.281  0.7019  2.5534  0.3756
 3827SOL    HW222944   0.989   0.091  10.239  0.0324  0.7111 -1.3493
 3828SOL     OW22945   1.934   2.966   5.761 -0.0672 -0.0053  0.4023
 3828SOL    HW122946   1.930   2.886   5.812  1.2257 -0.0923  0.3765
 3828SOL    HW222947   1.876   2.941   5.689  0.8437  2.1733 -1.1217
 3829SOL     OW22948   1.620   2.867   6.069  0.2733 -0.2944 -0.1736
 3829SOL    HW122949   1.680   2.938   6.048  0.2461 -0.0607  0.5623
 3829SOL    HW222950   1.542   2.923   6.064  0.8566  0.4795 -0.5617
 3830SOL     OW22951   2.582   3.815   0.162  0.4024  0.2420  0.2363
 3830SOL    HW122952   2.579   3.905   0.192  1.2194  0.9631 -1.8587
 3830SOL    HW222953   2.487   3.799   0.162  0.4334  0.0500  0.1546
 3831SOL     OW22954   3.216   3.329   6.546  0.0991 -0.4983 -0.1015
 3831SOL    HW122955   3.217   3.235   6.529  1.0295 -0.2734 -1.3405
 3831SOL    HW222956   3.123   3.348   6.559  0.3489  1.0413 -0.4668
 3832SOL     OW22957   3.884   2.720   2.025  0.2485  0.0195 -0.3346
 3832SOL    HW122958   3.828   2.721   1.947  0.7679 -1.8403 -0.7234
 3832SOL    HW222959   3.817   2.708   2.092  0.2009  1.5631 -0.1083
 3833SOL     OW22960   0.903   2.635   0.955 -1.0075  0.1257  0.4477
 3833SOL    HW122961   0.842   2.562   0.943 -1.1106 -0.3333  3.8040
 3833SOL    HW222962   0.966   2.605   1.020 -0.2961  0.2914 -0.1646
 3834SOL     OW22963   3.619   0.906  12.529  0.1171  0.4775 -0.5046
 3834SOL    HW122964   3.686   0.862  12.580 -0.3274  0.6148  0.1989
 3834SOL    HW222965   3.542   0.881  12.580  0.1243  0.9225 -0.2689
 3835SOL     OW22966   2.151   0.334   9.695 -0.2062 -0.4034  0.5710
 3835SOL    HW122967   2.209   0.270   9.737  2.3834  0.7951 -1.1771
 3835SOL    HW222968   2.088   0.348   9.766  0.2331 -2.4377  1.3626
 3836SOL     OW22969   1.041   0.042   5.358 -0.0780  0.2142 -0.7312
 3836SOL    HW122970   1.115   0.005   5.406  0.1304 -0.2321 -1.4005
 3836SOL    HW222971   0.984   4.694   5.376 -0.4490  0.5017 -0.6999
 3837SOL     OW22972   4.498   2.264   5.244  0.0398 -0.4569  0.2845
 3837SOL    HW122973   4.489   2.233   5.335 -3.7948  0.8025  0.3569
 3837SOL    HW222974   4.593   2.270   5.245 -0.2230  3.1784  0.8155
 3838SOL     OW22975   0.908   2.791   9.307 -0.0657 -0.7705  0.4193
 3838SOL    HW122976   0.817   2.763   9.303 -0.3858  0.4693 -0.7020
 3838SOL    HW222977   0.911   2.878   9.269 -0.8448 -1.4492 -1.1699
 3839SOL     OW22978   2.362   3.829   2.773 -0.0646 -0.3073  0.2584
 3839SOL    HW122979   2.307   3.896   2.812 -0.0838 -2.0580  3.2326
 3839SOL    HW222980   2.342   3.749   2.822 -0.9101 -1.2037 -1.5526
 3840SOL     OW22981   1.224   1.520   5.341 -0.2130 -0.2381  0.2916
 3840SOL    HW122982   1.209   1.568   5.423  2.0425  0.2173  0.4615
 3840SOL    HW222983   1.176   1.438   5.353 -0.9772  0.1632 -0.0768
 3841SOL     OW22984   4.682   0.174   2.887  0.3560  0.2579 -0.3562
 3841SOL    HW122985   4.709   0.083   2.870  2.2452  0.8636 -0.6189
 3841SOL    HW222986   0.029   0.221   2.848 -0.3476 -0.0422 -2.0286
 3842SOL     OW22987   2.758   2.296   9.189  0.1458  0.3439 -0.5796
 3842SOL    HW122988   2.776   2.234   9.118 -1.2981 -0.6851 -0.0528
 3842SOL    HW222989   2.785   2.382   9.158  1.4164  0.1723  0.0676
 3843SOL     OW22990   3.585   4.398   7.027 -0.4897  0.3953  0.2314
 3843SOL    HW122991   3.577   4.382   6.933  2.2983 -0.5692  0.1657
 3843SOL    HW222992   3.680   4.402   7.040 -0.8426  3.6337  1.9494
 3844SOL     OW22993   0.469   0.205   2.787  0.2681  0.4531 -0.7271
 3844SOL    HW122994   0.378   0.177   2.794 -0.8976  4.2482 -0.9259
 3844SOL    HW222995   0.462   0.289   2.742  0.7897 -0.1626 -1.9750
 3845SOL     OW22996   3.892   0.333   7.950  0.1014  0.0518 -0.3682
 3845SOL    HW122997   3.983   0.308   7.935  0.0250 -0.2133 -0.3769
 3845SOL    HW222998   3.888   0.424   7.920  2.2032  0.4761  0.5942
 3846SOL     OW22999   4.721   4.568  14.625 -0.0514  0.8573 -0.2419
 3846SOL    HW123000   0.067   4.553  14.686  0.1335 -0.5432 -0.7956
 3846SOL    HW223001   0.049   4.614  14.562  0.4822  0.4525 -0.0750
 3847SOL     OW23002   1.400   4.097   6.885  0.2607 -0.4963 -0.1850
 3847SOL    HW123003   1.496   4.096   6.882  0.2744 -0.2369  0.1263
 3847SOL    HW223004   1.384   4.020   6.939 -0.6109 -0.7872 -0.8561
 3848SOL     OW23005   1.780   4.409  12.303  0.1107 -0.0276 -0.0905
 3848SOL    HW123006   1.852   4.412  12.240  1.6964 -0.8254  1.6672
 3848SOL    HW223007   1.735   4.485  12.266  0.9934 -0.0926 -1.3105
 3849SOL     OW23008   0.719   0.205   9.399 -0.1530 -0.1104 -0.0277
 3849SOL    HW123009   0.688   0.117   9.424  2.2416 -1.5771 -2.2819
 3849SOL    HW223010   0.636   0.251   9.387 -1.4535 -2.4301 -0.1073
 3850SOL     OW23011   0.009   4.339  15.439 -0.6245  0.5428  0.3675
 3850SOL    HW123012   0.028   4.431  15.423  1.0959  0.1106  0.0160
 3850SOL    HW223013   4.644   4.341  15.467 -1.0541  1.3964 -1.1004
 3851SOL     OW23014   0.018   1.609   4.238 -0.3013 -0.0022 -0.4462
 3851SOL    HW123015   4.679   1.661   4.283 -0.5832  0.4862 -1.4360
 3851SOL    HW223016   4.689   1.558   4.180 -0.6170  1.1003 -1.0928
 3852SOL     OW23017   4.589   0.691   4.190  0.3757  1.0881 -0.0834
 3852SOL    HW123018   4.595   0.631   4.116 -1.1189  1.9912 -0.9351
 3852SOL    HW223019   4.542   0.638   4.254  2.5008 -2.1549 -1.2282
 3853SOL     OW23020   1.277   2.592   5.657 -0.4877  0.2203 -0.3810
 3853SOL    HW123021   1.335   2.650   5.706  2.9550 -3.4609 -0.0900
 3853SOL    HW223022   1.230   2.538   5.720 -1.5030  0.4794 -0.9161
 3854SOL     OW23023   4.599   3.688  14.307 -0.1334 -0.0533 -0.1047
 3854SOL    HW123024   4.672   3.726  14.356 -0.1971 -1.5687  1.1801
 3854SOL    HW223025   4.528   3.743  14.343  0.6362  1.3662 -0.7639
 3855SOL     OW23026   3.941   3.515   2.463  0.1444  0.1202 -0.0632
 3855SOL    HW123027   3.966   3.423   2.463  1.5326  0.5032 -0.8435
 3855SOL    HW223028   4.013   3.558   2.508 -0.4586 -0.2527  1.2555
 3856SOL     OW23029   0.325   1.261   6.151 -0.6563  0.2505  0.4676
 3856SOL    HW123030   0.406   1.226   6.188 -0.5152  0.0913  0.0002
 3856SOL    HW223031   0.284   1.176   6.135 -1.0048  0.7474 -1.2859
 3857SOL     OW23032   1.747   3.036   8.857  0.6649 -0.3778 -0.4324
 3857SOL    HW123033   1.739   3.114   8.912 -0.5731 -0.3310 -0.6807
 3857SOL    HW223034   1.678   2.984   8.898  0.3691  1.7116  1.7271
 3858SOL     OW23035   0.450   2.627   6.481  0.1263  0.3249  0.5601
 3858SOL    HW123036   0.486   2.704   6.527  2.0229  0.4142 -1.0810
 3858SOL    HW223037   0.517   2.559   6.480 -0.2170 -0.0354  1.4003
 3859SOL     OW23038   2.145   4.300   7.693  0.1498 -0.2451 -0.1866
 3859SOL    HW123039   2.231   4.259   7.701 -0.6801 -2.1830 -1.2091
 3859SOL    HW223040   2.092   4.229   7.657 -0.4410  0.5414 -0.8718
 3860SOL     OW23041   4.325   0.075   8.639  0.2102 -0.4551  0.1549
 3860SOL    HW123042   4.252   0.137   8.638  0.1095 -0.5857 -0.9159
 3860SOL    HW223043   4.401   0.124   8.608 -1.1191  0.5135 -1.5608
 3861SOL     OW23044   3.977   1.832   8.105  0.0176 -0.1475 -0.0049
 3861SOL    HW123045   3.908   1.797   8.161  0.9638  0.5655  1.6349
 3861SOL    HW223046   3.947   1.809   8.017  0.4326  1.4125 -0.5582
 3862SOL     OW23047   3.228   2.129   4.221  0.1066 -0.5334 -0.0439
 3862SOL    HW123048   3.135   2.112   4.237 -0.3345  1.6558 -0.3045
 3862SOL    HW223049   3.233   2.145   4.127 -0.2350  0.3920  0.0993
 3863SOL     OW23050   0.829   3.743   7.149 -0.1050 -0.1257 -0.2780
 3863SOL    HW123051   0.880   3.691   7.211  0.2488 -0.6387 -0.9999
 3863SOL    HW223052   0.812   3.819   7.205  4.1671 -1.8044  3.2491
 3864SOL     OW23053   0.035   1.594   8.646 -0.7704 -0.3713  0.4483
 3864SOL    HW123054   0.105   1.528   8.640  0.0623  0.8495 -3.4674
 3864SOL    HW223055   0.004   1.574   8.734  0.1597 -1.4491  0.5347
 3865SOL     OW23056   2.657   3.085  14.439 -0.0748 -0.0264  0.2776
 3865SOL    HW123057   2.689   3.115  14.354  3.1939  0.1995  1.6120
 3865SOL    HW223058   2.720   3.108  14.506 -0.2722 -2.7483  1.3964
 3866SOL     OW23059   2.231   1.213  11.205 -0.9726  0.5566 -0.0656
 3866SOL    HW123060   2.226   1.269  11.282 -2.2312  0.1693  0.1340
 3866SOL    HW223061   2.324   1.227  11.185 -1.0329  0.7914 -0.1817
 3867SOL     OW23062   4.139   3.544   7.684 -0.1742  0.3170  0.8316
 3867SOL    HW123063   4.164   3.589   7.765  2.8779  0.9498 -0.4861
 3867SOL    HW223064   4.153   3.611   7.618 -1.4221  0.6292  0.8837
 3868SOL     OW23065   2.671   0.993   5.654 -0.3604  0.0015 -0.2726
 3868SOL    HW123066   2.740   0.955   5.707  0.3573 -2.0376 -2.6432
 3868SOL    HW223067   2.713   0.976   5.569 -1.5641 -1.8434 -0.4851
 3869SOL     OW23068   2.862   2.914   4.488  0.5234 -0.1612  0.1473
 3869SOL    HW123069   2.921   2.878   4.423  0.0813 -0.3850 -0.1248
 3869SOL    HW223070   2.863   2.851   4.560  3.5791  0.5094  0.6808
 3870SOL     OW23071   3.532   1.480   3.489 -0.0795 -0.0663  0.6357
 3870SOL    HW123072   3.557   1.570   3.510  0.1100  0.1324 -0.4622
 3870SOL    HW223073   3.597   1.424   3.532 -1.5102 -1.1350  1.4080
 3871SOL     OW23074   1.418   1.370   2.628 -0.1912  0.1780  0.0385
 3871SOL    HW123075   1.437   1.337   2.716  1.4006 -0.7788 -0.6642
 3871SOL    HW223076   1.390   1.460   2.643 -0.3598  0.4070 -1.6943
 3872SOL     OW23077   0.464   1.868   6.792  0.3223  0.1902  0.7412
 3872SOL    HW123078   0.439   1.784   6.753  0.6775 -0.2562  1.4739
 3872SOL    HW223079   0.476   1.919   6.712 -0.2551  0.0345  0.5560
 3873SOL     OW23080   4.540   4.224   7.584  0.0409  0.0926  0.0334
 3873SOL    HW123081   4.454   4.264   7.578 -0.3616 -0.7169  0.5092
 3873SOL    HW223082   4.526   4.133   7.558  0.4140 -0.7457  2.8539
 3874SOL     OW23083   1.948   1.216   0.168 -0.5360  0.3174  0.2654
 3874SOL    HW123084   1.921   1.182   0.082  0.6704 -1.5356  0.6110
 3874SOL    HW223085   1.889   1.174   0.231 -0.0217 -0.2952  0.3413
 3875SOL     OW23086   4.602   3.590   3.706  0.2453  0.3149 -0.4753
 3875SOL    HW123087   4.675   3.609   3.646 -1.4752  0.1118 -2.6134
 3875SOL    HW223088   4.552   3.540   3.642 -0.9257 -2.0048  2.2800
 3876SOL     OW23089   4.672   4.276   9.671  0.0653  0.2517 -0.2615
 3876SOL    HW123090   4.612   4.321   9.611 -0.3629 -0.5709 -0.4513
 3876SOL    HW223091   0.027   4.319   9.647  1.4586 -1.6226  1.1517
 3877SOL     OW23092   1.636   3.081  15.713 -0.8336 -0.0572  0.4638
 3877SOL    HW123093   1.570   3.141  15.677 -0.9012  1.1409  2.6189
 3877SOL    HW223094   1.631   3.002  15.659 -0.8955  0.4192 -0.2266
 3878SOL     OW23095   2.804   3.228  12.486 -0.2927 -0.0936  0.4584
 3878SOL    HW123096   2.822   3.234  12.392  0.7986 -0.3327  0.6529
 3878SOL    HW223097   2.712   3.199  12.479  0.1869 -1.8101  1.2328
 3879SOL     OW23098   2.355   1.877  16.565  0.2846 -0.3057  0.1732
 3879SOL    HW123099   2.284   1.922  16.520  1.9725  2.8472  0.6958
 3879SOL    HW223100   2.430   1.922  16.526 -0.9060  1.4443 -0.0367
 3880SOL     OW23101   3.609   0.842   8.379  0.3466  0.3853  0.2209
 3880SOL    HW123102   3.690   0.893   8.380  0.7691 -0.2795  0.1064
 3880SOL    HW223103   3.556   0.881   8.309 -0.7754  1.6689  1.7697
 3881SOL     OW23104   3.114   2.539   5.157 -0.2003 -0.4208  0.5296
 3881SOL    HW123105   3.154   2.577   5.235 -1.1331  1.2516  0.1962
 3881SOL    HW223106   3.020   2.554   5.172  0.0179  1.7950 -0.3916
 3882SOL     OW23107   4.572   4.260   5.581  0.7741  0.0484  0.0287
 3882SOL    HW123108   4.503   4.193   5.584  1.7747 -0.9384  0.9307
 3882SOL    HW223109   4.638   4.212   5.532  1.2949  3.0456 -2.2392
 3883SOL     OW23110   0.260   1.730   3.460 -0.4309  0.0743 -0.0521
 3883SOL    HW123111   0.165   1.731   3.475 -0.1380  1.6563  1.6622
 3883SOL    HW223112   0.276   1.776   3.378 -1.9493  0.9454  0.1282
 3884SOL     OW23113   3.872   4.645   7.318  0.3419  0.0164 -0.3336
 3884SOL    HW123114   3.954   4.682   7.284  0.2799  0.8045  0.3591
 3884SOL    HW223115   3.819   4.655   7.239 -0.8312 -3.8999  0.0010
 3885SOL     OW23116   3.495   3.386   2.784  0.1375  0.3887  0.2724
 3885SOL    HW123117   3.575   3.426   2.819 -0.2358  1.1281  0.2676
 3885SOL    HW223118   3.528   3.312   2.732  1.2314  1.0951 -0.0444
 3886SOL     OW23119   1.824   2.434   2.180 -0.0283  1.2820 -0.2017
 3886SOL    HW123120   1.887   2.475   2.240 -0.8418 -1.9538  2.8164
 3886SOL    HW223121   1.879   2.372   2.132  2.2890  1.8487  1.7313
 3887SOL     OW23122   0.466   3.634   9.801  0.2311  0.7578  0.3499
 3887SOL    HW123123   0.451   3.630   9.896 -1.1107 -0.1195  0.0913
 3887SOL    HW223124   0.414   3.710   9.776 -0.3249 -0.6069 -2.5646
 3888SOL     OW23125   3.829   3.984   5.981 -0.0069 -0.2322  0.4696
 3888SOL    HW123126   3.860   4.064   5.938 -1.2469  0.6862  1.3112
 3888SOL    HW223127   3.735   3.984   5.964  0.2643 -2.2283 -1.1646
 3889SOL     OW23128   3.374   1.585  15.863 -0.2840 -0.1129 -0.5814
 3889SOL    HW123129   3.314   1.579  15.937 -0.3649  0.4573 -0.6010
 3889SOL    HW223130   3.305   1.579  15.797 -2.5723  2.1659  1.6560
 3890SOL     OW23131   1.961   3.111   5.034  0.1601 -0.0853  0.0568
 3890SOL    HW123132   2.044   3.109   5.082 -1.1114  0.1292  2.2542
 3890SOL    HW223133   1.937   3.202   5.052 -1.0392 -0.4350  0.1967
 3891SOL     OW23134   3.238   3.065  11.629 -0.0801  1.1489  0.3223
 3891SOL    HW123135   3.149   3.092  11.610  0.3852  1.8128 -0.9529
 3891SOL    HW223136   3.260   3.063  11.535  0.5104 -0.5747  0.4840
 3892SOL     OW23137   1.316   4.169  16.029 -0.0974  0.2290 -0.2834
 3892SOL    HW123138   1.280   4.114  16.098 -0.5061  0.0187 -0.6614
 3892SOL    HW223139   1.238   4.192  15.979 -1.1004  0.4216  1.3665
 3893SOL     OW23140   4.181   4.021   3.985 -0.2655 -0.1624 -0.2769
 3893SOL    HW123141   4.176   4.003   4.079 -2.9575 -0.2153 -0.4470
 3893SOL    HW223142   4.164   4.115   3.982  0.5479  0.0372  1.2407
 3894SOL     OW23143   0.434   4.143   5.133  0.0800  0.1896 -0.0125
 3894SOL    HW123144   0.500   4.164   5.199 -0.7230  0.2847  0.7598
 3894SOL    HW223145   0.438   4.047   5.132 -0.6789  0.1535  1.9975
 3895SOL     OW23146   0.202   1.461   1.642 -0.2190  0.2933 -0.3352
 3895SOL    HW123147   0.107   1.463   1.644 -0.2519  0.2097 -2.0219
 3895SOL    HW223148   0.225   1.508   1.722  0.0555  0.8441 -0.7388
 3896SOL     OW23149   1.289   2.945   5.701 -0.9438 -0.0025  0.1527
 3896SOL    HW123150   1.197   2.919   5.705 -0.3689 -2.2666 -1.2356
 3896SOL    HW223151   1.291   2.963   5.607  4.0811  1.9446  0.6135
 3897SOL     OW23152   1.694   0.530   4.073  0.1323  0.5607 -0.2640
 3897SOL    HW123153   1.703   0.439   4.103 -0.2626  0.2208 -1.1824
 3897SOL    HW223154   1.617   0.523   4.017 -0.0065  1.5858 -0.2079
 3898SOL     OW23155   2.206   3.091  12.258  0.3535 -0.1224  0.0413
 3898SOL    HW123156   2.114   3.071  12.244 -0.0102  1.2484  0.4438
 3898SOL    HW223157   2.235   3.065  12.171  0.4213 -0.0740  0.0494
 3899SOL     OW23158   3.366   0.603  16.826  0.2573  0.1731  0.3060
 3899SOL    HW123159   3.316   0.523  16.841 -0.5102  0.0904 -2.6432
 3899SOL    HW223160   3.329   0.645  16.748  0.5954  1.3322  0.7558
 3900SOL     OW23161   1.570   3.035   2.805 -0.5756  0.0831  0.0427
 3900SOL    HW123162   1.634   3.003   2.868 -0.8667 -0.5899 -0.0044
 3900SOL    HW223163   1.538   2.962   2.753 -1.2299  0.6083 -0.3040
 3901SOL     OW23164   4.499   4.498  14.803  0.0509  0.3891 -0.1901
 3901SOL    HW123165   4.468   4.433  14.740 -1.6765 -0.9864  2.1026
 3901SOL    HW223166   4.572   4.547  14.764 -0.4685  1.7544  0.5464
 3902SOL     OW23167   0.504   3.286   3.789 -0.0260  0.0293  0.5247
 3902SOL    HW123168   0.476   3.326   3.707 -0.3917  0.7537  1.0127
 3902SOL    HW223169   0.598   3.289   3.772 -0.0072 -2.5777  0.0897
 3903SOL     OW23170   3.861   4.485   0.695  0.1773 -0.7886 -0.2270
 3903SOL    HW123171   3.794   4.553   0.700  2.6411  1.7110 -1.1398
 3903SOL    HW223172   3.908   4.487   0.778  1.2572 -1.2782 -0.8287
 3904SOL     OW23173   3.997   2.095   3.326  0.3645 -0.2716  0.0067
 3904SOL    HW123174   4.072   2.096   3.386  1.8234  0.1209 -1.8367
 3904SOL    HW223175   3.927   2.092   3.391  0.0839 -1.9768 -0.3881
 3905SOL     OW23176   3.863   1.103   7.463 -0.2054  0.1828  0.2181
 3905SOL    HW123177   3.953   1.136   7.468 -0.1446 -0.2236  1.7726
 3905SOL    HW223178   3.827   1.171   7.405 -0.8707 -0.7845 -0.5041
 3906SOL     OW23179   4.304   1.842   5.636 -0.1647 -0.2957  0.2744
 3906SOL    HW123180   4.396   1.828   5.614  0.6244  1.2348  2.5243
 3906SOL    HW223181   4.276   1.914   5.579  0.9193 -0.8616 -0.9498
 3907SOL     OW23182   2.639   4.519   3.432  0.3027 -0.0952  0.4595
 3907SOL    HW123183   2.629   4.430   3.467 -0.6542 -0.6759 -1.2989
 3907SOL    HW223184   2.651   4.566   3.515  1.0806  1.1218 -0.3416
 3908SOL     OW23185   3.408   4.037   0.506  0.2607 -0.2178 -0.6475
 3908SOL    HW123186   3.376   4.027   0.416  1.5056 -0.4801 -1.0594
 3908SOL    HW223187   3.331   4.079   0.546  0.4835  0.2597 -0.7164
 3909SOL     OW23188   3.075   4.406  12.420  0.3466  0.4546  0.9111
 3909SOL    HW123189   3.065   4.440  12.331  0.3330 -0.5406  0.5286
 3909SOL    HW223190   2.982   4.402  12.443  0.2281 -0.7035  0.2288
 3910SOL     OW23191   3.273   3.492  12.133  0.3536 -0.7338  0.5385
 3910SOL    HW123192   3.306   3.473  12.045 -0.1084 -1.1269  0.4510
 3910SOL    HW223193   3.185   3.517  12.103  1.1847 -0.0764 -1.3739
 3911SOL     OW23194   4.590   4.642   0.409  0.2320 -0.3537  0.4330
 3911SOL    HW123195   4.621   4.567   0.459  1.4514 -0.0817  0.0863
 3911SOL    HW223196   4.653   4.657   0.338  0.5964 -0.9883  0.6174
 3912SOL     OW23197   4.090   2.602  13.754  0.4197 -0.1230 -0.1619
 3912SOL    HW123198   4.184   2.588  13.741  0.4682 -1.1500  1.3275
 3912SOL    HW223199   4.043   2.519  13.747 -1.7989  1.1077 -0.1219
 3913SOL     OW23200   3.684   0.474   9.817  0.3967 -0.3489  0.6197
 3913SOL    HW123201   3.646   0.445   9.734 -0.9679  0.7970  0.8501
 3913SOL    HW223202   3.776   0.487   9.793  0.1573 -1.7628 -1.0150
 3914SOL     OW23203   4.715   1.528   7.986 -0.8946 -0.1279 -0.8876
 3914SOL    HW123204   4.629   1.499   8.018  0.0781 -0.9630  0.9748
 3914SOL    HW223205   0.021   1.555   8.071  0.5816 -0.6209 -1.3077
 3915SOL     OW23206   3.640   4.641   6.387 -0.3522 -1.0215  0.5643
 3915SOL    HW123207   3.564   4.646   6.444 -0.6392  3.2299 -0.2122
 3915SOL    HW223208   3.608   4.699   6.318  2.2263  0.2651  0.4397
 3916SOL     OW23209   3.177   2.584   3.181  0.0729 -0.6539 -0.3445
 3916SOL    HW123210   3.099   2.627   3.146  0.9633  0.9717 -0.3361
 3916SOL    HW223211   3.139   2.520   3.241  0.6318 -0.5472  0.1280
 3917SOL     OW23212   1.921   2.027   2.985  0.4680 -0.0177  0.1302
 3917SOL    HW123213   1.904   2.013   3.078  1.8790  3.2888  0.8949
 3917SOL    HW223214   2.005   2.073   2.980 -0.4242  1.7850  1.7563
 3918SOL     OW23215   1.223   1.054   8.145 -0.0218  0.5718  0.1078
 3918SOL    HW123216   1.257   0.995   8.077 -2.0345  0.1174 -0.4866
 3918SOL    HW223217   1.131   1.031   8.160 -0.2447  1.2532 -0.2317
 3919SOL     OW23218   0.458   2.797   2.430  0.0827 -0.4224  0.9530
 3919SOL    HW123219   0.375   2.754   2.406 -0.8988  0.7078  2.3237
 3919SOL    HW223220   0.432   2.850   2.505 -0.0675  1.8871 -0.7240
 3920SOL     OW23221   2.671   1.053   1.189  0.3583 -0.2249  0.4170
 3920SOL    HW123222   2.705   0.964   1.195  1.9809  0.5370  2.6658
 3920SOL    HW223223   2.739   1.106   1.230  0.9782 -0.5997 -0.1339
 3921SOL     OW23224   2.430   1.168   2.024 -0.0030 -0.7545  0.1690
 3921SOL    HW123225   2.365   1.164   2.094 -0.9080  1.8886 -0.5416
 3921SOL    HW223226   2.404   1.237   1.964  0.0015 -1.5017 -0.6938
 3922SOL     OW23227   4.565   1.069  13.306 -0.0548 -0.0320 -0.0682
 3922SOL    HW123228   4.469   1.066  13.308 -0.0246 -0.9073  0.2804
 3922SOL    HW223229   4.580   1.061  13.401  1.1381 -0.2588 -0.2767
 3923SOL     OW23230   0.007   3.670  12.872 -0.0710  0.2971 -0.3940
 3923SOL    HW123231   0.017   3.588  12.823  2.0052 -0.4119  1.2241
 3923SOL    HW223232   4.638   3.673  12.885  0.0779  1.9448  0.3579
 3924SOL     OW23233   1.715   3.187   5.576  0.1891 -0.8437 -0.8415
 3924SOL    HW123234   1.624   3.172   5.603  1.0294 -1.1075  1.8738
 3924SOL    HW223235   1.742   3.099   5.554 -0.5447 -2.1025  3.2192
 3925SOL     OW23236   1.608   0.250   2.096  0.0265 -0.1091 -0.2868
 3925SOL    HW123237   1.518   0.219   2.082  0.6985 -1.9080 -0.6564
 3925SOL    HW223238   1.658   0.183   2.050  0.7072  0.4032 -0.2927
 3926SOL     OW23239   3.801   0.665  10.685  0.0486  0.2712  0.0650
 3926SOL    HW123240   3.813   0.725  10.759  0.4964  1.8683 -1.3177
 3926SOL    HW223241   3.715   0.689  10.651 -0.2229 -1.0987 -0.2378
 3927SOL     OW23242   4.483   4.570   3.142 -0.0852 -0.3297 -0.3807
 3927SOL    HW123243   4.485   4.602   3.233 -0.2408 -2.7000  0.4686
 3927SOL    HW223244   4.391   4.545   3.134 -0.5639  0.1634  3.2704
 3928SOL     OW23245   4.402   2.012   9.063  0.2058  0.3648  0.5098
 3928SOL    HW123246   4.339   2.035   9.131  0.7780  1.8319  0.5558
 3928SOL    HW223247   4.441   1.934   9.102  0.5646 -0.1953 -0.9634
 3929SOL     OW23248   3.279   2.012   7.807  0.3582 -0.5158  0.6494
 3929SOL    HW123249   3.342   2.061   7.754  1.5405  0.2242  2.7304
 3929SOL    HW223250   3.295   2.073   7.879 -1.0873  0.6472 -0.0082
 3930SOL     OW23251   3.224   4.210   3.337 -0.3147 -0.0806 -0.0681
 3930SOL    HW123252   3.309   4.203   3.294 -0.5486  0.6384 -0.6364
 3930SOL    HW223253   3.206   4.300   3.310  0.7780  0.1997  0.1558
 3931SOL     OW23254   1.510   2.131   1.589  0.0591  0.5959 -0.0309
 3931SOL    HW123255   1.565   2.146   1.512 -1.4110 -1.9309 -1.5908
 3931SOL    HW223256   1.465   2.053   1.557  0.6975 -0.1185  0.8425
 3932SOL     OW23257   3.588   0.107   2.266  0.3593  0.2746  1.4205
 3932SOL    HW123258   3.502   0.067   2.279  1.2420 -1.1904  2.7307
 3932SOL    HW223259   3.624   0.064   2.189  1.2528 -1.8683  3.0256
 3933SOL     OW23260   0.242   3.366  14.827  0.9062  0.8627 -0.3604
 3933SOL    HW123261   0.199   3.338  14.908  3.5707 -0.7460  0.5019
 3933SOL    HW223262   0.277   3.453  14.849 -1.5387  1.4449  1.2506
 3934SOL     OW23263   0.724   0.961   4.911 -0.0776  0.4093 -1.0104
 3934SOL    HW123264   0.636   0.943   4.877  0.3873  1.0758 -2.5705
 3934SOL    HW223265   0.719   1.054   4.932  2.0984  0.4997 -0.8648
 3935SOL     OW23266   0.703   3.686   6.716  1.2361  0.6577 -0.6203
 3935SOL    HW123267   0.749   3.745   6.656 -0.2004  1.1291 -1.2570
 3935SOL    HW223268   0.751   3.699   6.797 -0.2625  1.4313  0.1490
 3936SOL     OW23269   0.767   1.346   1.372  0.2166 -0.0060 -0.7991
 3936SOL    HW123270   0.853   1.363   1.412  1.4837 -1.3860 -2.9584
 3936SOL    HW223271   0.718   1.390   1.442 -1.1887 -4.3200  0.9372
 3937SOL     OW23272   4.207   0.179  15.771 -0.0325 -0.4815 -0.5541
 3937SOL    HW123273   4.164   0.179  15.686 -2.4839  4.0796  0.7384
 3937SOL    HW223274   4.268   0.251  15.758 -1.7168  0.8591 -0.9814
 3938SOL     OW23275   2.403   2.837  11.755 -0.0359  0.3499 -0.1465
 3938SOL    HW123276   2.487   2.793  11.767  0.0091  0.4075 -0.2429
 3938SOL    HW223277   2.431   2.929  11.750  0.0049  0.3754  0.6841
 3939SOL     OW23278   3.402   0.767   7.618  0.2716  0.3730  0.1379
 3939SOL    HW123279   3.416   0.730   7.705  2.6171 -2.2640 -1.3249
 3939SOL    HW223280   3.491   0.755   7.584  0.1944 -2.8903  1.0580
 3940SOL     OW23281   4.088   3.462  17.394  0.3319  0.1266 -0.5043
 3940SOL    HW123282   4.062   3.417  17.475 -1.4948  0.6917 -0.7654
 3940SOL    HW223283   4.182   3.444  17.396  0.2526  0.0636  2.3955
 3941SOL     OW23284   2.011   4.645   1.151 -0.0610  0.0421  0.1286
 3941SOL    HW123285   2.060   4.605   1.222  0.5391 -2.6450 -1.7939
 3941SOL    HW223286   1.994   4.564   1.102  0.9174  0.2334 -0.5361
 3942SOL     OW23287   1.852   2.344   1.327 -0.2515  0.1426 -0.1915
 3942SOL    HW123288   1.835   2.334   1.233 -3.5957  0.3180  0.3910
 3942SOL    HW223289   1.921   2.278   1.332  1.3117  1.7695 -0.4040
 3943SOL     OW23290   3.613   0.574  16.909 -0.2237  0.0071  0.0559
 3943SOL    HW123291   3.630   0.651  16.855  2.1452  0.2542  1.1530
 3943SOL    HW223292   3.518   0.574  16.895 -0.3669 -0.1927  1.0505
 3944SOL     OW23293   1.052   2.185   5.115  0.4045 -0.1261  0.1407
 3944SOL    HW123294   1.147   2.178   5.106  0.8573  2.8681  2.5632
 3944SOL    HW223295   1.025   2.095   5.098 -0.0066 -0.0617  0.4459
 3945SOL     OW23296   0.966   2.005   6.537  0.4551 -0.1535  0.2582
 3945SOL    HW123297   0.887   2.002   6.591  0.9628 -0.0119  1.0185
 3945SOL    HW223298   1.017   1.934   6.576 -1.3519 -1.3423  0.4147
 3946SOL     OW23299   4.477   4.532   5.502 -0.0382  0.3190 -0.0473
 3946SOL    HW123300   4.531   4.455   5.517 -0.1045  0.4669  0.9278
 3946SOL    HW223301   4.532   4.595   5.549  0.7890  0.0784 -0.6846
 3947SOL     OW23302   0.037   0.873   1.752  0.2549 -0.1699 -0.6088
 3947SOL    HW123303   0.018   0.967   1.757 -1.5474 -0.6244  1.5852
 3947SOL    HW223304   0.009   0.860   1.662 -0.6930  1.0433 -0.4964
 3948SOL     OW23305   0.937   2.352   2.188  0.6867 -0.4672  0.0734
 3948SOL    HW123306   0.932   2.400   2.270  1.6515  2.7849 -1.7782
 3948SOL    HW223307   0.888   2.410   2.130  0.8184 -0.7978 -0.3714
 3949SOL     OW23308   0.504   2.084  15.369 -0.0296 -0.1322  0.6294
 3949SOL    HW123309   0.538   2.057  15.283 -0.3687  2.2417 -0.2559
 3949SOL    HW223310   0.567   2.047  15.431  1.6980  1.5871 -0.0989
 3950SOL     OW23311   0.792   1.823  15.841 -0.0044 -0.2205  0.4713
 3950SOL    HW123312   0.846   1.827  15.920 -0.7066  2.6330  0.8109
 3950SOL    HW223313   0.835   1.758  15.785 -0.2710  0.4422 -0.5061
 3951SOL     OW23314   3.596   4.540   7.804 -0.1355  0.0396  0.0139
 3951SOL    HW123315   3.651   4.483   7.858 -0.8210  0.5529  1.2395
 3951SOL    HW223316   3.506   4.508   7.803 -0.4691  0.9618  0.5007
 3952SOL     OW23317   3.772   2.993   5.812 -0.2505  0.0291  0.3062
 3952SOL    HW123318   3.781   3.085   5.838  2.2754 -0.4990  1.3068
 3952SOL    HW223319   3.795   2.957   5.897 -0.7812 -1.6173 -0.2492
 3953SOL     OW23320   4.683   4.459   3.483 -0.0086 -0.0326 -0.4012
 3953SOL    HW123321   0.034   4.429   3.529 -0.8317 -1.4822  0.0679
 3953SOL    HW223322   4.620   4.452   3.555  0.8454  1.5171  0.4732
 3954SOL     OW23323   2.884   1.262   8.854 -0.1799  0.2348  0.1889
 3954SOL    HW123324   2.840   1.333   8.807 -3.3346 -1.9175 -0.0444
 3954SOL    HW223325   2.894   1.300   8.942 -0.5644 -1.3646  0.9231
 3955SOL     OW23326   0.846   1.861  16.858 -0.4968  0.2362 -0.9192
 3955SOL    HW123327   0.864   1.770  16.881 -1.9046  0.2056  0.1224
 3955SOL    HW223328   0.923   1.896  16.813 -0.1079  1.1840  0.4755
 3956SOL     OW23329   2.372   0.505   5.413 -0.0704  0.2989 -0.4098
 3956SOL    HW123330   2.356   0.597   5.391  3.0435  0.5373 -1.7027
 3956SOL    HW223331   2.365   0.510   5.508 -0.6920 -0.2427 -0.4345
 3957SOL     OW23332   2.911   1.712   2.671 -0.3928 -0.0877  0.1260
 3957SOL    HW123333   2.929   1.791   2.721 -0.7451 -1.5329  2.5343
 3957SOL    HW223334   2.992   1.664   2.685 -0.8992 -1.1626 -0.6026
 3958SOL     OW23335   1.515   2.968   1.316  0.1447 -0.4010  0.2747
 3958SOL    HW123336   1.587   3.014   1.272  0.8369 -0.3326  1.4671
 3958SOL    HW223337   1.464   3.041   1.350 -1.5933 -1.0644 -0.9230
 3959SOL     OW23338   2.399   0.212  12.244 -0.0852  0.0801 -0.3307
 3959SOL    HW123339   2.466   0.280  12.255 -0.7555  0.7084 -0.0973
 3959SOL    HW223340   2.439   0.152  12.181  0.9607  0.0902  0.3221
 3960SOL     OW23341   1.383   1.079   2.364 -0.1103 -0.3344  0.6425
 3960SOL    HW123342   1.371   1.009   2.429  0.5581  0.0525  1.1781
 3960SOL    HW223343   1.313   1.138   2.391  0.9132  1.9050 -1.6526
 3961SOL     OW23344   1.726   1.366   6.293  0.4303 -0.3922  0.4102
 3961SOL    HW123345   1.766   1.370   6.205  0.8169  3.1628  0.7276
 3961SOL    HW223346   1.725   1.459   6.316  1.8522  0.2372 -1.9834
 3962SOL     OW23347   1.443   2.264   5.974 -0.3761  0.3691 -0.3176
 3962SOL    HW123348   1.369   2.291   6.028 -0.2298 -1.5915  0.8759
 3962SOL    HW223349   1.416   2.181   5.936  1.3217 -0.7629  0.9141
 3963SOL     OW23350   2.347   4.716   4.902 -0.3938 -0.2053 -0.1889
 3963SOL    HW123351   2.387   0.041   4.971  3.0299 -0.9457 -1.6045
 3963SOL    HW223352   2.415   4.722   4.834 -0.1610 -1.2712 -0.0525
 3964SOL     OW23353   3.316   2.094   9.527 -0.1140  0.4302  0.4505
 3964SOL    HW123354   3.300   2.164   9.464  2.4692  0.4647 -0.1942
 3964SOL    HW223355   3.239   2.037   9.523  0.2109 -0.0793  1.5327
 3965SOL     OW23356   2.445   1.378  12.848 -0.3460  0.3116  0.0606
 3965SOL    HW123357   2.478   1.414  12.930 -0.8982  2.8627 -0.8417
 3965SOL    HW223358   2.519   1.360  12.790 -0.0656  0.4302  0.3778
 3966SOL     OW23359   2.654   2.068   7.838  0.2770 -0.0524 -0.6848
 3966SOL    HW123360   2.666   2.099   7.749  0.7813  2.5076  0.2740
 3966SOL    HW223361   2.721   2.119   7.883 -1.1559 -0.8093  2.3670
 3967SOL     OW23362   0.740   1.575   3.476 -0.0467 -0.0571 -0.3482
 3967SOL    HW123363   0.814   1.515   3.480  0.2106  0.0681 -3.2424
 3967SOL    HW223364   0.664   1.517   3.486 -0.3732  0.9453  3.0131
 3968SOL     OW23365   0.900   0.923   7.830  0.5524  0.2236 -0.1462
 3968SOL    HW123366   0.831   0.943   7.894 -0.4112 -2.0978 -0.4766
 3968SOL    HW223367   0.941   1.009   7.819  0.6457  0.1692 -0.2256
 3969SOL     OW23368   2.827   1.837  15.464  0.6635  0.8116  0.1048
 3969SOL    HW123369   2.866   1.779  15.399  1.1288  1.9630 -0.6403
 3969SOL    HW223370   2.782   1.786  15.531 -0.5752  0.4630 -0.9986
 3970SOL     OW23371   1.349   0.145   2.028 -0.2408 -0.8945 -0.2694
 3970SOL    HW123372   1.305   0.230   2.020  0.3855 -0.4773  0.7431
 3970SOL    HW223373   1.281   0.079   2.043  0.9389 -1.4625  2.5101
 3971SOL     OW23374   0.402   3.318   9.494  0.0234 -0.2726 -0.2432
 3971SOL    HW123375   0.339   3.268   9.546 -1.6934 -0.0374 -2.0973
 3971SOL    HW223376   0.447   3.247   9.449  3.6457  2.5944 -1.1260
 3972SOL     OW23377   0.479   0.540   7.039  0.2513 -0.0390 -0.1125
 3972SOL    HW123378   0.454   0.599   7.111  1.8077 -0.8472  1.0933
 3972SOL    HW223379   0.511   0.467   7.092  0.3357 -0.1513 -0.3193
 3973SOL     OW23380   2.861   0.381   4.845  0.1389  0.3035  0.1804
 3973SOL    HW123381   2.936   0.434   4.819  2.2071 -1.8030  1.8184
 3973SOL    HW223382   2.809   0.439   4.902  1.4276  2.1593 -0.5310
 3974SOL     OW23383   2.575   0.640   3.029 -0.2080  0.0165  0.0092
 3974SOL    HW123384   2.665   0.653   3.058 -0.6045  1.9369  0.3879
 3974SOL    HW223385   2.603   0.599   2.947  2.7047  0.1897  0.9336
 3975SOL     OW23386   1.939   2.798  14.813 -0.9296 -0.0525  0.0495
 3975SOL    HW123387   1.851   2.813  14.849 -1.8367 -2.4509 -1.1792
 3975SOL    HW223388   1.957   2.712  14.852  1.5374  1.0944  1.4389
 3976SOL     OW23389   3.155   4.222   8.647 -0.2382  0.2473 -0.2765
 3976SOL    HW123390   3.091   4.291   8.660  0.2847  0.8504 -0.9074
 3976SOL    HW223391   3.100   4.144   8.648  1.6018 -1.0654 -0.2726
 3977SOL     OW23392   2.241   4.135  13.517 -0.5387 -0.3008  0.1687
 3977SOL    HW123393   2.224   4.222  13.551 -2.4502 -0.3513 -0.6359
 3977SOL    HW223394   2.295   4.099  13.587 -0.1011 -0.7738 -0.4169
 3978SOL     OW23395   0.893   3.581   4.983 -0.2071  0.2986 -0.0094
 3978SOL    HW123396   0.972   3.551   5.027 -1.5032 -1.1583  1.3486
 3978SOL    HW223397   0.932   3.656   4.939  1.3381 -1.0677 -0.9327
 3979SOL     OW23398   2.316   2.811  15.150  0.0791  0.0429  0.0658
 3979SOL    HW123399   2.391   2.814  15.091  0.9538 -1.2196  1.0888
 3979SOL    HW223400   2.240   2.811  15.093 -1.8868 -1.7516  2.6396
 3980SOL     OW23401   3.835   1.517   9.062  0.3934 -0.6872 -0.6112
 3980SOL    HW123402   3.758   1.565   9.030  0.3707  0.9700  1.8758
 3980SOL    HW223403   3.800   1.429   9.048 -0.5694 -0.5155  0.6343
 3981SOL     OW23404   3.115   0.413  14.593 -0.3977  0.1173  0.6175
 3981SOL    HW123405   3.206   0.392  14.614 -0.7009 -1.1355  0.6771
 3981SOL    HW223406   3.073   0.327  14.593 -0.3081  0.0739 -1.8226
 3982SOL     OW23407   2.181   1.828   3.987 -0.9484 -0.3816 -0.4563
 3982SOL    HW123408   2.232   1.842   4.067 -0.2937 -0.8000 -0.7951
 3982SOL    HW223409   2.099   1.807   4.030 -1.8750 -0.3052 -2.1659
 3983SOL     OW23410   4.337   4.272   3.976 -0.0232 -1.0778 -0.2275
 3983SOL    HW123411   4.243   4.287   3.975  0.2825  1.0236  2.3230
 3983SOL    HW223412   4.355   4.273   3.882  0.4867  1.0565 -0.1059
 3984SOL     OW23413   2.733   4.356   2.387 -0.0515  0.2171  0.3030
 3984SOL    HW123414   2.669   4.328   2.320  1.3091  0.6239 -1.1667
 3984SOL    HW223415   2.793   4.410   2.335  0.9211  2.0939  3.4110
 3985SOL     OW23416   2.987   2.125   2.484  0.1466  0.2793 -0.0759
 3985SOL    HW123417   3.006   2.140   2.576 -2.2373  0.5631  0.3763
 3985SOL    HW223418   2.903   2.079   2.492 -0.0419 -0.0830 -3.9292
 3986SOL     OW23419   2.981   0.317  13.744 -0.1529 -0.2557  0.4986
 3986SOL    HW123420   3.056   0.260  13.728 -0.8487 -0.2650 -2.6711
 3986SOL    HW223421   2.928   0.276  13.813 -1.0152  0.5585  0.3302
 3987SOL     OW23422   0.162   3.875   6.577  0.1137 -0.3053  0.4986
 3987SOL    HW123423   0.135   3.888   6.486 -2.8264 -0.0342  1.3783
 3987SOL    HW223424   0.256   3.872   6.564 -0.2205 -1.4168 -1.5132
 3988SOL     OW23425   2.629   1.013   3.886 -0.1653 -0.1074  0.2688
 3988SOL    HW123426   2.680   0.977   3.814 -1.3970 -1.8505  0.2529
 3988SOL    HW223427   2.594   1.088   3.838 -0.1864 -1.5802 -2.0545
 3989SOL     OW23428   4.267   4.572   4.322  0.0871  0.0921 -0.2389
 3989SOL    HW123429   4.240   4.514   4.393 -0.2930  0.3827 -0.1393
 3989SOL    HW223430   4.355   4.597   4.349 -0.1878 -0.5325  1.2474
 3990SOL     OW23431   4.227   3.549  12.278 -0.0742  0.5432  0.0450
 3990SOL    HW123432   4.249   3.617  12.215  3.4356 -0.7967 -0.1565
 3990SOL    HW223433   4.280   3.471  12.260 -2.3855 -1.2605  0.9876
 3991SOL     OW23434   3.974   0.931   4.756  0.1701  0.3210 -0.1551
 3991SOL    HW123435   4.015   0.987   4.690  1.3586  1.8808  1.9315
 3991SOL    HW223436   3.950   0.851   4.708  3.1950 -0.1293 -0.8832
 3992SOL     OW23437   2.569   0.020   5.297  0.8514 -0.2153 -0.2389
 3992SOL    HW123438   2.640   4.705   5.345 -0.8043 -1.0556  1.4765
 3992SOL    HW223439   2.508   4.679   5.267 -0.7364  0.8253  0.6592
 3993SOL     OW23440   2.024   0.858   3.923 -0.2461  0.4667  0.0606
 3993SOL    HW123441   1.929   0.868   3.926 -0.3505 -0.3514 -0.4520
 3993SOL    HW223442   2.041   0.849   4.017 -0.3999  2.0070  0.2335
 3994SOL     OW23443   2.846   2.798   5.785 -0.3396 -0.0478 -0.7386
 3994SOL    HW123444   2.882   2.872   5.834  0.6264 -1.1830  0.2738
 3994SOL    HW223445   2.871   2.822   5.696 -1.2998  1.6945 -0.5512
 3995SOL     OW23446   1.594   4.147   3.342  0.0947  0.0603 -0.3415
 3995SOL    HW123447   1.602   4.124   3.249  1.8117 -2.2599  0.3819
 3995SOL    HW223448   1.513   4.198   3.331 -1.0297 -1.8985 -1.1194
 3996SOL     OW23449   2.526   4.402   5.918  0.6025  0.0468  0.6076
 3996SOL    HW123450   2.596   4.336   5.920 -1.1879 -1.7689  2.1315
 3996SOL    HW223451   2.530   4.449   5.835 -2.4504  0.3440  0.6478
 3997SOL     OW23452   3.161   3.336  15.597 -0.3175 -0.4742 -0.5809
 3997SOL    HW123453   3.126   3.411  15.549  2.3791  0.4312 -1.0843
 3997SOL    HW223454   3.179   3.383  15.677 -0.4079  1.0969 -1.4917
 3998SOL     OW23455   0.771   1.235   2.428  0.4477  0.0774  0.3683
 3998SOL    HW123456   0.834   1.167   2.402 -1.7719 -0.9883 -2.2180
 3998SOL    HW223457   0.688   1.202   2.393  2.2455 -2.8375 -1.1245
 3999SOL     OW23458   3.386   3.656   3.984 -0.1541  0.3960  0.1748
 3999SOL    HW123459   3.474   3.639   4.017  0.3130  1.2017 -0.6487
 3999SOL    HW223460   3.401   3.636   3.892 -1.3990 -2.9535  0.7205
 4000SOL     OW23461   4.369   4.340   3.625  0.0312  0.3497  0.0294
 4000SOL    HW123462   4.303   4.409   3.623 -0.2188  0.1323  1.2790
 4000SOL    HW223463   4.325   4.255   3.628 -0.2301  0.4976  0.3083
 4001SOL     OW23464   0.654   2.155   5.994 -0.2245  0.2967  0.4302
 4001SOL    HW123465   0.698   2.214   5.933 -0.7112  0.7786  0.5438
 4001SOL    HW223466   0.718   2.085   5.995  1.9606  2.3032  0.6270
 4002SOL     OW23467   0.967   2.678  10.767 -0.3874  0.0600 -0.5731
 4002SOL    HW123468   0.965   2.596  10.816  1.0852 -0.8652 -2.0609
 4002SOL    HW223469   1.003   2.745  10.825  1.2573  0.0228 -1.5461
 4003SOL     OW23470   4.092   3.530   2.063  0.0152  0.2081  0.2493
 4003SOL    HW123471   4.037   3.497   2.134  0.8222  2.0445  1.7322
 4003SOL    HW223472   4.140   3.596   2.114  1.7559  0.6290 -1.9291
 4004SOL     OW23473   0.781   2.425   6.200  0.7133  0.6185  0.3474
 4004SOL    HW123474   0.717   2.366   6.241  0.1254 -0.0323 -1.5289
 4004SOL    HW223475   0.729   2.504   6.181  0.4986  0.5410  0.6125
 4005SOL     OW23476   2.076   3.073  12.796  0.0142  0.3633  0.2407
 4005SOL    HW123477   2.012   3.097  12.729 -0.3261  0.5302  0.6232
 4005SOL    HW223478   2.011   3.022  12.845 -0.3277  1.4091  0.8790
 4006SOL     OW23479   4.370   2.966  16.597 -0.1778  0.2838  0.0876
 4006SOL    HW123480   4.382   3.027  16.524  0.0500  0.5645  0.3602
 4006SOL    HW223481   4.365   2.884  16.549  1.8201  0.6027 -0.6516
 4007SOL     OW23482   1.401   3.163   9.079 -0.5074 -0.3362 -0.5414
 4007SOL    HW123483   1.461   3.174   9.153 -0.2234  4.1548 -1.4433
 4007SOL    HW223484   1.441   3.205   9.002  0.5220 -0.9292 -0.3363
 4008SOL     OW23485   4.066   1.065  10.148 -0.0932 -0.0854 -0.3870
 4008SOL    HW123486   4.125   1.039  10.219 -0.2654  0.2223 -0.1324
 4008SOL    HW223487   4.040   1.152  10.179  0.7749  0.6772 -1.7907
 4009SOL     OW23488   2.893   2.729   4.706 -0.6253 -0.3288  0.1364
 4009SOL    HW123489   2.837   2.652   4.705 -0.3618 -0.5234  0.9977
 4009SOL    HW223490   2.917   2.731   4.798  0.3071  2.3275 -0.1547
 4010SOL     OW23491   2.000   4.009   4.878 -0.2872  0.0818 -0.1959
 4010SOL    HW123492   2.021   4.091   4.921 -1.8493 -0.0366  0.7840
 4010SOL    HW223493   2.088   3.979   4.857  0.1515  0.9717  0.3756
 4011SOL     OW23494   3.963   2.705   5.497 -0.4992 -0.8144  0.2167
 4011SOL    HW123495   3.977   2.789   5.542 -2.5932 -0.5972  0.4348
 4011SOL    HW223496   3.885   2.661   5.530 -1.6399  0.4528 -0.8181
 4012SOL     OW23497   4.567   3.386   6.088 -0.1987 -0.0838 -0.1925
 4012SOL    HW123498   4.661   3.377   6.075 -0.2554 -0.5934 -0.2398
 4012SOL    HW223499   4.532   3.317   6.032 -0.1095 -0.1375 -0.1820
 4013SOL     OW23500   1.672   0.563   2.531 -0.2286 -0.3402  0.3977
 4013SOL    HW123501   1.602   0.590   2.472  0.4120  0.3647 -0.0306
 4013SOL    HW223502   1.703   0.483   2.489  0.1292  1.3723 -2.5749
 4014SOL     OW23503   3.212   1.409  11.720  0.1298 -0.3884 -0.2230
 4014SOL    HW123504   3.303   1.434  11.734 -0.7221  1.4605  1.9448
 4014SOL    HW223505   3.179   1.414  11.810 -1.6362 -1.2801 -0.8240
 4015SOL     OW23506   1.866   0.014   6.665  0.5091  0.6248  0.8010
 4015SOL    HW123507   1.819   0.064   6.733  0.8701  1.7612  0.2182
 4015SOL    HW223508   1.954   0.048   6.682  0.8023  0.0656  0.3769
 4016SOL     OW23509   3.969   0.720   9.365  0.1686 -0.3618 -0.1048
 4016SOL    HW123510   3.946   0.755   9.451 -1.4028 -0.9636 -0.2840
 4016SOL    HW223511   3.922   0.639   9.347  1.9787 -1.2706 -0.7941
 4017SOL     OW23512   2.916   1.387  16.651 -0.3739 -0.1783 -0.5518
 4017SOL    HW123513   2.947   1.478  16.649  0.5096 -0.4844 -0.5188
 4017SOL    HW223514   2.824   1.403  16.672 -0.3827 -1.7294  0.5221
 4018SOL     OW23515   1.994   2.504   3.973 -0.2045  0.0396 -0.0485
 4018SOL    HW123516   1.932   2.432   3.979  1.2611 -1.2754 -0.7467
 4018SOL    HW223517   1.929   2.565   4.008  1.7038  1.4346  1.0391
 4019SOL     OW23518   2.997   1.037  11.678  0.8236 -0.3628 -0.1660
 4019SOL    HW123519   2.944   0.977  11.729  1.3532  0.3671  1.2546
 4019SOL    HW223520   2.983   1.119  11.725  0.7522  0.1154 -1.0303
 4020SOL     OW23521   1.510   1.192   3.240 -0.1982  0.3220 -0.5670
 4020SOL    HW123522   1.480   1.151   3.159  1.2732 -2.2987  0.2064
 4020SOL    HW223523   1.457   1.271   3.242 -1.1384 -0.3074 -0.2620
 4021SOL     OW23524   0.605   2.151  10.947  0.1229  0.3144  0.5431
 4021SOL    HW123525   0.614   2.165  10.853 -1.2537  2.1181  0.6676
 4021SOL    HW223526   0.538   2.083  10.944  0.3589  0.0388  1.6152
 4022SOL     OW23527   2.799   2.909   2.409 -0.3929 -0.2209  0.2057
 4022SOL    HW123528   2.748   2.837   2.446 -2.1894 -0.0012 -1.8521
 4022SOL    HW223529   2.805   2.882   2.317 -0.1975 -0.8778  0.4083
 4023SOL     OW23530   2.903   0.528   7.996  0.2567  0.4882  0.3594
 4023SOL    HW123531   2.887   0.475   8.074  0.3748  0.1075  0.1245
 4023SOL    HW223532   2.942   0.611   8.022  1.0828 -0.1792  1.2692
 4024SOL     OW23533   2.696   1.542   8.020 -0.6192  0.2250  0.2223
 4024SOL    HW123534   2.656   1.485   8.085 -0.4495 -1.8997 -1.5484
 4024SOL    HW223535   2.637   1.521   7.948 -0.0903  0.2631 -0.2248
 4025SOL     OW23536   4.599   3.907   5.252 -0.0906  0.0696  0.1625
 4025SOL    HW123537   4.570   3.818   5.274  1.5682 -0.6104 -0.3924
 4025SOL    HW223538   4.615   3.898   5.158 -3.1920 -0.7429 -0.2881
 4026SOL     OW23539   1.297   2.065   1.972  1.1348  0.8334  0.2985
 4026SOL    HW123540   1.276   1.987   2.025  0.4440  2.6339  2.6630
 4026SOL    HW223541   1.258   2.130   2.031 -0.7968 -0.8220  0.8658
 4027SOL     OW23542   4.200   0.076  12.065  0.0535  0.3372 -0.1363
 4027SOL    HW123543   4.160   0.008  12.120  0.2782  1.5362  1.5265
 4027SOL    HW223544   4.289   0.084  12.099 -0.4228  2.2192  0.6641
 4028SOL     OW23545   4.635   0.087   7.161 -0.1316 -0.3556  0.1994
 4028SOL    HW123546   4.700   0.047   7.218 -0.0921 -2.6189 -1.4321
 4028SOL    HW223547   4.684   0.152   7.110 -0.2274  0.0537  0.6291
 4029SOL     OW23548   1.564   2.020   1.899 -0.3007 -0.1425  0.4416
 4029SOL    HW123549   1.477   2.061   1.893 -0.2653 -0.1434 -0.0994
 4029SOL    HW223550   1.547   1.938   1.945 -0.3972 -0.0430  0.5860
 4030SOL     OW23551   3.626   4.092  12.121 -0.1863 -0.3806  0.0907
 4030SOL    HW123552   3.589   4.179  12.105 -1.5538 -0.9718  0.0801
 4030SOL    HW223553   3.615   4.044  12.039 -0.9220  0.8587 -0.5444
 4031SOL     OW23554   2.435   3.177   7.295  0.4650  0.8308 -0.1906
 4031SOL    HW123555   2.495   3.248   7.321  0.6276  0.1471  1.2649
 4031SOL    HW223556   2.400   3.220   7.217 -2.6663  0.7350  1.1421
 4032SOL     OW23557   2.917   4.230   0.492  0.4205 -0.0445  0.5330
 4032SOL    HW123558   2.882   4.319   0.499  0.6133 -0.1227  2.7546
 4032SOL    HW223559   2.909   4.212   0.399 -1.8269 -1.0433  0.9155
 4033SOL     OW23560   1.255   0.065   6.285 -0.5066 -0.6541 -0.3810
 4033SOL    HW123561   1.288   0.050   6.196 -1.3574  0.1992 -0.8286
 4033SOL    HW223562   1.240   4.702   6.316  2.4241 -1.4309 -1.1334
 4034SOL     OW23563   2.513   2.207   5.186 -0.1879 -0.1555  0.0607
 4034SOL    HW123564   2.518   2.299   5.212 -0.6115 -0.5645  1.5595
 4034SOL    HW223565   2.573   2.162   5.246 -0.4261  1.5676  1.5672
 4035SOL     OW23566   2.567   1.516   3.604  0.1724 -0.6989 -0.1722
 4035SOL    HW123567   2.495   1.529   3.542 -2.3492  0.1487  2.9407
 4035SOL    HW223568   2.603   1.604   3.592 -1.9418  0.0789 -0.8672
 4036SOL     OW23569   0.465   2.788   3.094 -0.5070 -0.0566  0.1004
 4036SOL    HW123570   0.379   2.826   3.114 -0.4928  0.1335 -0.2051
 4036SOL    HW223571   0.479   2.737   3.174  1.2871  1.4802  0.7584
 4037SOL     OW23572   3.409   1.156   8.577  0.0634 -0.2753 -0.3507
 4037SOL    HW123573   3.369   1.228   8.528 -1.0647  0.0176  0.9742
 4037SOL    HW223574   3.496   1.159   8.538 -0.1420 -1.4039 -0.8799
 4038SOL     OW23575   4.608   3.439  13.663  0.2745 -0.3676  0.1507
 4038SOL    HW123576   4.552   3.515  13.644  0.1382  0.1041  2.4596
 4038SOL    HW223577   4.565   3.370  13.613  1.2430  1.4791 -3.2327
 4039SOL     OW23578   3.938   1.768   3.706  0.1839  0.1067  0.2512
 4039SOL    HW123579   3.872   1.813   3.654  1.4522 -1.0342 -2.3621
 4039SOL    HW223580   3.993   1.738   3.633 -0.7219  1.8649 -1.1583
 4040SOL     OW23581   3.406   3.257   3.821  0.1593  0.0957  0.0627
 4040SOL    HW123582   3.362   3.341   3.806  1.0775  0.5737  0.0429
 4040SOL    HW223583   3.419   3.230   3.730  1.3205 -0.4680  0.4023
 4041SOL     OW23584   3.053   4.707  15.307  0.1697  0.4495  0.1716
 4041SOL    HW123585   3.120   0.025  15.256 -0.5445  1.9049  0.4913
 4041SOL    HW223586   3.063   0.021  15.393 -1.7529 -0.1473  0.6754
 4042SOL     OW23587   4.693   1.487   3.538 -0.3581 -0.8755 -0.4248
 4042SOL    HW123588   0.006   1.443   3.463  0.6267 -0.7185  0.0034
 4042SOL    HW223589   4.696   1.425   3.611 -0.6455 -1.9430 -1.3176
 4043SOL     OW23590   3.262   3.827  12.354 -0.9808  0.2961  0.2557
 4043SOL    HW123591   3.253   3.837  12.259 -0.4854  3.0103  0.4929
 4043SOL    HW223592   3.197   3.763  12.384  0.9851 -1.6502  0.3694
 4044SOL     OW23593   3.618   0.411  13.658  0.2310 -0.1506  0.3572
 4044SOL    HW123594   3.662   0.495  13.677 -1.0812  0.7195 -0.4535
 4044SOL    HW223595   3.526   0.434  13.673 -0.3298 -2.0200 -0.3077
 4045SOL     OW23596   0.441   2.291   3.312  0.0685 -0.0590  0.9152
 4045SOL    HW123597   0.525   2.259   3.280 -0.4083 -0.9078  0.5122
 4045SOL    HW223598   0.382   2.250   3.248  2.1795 -0.6362 -0.6321
 4046SOL     OW23599   3.743   2.566   5.548 -0.0849 -0.2017 -0.1310
 4046SOL    HW123600   3.686   2.503   5.505 -2.6758  0.1320  2.8037
 4046SOL    HW223601   3.683   2.633   5.581 -0.2903  0.5287 -2.0106
 4047SOL     OW23602   4.666   3.980   5.923  0.2275  0.2855 -0.1239
 4047SOL    HW123603   4.726   4.038   5.970 -0.5894  1.5906 -0.6906
 4047SOL    HW223604   4.597   4.046   5.912  0.0490 -0.1568 -1.5885
 4048SOL     OW23605   2.697   1.720   3.282  0.2938 -0.4211  0.0985
 4048SOL    HW123606   2.778   1.736   3.233 -0.2324 -0.1604 -0.6907
 4048SOL    HW223607   2.639   1.713   3.206 -0.0105  0.1930  0.2783
 4049SOL     OW23608   1.011   2.352   7.648  0.3785 -0.6653  0.6655
 4049SOL    HW123609   0.982   2.330   7.736 -0.3889  0.3783  0.6747
 4049SOL    HW223610   1.071   2.279   7.630 -0.1320 -0.9807  0.2222
 4050SOL     OW23611   4.021   3.786   0.832 -1.4038 -0.0433  0.0826
 4050SOL    HW123612   4.054   3.756   0.747 -1.5571 -2.4767  0.8699
 4050SOL    HW223613   4.093   3.779   0.894 -1.0370 -1.6596 -0.5176
 4051SOL     OW23614   4.585   1.413   8.237  0.3065 -0.6254 -0.3846
 4051SOL    HW123615   4.572   1.475   8.309  1.9662 -1.1965  0.3789
 4051SOL    HW223616   4.655   1.358   8.270  1.0239  0.1859 -0.5523
 4052SOL     OW23617   1.460   1.529   7.410  0.4889  0.3331 -0.4146
 4052SOL    HW123618   1.482   1.536   7.318  1.1364  1.5598 -0.1635
 4052SOL    HW223619   1.506   1.597   7.460  1.2777  0.3365 -1.1644
 4053SOL     OW23620   2.017   2.460  12.800 -0.1053  0.0816  0.8051
 4053SOL    HW123621   1.948   2.521  12.776  1.2137  1.0381 -0.5307
 4053SOL    HW223622   1.954   2.392  12.826 -1.0236  0.4884 -0.3626
 4054SOL     OW23623   4.198   3.277  17.163 -0.1934  0.0520 -0.2503
 4054SOL    HW123624   4.126   3.260  17.225 -0.8387 -0.3529 -1.1058
 4054SOL    HW223625   4.151   3.279  17.079 -1.3049  1.0476  0.3941
 4055SOL     OW23626   0.945   3.739  10.510 -0.2347 -0.3886  0.1367
 4055SOL    HW123627   0.997   3.809  10.547  0.3999 -0.0791 -1.3418
 4055SOL    HW223628   0.978   3.661  10.554  1.7920  0.8302  0.7678
 4056SOL     OW23629   3.978   3.840   6.287  0.3378  0.6422  0.5831
 4056SOL    HW123630   3.946   3.930   6.298 -0.1998  0.9497 -3.5160
 4056SOL    HW223631   4.005   3.829   6.196 -1.6241 -0.5125  0.1499
 4057SOL     OW23632   3.515   2.395   0.811  0.3593 -0.1512  0.0598
 4057SOL    HW123633   3.470   2.469   0.853  0.5748  0.1021 -0.1613
 4057SOL    HW223634   3.486   2.404   0.721  2.9070 -1.4010 -0.8679
 4058SOL     OW23635   0.955   0.113   9.327  0.0278 -0.3421 -0.5149
 4058SOL    HW123636   0.863   0.139   9.338  1.2065  3.0581  1.2844
 4058SOL    HW223637   0.997   0.184   9.377 -1.2745  0.9731 -1.2910
 4059SOL     OW23638   2.562   1.995  16.022  0.7624  0.9908  0.0913
 4059SOL    HW123639   2.619   1.941  16.077 -1.2310 -2.9654 -1.7770
 4059SOL    HW223640   2.525   2.055  16.087  0.0463  2.3606 -1.5845
 4060SOL     OW23641   2.602   1.881   4.386 -0.1512  0.9983 -0.2350
 4060SOL    HW123642   2.521   1.834   4.367  1.0463 -0.4676 -1.7630
 4060SOL    HW223643   2.656   1.816   4.340 -1.9342  0.1169 -1.0937
 4061SOL     OW23644   1.948   2.453   6.732 -0.0241  0.6496  0.0840
 4061SOL    HW123645   1.988   2.526   6.683 -0.5024 -0.5408 -2.1033
 4061SOL    HW223646   2.022   2.410   6.774 -0.5628 -1.0356 -0.6773
 4062SOL     OW23647   2.930   3.165   6.764 -0.1845 -0.2253  0.3292
 4062SOL    HW123648   2.943   3.252   6.726  0.9956 -0.2419  0.6933
 4062SOL    HW223649   2.889   3.110   6.696  1.6430  3.1469 -3.4635
 4063SOL     OW23650   1.172   0.649   2.902 -0.1784 -0.9043  0.0657
 4063SOL    HW123651   1.084   0.614   2.919  0.1517 -0.7607  2.1426
 4063SOL    HW223652   1.207   0.619   2.986  0.6502  0.4357  0.2062
 4064SOL     OW23653   0.270   3.448  10.984 -0.1461 -0.2294  0.0181
 4064SOL    HW123654   0.283   3.429  11.077  0.9935  0.2948 -0.0269
 4064SOL    HW223655   0.197   3.391  10.965 -1.5106  1.6372 -0.3261
 4065SOL     OW23656   3.753   3.091   1.408  0.5921  0.4599  0.0980
 4065SOL    HW123657   3.699   3.117   1.482 -0.4379 -0.2245 -0.4256
 4065SOL    HW223658   3.839   3.110   1.445  0.5519  0.4976  0.1717
 4066SOL     OW23659   2.966   1.171  10.970  0.3262 -0.0962 -0.3362
 4066SOL    HW123660   3.043   1.155  10.915  1.4888  1.4799  0.7935
 4066SOL    HW223661   2.984   1.108  11.039 -0.3105  0.0010 -0.0818
 4067SOL     OW23662   1.163   2.169  10.903  0.9526 -0.2639 -0.2080
 4067SOL    HW123663   1.072   2.168  10.933  0.4332 -0.9991 -1.8391
 4067SOL    HW223664   1.153   2.207  10.816 -0.3749 -3.7502 -1.5862
 4068SOL     OW23665   2.873   1.639  17.440  0.2924 -0.3702 -0.2641
 4068SOL    HW123666   2.813   1.712  17.455  1.3958  0.7594 -1.3531
 4068SOL    HW223667   2.852   1.588  17.519 -1.1068 -0.0773 -0.4411
 4069SOL     OW23668   1.675   1.746   9.104  0.0723  0.6000 -0.2706
 4069SOL    HW123669   1.607   1.808   9.075  0.2425  1.5251  1.3306
 4069SOL    HW223670   1.630   1.693   9.169  0.4632 -0.5029 -0.9079
 4070SOL     OW23671   1.571   2.739   1.446 -0.5276 -0.7438  0.0456
 4070SOL    HW123672   1.497   2.698   1.401 -1.3471  1.1936 -0.3647
 4070SOL    HW223673   1.561   2.831   1.423 -0.3278 -1.1466 -1.6650
 4071SOL     OW23674   1.542   0.999   4.980  0.0872  0.0650  0.7629
 4071SOL    HW123675   1.487   1.022   4.905 -0.1096 -1.6122  0.3979
 4071SOL    HW223676   1.499   1.047   5.051  0.1981  4.2346 -1.9748
 4072SOL     OW23677   3.958   3.130   1.072  0.2063  0.1066  0.1681
 4072SOL    HW123678   3.956   3.223   1.050 -2.3464 -0.4798 -2.1036
 4072SOL    HW223679   4.036   3.127   1.127  0.2807 -0.2826  0.0413
 4073SOL     OW23680   3.436   1.702   5.973  0.2757  0.0755 -0.4114
 4073SOL    HW123681   3.524   1.686   6.006 -0.2948  0.6363  1.3966
 4073SOL    HW223682   3.434   1.796   5.952  1.4385  0.6720  2.1459
 4074SOL     OW23683   1.299   4.077  11.791 -0.2171  0.1335  0.3303
 4074SOL    HW123684   1.231   4.060  11.856 -1.1740  0.9719 -0.4775
 4074SOL    HW223685   1.368   4.104  11.852 -0.4121 -1.4618  1.2720
 4075SOL     OW23686   1.713   2.827   3.502  0.1775  0.1131 -0.2686
 4075SOL    HW123687   1.623   2.827   3.535  0.7757  0.8734  1.3626
 4075SOL    HW223688   1.749   2.892   3.562 -0.9409 -2.8867  3.6219
 4076SOL     OW23689   1.868   3.851   1.749  0.0260  0.2910 -0.0523
 4076SOL    HW123690   1.796   3.788   1.739 -0.1222  0.1282  1.9758
 4076SOL    HW223691   1.833   3.894   1.827  0.6411  0.1828  0.2832
 4077SOL     OW23692   3.736   3.465   4.656 -0.5973 -0.2113 -0.2270
 4077SOL    HW123693   3.748   3.544   4.603 -0.0873 -0.4848 -0.5207
 4077SOL    HW223694   3.674   3.496   4.722  0.5224  0.1659  0.6594
 4078SOL     OW23695   2.258   1.184   1.272 -0.0420  0.2722  0.4135
 4078SOL    HW123696   2.285   1.269   1.305  0.8654  0.2118 -0.1817
 4078SOL    HW223697   2.204   1.220   1.202  0.7965 -2.0111 -1.4156
 4079SOL     OW23698   3.655   4.115   1.764 -0.9484  0.2287 -0.1246
 4079SOL    HW123699   3.667   4.202   1.728 -0.1152  0.0404 -0.2845
 4079SOL    HW223700   3.581   4.134   1.822  0.6708  0.4758  1.8750
 4080SOL     OW23701   4.619   1.763   7.816  0.1821 -0.2403  0.1043
 4080SOL    HW123702   4.646   1.671   7.816 -0.8753 -0.5565  0.1794
 4080SOL    HW223703   4.602   1.784   7.908  1.1183 -1.6204  0.5890
 4081SOL     OW23704   0.163   2.676   9.287  0.4612 -0.1138  0.2300
 4081SOL    HW123705   0.067   2.679   9.296  0.3520 -2.4238 -0.1772
 4081SOL    HW223706   0.183   2.723   9.368 -0.8811 -0.3257  0.6856
 4082SOL     OW23707   3.371   1.305   6.949 -0.5389 -0.8211  0.2208
 4082SOL    HW123708   3.349   1.385   6.996  0.3508  1.1780 -2.7316
 4082SOL    HW223709   3.419   1.247   7.008 -0.1420 -1.5749 -0.8220
 4083SOL     OW23710   4.318   2.630   8.410 -0.0879 -0.3962  0.5097
 4083SOL    HW123711   4.334   2.558   8.471  0.7103  1.3714  2.4147
 4083SOL    HW223712   4.302   2.700   8.474 -1.1539  0.2020 -0.4128
 4084SOL     OW23713   2.894   1.294   2.651  0.4145 -0.4421 -0.0310
 4084SOL    HW123714   2.908   1.342   2.733 -0.6240 -0.9066  0.4133
 4084SOL    HW223715   2.986   1.281   2.625  0.7735 -2.3611  2.2247
 4085SOL     OW23716   1.455   1.693   8.523 -0.2298 -0.1816 -0.4826
 4085SOL    HW123717   1.463   1.762   8.588  0.1078 -0.4356 -0.2579
 4085SOL    HW223718   1.539   1.649   8.536  0.3804  1.1664  0.1122
 4086SOL     OW23719   3.623   0.708  16.600  0.1046 -0.6695 -0.1272
 4086SOL    HW123720   3.676   0.776  16.644 -2.5481 -1.0108  3.5856
 4086SOL    HW223721   3.683   0.708  16.525  1.4527  2.8608  0.9102
 4087SOL     OW23722   2.010   2.879   2.574  0.4476  0.4839 -0.3258
 4087SOL    HW123723   2.025   2.967   2.608 -1.8780  0.9255 -0.4469
 4087SOL    HW223724   2.051   2.886   2.488  0.8027  1.6872 -0.0449
 4088SOL     OW23725   0.195   2.131   9.290 -0.3256  0.3146 -0.6895
 4088SOL    HW123726   0.280   2.145   9.247  0.9868  0.2087  1.8950
 4088SOL    HW223727   0.167   2.223   9.287  0.6616  0.6417  0.2432
 4089SOL     OW23728   3.919   0.592   7.303  0.0421  0.0244 -0.0620
 4089SOL    HW123729   3.957   0.672   7.338 -2.0682  0.7713  0.5059
 4089SOL    HW223730   3.858   0.625   7.238  0.0369  0.1189 -0.0088
 4090SOL     OW23731   2.008   3.433   7.436 -0.3764 -0.0342 -0.3632
 4090SOL    HW123732   2.025   3.379   7.513 -1.4731  0.7790  0.4486
 4090SOL    HW223733   1.924   3.403   7.401 -0.8133  1.4236 -0.5877
 4091SOL     OW23734   0.979   2.061   2.180 -0.7016 -0.2527  0.4473
 4091SOL    HW123735   0.918   2.045   2.108  0.6926 -0.0832 -0.7764
 4091SOL    HW223736   0.977   2.155   2.198  2.1280  0.1376 -1.3272
 4092SOL     OW23737   1.973   3.088   4.229  0.6025  0.0268  0.5193
 4092SOL    HW123738   1.925   3.164   4.197  1.0958 -0.4876 -1.4567
 4092SOL    HW223739   2.010   3.068   4.143 -1.8062 -0.0642 -0.5101
 4093SOL     OW23740   1.487   2.657   2.232  0.2586 -0.1335  0.1598
 4093SOL    HW123741   1.435   2.600   2.289  0.1013  0.3250  0.4848
 4093SOL    HW223742   1.572   2.658   2.277 -0.1435  1.4129  0.8959
 4094SOL     OW23743   3.325   2.479   7.088 -0.1393  0.3751  0.1744
 4094SOL    HW123744   3.282   2.550   7.136  0.9136 -0.1737  1.9384
 4094SOL    HW223745   3.253   2.417   7.080 -0.8185  1.2252 -0.3112
 4095SOL     OW23746   2.169   3.537   4.108  0.1929  1.0009 -0.0838
 4095SOL    HW123747   2.094   3.517   4.052  0.7777 -0.1200 -0.4521
 4095SOL    HW223748   2.212   3.451   4.111  1.1278  1.4216 -1.6003
 4096SOL     OW23749   2.189   0.903   6.840 -0.3942  0.1865  0.1651
 4096SOL    HW123750   2.232   0.955   6.908 -0.2722  0.7219 -0.3246
 4096SOL    HW223751   2.196   0.813   6.873  0.2284 -0.7016 -2.4148
 4097SOL     OW23752   1.798   1.965   5.959 -0.1759 -0.4868  0.2714
 4097SOL    HW123753   1.737   1.936   5.891  0.4001  1.4492 -1.0558
 4097SOL    HW223754   1.807   1.883   6.008  0.3429 -0.9652 -0.6109
 4098SOL     OW23755   1.559   3.905  16.587 -0.2164  0.3122 -0.3361
 4098SOL    HW123756   1.557   3.814  16.558 -2.5032 -0.5080  2.4087
 4098SOL    HW223757   1.531   3.905  16.679  1.2881  0.7021  0.1306
 4099SOL     OW23758   2.306   0.761  12.571 -0.4876 -0.3509 -0.2222
 4099SOL    HW123759   2.335   0.778  12.482 -0.6104 -0.2746 -0.2471
 4099SOL    HW223760   2.290   0.667  12.564 -1.2955 -0.3101  1.0223
 4100SOL     OW23761   1.771   2.647   7.795  0.4287  0.5149 -1.0369
 4100SOL    HW123762   1.816   2.730   7.809  1.5715 -0.0602 -1.3277
 4100SOL    HW223763   1.692   2.674   7.842  0.6475  1.0147 -0.9620
 4101SOL     OW23764   3.056   0.968  11.140 -0.4887 -0.0973 -0.6499
 4101SOL    HW123765   3.109   0.894  11.110 -1.0814 -0.9632  0.4748
 4101SOL    HW223766   3.084   0.989  11.229 -1.8432 -3.5296  0.5904
 4102SOL     OW23767   3.326   1.936   3.341  0.0832 -0.0235  0.2594
 4102SOL    HW123768   3.399   1.987   3.306  1.6612 -3.3233 -1.2776
 4102SOL    HW223769   3.370   1.859   3.378 -0.7087  0.2796  1.8352
 4103SOL     OW23770   2.419   1.610   0.390  0.4279  0.4868 -0.4822
 4103SOL    HW123771   2.460   1.592   0.475 -0.2711  1.0594 -0.0254
 4103SOL    HW223772   2.395   1.701   0.411  0.2533 -0.0485  1.6416
 4104SOL     OW23773   2.862   0.268   8.525 -0.3243 -0.0536  0.1582
 4104SOL    HW123774   2.896   0.193   8.573 -2.2532  0.7865  2.8501
 4104SOL    HW223775   2.916   0.342   8.551  0.5194 -2.3877  4.9924
 4105SOL     OW23776   0.116   1.348   3.343 -0.3526 -0.0269  0.1977
 4105SOL    HW123777   0.167   1.350   3.262  0.6161  1.0942  0.8368
 4105SOL    HW223778   0.039   1.294   3.327 -0.1480  0.4044 -2.1975
 4106SOL     OW23779   3.565   4.291   5.850  0.4806 -0.5095  0.1499
 4106SOL    HW123780   3.494   4.328   5.797  0.7262 -0.3753 -0.0837
 4106SOL    HW223781   3.641   4.316   5.797  0.3124 -0.1015  0.0971
 4107SOL     OW23782   3.458   1.686   4.192 -0.3508  0.3504 -0.2380
 4107SOL    HW123783   3.388   1.629   4.159 -0.8818  0.8405  0.0460
 4107SOL    HW223784   3.522   1.623   4.225 -0.3859  0.3594 -0.1517
 4108SOL     OW23785   0.091   1.737   5.202 -0.3488 -0.4294  0.1518
 4108SOL    HW123786   0.150   1.674   5.161  0.7845  2.4519 -2.6428
 4108SOL    HW223787   0.009   1.692   5.180 -0.4106  0.0376 -0.5753
 4109SOL     OW23788   4.175   1.248   2.873 -0.1165 -0.3325 -0.8342
 4109SOL    HW123789   4.190   1.164   2.829 -0.7762 -0.1963 -1.3122
 4109SOL    HW223790   4.112   1.219   2.939 -1.1788  3.3468 -0.2428
 4110SOL     OW23791   0.363   2.617  10.661 -1.2804  0.0293 -0.3724
 4110SOL    HW123792   0.342   2.535  10.616  1.7102 -0.9193 -0.0343
 4110SOL    HW223793   0.285   2.670  10.645 -0.2628  1.9821  1.1042
 4111SOL     OW23794   0.769   1.666   1.149 -0.2431 -0.4391  0.0892
 4111SOL    HW123795   0.713   1.681   1.225  0.4658  1.9170  0.1598
 4111SOL    HW223796   0.712   1.688   1.075 -0.6409 -0.2657  0.4515
 4112SOL     OW23797   3.605   4.516   1.202  0.0677 -0.4762 -0.1412
 4112SOL    HW123798   3.647   4.573   1.265  0.9353  0.3334 -1.4585
 4112SOL    HW223799   3.515   4.544   1.218  0.8926  1.9790  0.2575
 4113SOL     OW23800   2.757   4.662   2.992 -0.5408 -0.4459  0.7136
 4113SOL    HW123801   2.688   4.691   3.053 -0.7396  0.9888 -0.1997
 4113SOL    HW223802   2.834   4.665   3.049  0.6706  1.9618 -1.0737
 4114SOL     OW23803   2.560   0.554  13.351 -0.3331 -0.0889  0.1140
 4114SOL    HW123804   2.624   0.484  13.360  0.9367  0.9841 -0.6515
 4114SOL    HW223805   2.585   0.597  13.269  0.2003 -0.4606  0.0876
 4115SOL     OW23806   2.563   1.384   1.275  0.2728 -0.0438  0.1665
 4115SOL    HW123807   2.629   1.330   1.320 -1.4716 -3.3205 -1.2671
 4115SOL    HW223808   2.490   1.346   1.323  0.4323  0.5974  0.9250
 4116SOL     OW23809   2.459   4.084   0.126  0.2317  0.7659  0.1883
 4116SOL    HW123810   2.397   4.140   0.173 -0.1360 -0.6965  1.4505
 4116SOL    HW223811   2.540   4.125   0.158  0.3541 -0.1560  1.0757
 4117SOL     OW23812   1.156   3.300   4.046 -0.3758 -0.1819  0.2433
 4117SOL    HW123813   1.077   3.266   4.087 -1.5097  2.6713  0.4301
 4117SOL    HW223814   1.169   3.386   4.086 -0.3525  0.9260 -2.0878
 4118SOL     OW23815   1.270   2.887   6.630  0.1146 -0.4973  0.0814
 4118SOL    HW123816   1.334   2.905   6.561  2.1759  1.7142  2.6135
 4118SOL    HW223817   1.321   2.826   6.684  0.5830 -1.0134 -0.9394
 4119SOL     OW23818   3.742   4.687   4.546  0.3678  0.2192  0.0699
 4119SOL    HW123819   3.698   4.610   4.580  1.6611  0.0352  1.3307
 4119SOL    HW223820   3.686   0.030   4.580 -1.3791 -1.1355 -0.0218
 4120SOL     OW23821   4.314   4.353   7.152  0.3697 -0.6435 -0.0967
 4120SOL    HW123822   4.291   4.440   7.184  1.1194 -0.3856 -0.2617
 4120SOL    HW223823   4.236   4.303   7.176  0.5156 -0.9777 -0.3138
 4121SOL     OW23824   3.309   3.684  12.627  0.6177  0.3839 -0.2115
 4121SOL    HW123825   3.239   3.682  12.692  0.3412  0.9546 -0.4820
 4121SOL    HW223826   3.314   3.596  12.591  0.2568  0.4042 -0.3141
 4122SOL     OW23827   1.981   2.768   4.649  0.6648  0.0723 -0.0271
 4122SOL    HW123828   1.977   2.794   4.556  1.2871 -1.0588 -0.3728
 4122SOL    HW223829   1.936   2.840   4.693 -0.1966 -3.0384  4.0874
 4123SOL     OW23830   3.975   0.964  16.425  0.0749  0.1316  0.5071
 4123SOL    HW123831   3.972   1.050  16.467  1.1365  0.8130 -0.8254
 4123SOL    HW223832   4.004   0.910  16.499  1.4994 -2.1440 -1.7271
 4124SOL     OW23833   3.628   2.285   1.444 -0.6782 -0.2116 -0.0480
 4124SOL    HW123834   3.713   2.314   1.478 -0.5471 -1.2536  0.4922
 4124SOL    HW223835   3.572   2.350   1.486 -0.4338  0.4061 -0.6745
 4125SOL     OW23836   1.305   0.460   8.707  0.1254  0.1443 -0.1956
 4125SOL    HW123837   1.309   0.380   8.758 -1.5266 -1.0369 -1.9380
 4125SOL    HW223838   1.307   0.527   8.775 -1.6600 -0.2658  0.2443
 4126SOL     OW23839   1.851   3.189   2.196 -0.8537  0.3470 -0.1086
 4126SOL    HW123840   1.940   3.211   2.224 -1.7348  0.6389  2.4263
 4126SOL    HW223841   1.798   3.236   2.260 -0.1491  1.0625 -0.0476
 4127SOL     OW23842   0.053   1.963   8.032 -0.0675 -0.0348 -0.0937
 4127SOL    HW123843   0.081   2.024   7.964 -0.3964 -0.4237 -0.5780
 4127SOL    HW223844   0.056   2.027   8.104  0.7490 -0.5295  0.3057
 4128SOL     OW23845   1.481   4.262   4.070 -0.1568 -0.7074 -0.2379
 4128SOL    HW123846   1.441   4.259   3.983 -0.7912  0.6336  0.0151
 4128SOL    HW223847   1.478   4.172   4.105 -0.1884 -0.7087 -0.2433
 4129SOL     OW23848   4.200   3.004   3.608  0.0191  1.0913  0.1483
 4129SOL    HW123849   4.170   3.094   3.601 -0.5977  0.7620 -1.3793
 4129SOL    HW223850   4.281   3.018   3.657  0.7481  0.3362 -0.8341
 4130SOL     OW23851   3.866   2.503  14.161 -0.2361  0.3685 -0.2514
 4130SOL    HW123852   3.938   2.494  14.223 -1.6095 -0.1956  1.2539
 4130SOL    HW223853   3.878   2.594  14.133 -2.7215  0.6217 -0.4967
 4131SOL     OW23854   1.170   4.035   4.950  0.2435  0.4093 -0.5274
 4131SOL    HW123855   1.207   4.042   5.038  1.7523  3.3710 -1.3856
 4131SOL    HW223856   1.167   4.127   4.923  3.1602 -0.1567 -2.8228
 4132SOL     OW23857   1.164   3.411   8.798 -0.0314  0.6689 -0.1747
 4132SOL    HW123858   1.083   3.360   8.789  0.3906  0.5017 -3.0248
 4132SOL    HW223859   1.232   3.356   8.760 -0.0020  1.2937 -1.0261
 4133SOL     OW23860   4.701   0.857   7.498 -0.2642  0.0387 -0.0741
 4133SOL    HW123861   4.694   0.809   7.581 -1.1430 -0.4523 -0.4349
 4133SOL    HW223862   0.024   0.932   7.533  2.7041 -1.0663 -1.9698
 4134SOL     OW23863   2.808   3.194   6.335  0.1407 -0.1246  0.3101
 4134SOL    HW123864   2.898   3.218   6.314 -0.0734  0.7424  0.3701
 4134SOL    HW223865   2.809   3.108   6.293  0.5970 -0.2296  0.5375
 4135SOL     OW23866   2.467   1.944   5.904 -0.1570 -1.1451 -0.1282
 4135SOL    HW123867   2.561   1.944   5.887 -0.4705  0.1330 -1.8907
 4135SOL    HW223868   2.437   1.861   5.866  0.9136  0.0337 -3.5342
 4136SOL     OW23869   4.581   0.082  12.864 -0.3872  0.1956  0.2325
 4136SOL    HW123870   4.642   0.106  12.934 -0.7670  1.1135  0.2534
 4136SOL    HW223871   4.545   0.170  12.854  0.7190  0.4978 -1.0084
 4137SOL     OW23872   1.082   3.962   5.817 -0.3996 -0.3434  0.5027
 4137SOL    HW123873   1.069   4.049   5.854 -0.0122 -0.3337  0.6078
 4137SOL    HW223874   1.169   3.940   5.849  0.5527  2.3047 -0.2381
 4138SOL     OW23875   1.059   2.247   8.172  0.3002  0.2591  0.3845
 4138SOL    HW123876   1.138   2.255   8.224  0.6883 -0.0048 -0.1633
 4138SOL    HW223877   1.003   2.316   8.208 -0.2163  1.2126 -2.1834
 4139SOL     OW23878   2.005   1.632   9.324  0.6844 -0.3207  0.1877
 4139SOL    HW123879   1.995   1.551   9.273  0.7917  1.3038 -2.4434
 4139SOL    HW223880   2.036   1.687   9.252 -0.7135  0.6512  0.3374
 4140SOL     OW23881   2.714   4.070   8.728 -0.3079  0.1035  0.2530
 4140SOL    HW123882   2.633   4.030   8.695 -1.1197  2.2729 -0.3714
 4140SOL    HW223883   2.772   3.999   8.756  0.7600  0.5579 -0.7953
 4141SOL     OW23884   1.604   3.673  16.474 -0.6117 -0.2190 -0.1324
 4141SOL    HW123885   1.663   3.598  16.473 -0.5306 -0.1550 -0.0824
 4141SOL    HW223886   1.572   3.669  16.383 -2.2527  0.7202  0.4068
 4142SOL     OW23887   3.569   2.002   5.909  0.4020 -0.4221 -0.5393
 4142SOL    HW123888   3.632   1.955   5.962 -0.5030 -2.4324 -1.2693
 4142SOL    HW223889   3.629   2.058   5.860 -0.7904  0.0525 -1.4783
 4143SOL     OW23890   1.238   2.783   7.892 -0.2405 -0.2726  0.0923
 4143SOL    HW123891   1.191   2.733   7.825  3.8367  0.4560 -3.2849
 4143SOL    HW223892   1.296   2.838   7.839  0.9214 -0.4882  1.1465
 4144SOL     OW23893   2.555   2.881  15.025  0.1157  0.0923 -0.0606
 4144SOL    HW123894   2.606   2.881  14.944 -0.7654 -3.6697 -0.6024
 4144SOL    HW223895   2.628   2.901  15.083  0.0478 -1.1493  0.4472
 4145SOL     OW23896   2.519   0.614  13.069 -0.0033  0.2593  0.1413
 4145SOL    HW123897   2.536   0.660  12.987  0.7847 -0.3948 -0.0551
 4145SOL    HW223898   2.560   0.530  13.049 -0.2661  0.1140  0.2041
 4146SOL     OW23899   0.832   0.220   8.973  0.0592 -0.0705 -0.6109
 4146SOL    HW123900   0.770   0.264   9.032  0.8079  0.9616 -0.5967
 4146SOL    HW223901   0.910   0.242   9.024  0.2912 -2.7033  0.1622
 4147SOL     OW23902   4.153   2.653   8.188 -0.1205  0.6059 -0.5424
 4147SOL    HW123903   4.179   2.562   8.173 -1.5542  0.3072 -1.1768
 4147SOL    HW223904   4.201   2.681   8.266  0.1810  0.0703 -0.5313
 4148SOL     OW23905   3.041   4.215  12.852 -0.4931  0.2762  0.0044
 4148SOL    HW123906   3.118   4.195  12.905  0.7753  0.1385 -1.9102
 4148SOL    HW223907   3.079   4.282  12.795  0.4708  0.2076  0.5639
 4149SOL     OW23908   4.477   1.309   4.991 -0.1552 -0.3662  0.4948
 4149SOL    HW123909   4.497   1.261   5.072  4.0185 -0.3779 -0.5609
 4149SOL    HW223910   4.512   1.244   4.930  0.2324  1.7665 -1.5227
 4150SOL     OW23911   2.625   2.713  10.981  0.1917 -0.1038  0.0711
 4150SOL    HW123912   2.548   2.680  10.937 -1.1635  1.6048  1.1290
 4150SOL    HW223913   2.691   2.645  10.970  0.4860  0.0917  0.5901
 4151SOL     OW23914   0.177   1.458   6.858  0.4718 -0.0881  0.1477
 4151SOL    HW123915   0.114   1.428   6.792  0.4149 -0.7663  0.5046
 4151SOL    HW223916   0.131   1.510   6.923 -1.4583 -0.0352 -1.2543
 4152SOL     OW23917   0.124   2.347   7.697  0.0417 -0.4157  0.3811
 4152SOL    HW123918   0.202   2.401   7.710  0.2001 -0.2862 -1.1451
 4152SOL    HW223919   0.082   2.380   7.618  1.2832 -0.8784 -0.4501
 4153SOL     OW23920   0.523   3.539   9.125  0.7393 -0.1064  0.0610
 4153SOL    HW123921   0.523   3.600   9.198  0.8831  1.7952 -1.5328
 4153SOL    HW223922   0.530   3.596   9.048  0.7965  1.8703  1.5406
 4154SOL     OW23923   3.566   0.787   6.247  0.5402  0.1789  1.0022
 4154SOL    HW123924   3.610   0.734   6.180  0.5868  1.2245  0.2146
 4154SOL    HW223925   3.632   0.821   6.306  0.0778 -0.5504  1.9501
 4155SOL     OW23926   2.054   0.900   5.911  0.2495 -0.0539 -0.4928
 4155SOL    HW123927   2.118   0.971   5.918  1.3916 -0.7931 -3.5379
 4155SOL    HW223928   1.974   0.944   5.941  0.3835  1.3634 -2.2145
 4156SOL     OW23929   0.837   4.058   4.769  0.3262  0.0754  0.0041
 4156SOL    HW123930   0.751   4.081   4.804  0.0572  0.2975 -0.8017
 4156SOL    HW223931   0.883   4.141   4.778  0.3736 -0.0162  0.5764
 4157SOL     OW23932   3.681   4.006   2.392 -0.1950 -0.0896 -0.2927
 4157SOL    HW123933   3.640   4.091   2.403  1.9897  0.7053  1.6781
 4157SOL    HW223934   3.765   4.024   2.434 -1.0736  0.6528  1.1532
 4158SOL     OW23935   0.339   4.176   4.652  0.3160  0.8089  0.3812
 4158SOL    HW123936   0.419   4.215   4.686  0.0590  0.9360  0.8459
 4158SOL    HW223937   0.275   4.247   4.658  1.6695  1.9130  1.7920
 4159SOL     OW23938   2.134   0.644  16.329 -0.3533  0.5447 -0.5448
 4159SOL    HW123939   2.163   0.555  16.310  1.5387  1.1729 -0.5839
 4159SOL    HW223940   2.215   0.693  16.312 -0.2249  0.8061  0.7965
 4160SOL     OW23941   0.590   4.241   7.129 -0.7305  0.2665 -0.5679
 4160SOL    HW123942   0.562   4.161   7.083  0.7318 -1.3485  1.3370
 4160SOL    HW223943   0.685   4.230   7.120 -0.3919  0.2889  2.7530
 4161SOL     OW23944   4.453   4.246   6.930 -0.1439  0.1511 -0.1325
 4161SOL    HW123945   4.420   4.268   7.016  0.0658 -3.1221  0.7842
 4161SOL    HW223946   4.543   4.277   6.915 -0.0198  0.7619  1.9587
 4162SOL     OW23947   1.901   1.902   3.957 -0.2090 -0.3266 -0.3989
 4162SOL    HW123948   1.931   1.845   4.028 -0.7129 -0.0014  0.0732
 4162SOL    HW223949   1.844   1.964   4.003 -0.4607 -0.9583  0.1470
 4163SOL     OW23950   2.877   1.854  16.681 -0.3955  0.1267 -0.0115
 4163SOL    HW123951   2.843   1.922  16.738 -2.0991  1.7734 -3.0254
 4163SOL    HW223952   2.957   1.894  16.646  0.8487 -0.8029  1.7450
 4164SOL     OW23953   0.450   2.258   7.249  0.1593  0.1545 -0.0637
 4164SOL    HW123954   0.430   2.212   7.331  0.6777 -0.3281 -0.2114
 4164SOL    HW223955   0.375   2.237   7.193  0.2235  0.6640 -0.3432
 4165SOL     OW23956   3.709   1.177   9.820 -0.2096  0.0714  0.0304
 4165SOL    HW123957   3.769   1.111   9.854  1.6604  2.4997  1.3888
 4165SOL    HW223958   3.636   1.121   9.792  1.7901 -2.3914 -0.2107
 4166SOL     OW23959   1.304   0.757   6.031 -0.3215  0.3782  0.1666
 4166SOL    HW123960   1.314   0.675   6.079  0.4867  1.6286  2.1049
 4166SOL    HW223961   1.396   0.780   6.018 -0.4766  0.1260 -1.4428
 4167SOL     OW23962   1.272   4.481   4.015 -0.0148 -0.4317  0.5371
 4167SOL    HW123963   1.188   4.437   4.002  0.7637 -1.3596 -1.3221
 4167SOL    HW223964   1.324   4.401   4.016  1.1564  0.3276  0.3014
 4168SOL     OW23965   2.641   1.161  15.029  0.4405 -0.5178  0.1641
 4168SOL    HW123966   2.734   1.147  15.049  0.4024  1.4228  1.7298
 4168SOL    HW223967   2.650   1.179  14.935  0.1912  0.2664  0.2909
 4169SOL     OW23968   3.738   3.460  15.141 -0.2485  0.3983  0.7529
 4169SOL    HW123969   3.833   3.469  15.148 -0.0990 -2.3689  2.3574
 4169SOL    HW223970   3.710   3.401  15.211  2.1731  0.3874  1.7384
 4170SOL     OW23971   1.435   4.651   4.955  0.1807  0.2694  0.5440
 4170SOL    HW123972   1.412   4.660   5.048  0.7620  0.0049  0.7150
 4170SOL    HW223973   1.401   4.562   4.948 -1.0370  0.5545  2.7735
 4171SOL     OW23974   3.873   0.968   9.940  0.4259 -0.1585  0.3285
 4171SOL    HW123975   3.940   0.997  10.002  1.1029 -0.2926 -0.3366
 4171SOL    HW223976   3.860   0.874   9.950 -0.3688 -0.3988 -3.2246
 4172SOL     OW23977   1.576   3.566   6.949 -0.6617 -0.5193  0.4163
 4172SOL    HW123978   1.507   3.520   6.902  0.2427 -0.3542 -1.0769
 4172SOL    HW223979   1.652   3.508   6.937 -0.7154 -0.0068 -2.3892
 4173SOL     OW23980   1.450   3.227   9.399  0.1924  0.0349  0.2981
 4173SOL    HW123981   1.449   3.284   9.476  0.6864 -0.7743  0.9141
 4173SOL    HW223982   1.414   3.148   9.439 -0.4959 -0.8401 -2.0451
 4174SOL     OW23983   2.160   1.563   2.319  0.1263 -0.0482 -0.4358
 4174SOL    HW123984   2.207   1.493   2.274 -0.6803 -0.5314 -0.5378
 4174SOL    HW223985   2.174   1.543   2.411 -1.1382  2.9029  0.4026
 4175SOL     OW23986   4.235   2.844   4.971 -0.3640  0.2200 -0.0428
 4175SOL    HW123987   4.321   2.824   4.935 -0.1113 -0.5961  1.0135
 4175SOL    HW223988   4.183   2.799   4.905  0.2466  0.0076 -0.3825
 4176SOL     OW23989   1.681   3.044   7.602  1.0859  0.0050 -0.1231
 4176SOL    HW123990   1.645   2.977   7.660  0.2590  0.7861  0.2748
 4176SOL    HW223991   1.612   3.045   7.535  1.5262 -0.2373 -0.5778
 4177SOL     OW23992   3.837   1.766   7.870  0.2922  0.4379  0.1882
 4177SOL    HW123993   3.870   1.680   7.846 -2.4027 -0.1732 -1.4023
 4177SOL    HW223994   3.742   1.751   7.862  0.0316  0.7634  2.7015
 4178SOL     OW23995   3.209   0.393   4.517  0.1025 -0.8191 -0.3426
 4178SOL    HW123996   3.197   0.298   4.524  0.0961 -1.1121 -4.4995
 4178SOL    HW223997   3.178   0.423   4.432 -1.8189  1.3075  1.0846
 4179SOL     OW23998   1.110   0.593   1.318  0.2873 -0.0019  0.3295
 4179SOL    HW123999   1.082   0.538   1.245 -1.8166 -1.6762  2.4039
 4179SOL    HW224000   1.170   0.657   1.279 -1.0283  0.6709 -0.6088
 4180SOL     OW24001   3.473   0.893  12.042  0.0983 -0.2228 -0.0200
 4180SOL    HW124002   3.472   0.963  11.977 -1.2835 -0.6254 -0.4340
 4180SOL    HW224003   3.423   0.936  12.111  0.2682  2.6287 -1.6553
 4181SOL     OW24004   4.469   0.138   3.952  0.3663 -0.3665 -0.6736
 4181SOL    HW124005   4.516   0.126   4.034 -1.4327 -2.0071  0.1294
 4181SOL    HW224006   4.378   0.149   3.981  0.7854 -0.6361  0.7417
 4182SOL     OW24007   0.042   2.156   4.551 -0.1727 -0.5518 -0.0932
 4182SOL    HW124008   4.717   2.237   4.545  0.2845 -0.3407 -1.1160
 4182SOL    HW224009   0.130   2.193   4.554 -0.3220 -0.0130 -2.5092
 4183SOL     OW24010   4.014   0.516   5.092  0.1314  0.2755 -0.0372
 4183SOL    HW124011   3.993   0.460   5.166  1.1265  0.4154  0.3583
 4183SOL    HW224012   3.972   0.599   5.113  0.5170  0.5073 -0.1731
 4184SOL     OW24013   0.744   2.089  13.817 -0.3593  0.1571  0.5816
 4184SOL    HW124014   0.720   2.101  13.725  2.1691 -1.4604 -0.2950
 4184SOL    HW224015   0.835   2.098  13.790  0.2464  0.2434  2.6339
 4185SOL     OW24016   0.928   0.150   2.352  0.2360  0.5587 -0.0879
 4185SOL    HW124017   0.874   0.164   2.430 -1.9608 -1.3535 -1.2569
 4185SOL    HW224018   0.858   0.183   2.296 -0.7300 -0.2393  0.6639
 4186SOL     OW24019   1.483   1.257  11.409  0.1098  0.1238  0.2953
 4186SOL    HW124020   1.575   1.236  11.393  0.3004  1.4386 -0.2956
 4186SOL    HW224021   1.489   1.352  11.418 -1.9514  0.4333 -1.5422
 4187SOL     OW24022   0.977   1.814   8.489 -0.1018 -0.0236 -0.0035
 4187SOL    HW124023   0.890   1.779   8.510 -0.1451 -0.3096 -0.6819
 4187SOL    HW224024   1.016   1.816   8.576 -0.0643  1.2154 -0.0456
 4188SOL     OW24025   4.354   3.016   7.806 -0.3717 -0.6328  0.3031
 4188SOL    HW124026   4.328   3.108   7.811 -1.2996 -0.9759  1.9766
 4188SOL    HW224027   4.281   2.973   7.761 -0.0847 -1.3251  0.5071
 4189SOL     OW24028   3.101   3.119   4.213  0.6591  0.0579 -0.1583
 4189SOL    HW124029   3.191   3.089   4.199 -0.1859 -2.2914 -0.6046
 4189SOL    HW224030   3.115   3.211   4.190 -0.3403  0.5636  1.2633
 4190SOL     OW24031   2.456   1.066   6.614  0.6507  0.5390 -0.6081
 4190SOL    HW124032   2.542   1.045   6.578  1.4840  1.0497  1.0765
 4190SOL    HW224033   2.480   1.067   6.707 -1.2181 -0.0917 -0.1074
 4191SOL     OW24034   4.521   0.064  15.567 -0.3214 -0.1950 -0.6802
 4191SOL    HW124035   4.466   0.135  15.535  2.5837  1.4790 -1.9443
 4191SOL    HW224036   4.485   4.723  15.509 -1.5726  0.8993 -1.1845
 4192SOL     OW24037   4.448   4.348   8.429  0.2579 -0.4537 -0.3529
 4192SOL    HW124038   4.444   4.278   8.494 -1.1715  0.8624  0.9588
 4192SOL    HW224039   4.465   4.426   8.480  0.3216 -0.7466  0.0732
 4193SOL     OW24040   3.831   3.686   3.726  0.6118 -0.2907  0.2714
 4193SOL    HW124041   3.908   3.743   3.727 -0.1254  0.6971  2.2972
 4193SOL    HW224042   3.785   3.724   3.651 -0.2878  0.3757  1.1611
 4194SOL     OW24043   0.212   2.676  12.986  0.2368  0.5445  0.4817
 4194SOL    HW124044   0.127   2.671  13.031 -0.6428 -0.6251 -1.2934
 4194SOL    HW224045   0.233   2.583  12.991 -1.1583  0.0684 -2.3198
 4195SOL     OW24046   2.507   1.325  11.146 -0.4807 -0.2292  0.0564
 4195SOL    HW124047   2.529   1.407  11.101 -1.1537 -0.0277  0.0838
 4195SOL    HW224048   2.578   1.321  11.209  0.6209 -0.6728 -1.2093
 4196SOL     OW24049   4.126   0.113  13.168  0.0143  0.4532  0.0318
 4196SOL    HW124050   4.148   0.158  13.086 -2.7292  0.6009 -0.6060
 4196SOL    HW224051   4.145   0.182  13.232 -3.7795 -0.8239  2.5047
 4197SOL     OW24052   2.164   1.036   7.698 -0.2035 -0.0508 -0.1563
 4197SOL    HW124053   2.185   1.123   7.733 -2.4211  0.6949 -0.6798
 4197SOL    HW224054   2.080   1.029   7.743  0.6967  0.0263  1.5537
 4198SOL     OW24055   4.263   3.157   2.588  0.3425  0.3412  1.2751
 4198SOL    HW124056   4.258   3.086   2.525 -0.4986  2.4000 -0.9675
 4198SOL    HW224057   4.353   3.190   2.588  0.8655 -1.1149  1.2471
 4199SOL     OW24058   4.252   3.860   1.014  0.6144 -0.1169  0.1081
 4199SOL    HW124059   4.302   3.851   0.932  0.6439  2.4944 -0.1554
 4199SOL    HW224060   4.311   3.906   1.074 -0.9333  0.8445  0.8973
 4200SOL     OW24061   3.249   3.833   5.100 -0.3960  0.0735 -0.3371
 4200SOL    HW124062   3.243   3.890   5.023 -1.6195 -0.3680 -0.5643
 4200SOL    HW224063   3.159   3.821   5.131 -1.4191  2.0029 -2.5396
 4201SOL     OW24064   3.083   2.580   5.632  0.0933 -0.6142  0.0336
 4201SOL    HW124065   3.143   2.636   5.682 -0.6352  2.0314 -2.0468
 4201SOL    HW224066   3.038   2.644   5.577 -0.8186 -2.2045 -1.0511
 4202SOL     OW24067   3.336   2.951   8.697  0.1830  0.5878 -0.2937
 4202SOL    HW124068   3.383   2.932   8.616 -1.2277 -2.5077 -0.3676
 4202SOL    HW224069   3.358   2.875   8.750  0.1937  1.8414  1.5233
 4203SOL     OW24070   0.492   3.873   5.159 -0.4711 -0.1704 -0.0639
 4203SOL    HW124071   0.523   3.897   5.072 -0.0021 -1.4293 -0.2463
 4203SOL    HW224072   0.554   3.804   5.183  0.0103  0.6422  1.0554
 4204SOL     OW24073   3.550   1.773   1.819  0.1892 -0.0765  0.1700
 4204SOL    HW124074   3.593   1.716   1.755  0.2751  2.0566 -1.6799
 4204SOL    HW224075   3.463   1.736   1.835 -0.2462 -0.0543 -2.0720
 4205SOL     OW24076   0.601   3.397   0.115 -0.7344  0.2497  0.5762
 4205SOL    HW124077   0.629   3.435   0.198  1.0246 -0.8945  0.4941
 4205SOL    HW224078   0.520   3.356   0.147  0.7201 -3.2721 -0.2913
 4206SOL     OW24079   0.234   2.812   7.996  0.0157  0.6973  0.2559
 4206SOL    HW124080   0.261   2.876   7.931  0.4583  0.8010  0.5376
 4206SOL    HW224081   0.141   2.810   7.977  0.3331 -0.1365 -1.2110
 4207SOL     OW24082   2.966   0.827   0.255 -0.1428  0.1996  0.0709
 4207SOL    HW124083   2.882   0.857   0.220 -1.2359 -1.4968  1.2443
 4207SOL    HW224084   2.989   0.883   0.329  0.3736  0.7737 -0.5239
 4208SOL     OW24085   4.163   2.392   2.461 -0.2699 -0.3841  0.6557
 4208SOL    HW124086   4.166   2.300   2.485  1.4060 -0.7378 -0.9930
 4208SOL    HW224087   4.251   2.402   2.426 -1.0262 -0.3244 -1.1898
 4209SOL     OW24088   2.264   2.925   3.591  0.6809 -0.2359  0.2370
 4209SOL    HW124089   2.188   2.884   3.550  1.7536  1.5065 -3.5717
 4209SOL    HW224090   2.213   2.972   3.656 -0.2164  0.8052 -1.1990
 4210SOL     OW24091   3.623   3.209   8.724 -1.2657  0.0157 -0.2082
 4210SOL    HW124092   3.580   3.163   8.796  1.4635 -1.4570  0.4852
 4210SOL    HW224093   3.620   3.138   8.659  0.6779  0.1594 -0.4572
 4211SOL     OW24094   0.945   2.070  12.430 -0.0381  0.6150  1.1196
 4211SOL    HW124095   0.947   2.031  12.518  0.8548 -0.0376  0.8150
 4211SOL    HW224096   1.008   2.142  12.437 -0.9233  1.5106 -0.0427
 4212SOL     OW24097   2.112   1.909   8.725 -0.0191  0.6325  0.1107
 4212SOL    HW124098   2.108   1.841   8.792  1.1651 -2.9378 -3.4612
 4212SOL    HW224099   2.202   1.895   8.695  0.3208  2.0882  0.4556
 4213SOL     OW24100   1.172   3.014   8.099 -0.3794  0.3057 -0.2511
 4213SOL    HW124101   1.251   3.027   8.151  1.1924  1.3555 -2.8963
 4213SOL    HW224102   1.146   2.923   8.117 -1.5947  1.0616  1.7272
 4214SOL     OW24103   0.893   1.748  12.375  0.0329 -0.1908 -0.0787
 4214SOL    HW124104   0.932   1.822  12.329 -1.0970  0.5757  0.2007
 4214SOL    HW224105   0.816   1.786  12.417  1.9547  1.7262  1.7757
 4215SOL     OW24106   4.693   2.849   7.944 -0.5992 -0.0561  0.1145
 4215SOL    HW124107   4.641   2.779   7.982  0.7809 -1.0451  0.1641
 4215SOL    HW224108   4.647   2.849   7.860 -1.5557  2.6008  0.6193
 4216SOL     OW24109   4.349   2.388   7.730 -0.0235  0.3866 -0.0096
 4216SOL    HW124110   4.433   2.432   7.715  0.6441 -0.6522  0.6606
 4216SOL    HW224111   4.376   2.327   7.799  0.0413 -2.7087 -2.7511
 4217SOL     OW24112   1.620   4.149   5.707  0.1875 -0.3033 -0.0348
 4217SOL    HW124113   1.666   4.080   5.660  2.3244  0.3346  1.1234
 4217SOL    HW224114   1.621   4.119   5.798  1.0646  0.2683  0.1430
 4218SOL     OW24115   1.604   0.045  10.415  0.1308  0.1583 -0.4961
 4218SOL    HW124116   1.548   4.713  10.364 -1.5510  2.6963 -1.6061
 4218SOL    HW224117   1.679   0.048  10.357  0.5326 -1.2640 -0.0425
 4219SOL     OW24118   2.315   0.897   2.296 -0.1209  0.4606  0.0460
 4219SOL    HW124119   2.310   0.805   2.269  1.1603  0.9065 -1.7943
 4219SOL    HW224120   2.396   0.897   2.348  0.9558  1.1078 -1.6069
 4220SOL     OW24121   1.629   0.443   5.581  0.0275  0.0349 -0.1561
 4220SOL    HW124122   1.575   0.373   5.617  1.5439 -0.0368  2.0216
 4220SOL    HW224123   1.575   0.511   5.622  0.0929 -0.1745  0.2715
 4221SOL     OW24124   2.402   0.310  14.579 -0.7328 -0.0897  0.2819
 4221SOL    HW124125   2.496   0.297  14.593 -0.6202 -0.6593 -1.0181
 4221SOL    HW224126   2.412   0.318  14.485 -0.1157  3.3882  0.6540
 4222SOL     OW24127   3.386   0.661   8.453 -0.3161  0.0593  0.0112
 4222SOL    HW124128   3.459   0.723   8.445 -0.6853  0.1243 -2.5675
 4222SOL    HW224129   3.344   0.697   8.531 -0.6423  0.0947 -0.1811
 4223SOL     OW24130   3.521   2.077   1.086 -0.5959  0.2245 -0.2622
 4223SOL    HW124131   3.566   2.098   1.004  0.4634  0.9632  0.4999
 4223SOL    HW224132   3.591   2.088   1.151 -0.8877 -1.6623  0.3760
 4224SOL     OW24133   0.286   1.340  12.649 -0.3836  0.0394  0.3787
 4224SOL    HW124134   0.324   1.382  12.572 -2.4110  0.5263 -0.3671
 4224SOL    HW224135   0.214   1.301  12.600 -0.0972 -2.4651  1.9520
 4225SOL     OW24136   0.384   4.283   6.445 -0.0027 -0.6893 -0.1734
 4225SOL    HW124137   0.322   4.356   6.439 -0.5898 -1.2897 -1.6896
 4225SOL    HW224138   0.460   4.315   6.493  0.1772  0.7070 -1.3916
 4226SOL     OW24139   4.013   1.665   5.996  0.0113 -0.5317 -0.4933
 4226SOL    HW124140   4.070   1.729   5.953  1.9789 -1.8794  0.1177
 4226SOL    HW224141   4.083   1.601   6.008 -0.0257 -0.2709  1.2348
 4227SOL     OW24142   4.272   3.967   8.686  0.0409  0.2141 -0.1975
 4227SOL    HW124143   4.307   3.925   8.764 -1.4117  1.8289  1.3393
 4227SOL    HW224144   4.342   4.029   8.665  0.3100 -0.0794 -0.1620
 4228SOL     OW24145   0.350   4.621   3.753 -0.5704 -0.1459 -0.0524
 4228SOL    HW124146   0.421   4.664   3.705 -2.1938  1.3427 -1.1137
 4228SOL    HW224147   0.408   4.578   3.816  0.6596 -1.3545 -2.0127
 4229SOL     OW24148   3.266   3.003  11.344  0.0890  0.2001 -0.3103
 4229SOL    HW124149   3.189   2.999  11.288 -0.2132  0.6339  0.0654
 4229SOL    HW224150   3.295   2.914  11.323  0.6752  0.6933 -1.5884
 4230SOL     OW24151   1.077   2.437   2.876  0.2159  0.0962  0.2540
 4230SOL    HW124152   1.032   2.357   2.901 -1.5562  0.6137 -1.3334
 4230SOL    HW224153   1.061   2.497   2.950  0.6036 -1.2432  1.4266
 4231SOL     OW24154   3.151   4.447   6.307  0.1582  0.2614 -0.5077
 4231SOL    HW124155   3.059   4.463   6.326 -0.4443 -1.9976 -1.5654
 4231SOL    HW224156   3.163   4.352   6.308 -3.5944 -0.1931  2.6731
 4232SOL     OW24157   2.615   2.258  11.034 -0.1917 -0.0510  0.4531
 4232SOL    HW124158   2.646   2.196  11.100  0.6853  1.6642  1.6543
 4232SOL    HW224159   2.549   2.218  10.977 -0.4327  0.8549  0.0841
 4233SOL     OW24160   0.595   3.206   4.988  0.1269 -0.0102  0.0320
 4233SOL    HW124161   0.599   3.215   5.083  1.0475  2.2157 -0.2316
 4233SOL    HW224162   0.610   3.112   4.978  1.9366  0.4128 -1.2307
 4234SOL     OW24163   1.068   4.094   0.508  0.0714 -0.1008  0.0898
 4234SOL    HW124164   1.018   4.158   0.559  1.0189  0.8387 -0.1482
 4234SOL    HW224165   1.028   4.098   0.421 -0.0697  1.3934  0.2169
 4235SOL     OW24166   3.749   3.470  17.229  0.5816 -0.1586  0.3538
 4235SOL    HW124167   3.769   3.378  17.246  0.3075 -0.3443 -0.3178
 4235SOL    HW224168   3.773   3.474  17.136  0.3555 -0.1713  0.2944
 4236SOL     OW24169   0.106   2.602  16.659 -0.1132  0.6897  0.5403
 4236SOL    HW124170   0.140   2.545  16.590  1.9367  1.3263  1.0244
 4236SOL    HW224171   0.099   2.542  16.733  0.1909  0.5070  0.4210
 4237SOL     OW24172   3.512   3.987  11.587 -0.0892 -0.1010  0.6328
 4237SOL    HW124173   3.511   4.075  11.550 -1.8924  0.9280  3.0998
 4237SOL    HW224174   3.535   4.002  11.679 -0.6621  0.8215  0.6239
 4238SOL     OW24175   0.453   3.229   5.881 -0.0038 -0.5763  0.3226
 4238SOL    HW124176   0.436   3.180   5.961 -1.7055 -1.0548 -0.3524
 4238SOL    HW224177   0.388   3.190   5.822 -0.5319  1.8185 -0.6975
 4239SOL     OW24178   1.316   3.923   7.095 -0.2745  0.1353  0.0845
 4239SOL    HW124179   1.373   3.902   7.168  0.8957 -0.1970 -0.9189
 4239SOL    HW224180   1.267   3.841   7.093  0.3835 -0.2415 -0.6245
 4240SOL     OW24181   2.225   1.069   3.750 -0.0358  0.5239 -0.3040
 4240SOL    HW124182   2.130   1.075   3.742 -0.2103  1.8803  2.8871
 4240SOL    HW224183   2.248   0.994   3.696 -0.2666  0.4273 -0.2681
 4241SOL     OW24184   1.038   1.193  10.874  0.8760 -0.2147  0.2886
 4241SOL    HW124185   1.121   1.237  10.892  0.2702  0.4019  1.5943
 4241SOL    HW224186   1.033   1.199  10.778 -1.1273 -0.2716  0.4026
 4242SOL     OW24187   4.616   2.922   5.067 -0.2611  0.2581 -0.2253
 4242SOL    HW124188   4.645   2.987   5.132  0.8112 -0.9592  0.5070
 4242SOL    HW224189   4.686   2.861   5.089  0.5068  0.0045 -3.4498
 4243SOL     OW24190   1.976   3.208   4.722 -0.0787  0.6459 -0.2069
 4243SOL    HW124191   2.025   3.211   4.640  2.6663  1.8640  1.4923
 4243SOL    HW224192   2.024   3.136   4.763  0.6797  0.6478 -1.1021
 4244SOL     OW24193   1.271   2.834   1.227 -0.4212  0.1931 -0.0358
 4244SOL    HW124194   1.281   2.786   1.145 -3.5939 -2.6671  1.2323
 4244SOL    HW224195   1.360   2.861   1.248 -0.0650 -0.7766 -0.2879
 4245SOL     OW24196   3.771   3.653   5.077 -0.0668 -0.4645  0.9080
 4245SOL    HW124197   3.680   3.676   5.055  0.5449  2.5440  1.5514
 4245SOL    HW224198   3.783   3.658   5.172  0.8083  1.6930  0.6795
 4246SOL     OW24199   3.632   3.483   8.435  0.4567  0.4244 -0.0245
 4246SOL    HW124200   3.703   3.421   8.420 -0.6234 -0.6783 -0.5999
 4246SOL    HW224201   3.634   3.518   8.346  2.0183  0.3716 -0.0041
 4247SOL     OW24202   1.087   2.063   0.706 -0.4886  0.0044  0.6580
 4247SOL    HW124203   1.116   2.073   0.615 -0.1831  0.9927  0.8702
 4247SOL    HW224204   1.024   2.134   0.717  0.1154  0.5266  0.6724
 4248SOL     OW24205   3.753   2.507  15.992 -0.6516  0.6023  0.3899
 4248SOL    HW124206   3.735   2.450  15.918 -0.5531  0.8971  0.1396
 4248SOL    HW224207   3.766   2.593  15.953 -2.7339  1.4475  1.5046
 4249SOL     OW24208   2.736   3.395  14.510  0.1660 -0.0235  0.0226
 4249SOL    HW124209   2.762   3.322  14.566 -0.7557  0.5734  1.2100
 4249SOL    HW224210   2.794   3.395  14.433 -0.4303  0.3223 -0.4256
 4250SOL     OW24211   3.799   0.546  11.257  0.0178  0.2865  0.0178
 4250SOL    HW124212   3.805   0.632  11.297  1.2170  0.3244 -0.2217
 4250SOL    HW224213   3.765   0.568  11.170  3.5624  2.0383 -0.9615
 4251SOL     OW24214   0.585   0.020   3.293  0.5521  0.0206  0.2406
 4251SOL    HW124215   0.574   0.106   3.333  2.4799  0.3437  0.0499
 4251SOL    HW224216   0.563   4.691   3.368 -1.7113 -1.1092 -1.2611
 4252SOL     OW24217   0.497   3.401   5.646  0.1160 -0.7124 -0.1917
 4252SOL    HW124218   0.429   3.415   5.580 -1.0500  0.1830  1.1790
 4252SOL    HW224219   0.440   3.369   5.716  0.5850  0.2553  0.6437
 4253SOL     OW24220   3.453   1.961   7.303  0.6740  0.3552  0.2828
 4253SOL    HW124221   3.473   1.888   7.245 -2.2724 -0.3858  0.2473
 4253SOL    HW224222   3.516   2.022   7.264 -2.2744  2.1661 -1.6087
 4254SOL     OW24223   0.196   0.363   5.382 -0.7311  0.4304  0.4615
 4254SOL    HW124224   0.222   0.346   5.291  1.2057 -1.3966  1.3516
 4254SOL    HW224225   0.250   0.308   5.439 -0.9192  2.1792  2.3078
 4255SOL     OW24226   4.162   2.967  12.102 -0.0954 -0.4684  0.2883
 4255SOL    HW124227   4.236   2.969  12.163  0.3125 -0.3958 -0.2075
 4255SOL    HW224228   4.145   3.060  12.113 -0.8145 -0.5972  0.2498
 4256SOL     OW24229   2.153   1.719  11.730  0.1412  0.7401 -0.1317
 4256SOL    HW124230   2.186   1.629  11.730 -1.4073  0.1783  1.7137
 4256SOL    HW224231   2.142   1.734  11.636 -0.9170  1.1095  0.0528
 4257SOL     OW24232   2.964   0.503   6.537 -0.1623  0.2832  0.4688
 4257SOL    HW124233   3.053   0.484   6.567 -0.4010 -0.1726  0.9007
 4257SOL    HW224234   2.919   0.421   6.559  0.3106 -0.0708  0.1066
 4258SOL     OW24235   0.436   2.762   5.188  0.3372  0.3307  0.0296
 4258SOL    HW124236   0.469   2.691   5.133 -2.3071 -0.7154 -0.2173
 4258SOL    HW224237   0.384   2.822   5.135  0.4649 -0.4782 -0.9953
 4259SOL     OW24238   3.797   0.453   4.392 -0.2688 -0.4763  0.3120
 4259SOL    HW124239   3.715   0.502   4.396 -1.2805 -2.1214 -0.6312
 4259SOL    HW224240   3.777   0.378   4.448  1.4767  0.2081  1.8782
 4260SOL     OW24241   3.123   1.222   3.704 -0.1640  0.5923  0.5324
 4260SOL    HW124242   3.161   1.278   3.772  1.7938 -1.3381  1.0368
 4260SOL    HW224243   3.052   1.273   3.665 -1.0886 -1.2819 -0.2257
 4261SOL     OW24244   3.708   1.291   3.252  0.0607 -0.1228  0.4013
 4261SOL    HW124245   3.764   1.224   3.292  0.2279  0.0179  0.4022
 4261SOL    HW224246   3.768   1.365   3.256  0.3806 -0.2989 -0.9601
 4262SOL     OW24247   4.046   1.343  15.177 -0.1218 -0.0525 -0.2592
 4262SOL    HW124248   4.038   1.248  15.174  1.4306 -0.1935  0.2938
 4262SOL    HW224249   4.079   1.358  15.265 -1.3202  1.9026 -0.1366
 4263SOL     OW24250   0.923   4.430   5.854  0.7040 -0.6613 -0.3025
 4263SOL    HW124251   0.998   4.372   5.843  2.9568  2.4942 -1.7212
 4263SOL    HW224252   0.945   4.457   5.943 -1.7020  0.0529  0.0703
 4264SOL     OW24253   1.357   4.428   8.472  0.0862  0.6810 -0.1887
 4264SOL    HW124254   1.373   4.415   8.566 -0.7489  2.4659  0.2072
 4264SOL    HW224255   1.369   4.335   8.454  0.3149  0.8618 -0.9484
 4265SOL     OW24256   3.333   3.590  10.027 -0.4470 -0.6387 -0.1885
 4265SOL    HW124257   3.361   3.679  10.052 -2.7591  0.0413 -0.0370
 4265SOL    HW224258   3.260   3.609   9.967  0.0115  0.6210 -0.3566
 4266SOL     OW24259   0.327   3.816   7.483  0.2334  0.1883  0.1595
 4266SOL    HW124260   0.252   3.811   7.541  0.5611  0.7712  0.6262
 4266SOL    HW224261   0.395   3.807   7.549  1.5983 -1.7189 -1.4800
 4267SOL     OW24262   1.290   3.002  11.965  0.1879  0.5312  0.5443
 4267SOL    HW124263   1.377   2.996  12.006 -0.1424 -0.8285  1.0653
 4267SOL    HW224264   1.242   2.963  12.038 -0.0807 -0.8832 -0.3837
 4268SOL     OW24265   2.955   0.007   3.735 -0.5681 -0.1210  0.2850
 4268SOL    HW124266   2.955   0.102   3.748 -0.4200  0.0708 -1.1718
 4268SOL    HW224267   2.862   4.714   3.749 -0.8325  0.4315 -0.6510
 4269SOL     OW24268   1.787   2.513   8.712 -0.2045  0.0245 -0.2594
 4269SOL    HW124269   1.803   2.473   8.626  0.4600  0.1792 -0.2069
 4269SOL    HW224270   1.874   2.520   8.751 -0.9535  0.6195  1.3172
 4270SOL     OW24271   0.235   0.415  11.698  0.0747  0.8198 -0.2519
 4270SOL    HW124272   0.212   0.322  11.699  2.4688  0.2469  1.0915
 4270SOL    HW224273   0.263   0.423  11.607 -1.4936 -1.9311 -0.9869
 4271SOL     OW24274   2.092   2.552   7.063 -0.0631 -0.0017 -0.2646
 4271SOL    HW124275   1.999   2.546   7.040 -0.2959 -0.7149  0.9038
 4271SOL    HW224276   2.100   2.647   7.053 -0.1040  0.0587  0.3120
 4272SOL     OW24277   2.436   3.700  16.097  0.3155  0.0889  0.1134
 4272SOL    HW124278   2.482   3.669  16.175  1.4484  2.5492  0.4184
 4272SOL    HW224279   2.376   3.629  16.074 -1.1468  1.9298 -1.8426
 4273SOL     OW24280   3.638   3.091   7.422 -0.1632 -0.2270 -0.1054
 4273SOL    HW124281   3.669   3.135   7.501 -0.2918  0.5013 -0.4595
 4273SOL    HW224282   3.651   3.159   7.356 -2.0020 -1.8058 -2.1212
 4274SOL     OW24283   0.818   4.036   2.052 -0.2345 -0.0657 -0.4282
 4274SOL    HW124284   0.860   4.072   1.974 -3.0955  0.6117 -1.6670
 4274SOL    HW224285   0.876   3.963   2.074 -2.1465 -1.0082  1.4692
 4275SOL     OW24286   2.112   4.374  12.261  0.3529  0.4913  0.5139
 4275SOL    HW124287   2.092   4.440  12.328 -1.2684  0.5214  0.0097
 4275SOL    HW224288   2.060   4.403  12.185 -0.8195  2.2143  1.9733
 4276SOL     OW24289   3.797   1.205  10.496 -0.4773 -0.7032  0.6380
 4276SOL    HW124290   3.736   1.274  10.523 -0.4218 -1.0817  1.7495
 4276SOL    HW224291   3.858   1.248  10.437 -1.2175 -2.1512 -1.1875
 4277SOL     OW24292   0.110   2.507  10.971  0.2950 -0.2700 -0.4960
 4277SOL    HW124293   0.017   2.493  10.987  0.4201  0.5793  1.0200
 4277SOL    HW224294   0.150   2.457  11.042  0.9897 -0.2537 -0.8714
 4278SOL     OW24295   0.594   3.165   6.218  0.1450  0.0513 -0.2175
 4278SOL    HW124296   0.561   3.079   6.193  0.7173 -0.6197  1.2872
 4278SOL    HW224297   0.660   3.175   6.150  0.5919  2.0166  0.4985
 4279SOL     OW24298   0.926   3.380   0.328  1.1518 -0.1289  0.1169
 4279SOL    HW124299   1.007   3.335   0.350 -0.5743 -2.7024  1.1834
 4279SOL    HW224300   0.952   3.466   0.361  0.7777  0.3647 -0.8590
 4280SOL     OW24301   3.734   0.757   2.497  0.0790  0.6039  0.2556
 4280SOL    HW124302   3.791   0.810   2.553  1.0877 -0.2337  0.0282
 4280SOL    HW224303   3.679   0.721   2.566  1.4639 -0.4905  0.7858
 4281SOL     OW24304   4.404   1.400   6.613 -0.1483 -0.3532 -0.0002
 4281SOL    HW124305   4.385   1.441   6.698 -2.1876 -1.1858 -0.0595
 4281SOL    HW224306   4.385   1.477   6.559 -0.9478  0.4037  1.3477
 4282SOL     OW24307   4.477   3.274   2.701 -0.5818 -0.0492  0.0584
 4282SOL    HW124308   4.551   3.244   2.753 -0.0145  0.5049 -0.4263
 4282SOL    HW224309   4.437   3.341   2.757 -0.3698  0.1112  0.0162
 4283SOL     OW24310   3.635   0.765   9.808  0.0103 -0.2149 -0.4525
 4283SOL    HW124311   3.565   0.704   9.790 -1.3898  0.4161  2.7737
 4283SOL    HW224312   3.692   0.716   9.868 -1.4193 -0.5307  0.6341
 4284SOL     OW24313   1.130   0.520  16.671  0.3402 -0.3929  0.5385
 4284SOL    HW124314   1.126   0.472  16.754 -0.0475 -0.2556  0.5993
 4284SOL    HW224315   1.146   0.450  16.607 -1.0647 -0.2394  0.0246
 4285SOL     OW24316   2.894   3.532  14.111  0.1382 -0.4436 -0.0323
 4285SOL    HW124317   2.916   3.485  14.031 -1.7330 -1.0329 -0.1908
 4285SOL    HW224318   2.865   3.459  14.166 -0.6680  0.9151  1.3529
 4286SOL     OW24319   3.436   0.049   3.265  0.5989  0.2944 -0.3700
 4286SOL    HW124320   3.486   0.126   3.293 -0.2902  0.9275 -0.5280
 4286SOL    HW224321   3.380   0.019   3.337 -1.6003 -1.6291 -2.8986
 4287SOL     OW24322   4.432   4.628   7.003  0.4370  0.7278  0.0032
 4287SOL    HW124323   4.480   4.710   7.016  1.7055  0.1181 -0.8700
 4287SOL    HW224324   4.452   4.610   6.911  0.8341 -0.6181  0.3505
 4288SOL     OW24325   4.127   1.950  16.742  0.3196 -0.0842 -0.8477
 4288SOL    HW124326   4.202   1.904  16.704  0.8473  2.1095 -2.4347
 4288SOL    HW224327   4.179   2.020  16.783  0.7397 -0.5716 -0.5418
 4289SOL     OW24328   2.313   0.353  13.136  0.3779  0.0644 -0.1014
 4289SOL    HW124329   2.401   0.379  13.109 -1.1065  1.4192 -3.7484
 4289SOL    HW224330   2.315   0.378  13.228  0.8505 -0.3017 -0.0092
 4290SOL     OW24331   0.874   1.517   1.599  0.1375 -0.2866  0.1963
 4290SOL    HW124332   0.909   1.498   1.686  0.2621  0.2258  0.2562
 4290SOL    HW224333   0.789   1.476   1.613  0.6718 -0.8332  1.8944
 4291SOL     OW24334   0.614   4.044   7.434  0.5022  0.0640  0.3580
 4291SOL    HW124335   0.625   4.139   7.431 -0.8292  0.2283  0.7139
 4291SOL    HW224336   0.621   4.031   7.529 -1.3825 -0.0937  0.4855
 4292SOL     OW24337   3.548   4.363   0.685 -0.3287 -0.0944  0.1443
 4292SOL    HW124338   3.631   4.407   0.704 -0.5279 -0.1201  1.0706
 4292SOL    HW224339   3.535   4.421   0.611  1.1618  2.0494  1.5517
 4293SOL     OW24340   3.411   1.483   8.727 -0.2214  0.2409 -0.2457
 4293SOL    HW124341   3.385   1.521   8.811  0.5252 -1.8982  0.9443
 4293SOL    HW224342   3.333   1.471   8.674 -0.8402 -2.2455  1.2394
 4294SOL     OW24343   0.738   2.180  14.075 -0.0286  0.3852 -0.2159
 4294SOL    HW124344   0.744   2.154  13.983  1.6825  0.1970 -0.0438
 4294SOL    HW224345   0.798   2.254  14.072 -1.0582  1.1812 -1.0218
 4295SOL     OW24346   2.788   2.873  14.847  0.8114  0.3348 -0.2937
 4295SOL    HW124347   2.775   2.790  14.801  2.4876 -0.0341 -0.0753
 4295SOL    HW224348   2.853   2.845  14.911  1.9770 -0.9107 -2.0356
 4296SOL     OW24349   4.698   2.697   1.301 -0.2591  0.0785 -0.0411
 4296SOL    HW124350   4.640   2.674   1.374  0.8802  1.5973  1.3381
 4296SOL    HW224351   4.647   2.658   1.230  1.3670 -1.1205 -0.5497
 4297SOL     OW24352   2.687   0.267  17.256  0.1331 -0.0907  0.0271
 4297SOL    HW124353   2.730   0.188  17.222  0.2299  0.7362 -1.7291
 4297SOL    HW224354   2.618   0.226  17.307  0.4271  0.3513  0.7912
 4298SOL     OW24355   0.921   3.631   1.860  0.1377  0.4356  0.1611
 4298SOL    HW124356   0.920   3.547   1.907  0.3828  0.3338 -0.0171
 4298SOL    HW224357   0.830   3.633   1.828  0.9622  1.5635 -2.1027
 4299SOL     OW24358   2.459   1.180   8.325 -0.0761 -0.6385 -0.9616
 4299SOL    HW124359   2.366   1.159   8.329 -0.0940  0.1318  2.5278
 4299SOL    HW224360   2.478   1.119   8.254  0.1763 -2.2155  0.4824
 4300SOL     OW24361   3.879   2.984  14.190 -0.0769  0.3459  0.3275
 4300SOL    HW124362   3.922   2.944  14.265  1.0735  1.2354  0.1421
 4300SOL    HW224363   3.878   3.079  14.207  1.8620  0.4412 -0.0251
 4301SOL     OW24364   2.982   2.789   3.688 -0.6530  0.4062  0.2916
 4301SOL    HW124365   2.962   2.717   3.629  3.5597 -1.1769  0.7852
 4301SOL    HW224366   2.893   2.820   3.704 -1.1749  0.0456 -2.0634
 4302SOL     OW24367   0.758   1.614   8.267 -1.0025  0.5829 -0.2212
 4302SOL    HW124368   0.787   1.666   8.192 -0.6569 -1.0934 -1.2478
 4302SOL    HW224369   0.821   1.542   8.261 -0.0764  1.2308  1.9045
 4303SOL     OW24370   2.758   3.094   3.638  0.3866  0.0701 -0.1047
 4303SOL    HW124371   2.679   3.145   3.655  0.3820  0.5547 -1.5371
 4303SOL    HW224372   2.832   3.155   3.640 -1.6361  2.4704  0.6315
 4304SOL     OW24373   3.472   3.889  10.909  0.2768 -0.4225 -0.1532
 4304SOL    HW124374   3.484   3.943  10.986 -0.1871  0.8544 -0.9707
 4304SOL    HW224375   3.389   3.928  10.882 -0.2071 -0.2114  1.6835
 4305SOL     OW24376   1.381   3.356   8.333  0.5292 -0.4004 -0.3926
 4305SOL    HW124377   1.349   3.383   8.248  0.2634 -2.5438 -0.9827
 4305SOL    HW224378   1.408   3.267   8.308 -1.8495 -1.1870 -0.1168
 4306SOL     OW24379   3.582   2.780   2.594 -0.0706  0.1645 -0.1866
 4306SOL    HW124380   3.615   2.858   2.637  2.7011 -0.9467 -0.2811
 4306SOL    HW224381   3.596   2.804   2.502 -0.1339 -0.0662 -0.2580
 4307SOL     OW24382   0.744   2.937   4.656  0.1873  0.1884 -0.0925
 4307SOL    HW124383   0.802   2.883   4.710 -1.1962 -1.2130  0.0004
 4307SOL    HW224384   0.673   2.937   4.720  1.0925 -0.5161  0.9344
 4308SOL     OW24385   1.101   3.643  13.825  0.3885 -0.2275  0.0520
 4308SOL    HW124386   1.044   3.708  13.783  2.1708  0.8278 -0.7699
 4308SOL    HW224387   1.033   3.600  13.876 -0.2784  0.1110 -0.5542
 4309SOL     OW24388   3.069   1.726   4.182  0.0674 -0.1304  0.4606
 4309SOL    HW124389   3.036   1.808   4.144  0.5574  0.0815  0.5013
 4309SOL    HW224390   3.113   1.756   4.261  0.1431  1.8765 -0.3437
 4310SOL     OW24391   3.998   1.810   9.004  0.0453 -0.0745  0.3810
 4310SOL    HW124392   3.993   1.748   8.931 -1.2565  1.1722 -0.6071
 4310SOL    HW224393   4.001   1.756   9.082  0.0942 -0.2904  0.2300
 4311SOL     OW24394   1.184   4.073   7.394 -0.5890  0.0160 -0.3142
 4311SOL    HW124395   1.130   4.037   7.324 -0.5242 -0.1092 -0.3001
 4311SOL    HW224396   1.138   4.055   7.476  0.8448 -0.1897  0.4483
 4312SOL     OW24397   1.742   1.991  12.485 -0.2697  0.4069 -0.1436
 4312SOL    HW124398   1.658   1.978  12.529 -0.4541  3.2372  0.3034
 4312SOL    HW224399   1.776   1.902  12.479  1.3181  0.8790  1.7577
 4313SOL     OW24400   4.020   1.089   1.244 -0.0649  0.1862 -0.5898
 4313SOL    HW124401   3.947   1.028   1.236  0.7424 -0.9002  0.2557
 4313SOL    HW224402   3.978   1.158   1.296  1.5872  2.1589 -1.8783
 4314SOL     OW24403   1.337   4.613  17.192 -0.2012 -0.2033 -0.0287
 4314SOL    HW124404   1.423   4.587  17.227  0.6917  0.4345 -1.7761
 4314SOL    HW224405   1.279   4.598  17.267  0.8615  1.6693  1.1946
 4315SOL     OW24406   1.200   1.653  12.930  0.1915  0.1865  0.9528
 4315SOL    HW124407   1.162   1.576  12.973 -0.5647  0.1987  0.3199
 4315SOL    HW224408   1.225   1.697  13.011 -1.2422  1.6221  0.6177
 4316SOL     OW24409   3.817   2.851   6.079  0.1824 -0.3587  0.1394
 4316SOL    HW124410   3.835   2.763   6.112  0.1220  0.4651  2.3520
 4316SOL    HW224411   3.909   2.876   6.087  0.5899 -1.8113 -0.0814
 4317SOL     OW24412   2.434   3.761  11.738 -0.0815 -0.1456  0.4962
 4317SOL    HW124413   2.389   3.798  11.813 -0.3460  1.0130 -0.2473
 4317SOL    HW224414   2.519   3.741  11.778 -0.3682 -0.1831  1.0821
 4318SOL     OW24415   2.452   0.489   8.515 -0.7050  0.5065  0.6274
 4318SOL    HW124416   2.496   0.418   8.562  0.8288  0.7494 -0.4418
 4318SOL    HW224417   2.456   0.444   8.431  0.1093 -0.1765  1.0358
 4319SOL     OW24418   4.195   1.161   6.456 -0.1701  0.1446 -0.7260
 4319SOL    HW124419   4.138   1.216   6.401 -0.5698  0.6895  0.2330
 4319SOL    HW224420   4.218   1.092   6.394  2.4058  1.1552 -0.8798
 4320SOL     OW24421   3.220   3.304   7.931 -0.5965 -0.6562  0.1475
 4320SOL    HW124422   3.125   3.314   7.922 -0.3570  1.4827  0.1275
 4320SOL    HW224423   3.241   3.305   7.838 -1.2777 -1.6358 -0.0239
 4321SOL     OW24424   4.245   2.594   9.556  0.0629  0.1997 -0.3452
 4321SOL    HW124425   4.277   2.540   9.629 -0.7409 -0.3990 -0.4380
 4321SOL    HW224426   4.259   2.543   9.476  0.9700 -1.8008  1.0797
 4322SOL     OW24427   4.320   0.321   7.186  0.5539 -0.2753 -0.1294
 4322SOL    HW124428   4.352   0.240   7.227  0.6592 -0.6735 -0.9997
 4322SOL    HW224429   4.353   0.384   7.250 -0.1072  1.6523 -1.7068
 4323SOL     OW24430   1.951   1.150   9.036  0.9443 -0.0710 -0.3125
 4323SOL    HW124431   1.863   1.185   9.041  0.7697 -0.5497  0.0324
 4323SOL    HW224432   1.980   1.175   8.948 -0.0659  0.1149 -0.5882
 4324SOL     OW24433   0.995   0.925   3.730 -0.5243  0.1345  0.1501
 4324SOL    HW124434   0.942   0.890   3.658 -0.8336  0.4107  0.2398
 4324SOL    HW224435   0.957   0.877   3.804  0.9183  0.3741  1.0617
 4325SOL     OW24436   4.643   3.988   7.001 -0.2939  0.4481  0.2686
 4325SOL    HW124437   4.614   3.915   6.946  1.2741  0.5761 -0.7375
 4325SOL    HW224438   4.628   4.057   6.937  0.3295  1.0946  0.8200
 4326SOL     OW24439   2.309   4.475   8.029 -0.2796 -0.2577  0.0657
 4326SOL    HW124440   2.348   4.390   8.048 -0.1295 -0.0200  0.8037
 4326SOL    HW224441   2.255   4.496   8.105 -1.1017 -0.8843 -0.3370
 4327SOL     OW24442   3.148   0.156   1.160  0.0198 -0.3019  0.2541
 4327SOL    HW124443   3.121   0.231   1.213 -1.7103 -0.5151 -0.3034
 4327SOL    HW224444   3.066   0.108   1.147 -0.6034  0.7123  0.4832
 4328SOL     OW24445   0.802   4.014   8.789  0.3376 -0.1156 -0.3154
 4328SOL    HW124446   0.713   3.990   8.764 -0.5969  1.6516  1.2775
 4328SOL    HW224447   0.811   3.975   8.876 -1.0835  0.0316 -0.1070
 4329SOL     OW24448   2.904   1.324   1.991  0.2173 -0.1309 -0.7083
 4329SOL    HW124449   2.962   1.298   1.919  0.8931 -1.1585  0.2113
 4329SOL    HW224450   2.823   1.330   1.942 -1.0019 -0.8023  1.2273
 4330SOL     OW24451   3.453   3.261   3.546 -0.7575 -0.3946  0.1444
 4330SOL    HW124452   3.397   3.193   3.510 -0.3702 -0.6658  0.0475
 4330SOL    HW224453   3.463   3.333   3.484 -0.8011 -0.5732 -0.0680
 4331SOL     OW24454   0.949   3.352   7.948  0.6602  0.0041  0.4269
 4331SOL    HW124455   0.988   3.267   7.926 -1.5000 -0.8243 -0.1791
 4331SOL    HW224456   0.867   3.314   7.980  0.1209  1.1747  0.4466
 4332SOL     OW24457   1.085   3.972  14.065 -0.1385  0.1117  0.2135
 4332SOL    HW124458   1.109   4.053  14.111 -0.7306 -0.6812  1.9033
 4332SOL    HW224459   1.163   3.953  14.012 -1.2914 -0.5635 -1.2581
 4333SOL     OW24460   1.317   2.952   5.428 -0.4291  0.2630 -0.1855
 4333SOL    HW124461   1.254   2.880   5.418  1.3889 -1.2716 -0.4797
 4333SOL    HW224462   1.401   2.926   5.391 -0.8449 -0.1254 -0.8747
 4334SOL     OW24463   2.976   1.981  11.642  0.2641 -0.1870  0.2081
 4334SOL    HW124464   2.967   1.918  11.714  2.2478  0.7052  1.2415
 4334SOL    HW224465   2.978   2.065  11.687 -0.5631 -0.8956  1.5928
 4335SOL     OW24466   0.637   4.424   3.058 -0.4033  0.2602 -0.0311
 4335SOL    HW124467   0.688   4.504   3.071 -0.0308 -0.2509  1.7292
 4335SOL    HW224468   0.557   4.451   3.013 -0.2758  0.1713 -0.3037
 4336SOL     OW24469   4.045   2.626   7.539 -0.2773 -0.1622  0.6215
 4336SOL    HW124470   4.057   2.585   7.625  1.0940 -0.0625  0.4746
 4336SOL    HW224471   3.950   2.618   7.528 -0.4265  1.8413  0.4437
 4337SOL     OW24472   1.378   2.734   3.009  0.5075 -0.7223  0.3209
 4337SOL    HW124473   1.287   2.733   3.039 -0.4224  0.1755 -2.4815
 4337SOL    HW224474   1.382   2.813   2.956 -0.7788 -0.1823  1.0337
 4338SOL     OW24475   1.196   0.253  11.398  0.0067  0.8297 -0.3606
 4338SOL    HW124476   1.133   0.319  11.368  1.5632  2.4653 -0.0274
 4338SOL    HW224477   1.190   0.189  11.328  2.3075  1.3297 -0.9932
 4339SOL     OW24478   3.258   2.185  15.212  0.0142  0.1447  0.4979
 4339SOL    HW124479   3.334   2.207  15.159 -0.8449  0.3260 -0.6549
 4339SOL    HW224480   3.260   2.090  15.199  1.2040  0.0056  1.6657
 4340SOL     OW24481   2.090   3.874   8.701 -0.1276 -0.4154  0.4636
 4340SOL    HW124482   2.057   3.963   8.695  1.2067  0.0146 -0.2432
 4340SOL    HW224483   2.010   3.826   8.725 -0.5316  0.5048  0.9491
 4341SOL     OW24484   2.274   1.492   5.115 -0.3409  0.2925 -0.5395
 4341SOL    HW124485   2.316   1.425   5.168 -0.0471 -0.2909 -1.5121
 4341SOL    HW224486   2.355   1.531   5.082 -0.8083  4.3035  3.0959
 4342SOL     OW24487   0.513   4.698   6.980  0.2419  0.0312 -0.3105
 4342SOL    HW124488   0.532   0.029   7.054 -0.8409 -0.7185  0.5374
 4342SOL    HW224489   0.438   4.650   7.013 -2.0591  2.8507 -1.4783
 4343SOL     OW24490   4.686   0.873   4.593 -0.9320 -0.0409  0.3054
 4343SOL    HW124491   4.697   0.859   4.499 -1.2321  1.7074  0.0053
 4343SOL    HW224492   4.594   0.894   4.582 -1.0179  1.8255  4.6271
 4344SOL     OW24493   3.837   2.396   8.277  0.4323 -0.7171 -0.1551
 4344SOL    HW124494   3.828   2.312   8.232 -2.1707 -0.8274  0.5484
 4344SOL    HW224495   3.883   2.368   8.356  1.6111 -0.4117 -0.7383
 4345SOL     OW24496   4.266   4.311   4.422 -0.3374 -1.0281 -0.0537
 4345SOL    HW124497   4.300   4.330   4.509  0.1827  1.0822 -0.7003
 4345SOL    HW224498   4.348   4.306   4.373  0.9807 -0.8613  2.1279
 4346SOL     OW24499   1.076   3.817   3.304 -0.2455  0.1253  0.1564
 4346SOL    HW124500   1.094   3.799   3.396  0.1040  1.6654  0.3894
 4346SOL    HW224501   1.079   3.732   3.261 -3.0092  0.8417 -1.4851
 4347SOL     OW24502   1.453   1.352   7.877  0.3269  0.1038  0.1512
 4347SOL    HW124503   1.520   1.284   7.887  1.0233  0.8741  0.6577
 4347SOL    HW224504   1.416   1.338   7.789 -0.2470  1.9155  0.1169
 4348SOL     OW24505   3.103   0.266  11.628 -0.0552 -0.2273 -0.1493
 4348SOL    HW124506   3.142   0.188  11.667  0.4370  0.4775  0.7579
 4348SOL    HW224507   3.159   0.334  11.666  0.9556 -2.3331  2.1065
 4349SOL     OW24508   1.705   3.048   5.219 -0.0797 -0.0041  0.1849
 4349SOL    HW124509   1.739   3.067   5.306  2.1686 -1.2838 -0.4106
 4349SOL    HW224510   1.670   3.136   5.202 -0.6230  0.2215  2.4760
 4350SOL     OW24511   2.829   3.003  15.182 -0.3848  0.0819 -0.2320
 4350SOL    HW124512   2.848   3.080  15.129 -1.7182  0.6824  0.1564
 4350SOL    HW224513   2.912   2.957  15.190  0.0348  0.8641 -0.1005
 4351SOL     OW24514   1.499   2.199   7.211 -0.0739 -0.0335 -0.4245
 4351SOL    HW124515   1.543   2.267   7.262  0.3001 -0.9773  0.5181
 4351SOL    HW224516   1.404   2.208   7.220  0.1080  1.1389  0.2932
 4352SOL     OW24517   0.494   2.910   3.490 -0.4294 -0.5227 -0.0465
 4352SOL    HW124518   0.446   2.880   3.568  0.1935  2.0235  1.3354
 4352SOL    HW224519   0.559   2.840   3.482 -0.7720 -0.8325 -0.1366
 4353SOL     OW24520   4.349   0.301  11.944  0.0600  0.0432  0.2286
 4353SOL    HW124521   4.257   0.297  11.969  0.1920 -0.4967  0.6243
 4353SOL    HW224522   4.382   0.359  12.012  0.4061  0.0529  0.0532
 4354SOL     OW24523   4.429   0.108  16.079  0.1243 -0.0760  0.2488
 4354SOL    HW124524   4.480   0.152  16.011 -1.7451  0.0532 -1.0645
 4354SOL    HW224525   4.437   0.168  16.154  0.5418  0.8688 -0.5449
 4355SOL     OW24526   2.004   4.280   3.425 -0.4173  0.3056 -0.3396
 4355SOL    HW124527   2.023   4.196   3.383 -0.9621 -0.2449  0.5209
 4355SOL    HW224528   2.058   4.342   3.377 -0.2346 -0.0795 -0.6393
 4356SOL     OW24529   1.770   1.588   1.568 -0.3269  0.3158 -0.1250
 4356SOL    HW124530   1.841   1.525   1.583 -0.0196  0.3980 -1.2414
 4356SOL    HW224531   1.711   1.570   1.641 -1.4651 -2.2188 -1.6398
 4357SOL     OW24532   1.219   1.562   3.178  0.2297  0.1733  0.3383
 4357SOL    HW124533   1.186   1.649   3.154  1.9018  1.2549  1.9648
 4357SOL    HW224534   1.287   1.580   3.243  1.2802 -0.7412 -0.5152
 4358SOL     OW24535   4.136   0.415   3.239 -0.1480  0.0194 -0.0067
 4358SOL    HW124536   4.130   0.352   3.311 -0.1045  2.1521  1.8667
 4358SOL    HW224537   4.219   0.384   3.204 -0.1144 -1.1113  1.0785
 4359SOL     OW24538   1.850   2.273  12.499 -0.1194  0.5043 -0.3945
 4359SOL    HW124539   1.839   2.182  12.472  2.0204  0.0217  0.3809
 4359SOL    HW224540   1.778   2.281  12.562  0.8817  2.3336  0.5179
 4360SOL     OW24541   2.424   1.690   8.867 -0.5095  0.0889  0.4185
 4360SOL    HW124542   2.404   1.776   8.831 -0.6696 -0.0634  0.1492
 4360SOL    HW224543   2.340   1.655   8.838  0.3861 -1.7777  0.0250
 4361SOL     OW24544   0.426   4.670  14.509  0.1844  0.2968  0.4118
 4361SOL    HW124545   0.335   4.699  14.508  0.3044  0.6698  0.1248
 4361SOL    HW224546   0.413   4.577  14.493 -1.1739  0.5371  0.1270
 4362SOL     OW24547   1.342   0.036   2.870 -0.3991 -0.2436 -0.1008
 4362SOL    HW124548   1.312   0.127   2.869  0.8378  0.1375 -1.8346
 4362SOL    HW224549   1.406   0.044   2.941  1.1938  0.2315 -1.5897
 4363SOL     OW24550   3.414   0.022   2.693 -1.0524 -0.1992 -0.1856
 4363SOL    HW124551   3.443   0.101   2.647 -2.5311  1.9119  2.5094
 4363SOL    HW224552   3.428   4.667   2.645  0.3274 -0.2173  0.2504
 4364SOL     OW24553   3.403   4.176  16.232  0.5439 -0.1567 -0.0777
 4364SOL    HW124554   3.381   4.265  16.257  0.4957 -0.1155 -0.2638
 4364SOL    HW224555   3.402   4.133  16.317  2.3710 -0.1746 -0.0579
 4365SOL     OW24556   0.551   1.137  14.121 -0.0744  0.7042  0.1648
 4365SOL    HW124557   0.537   1.175  14.034  0.3881  0.4133 -0.0304
 4365SOL    HW224558   0.610   1.192  14.173 -0.9446 -0.0914  1.9711
 4366SOL     OW24559   3.218   3.277  12.322 -0.4563 -0.1076 -0.6182
 4366SOL    HW124560   3.154   3.275  12.393  1.2516  1.3677  0.9783
 4366SOL    HW224561   3.197   3.360  12.279  0.8260  0.9114  0.6811
 4367SOL     OW24562   3.365   4.184   6.939 -0.0774  0.1539 -0.5813
 4367SOL    HW124563   3.282   4.221   6.911  0.3172  1.2080 -0.3469
 4367SOL    HW224564   3.414   4.238   6.877 -1.3977  0.8942 -0.9912
 4368SOL     OW24565   3.774   4.679  14.636 -0.2939  0.3651  0.4589
 4368SOL    HW124566   3.765   4.611  14.569 -0.0876 -1.5109  2.3335
 4368SOL    HW224567   3.735   0.019  14.579 -0.0212  2.8340  3.1739
 4369SOL     OW24568   3.059   3.527   2.585 -0.0007 -0.5136 -0.0799
 4369SOL    HW124569   3.028   3.574   2.507  1.7252  1.8778  0.6622
 4369SOL    HW224570   2.981   3.505   2.635 -0.6512  0.1305 -0.8107
 4370SOL     OW24571   0.905   0.500  11.065 -0.3260 -0.2894  0.6923
 4370SOL    HW124572   0.852   0.526  10.989  2.9898  1.3002 -1.0469
 4370SOL    HW224573   0.886   0.572  11.125  0.3709  1.1388 -0.8000
 4371SOL     OW24574   0.532   1.324   4.428 -0.4520  0.6399 -0.1221
 4371SOL    HW124575   0.509   1.247   4.376 -1.2322  0.5828  0.3156
 4371SOL    HW224576   0.608   1.351   4.377 -0.4361  0.0023 -0.4413
 4372SOL     OW24577   2.000   4.015   6.062 -0.3063  0.0900  0.4156
 4372SOL    HW124578   2.088   3.981   6.048 -0.4144  0.0944 -0.2524
 4372SOL    HW224579   1.991   4.089   6.002  0.9848 -0.1597 -0.0686
 4373SOL     OW24580   4.656   2.710  12.213 -0.2843 -0.1594  0.1171
 4373SOL    HW124581   4.657   2.721  12.308  0.6424 -0.9307  0.2066
 4373SOL    HW224582   0.008   2.760  12.190  1.5367 -1.7409  2.9272
 4374SOL     OW24583   3.204   0.023  14.836  0.4908 -0.8332 -0.1765
 4374SOL    HW124584   3.228   4.670  14.882  0.1689  0.5002  2.3347
 4374SOL    HW224585   3.171   0.083  14.904  1.2726 -0.4474 -0.1278
 4375SOL     OW24586   0.401   0.494   7.524 -0.0897 -0.1008 -0.1196
 4375SOL    HW124587   0.377   0.423   7.464 -1.9884 -0.4256  1.0206
 4375SOL    HW224588   0.409   0.569   7.465  0.0856  0.9679  1.2620
 4376SOL     OW24589   0.507   2.038   7.972 -0.5581 -0.1008  0.1259
 4376SOL    HW124590   0.444   1.988   7.920 -0.4628  0.7208 -0.7636
 4376SOL    HW224591   0.481   2.016   8.061 -1.5710  2.1604  0.3772
 4377SOL     OW24592   3.422   0.881   1.811 -0.0815  0.3344  0.1991
 4377SOL    HW124593   3.484   0.809   1.825  2.1901  2.4912  1.2807
 4377SOL    HW224594   3.434   0.892   1.717  1.2563 -0.6250  0.2552
 4378SOL     OW24595   1.512   0.294   3.592 -0.1671 -0.6131  0.1077
 4378SOL    HW124596   1.517   0.357   3.520 -2.1403 -0.1183  0.4045
 4378SOL    HW224597   1.602   0.296   3.626 -0.4264  0.5418  0.6949
 4379SOL     OW24598   1.155   2.140   1.449  0.0089  0.0447 -0.1546
 4379SOL    HW124599   1.174   2.231   1.472  0.6203 -0.1999  0.3028
 4379SOL    HW224600   1.115   2.106   1.529  0.0902  0.5690  0.1096
 4380SOL     OW24601   4.530   3.207  10.058 -0.6974 -0.5607  0.5036
 4380SOL    HW124602   4.518   3.119  10.094  0.9992 -1.3579 -0.8663
 4380SOL    HW224603   4.460   3.263  10.093  1.5264  2.3369  0.2845
 4381SOL     OW24604   3.153   2.718   9.642 -0.3748  0.9081 -0.1161
 4381SOL    HW124605   3.168   2.741   9.733 -2.4479 -3.3053  1.2989
 4381SOL    HW224606   3.161   2.622   9.640 -1.0898  0.8506  0.1089
 4382SOL     OW24607   1.397   2.298   8.549  0.3002  0.0938 -0.0906
 4382SOL    HW124608   1.306   2.323   8.565  1.6312  3.7813  1.6968
 4382SOL    HW224609   1.440   2.380   8.524  0.0438  0.1690 -0.2838
 4383SOL     OW24610   4.428   0.544  12.122 -0.3936  0.8151 -0.2879
 4383SOL    HW124611   4.411   0.638  12.114  1.5732  1.2447  0.4594
 4383SOL    HW224612   4.411   0.529  12.215 -0.6637 -0.2072 -0.5047
 4384SOL     OW24613   4.257   1.374  11.298 -0.1576 -0.2625 -0.0621
 4384SOL    HW124614   4.175   1.383  11.250  0.4014  1.3636 -0.7373
 4384SOL    HW224615   4.295   1.299  11.252 -0.1702 -0.0897 -0.3558
 4385SOL     OW24616   3.222   0.969   2.875 -0.1102  0.5674 -0.5772
 4385SOL    HW124617   3.248   0.929   2.958 -2.6362 -1.0196 -0.5475
 4385SOL    HW224618   3.270   0.922   2.807  3.4339  1.0128  1.6136
 4386SOL     OW24619   2.699   0.262   4.258  0.0561 -0.1408  0.2543
 4386SOL    HW124620   2.665   0.348   4.280 -0.1174  0.2231 -1.4155
 4386SOL    HW224621   2.734   0.228   4.341  0.1704 -2.2071 -0.6216
 4387SOL     OW24622   0.789   0.153   7.882  0.3516 -0.2673 -0.2094
 4387SOL    HW124623   0.811   0.238   7.844  0.4571 -0.1038  0.2181
 4387SOL    HW224624   0.809   0.155   7.976 -1.3057 -2.0202  0.1935
 4388SOL     OW24625   2.259   1.343   9.084  0.1463  0.8674  0.2461
 4388SOL    HW124626   2.276   1.415   9.143  0.2337  0.9550  0.1127
 4388SOL    HW224627   2.335   1.286   9.098  0.6285  1.4814  0.1073
 4389SOL     OW24628   2.996   4.630   3.142  0.7225 -0.2676 -0.3457
 4389SOL    HW124629   3.049   4.704   3.111  0.5446 -0.5386 -1.3108
 4389SOL    HW224630   3.036   4.568   3.081 -1.0445 -0.9368 -0.8035
 4390SOL     OW24631   4.044   0.447   6.331 -0.7031  0.7843  0.3781
 4390SOL    HW124632   3.957   0.465   6.367  0.1363  0.7658  2.3855
 4390SOL    HW224633   4.057   0.523   6.274 -1.6644 -0.2524 -1.2291
 4391SOL     OW24634   2.192   0.275   6.285 -0.0583 -0.4079  0.4111
 4391SOL    HW124635   2.270   0.220   6.288  0.7246  0.7169  0.5045
 4391SOL    HW224636   2.128   0.214   6.320 -1.7281  1.2749  0.3012
 4392SOL     OW24637   1.890   4.539   5.396  0.3709 -0.2147  1.0785
 4392SOL    HW124638   1.973   4.514   5.354 -0.1168 -1.2928  0.7545
 4392SOL    HW224639   1.906   4.509   5.485 -0.8572  2.9533  2.3741
 4393SOL     OW24640   1.131   3.230  17.514 -0.0720 -0.4024  0.4108
 4393SOL    HW124641   1.187   3.159  17.546 -0.6544 -1.6058 -1.2365
 4393SOL    HW224642   1.041   3.197  17.518 -0.4182  0.5342  0.3833
 4394SOL     OW24643   0.940   3.218  11.369 -0.2415  0.1683 -0.5242
 4394SOL    HW124644   0.941   3.158  11.295  2.9381 -0.2738 -0.1115
 4394SOL    HW224645   0.860   3.269  11.355 -1.2875 -0.5930  2.6207
 4395SOL     OW24646   3.487   4.589   5.829  0.4355  0.2097  0.1254
 4395SOL    HW124647   3.519   4.638   5.753 -0.7112 -0.1863 -0.6123
 4395SOL    HW224648   3.545   4.596   5.904 -0.0029 -2.1533  0.6652
 4396SOL     OW24649   3.213   3.736   6.074  0.0485  0.2204  0.1083
 4396SOL    HW124650   3.123   3.706   6.071  0.3410 -0.5015 -1.5064
 4396SOL    HW224651   3.268   3.671   6.030 -0.0594  0.2641 -0.0898
 4397SOL     OW24652   1.923   0.767   7.047 -0.0679 -0.2284  0.0113
 4397SOL    HW124653   1.959   0.816   6.973  3.3741 -1.9248  0.5619
 4397SOL    HW224654   1.947   0.809   7.129  1.0754  2.0605 -1.5058
 4398SOL     OW24655   2.168   4.513   5.652  0.2343 -0.0357 -0.7700
 4398SOL    HW124656   2.229   4.459   5.603  0.2713 -0.5222 -0.1929
 4398SOL    HW224657   2.211   4.593   5.684 -0.4670  0.1559 -0.2830
 4399SOL     OW24658   1.413   4.651   1.591 -0.2152 -0.6731  0.6480
 4399SOL    HW124659   1.390   4.587   1.523  0.1061  1.1127 -1.1339
 4399SOL    HW224660   1.325   4.671   1.623 -0.0831  1.5997 -0.3691
 4400SOL     OW24661   0.798   2.003   1.984  0.4806  0.2742 -0.0466
 4400SOL    HW124662   0.729   2.047   1.936 -0.5913 -0.3756  0.9015
 4400SOL    HW224663   0.861   2.067   1.951 -0.8664  1.4018 -0.4260
 4401SOL     OW24664   1.940   4.461   6.641  0.0700  0.0916  0.0222
 4401SOL    HW124665   1.920   4.387   6.699 -0.3042  0.1267 -0.0598
 4401SOL    HW224666   1.915   4.537   6.695  0.4716 -0.5518  1.1198
 4402SOL     OW24667   3.564   4.418   7.283  0.0828 -0.3263  0.4512
 4402SOL    HW124668   3.604   4.505   7.281  0.3450 -0.4698 -0.2868
 4402SOL    HW224669   3.567   4.405   7.188  0.5458  1.6333  0.2036
 4403SOL     OW24670   2.495   3.718   3.346 -0.0407 -0.6572  0.3743
 4403SOL    HW124671   2.493   3.637   3.397 -0.3147 -0.6477  0.3762
 4403SOL    HW224672   2.465   3.696   3.258  1.1615 -2.2978  0.3795
 4404SOL     OW24673   4.346   3.804   9.419  0.1078 -0.6499  0.0867
 4404SOL    HW124674   4.411   3.762   9.362  0.0005  0.3611 -0.7881
 4404SOL    HW224675   4.262   3.762   9.402  0.9857 -1.9341 -1.0153
 4405SOL     OW24676   1.049   0.914  10.965 -0.2754 -0.5653 -0.7929
 4405SOL    HW124677   1.122   0.888  11.022 -0.7770  1.1147  0.5983
 4405SOL    HW224678   1.076   0.994  10.921  0.6656  0.0334  0.8758
 4406SOL     OW24679   3.076   1.060   6.266  0.0209 -0.5724  0.0322
 4406SOL    HW124680   3.089   0.966   6.273 -1.4578 -0.7567  0.2140
 4406SOL    HW224681   3.165   1.095   6.274  0.1563 -1.6094  3.1741
 4407SOL     OW24682   3.103   0.008   4.882 -0.4490  0.1213  0.1546
 4407SOL    HW124683   3.024   0.059   4.895 -1.9982 -1.7244 -1.9843
 4407SOL    HW224684   3.089   4.697   4.795  2.3327 -4.3696  1.5904
 4408SOL     OW24685   2.190   2.866  14.900 -0.0936 -0.0620 -0.4724
 4408SOL    HW124686   2.107   2.881  14.854 -0.1007 -1.5157 -0.9504
 4408SOL    HW224687   2.236   2.848  14.818  1.8932 -0.2665  0.6777
 4409SOL     OW24688   3.992   3.052  16.689  0.0490  0.3910 -0.1068
 4409SOL    HW124689   3.943   3.083  16.766  1.0794  0.9157  0.3446
 4409SOL    HW224690   3.920   3.033  16.629 -0.3056  1.2671  0.0450
 4410SOL     OW24691   1.255   1.781   5.818 -0.0500  0.4489  0.2790
 4410SOL    HW124692   1.297   1.755   5.900  1.3431  0.4966 -0.4204
 4410SOL    HW224693   1.308   1.734   5.753 -1.4556  1.0513 -1.2955
 4411SOL     OW24694   1.981   3.087   0.371  0.4905 -0.2760  0.5871
 4411SOL    HW124695   2.076   3.083   0.379  0.7236 -0.5192 -2.2035
 4411SOL    HW224696   1.977   3.028   0.295  1.6389 -0.0877  0.3763
 4412SOL     OW24697   3.495   3.793  15.325  0.0951 -0.7911 -0.3796
 4412SOL    HW124698   3.465   3.744  15.402  1.3601  1.1635  1.3741
 4412SOL    HW224699   3.501   3.731  15.252  1.7881 -1.8190  0.6324
 4413SOL     OW24700   1.177   1.491   6.597  0.1371  0.0365 -0.0525
 4413SOL    HW124701   1.150   1.583   6.593 -0.0903  0.0639  2.0857
 4413SOL    HW224702   1.095   1.445   6.615  1.1699 -1.2859  1.3162
 4414SOL     OW24703   1.526   0.701   2.332  0.1841  0.0480  0.0508
 4414SOL    HW124704   1.431   0.695   2.319  0.0950  1.7704 -0.0550
 4414SOL    HW224705   1.549   0.651   2.253 -1.4534  0.9566 -1.0126
 4415SOL     OW24706   3.793   0.636  13.291  0.5731  0.2650 -0.5219
 4415SOL    HW124707   3.818   0.686  13.368  1.3069 -1.9148  0.6544
 4415SOL    HW224708   3.775   0.553  13.335  0.7333  1.2353  1.3722
 4416SOL     OW24709   2.712   0.416   3.686 -0.0359 -0.3011 -0.1202
 4416SOL    HW124710   2.755   0.450   3.608  1.1783 -1.8297 -0.0984
 4416SOL    HW224711   2.659   0.486   3.725  0.6078  0.4818 -0.6621
 4417SOL     OW24712   0.591   3.516   7.708 -0.2804 -0.0604 -0.0136
 4417SOL    HW124713   0.642   3.452   7.757 -0.8450 -0.5346 -0.0358
 4417SOL    HW224714   0.576   3.471   7.624  4.1083  0.5383 -1.1344
 4418SOL     OW24715   2.410   0.379   8.255  0.7252  0.8024  0.2445
 4418SOL    HW124716   2.415   0.465   8.215  0.7908 -0.1515 -1.8194
 4418SOL    HW224717   2.374   0.329   8.182 -1.1488 -0.3161  1.9282
 4419SOL     OW24718   0.332   1.876  10.481 -0.0779  0.6555  0.3919
 4419SOL    HW124719   0.405   1.868  10.420 -0.5404  0.0274 -0.0835
 4419SOL    HW224720   0.326   1.791  10.525 -0.0268 -0.2636 -1.3835
 4420SOL     OW24721   1.930   0.829   8.678  0.0091  0.2659  0.1996
 4420SOL    HW124722   1.888   0.911   8.703  1.3509  1.1905 -0.5962
 4420SOL    HW224723   1.903   0.772   8.750 -0.6990  2.5898  1.7730
 4421SOL     OW24724   4.462   2.104   3.580 -0.3100 -0.1430 -0.3192
 4421SOL    HW124725   4.553   2.107   3.551  0.6638 -1.1641  2.7135
 4421SOL    HW224726   4.427   2.191   3.561  0.3037  0.0319 -0.6548
 4422SOL     OW24727   0.927   2.889  11.296  0.4493  0.3039 -1.1749
 4422SOL    HW124728   0.858   2.955  11.308 -1.1344 -1.4287 -0.8329
 4422SOL    HW224729   0.882   2.806  11.282  0.6628 -0.0526  0.3013
 4423SOL     OW24730   0.769   2.864   8.350 -0.2725  0.2728  0.4651
 4423SOL    HW124731   0.764   2.957   8.328 -2.2433  0.0256 -0.1069
 4423SOL    HW224732   0.849   2.856   8.402  0.1107  1.3271  0.0407
 4424SOL     OW24733   2.976   2.545   2.892  0.1583 -0.4097  0.0739
 4424SOL    HW124734   3.046   2.490   2.927 -0.9084  0.2539  3.2607
 4424SOL    HW224735   2.930   2.575   2.971  1.8783  1.0950  0.4934
 4425SOL     OW24736   3.889   3.071   7.981  1.0163 -0.3482  0.2730
 4425SOL    HW124737   3.957   3.008   8.002  1.5219 -0.2746 -1.0958
 4425SOL    HW224738   3.861   3.115   8.061  1.7289  3.0103 -1.3161
 4426SOL     OW24739   4.040   0.665   7.883  0.2269 -0.0647  0.5623
 4426SOL    HW124740   3.952   0.635   7.860  0.1794 -1.1170  2.0986
 4426SOL    HW224741   4.018   0.692   7.972  1.9191 -1.6116  1.4729
 4427SOL     OW24742   0.864   0.923  12.761  0.4221  0.4331 -0.0582
 4427SOL    HW124743   0.932   0.935  12.694  0.6353  0.0288  0.0877
 4427SOL    HW224744   0.818   0.846  12.729  2.6198 -1.2168  0.7918
 4428SOL     OW24745   1.385   3.603   8.130  0.3529  0.5186 -0.0479
 4428SOL    HW124746   1.289   3.599   8.132  0.2247  3.0008 -0.5396
 4428SOL    HW224747   1.396   3.677   8.070  1.5288  2.7373  2.9138
 4429SOL     OW24748   3.193   1.602  16.078  0.0056 -0.4885 -0.0013
 4429SOL    HW124749   3.134   1.528  16.092  0.8013 -0.9931  0.6496
 4429SOL    HW224750   3.134   1.670  16.044  1.2767  0.0504 -1.1424
 4430SOL     OW24751   3.874   3.300   6.853 -0.3313  0.1635 -0.8868
 4430SOL    HW124752   3.917   3.273   6.772  0.7563  0.6044 -0.4598
 4430SOL    HW224753   3.929   3.259   6.920 -0.4784  0.2758 -0.6985
 4431SOL     OW24754   1.525   3.413  12.105  0.3325  0.1288 -0.1528
 4431SOL    HW124755   1.465   3.483  12.079  0.2271  0.2986  0.5500
 4431SOL    HW224756   1.505   3.349  12.036  1.8210  0.0940 -0.5398
 4432SOL     OW24757   1.028   3.060   2.832  0.2006 -0.1089 -0.5096
 4432SOL    HW124758   1.023   3.137   2.777 -0.1856 -1.1868 -1.9802
 4432SOL    HW224759   0.963   3.000   2.797  1.3635 -2.7521  1.8013
 4433SOL     OW24760   1.895   4.322   2.053  0.0674  0.2289 -0.3728
 4433SOL    HW124761   1.887   4.350   1.962  0.0163 -1.3465 -0.8574
 4433SOL    HW224762   1.983   4.288   2.037 -0.1473 -0.1817 -0.6843
 4434SOL     OW24763   1.830   0.124  16.146 -0.1177  0.2248  0.0745
 4434SOL    HW124764   1.870   0.211  16.148  0.6960 -0.1227 -0.5211
 4434SOL    HW224765   1.741   0.146  16.170 -1.2399 -3.8420 -0.3612
 4435SOL     OW24766   0.697   0.121   7.528 -0.3613  0.2855 -0.3926
 4435SOL    HW124767   0.780   0.097   7.570 -0.0848  2.6661  0.4163
 4435SOL    HW224768   0.659   0.193   7.579 -0.7264  1.1245 -1.8429
 4436SOL     OW24769   2.023   0.998  14.446  0.1302 -0.3828  0.5733
 4436SOL    HW124770   1.978   1.031  14.524 -1.9489  2.9607 -2.0580
 4436SOL    HW224771   1.990   1.061  14.383 -0.2426  1.4642  2.6313
 4437SOL     OW24772   1.018   2.605   8.122 -0.1513 -0.1404 -0.1667
 4437SOL    HW124773   0.964   2.566   8.191  0.0798 -0.9668 -0.4565
 4437SOL    HW224774   0.954   2.658   8.076  0.6258  1.0822  0.1647
 4438SOL     OW24775   2.277   3.246  16.453 -0.2850  0.1140  0.0592
 4438SOL    HW124776   2.223   3.186  16.401  2.3337 -0.8452 -1.5249
 4438SOL    HW224777   2.302   3.307  16.383 -0.9716  0.0026 -0.2849
 4439SOL     OW24778   1.253   3.394  16.104  0.0384 -0.2193 -0.3427
 4439SOL    HW124779   1.227   3.477  16.064 -1.7280 -0.3962  0.4379
 4439SOL    HW224780   1.214   3.406  16.190 -0.5494  0.3839 -0.6935
 4440SOL     OW24781   4.642   1.533   5.063 -0.6419 -0.2964 -0.1404
 4440SOL    HW124782   4.584   1.461   5.089  0.1962 -1.1677 -0.6757
 4440SOL    HW224783   4.631   1.522   4.969 -1.9812 -1.3020  0.1278
 4441SOL     OW24784   2.810   1.623  17.016  0.0049 -0.8139 -0.2199
 4441SOL    HW124785   2.737   1.562  17.025 -0.7977  0.6222  3.0078
 4441SOL    HW224786   2.760   1.691  16.971 -1.6537 -2.3244 -0.6804
 4442SOL     OW24787   3.367   3.237   7.438  0.1770  0.1749 -0.3249
 4442SOL    HW124788   3.447   3.198   7.404  0.8121 -0.5965  2.0850
 4442SOL    HW224789   3.343   3.288   7.361  2.2569  2.4126  0.5333
 4443SOL     OW24790   3.895   0.729   5.159 -0.0403  0.4050 -0.4816
 4443SOL    HW124791   3.817   0.729   5.214 -0.6368 -1.5553 -1.3024
 4443SOL    HW224792   3.882   0.807   5.105  0.2458 -0.3048 -1.5983
 4444SOL     OW24793   0.937   2.063   4.192  0.6489  0.3967  0.6329
 4444SOL    HW124794   0.908   2.056   4.101  0.2844 -1.0683  0.8539
 4444SOL    HW224795   0.904   1.982   4.231  0.1865  0.4180  0.2841
 4445SOL     OW24796   2.214   3.764   3.505  0.1238  0.0905 -0.2955
 4445SOL    HW124797   2.289   3.704   3.507 -1.3401 -1.7499 -0.4364
 4445SOL    HW224798   2.234   3.799   3.591  2.0720  1.3777 -1.2858
 4446SOL     OW24799   3.981   1.616  14.941 -0.1772 -0.7925 -0.3832
 4446SOL    HW124800   3.994   1.657  14.856 -1.9142 -1.2243 -0.8723
 4446SOL    HW224801   4.051   1.551  14.943  1.9015  1.4703 -0.0487
 4447SOL     OW24802   2.519   4.097   8.278 -0.2792 -0.1525 -0.3958
 4447SOL    HW124803   2.428   4.072   8.293 -0.8457  0.6806 -2.4346
 4447SOL    HW224804   2.508   4.190   8.297 -3.1749 -0.5687 -0.1380
 4448SOL     OW24805   0.247   3.134   5.428  0.3143  0.4521 -0.0204
 4448SOL    HW124806   0.302   3.173   5.360 -0.5842 -1.8239 -2.0666
 4448SOL    HW224807   0.170   3.122   5.373  0.1582 -2.6919  0.8579
 4449SOL     OW24808   2.051   0.031   5.473  0.1223 -0.1640 -0.2491
 4449SOL    HW124809   2.068   4.687   5.536  1.8393  1.5571  1.2030
 4449SOL    HW224810   2.016   4.703   5.402  0.1803  0.3957 -0.7055
 4450SOL     OW24811   0.684   2.883   4.258 -0.5558 -0.2122 -0.1598
 4450SOL    HW124812   0.640   2.830   4.192 -1.3391  0.6917 -0.3691
 4450SOL    HW224813   0.694   2.964   4.206  0.4430 -0.3273 -0.1455
 4451SOL     OW24814   2.603   1.469   7.425 -0.6182 -0.5159  0.9392
 4451SOL    HW124815   2.510   1.463   7.450 -0.3704 -2.1261  1.5115
 4451SOL    HW224816   2.606   1.534   7.356 -0.3280 -2.0889 -0.5213
 4452SOL     OW24817   0.277   2.841   4.385  0.3575 -0.1294  0.1221
 4452SOL    HW124818   0.266   2.934   4.365  1.6447  0.1664  0.7436
 4452SOL    HW224819   0.192   2.806   4.410  0.6539 -2.4950 -2.2978
 4453SOL     OW24820   2.314   1.405   1.402  0.1346  0.2322 -0.2843
 4453SOL    HW124821   2.361   1.488   1.416  0.8254 -0.0635 -0.8333
 4453SOL    HW224822   2.234   1.433   1.445 -0.9182 -2.7961 -0.2891
 4454SOL     OW24823   4.086   2.396   3.745  0.1685  0.0642  0.1509
 4454SOL    HW124824   4.023   2.368   3.811  1.3309  0.3103  1.3790
 4454SOL    HW224825   4.149   2.327   3.768 -0.5963  0.0410  2.1110
 4455SOL     OW24826   3.627   0.314  11.978 -0.4960 -0.0126  0.2365
 4455SOL    HW124827   3.715   0.328  12.014 -0.4784 -1.6006  0.7989
 4455SOL    HW224828   3.599   0.398  11.939  1.1684 -0.2212 -1.4344
 4456SOL     OW24829   4.582   1.938  16.479  0.3436 -0.2290  0.2871
 4456SOL    HW124830   4.665   1.900  16.507  2.1257  2.2005 -1.6378
 4456SOL    HW224831   4.579   1.916  16.386 -0.8247  1.2484 -0.0320
 4457SOL     OW24832   4.710   0.466   6.961 -0.1350  0.2377 -0.2274
 4457SOL    HW124833   0.063   0.489   6.914 -1.1358  0.8179 -1.6536
 4457SOL    HW224834   4.700   0.380   6.922  0.0404 -0.1783  0.6576
 4458SOL     OW24835   2.194   3.169  13.124  0.2767 -0.1381 -0.0334
 4458SOL    HW124836   2.272   3.219  13.150 -1.2561  1.4270  1.6098
 4458SOL    HW224837   2.159   3.201  13.041 -1.6467 -0.9335  0.4795
 4459SOL     OW24838   3.737   3.160  16.606  0.0056 -0.3410  0.0365
 4459SOL    HW124839   3.670   3.106  16.564  0.3257 -0.9175  0.2723
 4459SOL    HW224840   3.709   3.145  16.696  2.4866 -1.1227  0.6806
 4460SOL     OW24841   0.793   1.367   4.325  0.1117  0.4287  0.0780
 4460SOL    HW124842   0.805   1.390   4.232  0.2232 -0.8997 -0.2299
 4460SOL    HW224843   0.850   1.291   4.310 -0.4434  0.1743 -0.7254
 4461SOL     OW24844   1.458   0.413  12.196 -0.1544 -0.4462 -0.4045
 4461SOL    HW124845   1.433   0.506  12.194  2.5566  0.3048  0.0617
 4461SOL    HW224846   1.541   0.412  12.244  0.9917 -0.3370 -2.3989
 4462SOL     OW24847   2.913   2.123   6.799  0.3641 -0.7068  0.1594
 4462SOL    HW124848   2.974   2.148   6.730  0.1295 -1.9493 -0.4960
 4462SOL    HW224849   2.962   2.108   6.879  0.5452 -3.2022 -0.4280
 4463SOL     OW24850   1.382   4.338   3.339 -0.7748  0.2666  0.5649
 4463SOL    HW124851   1.391   4.431   3.360 -0.7761  0.1543  1.0596
 4463SOL    HW224852   1.353   4.331   3.248 -0.4999  0.3249  0.4702
 4464SOL     OW24853   2.064   2.158   7.016  0.2037 -0.3863 -0.4370
 4464SOL    HW124854   2.073   2.202   6.932 -0.6555  0.4292 -0.0957
 4464SOL    HW224855   2.152   2.121   7.024 -0.2181 -1.2037  0.4763
 4465SOL     OW24856   0.218   3.388   8.166  0.6171 -0.0572  0.3335
 4465SOL    HW124857   0.302   3.433   8.162  1.2192 -1.4240 -2.0735
 4465SOL    HW224858   0.190   3.409   8.077  0.6494  0.5471  0.4647
 4466SOL     OW24859   2.085   1.958   0.467 -0.0040  0.1116 -0.0749
 4466SOL    HW124860   2.058   1.938   0.377 -1.9810 -0.3870  0.6184
 4466SOL    HW224861   2.011   1.936   0.523  0.2196 -4.0157 -1.3488
 4467SOL     OW24862   1.504   0.516   3.425 -0.3988  0.1851  0.4197
 4467SOL    HW124863   1.471   0.575   3.357  1.3654  0.4712 -0.1897
 4467SOL    HW224864   1.574   0.570   3.461 -0.4064  0.0479  0.6424
 4468SOL     OW24865   3.814   1.029   4.113  0.4503 -0.3471 -0.0362
 4468SOL    HW124866   3.831   1.089   4.186 -1.2041  0.9060 -0.6579
 4468SOL    HW224867   3.775   1.093   4.053  2.1447 -1.7774 -2.6395
 4469SOL     OW24868   4.107   0.973  16.888 -0.4849  0.4152  0.0809
 4469SOL    HW124869   4.071   1.060  16.870  0.5962  1.0160  0.8330
 4469SOL    HW224870   4.084   0.941  16.801 -1.0925  2.0763 -0.3734
 4470SOL     OW24871   4.677   0.330   5.464 -0.1189  0.2568 -1.1991
 4470SOL    HW124872   0.040   0.330   5.430  0.4747 -1.5660  0.4257
 4470SOL    HW224873   4.632   0.275   5.400  0.1348 -0.5696 -0.6527
 4471SOL     OW24874   2.566   4.058   4.585  0.0193 -0.1596 -0.0114
 4471SOL    HW124875   2.582   4.150   4.565 -1.6317  0.1742  0.2267
 4471SOL    HW224876   2.480   4.041   4.548 -0.5126  0.6477  0.8377
 4472SOL     OW24877   3.286   0.328   7.407 -0.2276  0.0480 -0.2692
 4472SOL    HW124878   3.202   0.368   7.386  0.8623  1.3165 -2.3307
 4472SOL    HW224879   3.278   0.255   7.345  0.3668  0.5944 -0.9945
 4473SOL     OW24880   2.635   3.495   7.863  0.3444  0.2897  0.1086
 4473SOL    HW124881   2.653   3.524   7.774  2.5500 -3.9900 -0.8605
 4473SOL    HW224882   2.705   3.542   7.909  1.7408 -0.7992 -0.8950
 4474SOL     OW24883   1.427   1.634  17.095  0.3264 -0.0843 -0.4748
 4474SOL    HW124884   1.438   1.539  17.096 -3.1820 -0.4993  1.4557
 4474SOL    HW224885   1.383   1.634  17.010 -0.6441 -2.6272  0.0182
 4475SOL     OW24886   2.311   4.499   8.917  0.0526 -0.2424 -0.6485
 4475SOL    HW124887   2.268   4.565   8.863 -1.4129  0.2895  1.1845
 4475SOL    HW224888   2.385   4.482   8.859 -1.0558 -0.1071 -2.0922
 4476SOL     OW24889   1.827   1.864   7.032  0.4523 -0.1891  0.0512
 4476SOL    HW124890   1.838   1.909   6.949 -0.0202 -1.0656 -0.4910
 4476SOL    HW224891   1.750   1.809   7.019  0.3115  0.1408 -0.4879
 4477SOL     OW24892   1.868   2.699   1.030  0.1403  0.1206 -0.3002
 4477SOL    HW124893   1.781   2.694   0.989  0.3903 -0.9910 -0.7053
 4477SOL    HW224894   1.845   2.742   1.112 -1.2103  1.1646 -1.2418
 4478SOL     OW24895   2.806   3.147   8.395  0.5322  0.1219 -0.2484
 4478SOL    HW124896   2.869   3.104   8.453  0.4692 -0.9790 -0.9881
 4478SOL    HW224897   2.826   3.096   8.316 -0.2422  0.4853 -0.6769
 4479SOL     OW24898   2.145   0.596  15.958 -0.0332  0.5809 -0.3691
 4479SOL    HW124899   2.108   0.677  15.993  0.4558  0.6527 -0.0258
 4479SOL    HW224900   2.060   0.561  15.929 -0.7334  1.4219  0.6616
 4480SOL     OW24901   1.157   4.156   4.630  0.2100  0.4714  0.0278
 4480SOL    HW124902   1.099   4.219   4.674  0.0506 -0.6655  1.4715
 4480SOL    HW224903   1.120   4.073   4.660 -0.1949  0.9726  0.9230
 4481SOL     OW24904   4.619   3.143  16.923 -0.8790  0.6126 -0.9322
 4481SOL    HW124905   4.648   3.185  17.004 -0.2626  0.0210 -0.8490
 4481SOL    HW224906   4.525   3.134  16.941 -0.7893  0.7416 -0.4115
 4482SOL     OW24907   1.058   0.576   5.307  0.0113  0.3570  0.1810
 4482SOL    HW124908   1.080   0.629   5.384  1.0867 -1.1901  0.9302
 4482SOL    HW224909   1.140   0.608   5.269  0.4489 -1.2127 -0.1815
 4483SOL     OW24910   1.183   3.786   9.092 -0.1437 -0.3927 -0.0651
 4483SOL    HW124911   1.133   3.705   9.098 -2.0915  0.8351  0.4509
 4483SOL    HW224912   1.261   3.754   9.048 -0.8497 -0.0733 -1.5478
 4484SOL     OW24913   4.393   3.562  12.493 -0.9759  0.0498  0.8705
 4484SOL    HW124914   4.332   3.567  12.419 -2.4249  0.2421  2.0645
 4484SOL    HW224915   4.476   3.524  12.465 -0.6969  2.3213 -1.4349
 4485SOL     OW24916   4.613   1.827   0.689 -0.4706  0.0769  0.2735
 4485SOL    HW124917   4.526   1.807   0.656 -0.2323  0.7084 -0.7445
 4485SOL    HW224918   4.590   1.899   0.747 -0.0867  1.2470 -1.0276
 4486SOL     OW24919   2.008   3.468   2.157  0.5925  0.3366 -0.1212
 4486SOL    HW124920   2.091   3.512   2.141  1.8404 -1.7563  0.5637
 4486SOL    HW224921   2.028   3.378   2.131  1.8090  0.5911 -0.0668
 4487SOL     OW24922   4.098   2.838   2.141  0.4057 -0.0756  0.0602
 4487SOL    HW124923   4.012   2.829   2.101  1.8809 -2.4672 -2.7103
 4487SOL    HW224924   4.130   2.747   2.141  0.2590 -0.1024  3.6094
 4488SOL     OW24925   2.697   2.740   1.107 -0.1457 -0.3427  0.2801
 4488SOL    HW124926   2.714   2.691   1.188  0.1333 -0.3873  0.1944
 4488SOL    HW224927   2.768   2.804   1.101 -0.0899 -0.3128  1.3077
 4489SOL     OW24928   0.516   1.778  15.351 -0.3194 -0.3293 -0.6564
 4489SOL    HW124929   0.541   1.833  15.276 -0.9585  1.4517  0.4449
 4489SOL    HW224930   0.595   1.777  15.405 -0.8922 -3.5761  0.0965
 4490SOL     OW24931   0.086   4.352   0.385  0.5166 -0.0865 -0.8530
 4490SOL    HW124932   0.076   4.411   0.460 -1.7329 -2.6887  0.8883
 4490SOL    HW224933   0.120   4.275   0.430  1.9621  0.3538 -1.1744
 4491SOL     OW24934   1.977   4.580   3.611  0.2999  0.1079 -0.3996
 4491SOL    HW124935   1.999   4.580   3.518  1.7565 -1.8765 -0.0572
 4491SOL    HW224936   1.959   4.672   3.629 -0.5355 -0.1439  0.0386
 4492SOL     OW24937   0.943   1.596   7.629  0.2221  0.3443 -0.3074
 4492SOL    HW124938   1.036   1.610   7.613  0.6003  0.4110  1.8990
 4492SOL    HW224939   0.945   1.550   7.713 -0.0201  0.6695 -0.1241
 4493SOL     OW24940   1.196   1.795   4.328  0.3185  0.0506 -0.0950
 4493SOL    HW124941   1.197   1.729   4.259 -1.6626 -0.3367  0.2443
 4493SOL    HW224942   1.125   1.764   4.385  0.5086 -0.8673 -0.3618
 4494SOL     OW24943   1.988   0.765   9.164 -0.3222 -0.7318  0.5007
 4494SOL    HW124944   1.938   0.791   9.241  0.0427  0.6478  0.2670
 4494SOL    HW224945   1.999   0.671   9.182 -0.7681 -0.9010 -0.1456
 4495SOL     OW24946   3.125   4.465   8.060  0.7019  0.0267  0.1929
 4495SOL    HW124947   3.073   4.404   8.009  1.2905 -1.7067  1.6400
 4495SOL    HW224948   3.120   4.548   8.013  0.5794 -0.2120 -0.2107
 4496SOL     OW24949   3.389   1.771   0.755  0.2437 -0.0618 -0.9860
 4496SOL    HW124950   3.304   1.783   0.796  0.8628 -0.6147  0.4628
 4496SOL    HW224951   3.376   1.692   0.704  2.1591 -0.9319 -0.1333
 4497SOL     OW24952   2.239   4.090   2.406  0.1209  0.2256 -0.7918
 4497SOL    HW124953   2.315   4.121   2.456 -1.0711  0.3014  0.9860
 4497SOL    HW224954   2.171   4.153   2.428 -0.2103 -0.0239 -1.1120
 4498SOL     OW24955   0.012   2.840   7.091 -0.9349  0.8271  0.1351
 4498SOL    HW124956   4.718   2.813   7.180 -1.5414 -0.5285 -0.4126
 4498SOL    HW224957   0.014   2.758   7.041  0.7569  0.6210  0.5136
 4499SOL     OW24958   0.116   1.788  16.408  0.2462  0.1678  0.7047
 4499SOL    HW124959   0.202   1.803  16.447  0.6454 -0.6893  0.1500
 4499SOL    HW224960   0.072   1.730  16.471 -0.1365 -1.6740 -1.2476
 4500SOL     OW24961   4.505   1.517   6.010 -0.0150  0.0277 -0.6197
 4500SOL    HW124962   4.484   1.580   6.079 -0.7098 -0.4883 -0.3541
 4500SOL    HW224963   4.581   1.556   5.967 -0.5354  0.3566 -1.2432
 4501SOL     OW24964   3.533   3.023  12.841 -0.1119  0.1471 -0.6989
 4501SOL    HW124965   3.599   2.954  12.834 -0.5714 -0.3500 -0.1300
 4501SOL    HW224966   3.572   3.085  12.903  0.3553 -0.0750 -0.7766
 4502SOL     OW24967   2.933   1.760   7.663 -0.3199  0.0056 -0.3024
 4502SOL    HW124968   2.952   1.853   7.653  1.3827 -0.3667 -0.4832
 4502SOL    HW224969   2.889   1.758   7.748 -0.7997  1.1551 -0.5237
 4503SOL     OW24970   1.075   3.773   6.639 -0.2526  0.2521 -0.2184
 4503SOL    HW124971   1.040   3.787   6.727 -0.6552 -0.7151 -0.2241
 4503SOL    HW224972   0.996   3.791   6.589 -0.5610 -0.3205  0.0625
 4504SOL     OW24973   1.864   2.069   1.551  0.0068 -0.2612 -0.1596
 4504SOL    HW124974   1.808   2.081   1.475 -1.9136  3.0550  1.7797
 4504SOL    HW224975   1.945   2.072   1.500 -0.5917  0.8481 -1.0476
 4505SOL     OW24976   0.252   0.629   6.323  0.1237  0.3804  0.0031
 4505SOL    HW124977   0.339   0.623   6.362 -0.6383 -2.2857  1.2456
 4505SOL    HW224978   0.207   0.551   6.354 -1.7111  0.3106 -2.8674
 4506SOL     OW24979   4.487   2.646   8.770  0.1224 -0.0028 -0.2144
 4506SOL    HW124980   4.565   2.646   8.715  0.7654 -0.5439  0.7117
 4506SOL    HW224981   4.470   2.741   8.773 -0.1488  0.1165 -5.1324
 4507SOL     OW24982   3.453   1.571   8.390  0.1005 -0.3170 -0.8577
 4507SOL    HW124983   3.503   1.653   8.388  0.9150 -0.7818  0.1959
 4507SOL    HW224984   3.526   1.515   8.416 -0.5451 -0.9316 -0.3693
 4508SOL     OW24985   3.344   1.091   7.889 -0.0176 -0.3759 -0.2014
 4508SOL    HW124986   3.283   1.048   7.949  2.5065 -2.1700  1.1284
 4508SOL    HW224987   3.279   1.153   7.856  1.0324  0.5999 -0.4294
 4509SOL     OW24988   4.685   0.264   7.992  0.0862 -0.4675  0.5283
 4509SOL    HW124989   0.007   0.300   7.918  0.7831  0.5333  1.4711
 4509SOL    HW224990   4.682   0.174   7.961 -1.8884 -0.7902  1.6413
 4510SOL     OW24991   4.313   2.830  11.867 -0.5318 -0.4872 -0.1746
 4510SOL    HW124992   4.352   2.793  11.946  0.8592  1.0686 -0.1214
 4510SOL    HW224993   4.244   2.887  11.902 -0.5331  0.5066 -1.8007
 4511SOL     OW24994   3.357   2.289   7.649 -0.5336 -0.4794 -0.0024
 4511SOL    HW124995   3.345   2.339   7.569  1.2025  2.3954  1.5107
 4511SOL    HW224996   3.382   2.364   7.703  1.3714 -0.6873 -0.5841
 4512SOL     OW24997   3.280   4.379   2.830  0.2553  0.5408 -0.4447
 4512SOL    HW124998   3.355   4.359   2.774  1.3289  0.8641  0.8823
 4512SOL    HW224999   3.266   4.296   2.876  2.2293  0.0601 -0.6996
 4513SOL     OW25000   1.908   2.593   1.455  0.2704 -0.0388  0.2538
 4513SOL    HW125001   1.997   2.621   1.432  0.2734  0.6353  1.0938
 4513SOL    HW225002   1.900   2.512   1.404 -3.0095  0.1951  0.4000
 4514SOL     OW25003   4.566   1.836  16.010  0.7868 -0.3327 -0.3454
 4514SOL    HW125004   4.638   1.863  16.067  1.7120 -2.7556 -0.3710
 4514SOL    HW225005   4.571   1.911  15.951 -3.0034  0.3376  0.2010
 4515SOL     OW25006   0.615   3.415   5.353 -0.0626  0.3771 -0.1477
 4515SOL    HW125007   0.606   3.509   5.333  1.6422  0.3382 -1.1187
 4515SOL    HW225008   0.601   3.417   5.448  1.2864 -1.6989  0.0921
 4516SOL     OW25009   2.023   0.982  10.277 -0.2887  0.1491 -0.2890
 4516SOL    HW125010   2.104   1.020  10.312  1.5540 -3.5859 -0.5046
 4516SOL    HW225011   2.024   1.046  10.205  0.3536 -1.0704 -1.3681
 4517SOL     OW25012   2.254   0.670   5.088 -0.1474  0.1797 -0.0161
 4517SOL    HW125013   2.284   0.581   5.107  1.1443  0.4345 -0.9155
 4517SOL    HW225014   2.271   0.678   4.994  1.2937  1.6067  0.3594
 4518SOL     OW25015   3.951   0.012   1.056  0.5450 -0.3375 -0.5045
 4518SOL    HW125016   3.910   4.660   1.021 -0.6324  1.0334 -2.2468
 4518SOL    HW225017   3.953   0.073   0.981 -1.5606  0.3737  0.0306
 4519SOL     OW25018   2.449   3.947   1.876  0.3482  0.2778 -0.4347
 4519SOL    HW125019   2.526   3.897   1.845  0.0420  0.1116 -0.9275
 4519SOL    HW225020   2.417   3.888   1.944 -0.7817 -1.0174 -2.0804
 4520SOL     OW25021   2.659   0.525   2.798 -0.2739  0.2647 -0.1054
 4520SOL    HW125022   2.651   0.523   2.703  0.0464  2.1053 -0.1703
 4520SOL    HW225023   2.755   0.528   2.798 -0.3483  2.3583 -1.2159
 4521SOL     OW25024   2.723   1.346   2.206 -0.2498  0.2544  0.0153
 4521SOL    HW125025   2.676   1.422   2.172  0.0500 -0.8099 -2.7564
 4521SOL    HW225026   2.792   1.334   2.141 -1.9290  2.5231 -2.1671
 4522SOL     OW25027   1.227   4.328  13.154  0.8002  0.9125 -0.1705
 4522SOL    HW125028   1.312   4.310  13.115  0.6925 -0.2886  0.1540
 4522SOL    HW225029   1.244   4.393  13.223 -1.0948  1.2804 -0.0489
 4523SOL     OW25030   2.446   0.762   2.697  0.7753 -0.4447 -0.4212
 4523SOL    HW125031   2.474   0.850   2.670 -1.4251 -0.3575 -2.3753
 4523SOL    HW225032   2.505   0.702   2.651  1.8809  0.2688  0.0355
 4524SOL     OW25033   2.909   4.644  15.739  0.8646  0.3421 -0.2908
 4524SOL    HW125034   2.908   4.601  15.824  1.8310  2.3078  0.7273
 4524SOL    HW225035   2.824   4.690  15.741  1.3639  1.2701 -0.2450
 4525SOL     OW25036   3.221   3.588   4.864  0.3637  0.4625  0.1466
 4525SOL    HW125037   3.186   3.670   4.899  0.3541  1.3397 -1.9346
 4525SOL    HW225038   3.166   3.593   4.786 -0.6444 -1.0067  0.7556
 4526SOL     OW25039   1.428   0.995   1.781 -0.1984  0.1473  0.0845
 4526SOL    HW125040   1.424   1.090   1.771  2.0326  0.4553  2.1063
 4526SOL    HW225041   1.392   0.961   1.699 -0.3188 -0.9615  0.5940
 4527SOL     OW25042   3.363   1.084   0.292  0.2354 -1.0139  0.1551
 4527SOL    HW125043   3.376   1.179   0.290  2.0059 -1.2663 -0.8586
 4527SOL    HW225044   3.317   1.064   0.211 -1.3499 -0.1329  0.8415
 4528SOL     OW25045   3.539   1.992  12.625  0.4849 -0.4626 -0.2756
 4528SOL    HW125046   3.557   1.906  12.588  1.5874 -0.1002 -0.5684
 4528SOL    HW225047   3.493   2.029  12.550  0.5946 -0.2367 -0.2317
 4529SOL     OW25048   2.695   1.220  16.190 -0.6165 -0.1071  0.3336
 4529SOL    HW125049   2.684   1.262  16.276 -1.3157 -1.7898  1.0663
 4529SOL    HW225050   2.790   1.211  16.193 -0.3944  1.7168 -0.7409
 4530SOL     OW25051   4.085   0.373   3.975  0.2806  0.1865 -0.4825
 4530SOL    HW125052   4.162   0.414   4.014  1.3288 -1.4836 -0.7999
 4530SOL    HW225053   4.040   0.453   3.948 -1.6422 -1.3395 -1.8579
 4531SOL     OW25054   1.629   2.055   5.180  0.4480  0.0111 -0.2450
 4531SOL    HW125055   1.646   1.970   5.221 -1.7823  0.1263  0.9078
 4531SOL    HW225056   1.602   2.111   5.253  2.0289 -0.6238  0.8203
 4532SOL     OW25057   1.968   3.104  17.699 -0.6313 -0.3718  0.0277
 4532SOL    HW125058   2.052   3.060  17.681 -0.2526  0.9438 -1.4106
 4532SOL    HW225059   1.989   3.197  17.702 -1.2367 -0.1507 -2.8962
 4533SOL     OW25060   1.940   0.687   5.799 -0.1214  0.3667 -0.4285
 4533SOL    HW125061   1.989   0.747   5.856 -0.0145 -1.7657  1.7157
 4533SOL    HW225062   1.909   0.615   5.855  1.8476  0.4187  0.7466
 4534SOL     OW25063   0.106   3.168  12.457  0.2469 -0.4380  0.0994
 4534SOL    HW125064   0.180   3.228  12.447  1.1955 -1.4112  1.2962
 4534SOL    HW225065   0.141   3.083  12.482  1.2596  0.6130  2.2351
 4535SOL     OW25066   2.011   2.881   6.673  0.4244 -0.8162 -0.3484
 4535SOL    HW125067   1.996   2.793   6.638 -0.6916 -1.1335  0.9366
 4535SOL    HW225068   2.091   2.871   6.725  1.1657  0.1437 -1.3087
 4536SOL     OW25069   1.856   0.748  12.898  0.4961 -0.2415 -0.0788
 4536SOL    HW125070   1.941   0.703  12.890  0.1001 -1.1047  0.5663
 4536SOL    HW225071   1.808   0.714  12.822 -1.7547  1.1567  0.7259
 4537SOL     OW25072   4.541   1.011   8.985 -0.0326 -0.0726  0.2430
 4537SOL    HW125073   4.585   1.090   9.018  1.9104 -1.2459  0.4743
 4537SOL    HW225074   4.457   1.050   8.965 -0.9486 -1.3388  1.6165
 4538SOL     OW25075   2.019   3.160   8.889  0.0875 -0.5195 -0.0681
 4538SOL    HW125076   1.930   3.163   8.925  0.0827  3.6289 -0.3951
 4538SOL    HW225077   2.002   3.114   8.807 -1.2580 -2.9424  1.5594
 4539SOL     OW25078   2.145   4.109   3.988  0.0646  0.0205  0.0514
 4539SOL    HW125079   2.089   4.186   3.980 -1.0015 -0.8310 -0.5347
 4539SOL    HW225080   2.164   4.089   3.896  1.4576 -0.7509  0.5002
 4540SOL     OW25081   1.086   2.342   9.574  0.1502  0.2483  0.0813
 4540SOL    HW125082   1.085   2.432   9.543  2.9371  0.7756  1.4960
 4540SOL    HW225083   1.152   2.300   9.518  0.6279  2.0718 -0.7289
 4541SOL     OW25084   3.166   2.766   5.977 -0.3034 -0.7065 -0.0964
 4541SOL    HW125085   3.141   2.846   5.930  1.0261 -0.8285 -0.9984
 4541SOL    HW225086   3.261   2.758   5.968 -0.4631 -1.4190 -1.1733
 4542SOL     OW25087   1.916   0.141   7.893 -0.2214 -0.0074  0.4301
 4542SOL    HW125088   1.990   0.082   7.878 -0.5342 -0.0251 -1.0501
 4542SOL    HW225089   1.847   0.076   7.882  1.0466 -1.3351  0.2334
 4543SOL     OW25090   3.528   2.016   1.699 -0.0513  1.0162  0.6269
 4543SOL    HW125091   3.567   1.945   1.750  0.8735  0.6872 -0.5216
 4543SOL    HW225092   3.609   2.058   1.668  0.8807 -0.8800  0.4938
 4544SOL     OW25093   0.348   2.375  16.207  0.1402 -0.1429  0.0651
 4544SOL    HW125094   0.427   2.403  16.253 -1.2538 -1.3801  3.2308
 4544SOL    HW225095   0.358   2.414  16.120  1.3276 -0.6343 -0.0141
 4545SOL     OW25096   2.795   0.266   6.627 -0.4096 -0.9625 -0.2417
 4545SOL    HW125097   2.729   0.334   6.640 -0.4293 -0.8332 -0.9804
 4545SOL    HW225098   2.753   0.199   6.681  0.9724 -1.0148  0.7781
 4546SOL     OW25099   1.339   3.746  15.298  0.0033  0.6263 -0.2619
 4546SOL    HW125100   1.423   3.713  15.266  0.7019  1.4383  0.7573
 4546SOL    HW225101   1.312   3.808  15.230  0.3648  0.5418 -0.4845
 4547SOL     OW25102   2.529   3.965  17.584 -0.2072 -0.2753 -0.1864
 4547SOL    HW125103   2.532   4.019  17.663  1.7806 -0.0629 -0.3965
 4547SOL    HW225104   2.465   4.003  17.524 -0.4731 -0.2355  0.1220
 4548SOL     OW25105   1.411   3.034   4.023  0.2670 -0.4531  0.4382
 4548SOL    HW125106   1.423   3.115   4.073 -0.7152  0.4598 -0.7924
 4548SOL    HW225107   1.459   3.047   3.941  0.2214 -0.7327  0.3664
 4549SOL     OW25108   1.983   2.113   7.267 -0.1755  0.4717  0.3389
 4549SOL    HW125109   1.983   2.207   7.279  1.5342  0.7493 -1.8326
 4549SOL    HW225110   2.014   2.093   7.179  2.3979 -0.8201  1.5505
 4550SOL     OW25111   1.950   3.075  17.396  0.2851 -0.7534  0.2735
 4550SOL    HW125112   2.045   3.068  17.387  0.2399  2.1802 -2.6495
 4550SOL    HW225113   1.930   3.164  17.367  3.9750 -0.6257 -1.9675
 4551SOL     OW25114   4.545   1.020   2.740  0.2590 -0.3002  0.0021
 4551SOL    HW125115   4.514   0.951   2.798  0.7480 -0.7528 -0.2877
 4551SOL    HW225116   4.613   0.976   2.690 -0.8988 -1.3766 -0.6061
 4552SOL     OW25117   2.686   1.713   1.791  0.6048 -0.3178  0.2761
 4552SOL    HW125118   2.753   1.705   1.724  0.2766  0.4390 -0.1399
 4552SOL    HW225119   2.717   1.793   1.834 -0.8291 -0.0332  0.7921
 4553SOL     OW25120   4.150   2.849   5.238  0.1494  0.1101  0.5459
 4553SOL    HW125121   4.195   2.855   5.154  2.8749 -2.1050  1.8221
 4553SOL    HW225122   4.137   2.943   5.249 -1.6265 -0.3174  2.1413
 4554SOL     OW25123   4.651   3.690  11.584 -0.1226 -0.4115  0.1152
 4554SOL    HW125124   4.588   3.658  11.648 -2.2284  0.6447 -1.4462
 4554SOL    HW225125   4.722   3.627  11.592  0.7967  0.6064 -0.0136
 4555SOL     OW25126   0.047   1.760   9.034 -0.0654 -0.4086 -0.0518
 4555SOL    HW125127   0.134   1.792   9.058 -0.2121  0.6438 -0.9039
 4555SOL    HW225128   4.715   1.766   9.109  2.9303 -1.2790  2.4057
 4556SOL     OW25129   2.813   2.273   4.990 -0.6087 -0.2453 -0.5366
 4556SOL    HW125130   2.819   2.181   5.013  0.5145 -0.0288  0.0626
 4556SOL    HW225131   2.901   2.304   5.012 -1.1258  0.1080  1.0201
 4557SOL     OW25132   1.374   4.536   7.106  0.3771  0.3417  0.7670
 4557SOL    HW125133   1.419   4.584   7.175  2.0059  0.4157 -0.3463
 4557SOL    HW225134   1.288   4.576   7.092  1.3298  1.8970 -0.6146
 4558SOL     OW25135   4.132   0.487   1.691 -0.0570  0.1886 -0.3105
 4558SOL    HW125136   4.088   0.460   1.610  0.0736  0.0799 -0.3443
 4558SOL    HW225137   4.062   0.448   1.744  1.4967 -0.5746  1.1676
 4559SOL     OW25138   0.795   1.263   8.659  0.0288  0.7991  0.1215
 4559SOL    HW125139   0.877   1.286   8.702  1.2338 -0.2681 -1.6029
 4559SOL    HW225140   0.750   1.340   8.693  0.8146  1.7009 -0.8596
 4560SOL     OW25141   3.877   2.007   5.467 -0.1576 -0.0102  0.6949
 4560SOL    HW125142   3.841   2.096   5.466  0.8621  0.3930 -0.4519
 4560SOL    HW225143   3.907   1.996   5.377 -0.0386 -1.7191  0.9443
 4561SOL     OW25144   4.527   2.630   3.147  0.1165 -0.4290  0.0457
 4561SOL    HW125145   4.491   2.623   3.059 -0.9449  1.6941  0.3214
 4561SOL    HW225146   4.574   2.713   3.141  1.9292 -1.3313  1.6622
 4562SOL     OW25147   3.231   0.476  11.711 -0.0549 -0.5443  0.4787
 4562SOL    HW125148   3.185   0.537  11.769 -0.9563 -1.6922  0.9579
 4562SOL    HW225149   3.257   0.525  11.632  0.4973 -1.8150 -0.1184
 4563SOL     OW25150   3.828   1.169   9.489 -0.5306 -0.0949 -0.2960
 4563SOL    HW125151   3.885   1.092   9.496  0.5709  0.8045  0.6715
 4563SOL    HW225152   3.870   1.237   9.541  0.1212 -1.3650  0.8483
 4564SOL     OW25153   2.855   2.911  15.985 -0.3752 -1.0985 -0.0508
 4564SOL    HW125154   2.821   2.926  16.073 -2.5732  1.5674 -1.3438
 4564SOL    HW225155   2.900   2.830  16.007  2.0014 -0.1602 -1.4904
 4565SOL     OW25156   3.843   1.337   4.631 -0.3558  0.1427  0.5201
 4565SOL    HW125157   3.786   1.395   4.681 -0.0666  2.6860 -2.0994
 4565SOL    HW225158   3.931   1.368   4.651 -0.8041  0.9719  1.2292
 4566SOL     OW25159   4.180   2.289   8.438  0.5795  0.0122  0.6441
 4566SOL    HW125160   4.228   2.348   8.496  1.1689 -2.5500  2.7359
 4566SOL    HW225161   4.092   2.302   8.475  0.5650  2.1719 -0.1380
 4567SOL     OW25162   3.549   3.620   1.424  0.2199 -0.0498  0.5004
 4567SOL    HW125163   3.612   3.690   1.437  2.2479 -1.9332  0.7777
 4567SOL    HW225164   3.492   3.656   1.356  2.4734  0.1341 -1.2641
 4568SOL     OW25165   0.707   0.700  13.324  0.3098 -0.3898 -0.0247
 4568SOL    HW125166   0.762   0.703  13.402  0.4046 -0.5733 -0.0852
 4568SOL    HW225167   0.764   0.754  13.270  0.4457  0.0005  0.5125
 4569SOL     OW25168   3.486   1.754   7.147  0.7309  0.1963  0.5222
 4569SOL    HW125169   3.508   1.797   7.065 -0.4764 -0.2982 -0.0668
 4569SOL    HW225170   3.568   1.706   7.161  0.3434 -1.0291 -1.3649
 4570SOL     OW25171   4.118   3.362   5.534 -0.6561 -0.1959  0.5080
 4570SOL    HW125172   4.135   3.284   5.588 -0.0466 -0.3710  0.0577
 4570SOL    HW225173   4.022   3.362   5.536 -0.6679  1.4844 -0.3274
 4571SOL     OW25174   0.569   4.106   3.965  0.2504  0.1776  0.0823
 4571SOL    HW125175   0.617   4.027   3.940  1.5488  0.2130  2.4612
 4571SOL    HW225176   0.539   4.145   3.882  2.5547 -0.2782 -0.9769
 4572SOL     OW25177   0.713   3.552  16.720 -0.6313 -0.1922  0.0207
 4572SOL    HW125178   0.647   3.557  16.650  1.0041  2.9989 -1.2914
 4572SOL    HW225179   0.778   3.615  16.689 -0.0215 -1.5516 -1.4820
 4573SOL     OW25180   0.835   4.413   2.422 -0.3188  0.0440  0.0774
 4573SOL    HW125181   0.847   4.324   2.390 -0.2905  0.3366 -0.7358
 4573SOL    HW225182   0.854   4.404   2.515 -0.9018  0.0960  0.1999
 4574SOL     OW25183   2.336   4.270  14.928  0.2862 -0.4505 -0.3691
 4574SOL    HW125184   2.249   4.235  14.909 -0.2737  0.0777  1.2591
 4574SOL    HW225185   2.327   4.312  15.013  2.0957 -0.7858 -0.0157
 4575SOL     OW25186   3.885   1.385  16.953 -0.6750  0.0766  0.2330
 4575SOL    HW125187   3.943   1.461  16.953 -0.4966 -0.0570  0.2635
 4575SOL    HW225188   3.809   1.422  16.908 -0.2975  0.2789 -0.2339
 4576SOL     OW25189   3.704   1.363   3.664 -0.0096  0.1864 -0.0108
 4576SOL    HW125190   3.788   1.356   3.619 -0.4594 -1.5835 -0.5837
 4576SOL    HW225191   3.704   1.280   3.712 -2.3754  0.0977 -0.1450
 4577SOL     OW25192   0.567   4.266  15.330 -0.7443  0.6832 -0.0815
 4577SOL    HW125193   0.474   4.257  15.352 -0.4257 -2.3993 -0.0103
 4577SOL    HW225194   0.553   4.291  15.239  1.9246 -2.0565 -1.2302
 4578SOL     OW25195   0.955   3.771   6.907 -0.4639 -0.0732  0.2026
 4578SOL    HW125196   0.924   3.777   6.997 -0.3983  0.5991  0.1866
 4578SOL    HW225197   1.022   3.706   6.925  1.1136  1.4312 -0.2014
 4579SOL     OW25198   1.225   4.567   6.797  0.2626  0.5156  0.2806
 4579SOL    HW125199   1.230   4.471   6.793  0.2774  0.4688  1.2472
 4579SOL    HW225200   1.235   4.586   6.891 -0.3810 -0.7958  0.6158
 4580SOL     OW25201   4.531   0.849   9.668 -0.4790 -0.6123  0.0812
 4580SOL    HW125202   4.622   0.824   9.654  0.0898  1.8386 -0.5580
 4580SOL    HW225203   4.538   0.940   9.640 -1.6590 -0.5866 -0.1179
 4581SOL     OW25204   3.302   1.548  13.993 -0.6232 -0.1526  0.4135
 4581SOL    HW125205   3.209   1.543  14.015 -0.7039  0.3374  0.1764
 4581SOL    HW225206   3.321   1.630  14.039  1.1132  0.3017 -1.1337
 4582SOL     OW25207   0.959   1.679  15.691  0.3303  0.1729  0.2623
 4582SOL    HW125208   0.990   1.613  15.629 -1.7429 -1.3635  0.8590
 4582SOL    HW225209   1.005   1.661  15.773  0.9652 -1.6440 -0.4770
 4583SOL     OW25210   3.349   3.421  15.415  0.3536 -0.1648 -0.0081
 4583SOL    HW125211   3.348   3.329  15.389 -0.8452 -0.0534 -0.3216
 4583SOL    HW225212   3.304   3.414  15.499 -0.5233 -0.3347 -0.4970
 4584SOL     OW25213   1.497   3.138   4.338 -0.1873  0.2992 -0.1744
 4584SOL    HW125214   1.404   3.127   4.362 -0.2929 -0.4056 -0.8969
 4584SOL    HW225215   1.533   3.144   4.426 -1.0886  1.5525  0.1147
 4585SOL     OW25216   3.219   2.612   0.421  0.0034 -0.0256 -0.0394
 4585SOL    HW125217   3.300   2.576   0.385 -1.6942 -2.6462 -1.2994
 4585SOL    HW225218   3.178   2.527   0.439 -0.5937 -0.4099 -3.1817
 4586SOL     OW25219   3.263   4.441   5.965  0.5128 -0.2582  0.1615
 4586SOL    HW125220   3.327   4.490   5.914  1.8881 -1.1815  1.0005
 4586SOL    HW225221   3.267   4.477   6.054  1.6009 -0.1732  0.0770
 4587SOL     OW25222   3.459   0.424   5.969 -0.2733 -0.1610  0.6102
 4587SOL    HW125223   3.493   0.478   6.041 -0.3274  1.9552 -0.9470
 4587SOL    HW225224   3.538   0.406   5.917  1.1330  1.4933  2.1812
 4588SOL     OW25225   4.203   2.552   5.187  0.4553 -0.3306 -0.7435
 4588SOL    HW125226   4.217   2.641   5.219  1.1969 -0.1521 -1.5694
 4588SOL    HW225227   4.296   2.531   5.181  1.2563  2.4648  2.1761
 4589SOL     OW25228   3.201   0.553   2.655 -0.7204 -0.2112 -0.4473
 4589SOL    HW125229   3.207   0.521   2.565  0.4215 -0.0620 -0.4162
 4589SOL    HW225230   3.231   0.474   2.701  0.4606  0.3791 -0.2168
 4590SOL     OW25231   2.302   1.406   8.442 -0.5038  0.1629 -0.0095
 4590SOL    HW125232   2.291   1.311   8.431 -0.9126  0.0061  1.7822
 4590SOL    HW225233   2.328   1.409   8.534 -0.6774  2.2486 -0.0270
 4591SOL     OW25234   0.108   0.226   0.033 -0.0370 -0.3811  0.5893
 4591SOL    HW125235   0.163   0.186  17.673 -2.1223  0.0971 -1.3911
 4591SOL    HW225236   0.159   0.300   0.064  0.4878  0.1879 -1.6029
 4592SOL     OW25237   3.342   3.143   2.084 -0.5567  0.6147 -0.3542
 4592SOL    HW125238   3.252   3.120   2.107 -0.3425  1.8361  1.6792
 4592SOL    HW225239   3.382   3.165   2.168  2.5900  1.2239 -2.0142
 4593SOL     OW25240   0.806   4.662  11.505 -0.6125  0.4884  0.2511
 4593SOL    HW125241   0.812   0.029  11.487 -0.3987  0.1876 -1.2595
 4593SOL    HW225242   0.827   4.670  11.598 -0.3633  0.1384  0.2260
 4594SOL     OW25243   0.039   0.204   6.804 -0.2288 -0.1317  0.4365
 4594SOL    HW125244   0.126   0.184   6.841 -0.7957  1.4790  2.6941
 4594SOL    HW225245   0.052   0.179   6.713 -0.0513  0.9620  0.1574
 4595SOL     OW25246   2.875   2.204   3.637 -0.1508 -0.7608  0.6255
 4595SOL    HW125247   2.788   2.235   3.611 -0.4171  0.5371  3.0074
 4595SOL    HW225248   2.910   2.159   3.560 -1.2159 -0.8251  0.1817
 4596SOL     OW25249   1.892   1.962  13.035 -0.2031 -0.2022  0.1372
 4596SOL    HW125250   1.810   2.005  13.060 -0.9506 -1.9016  0.5716
 4596SOL    HW225251   1.940   1.978  13.116  0.3273 -0.0580 -0.2030
 4597SOL     OW25252   2.256   3.609   7.989  0.1854 -0.1112  0.8078
 4597SOL    HW125253   2.262   3.617   7.894 -0.9362 -0.7999  0.6686
 4597SOL    HW225254   2.314   3.672   8.031  0.7650 -1.3687  1.8951
 4598SOL     OW25255   0.933   3.023   5.962  0.0727 -0.7416 -0.1454
 4598SOL    HW125256   0.935   3.057   5.873  1.1610  1.0948  0.5782
 4598SOL    HW225257   0.922   3.107   6.006  0.5349 -0.3825 -0.7232
 4599SOL     OW25258   3.962   4.262   3.596 -0.3533  0.2551  0.3159
 4599SOL    HW125259   3.867   4.249   3.603 -0.5847 -0.0709 -3.1584
 4599SOL    HW225260   3.964   4.314   3.516 -0.0679 -1.4835 -0.8229
 4600SOL     OW25261   3.789   2.860  13.798  0.2304 -0.4462 -0.0817
 4600SOL    HW125262   3.742   2.813  13.729 -2.8023  0.9833  1.0048
 4600SOL    HW225263   3.749   2.946  13.787  2.0764  0.5091  0.5913
 4601SOL     OW25264   1.497   2.940   6.454 -0.0824 -0.4342  0.1229
 4601SOL    HW125265   1.533   2.994   6.525  1.2611 -0.0404 -0.8629
 4601SOL    HW225266   1.568   2.892   6.413  1.3529  0.6750  1.3029
 4602SOL     OW25267   0.837   2.401   1.615 -0.4202 -0.3776 -0.4982
 4602SOL    HW125268   0.824   2.373   1.705 -0.5185  1.9160  0.1868
 4602SOL    HW225269   0.763   2.367   1.565 -0.6463  1.1365 -1.1892
 4603SOL     OW25270   1.314   0.215  15.423  0.5407  0.0459 -0.2070
 4603SOL    HW125271   1.339   0.132  15.383 -2.1778  0.4876 -2.7656
 4603SOL    HW225272   1.391   0.271  15.436  1.0463 -0.2281 -2.1091
 4604SOL     OW25273   0.078   3.072   2.723 -0.7557  0.4110 -0.0984
 4604SOL    HW125274   0.066   2.978   2.714  3.0653 -0.0524 -0.4016
 4604SOL    HW225275   0.016   3.096   2.793 -0.0883 -0.4883  0.8041
 4605SOL     OW25276   3.204   1.126   9.917  0.0651  0.2238 -0.3927
 4605SOL    HW125277   3.172   1.036   9.914 -0.6272  0.4676 -0.1246
 4605SOL    HW225278   3.287   1.118   9.869  0.8391  1.0964  0.7824
 4606SOL     OW25279   0.631   4.617  13.475 -0.2379 -0.2573  0.0311
 4606SOL    HW125280   0.547   4.645  13.512  0.3384  0.4679  0.8058
 4606SOL    HW225281   0.691   4.676  13.521  0.6217 -0.8142 -0.3753
 4607SOL     OW25282   0.950   3.803   4.214 -0.5264  0.5933 -0.5421
 4607SOL    HW125283   0.924   3.891   4.240  0.2024  0.1622  1.6252
 4607SOL    HW225284   1.027   3.822   4.161  1.7171 -2.8924  1.4763
 4608SOL     OW25285   0.827   4.648  10.432 -0.5462  0.2307 -0.6585
 4608SOL    HW125286   0.740   4.646  10.470 -0.5023  0.1925 -0.5595
 4608SOL    HW225287   0.832   4.565  10.383  2.1341 -0.9164  1.5574
 4609SOL     OW25288   3.677   4.252   2.963  0.2966 -0.2987  0.2871
 4609SOL    HW125289   3.644   4.317   2.902 -1.7210 -2.4683 -0.9052
 4609SOL    HW225290   3.638   4.172   2.929 -0.6777 -0.1954  1.1732
 4610SOL     OW25291   0.619   0.622   6.082  0.2402 -0.1675  0.2039
 4610SOL    HW125292   0.558   0.692   6.107 -0.3571 -0.3352 -0.7792
 4610SOL    HW225293   0.556   0.556   6.053  0.1471  0.3557 -0.7895
 4611SOL     OW25294   3.740   0.143   2.667 -0.0480  0.0178 -0.1176
 4611SOL    HW125295   3.647   0.156   2.647  0.1639  2.3491  0.4291
 4611SOL    HW225296   3.764   0.226   2.708  1.1922  0.2999 -1.4015
 4612SOL     OW25297   2.585   1.928   7.353  0.0179 -0.8507  0.3325
 4612SOL    HW125298   2.605   1.974   7.435 -1.1813  1.0267 -0.4277
 4612SOL    HW225299   2.562   1.993   7.286  0.4489 -0.1707  0.8518
 4613SOL     OW25300   0.369   1.216   5.023 -0.5408 -0.1922 -0.1396
 4613SOL    HW125301   0.401   1.296   4.981 -1.0173  0.7053  1.1952
 4613SOL    HW225302   0.335   1.257   5.102 -0.7030  0.8563 -0.7564
 4614SOL     OW25303   1.244   1.639   0.058  0.5353 -0.2882 -0.5243
 4614SOL    HW125304   1.314   1.598   0.109  1.8986 -0.6225 -2.6295
 4614SOL    HW225305   1.169   1.586   0.084  0.9760  0.0739  1.4707
 4615SOL     OW25306   1.786   3.082   3.381 -0.8517  0.2272  0.1130
 4615SOL    HW125307   1.722   3.038   3.326 -2.1659  0.9265  1.0908
 4615SOL    HW225308   1.739   3.160   3.412 -1.6966 -0.5472  0.8013
 4616SOL     OW25309   0.944   2.038   0.376 -0.3419 -0.4816 -0.2851
 4616SOL    HW125310   1.015   2.067   0.433 -1.0058 -0.2470  0.4189
 4616SOL    HW225311   0.931   2.107   0.311 -0.2790  1.1986  1.5171
 4617SOL     OW25312   0.099   3.212   4.997 -0.1280 -0.3319 -0.2491
 4617SOL    HW125313   0.096   3.150   4.924  0.7625  0.7821 -1.2358
 4617SOL    HW225314   0.044   3.284   4.964 -0.1126 -0.3191 -0.2469
 4618SOL     OW25315   2.135   3.758   7.077 -0.3506 -0.1776  0.3777
 4618SOL    HW125316   2.218   3.722   7.047 -1.0839 -1.8373  0.3134
 4618SOL    HW225317   2.158   3.851   7.084 -1.4670  0.0586  1.0094
 4619SOL     OW25318   4.094   0.079   0.323  0.2074  0.3592  0.3693
 4619SOL    HW125319   4.176   0.032   0.337  1.4789  2.3906 -0.1980
 4619SOL    HW225320   4.126   0.156   0.276 -0.3332  0.1882 -0.2706
 4620SOL     OW25321   2.331   4.348  16.590  0.2073 -0.3257 -0.1087
 4620SOL    HW125322   2.302   4.399  16.666 -1.2826 -1.0233 -0.2057
 4620SOL    HW225323   2.331   4.260  16.627  0.3857  0.5351  1.9427
 4621SOL     OW25324   0.235   0.643  17.359 -0.3573  0.5268 -0.5171
 4621SOL    HW125325   0.158   0.680  17.316 -1.1952  0.3320  0.8247
 4621SOL    HW225326   0.296   0.713  17.338  0.9460 -0.4788 -0.1017
 4622SOL     OW25327   2.106   2.953   1.241 -0.0311 -0.3767 -0.0803
 4622SOL    HW125328   2.196   2.958   1.274 -0.9099  0.3372  2.2188
 4622SOL    HW225329   2.080   2.867   1.276  0.6626 -0.2153  0.8462
 4623SOL     OW25330   0.762   1.538   6.278 -0.3193 -0.3335  0.5232
 4623SOL    HW125331   0.784   1.542   6.371 -0.8219 -1.2212  0.6787
 4623SOL    HW225332   0.729   1.626   6.260 -0.2743 -0.3807  0.1956
 4624SOL     OW25333   2.053   1.817  17.368 -0.1709  0.2546  0.6912
 4624SOL    HW125334   1.962   1.793  17.387  0.2245 -0.6957  1.3373
 4624SOL    HW225335   2.064   1.890  17.429 -0.7660 -0.0310  1.1459
 4625SOL     OW25336   3.134   3.193  14.134  0.0234 -0.0652  0.5927
 4625SOL    HW125337   3.205   3.137  14.166  0.5140  0.1640 -0.1003
 4625SOL    HW225338   3.190   3.264  14.102  0.1997 -0.6695 -0.4472
 4626SOL     OW25339   2.984   2.110  17.035  0.2238  0.3849 -0.2335
 4626SOL    HW125340   3.071   2.148  17.046  0.3181  0.0453  0.2402
 4626SOL    HW225341   2.960   2.114  17.128 -3.1077 -0.1926 -1.0903
 4627SOL     OW25342   4.719   0.281   1.561  0.1709  0.0396  0.1557
 4627SOL    HW125343   4.672   0.212   1.608  1.6335 -2.8962 -2.7014
 4627SOL    HW225344   4.684   0.359   1.605 -2.2239 -2.3129  2.4206
 4628SOL     OW25345   3.498   3.613   6.211  0.2120  0.0169 -0.2419
 4628SOL    HW125346   3.522   3.593   6.301  0.1437  0.0006 -0.2269
 4628SOL    HW225347   3.430   3.549   6.189  0.5204 -0.4596  0.2064
 4629SOL     OW25348   3.408   0.985  17.382 -0.1797 -0.1719  0.0710
 4629SOL    HW125349   3.391   0.918  17.316 -0.9560 -1.1569  1.2872
 4629SOL    HW225350   3.432   1.056  17.322 -1.9978  0.5185  0.1506
 4630SOL     OW25351   1.030   3.360   4.623  0.4199 -0.0148  0.0599
 4630SOL    HW125352   1.096   3.416   4.581  1.4913 -0.3848  1.2477
 4630SOL    HW225353   0.962   3.354   4.556  1.1594 -1.2677 -0.5827
 4631SOL     OW25354   3.670   4.490  12.618  0.0048  0.3825 -0.6855
 4631SOL    HW125355   3.707   4.540  12.545 -0.6614  0.9494 -0.6393
 4631SOL    HW225356   3.643   4.554  12.685  0.2712 -2.0332  1.7272
 4632SOL     OW25357   0.280   4.319  15.018 -0.3875  0.3077  0.7933
 4632SOL    HW125358   0.224   4.304  14.942  0.5603  0.4691  0.0668
 4632SOL    HW225359   0.361   4.282  14.985  0.0992  0.8445  1.3863
 4633SOL     OW25360   3.882   2.015   9.313  0.4813  0.3549 -0.1064
 4633SOL    HW125361   3.831   2.096   9.320  0.8166  0.5482  0.0994
 4633SOL    HW225362   3.840   1.971   9.239 -0.6853  0.4075  0.5273
 4634SOL     OW25363   4.580   3.862   0.554  0.0631  0.0990 -0.8294
 4634SOL    HW125364   4.635   3.783   0.557 -1.0301 -0.5726  1.2130
 4634SOL    HW225365   4.550   3.860   0.463 -0.5247 -1.0339 -0.6107
 4635SOL     OW25366   1.978   3.798   7.543  0.1782  0.2756 -0.1913
 4635SOL    HW125367   1.911   3.750   7.495  1.0400 -0.3774 -0.7383
 4635SOL    HW225368   1.982   3.748   7.625 -0.2230 -0.4885 -0.6432
 4636SOL     OW25369   1.067   2.600   9.453 -0.5023  0.6113  0.3671
 4636SOL    HW125370   0.979   2.629   9.431 -1.1846 -0.9014  1.1526
 4636SOL    HW225371   1.089   2.653   9.530  0.0225 -0.6820  1.1105
 4637SOL     OW25372   1.770   2.294   3.593 -0.7935  0.1264 -0.3239
 4637SOL    HW125373   1.702   2.322   3.531 -0.1258  0.5571 -0.8594
 4637SOL    HW225374   1.730   2.219   3.638 -1.8170  0.0838 -1.3110
 4638SOL     OW25375   4.373   1.256   4.535 -0.3207  0.7972 -0.5856
 4638SOL    HW125376   4.454   1.296   4.568  0.4436  0.6168 -2.2496
 4638SOL    HW225377   4.338   1.197   4.601 -1.7625  2.1044 -0.1880
 4639SOL     OW25378   0.930   1.306  11.956  0.1304 -0.7286  0.0907
 4639SOL    HW125379   0.997   1.346  12.011 -0.6957  0.9110 -0.0975
 4639SOL    HW225380   0.984   1.272  11.884  0.2665  0.7116 -0.5040
 4640SOL     OW25381   1.425   3.419   4.349  0.3118  0.7624 -0.3187
 4640SOL    HW125382   1.333   3.443   4.348 -0.0669 -0.7156 -0.2041
 4640SOL    HW225383   1.421   3.362   4.425  0.5728  2.0874  0.6978
 4641SOL     OW25384   1.563   0.309   2.881  0.7480  0.5183  0.3215
 4641SOL    HW125385   1.486   0.361   2.859 -0.6091 -1.6098 -0.0566
 4641SOL    HW225386   1.582   0.350   2.965  1.2370 -0.8920  0.8937
 4642SOL     OW25387   0.781   1.913   2.887  0.8262  0.0786  0.0575
 4642SOL    HW125388   0.706   1.897   2.945 -1.1483  2.5081 -1.8161
 4642SOL    HW225389   0.739   1.935   2.803  0.7904  0.9713  0.3030
 4643SOL     OW25390   3.007   3.496   7.581 -0.3305  0.4948  0.4117
 4643SOL    HW125391   2.912   3.490   7.573 -0.3187 -1.2513  1.4128
 4643SOL    HW225392   3.016   3.588   7.605 -0.2247  0.4411  0.5797
 4644SOL     OW25393   4.102   2.238   9.112  0.6984  0.6205 -0.8324
 4644SOL    HW125394   4.069   2.229   9.022 -0.9497 -2.0167  0.0241
 4644SOL    HW225395   4.019   2.268   9.149  0.6720 -0.9860  0.4144
 4645SOL     OW25396   1.665   4.398   8.336  0.4363 -0.5257  0.2027
 4645SOL    HW125397   1.632   4.389   8.426 -1.7070 -0.2043 -0.5520
 4645SOL    HW225398   1.669   4.494   8.334 -0.6271 -0.4458  1.2843
 4646SOL     OW25399   2.501   3.173   8.463  0.3684  0.3619 -0.5070
 4646SOL    HW125400   2.576   3.197   8.410 -0.5426  0.1089 -1.8988
 4646SOL    HW225401   2.428   3.190   8.403 -0.1918 -0.4907 -0.0668
 4647SOL     OW25402   0.368   1.186   2.934 -0.2798 -0.2325  0.8244
 4647SOL    HW125403   0.310   1.123   2.891  1.1027 -1.4920  0.7910
 4647SOL    HW225404   0.405   1.228   2.857  1.4329 -0.0588  1.7465
 4648SOL     OW25405   4.283   3.529   5.119 -0.2271 -0.7428 -0.1722
 4648SOL    HW125406   4.194   3.506   5.090 -0.8185  2.3725 -0.8171
 4648SOL    HW225407   4.322   3.599   5.067 -0.0501 -0.2377  0.6446
 4649SOL     OW25408   0.527   4.298  13.174 -0.2110  0.0042  0.4522
 4649SOL    HW125409   0.488   4.326  13.091 -0.8004  1.7162  1.2987
 4649SOL    HW225410   0.511   4.204  13.183 -0.7651 -0.0399 -0.8669
 4650SOL     OW25411   4.149   2.586   8.909  0.0317 -0.4818  0.5511
 4650SOL    HW125412   4.227   2.531   8.919 -0.0575 -1.1376 -2.2258
 4650SOL    HW225413   4.128   2.592   9.002  0.0111  3.0838  0.3006
 4651SOL     OW25414   1.191   3.289   9.571  0.4803 -0.4751  0.5967
 4651SOL    HW125415   1.241   3.225   9.620 -0.1229 -2.2734 -1.1523
 4651SOL    HW225416   1.253   3.359   9.593  0.4625 -0.2062 -0.2258
 4652SOL     OW25417   2.665   4.404   2.860  0.0127 -0.0340 -0.1724
 4652SOL    HW125418   2.665   4.490   2.901  2.0961 -0.6690  1.1601
 4652SOL    HW225419   2.723   4.416   2.785 -0.7780  3.0134 -0.2671
 4653SOL     OW25420   4.604   1.212   7.659 -0.2691 -0.1970  0.3965
 4653SOL    HW125421   4.547   1.214   7.735  0.3558  0.8438  0.8363
 4653SOL    HW225422   4.684   1.256   7.689 -1.2295  0.5211  1.8969
 4654SOL     OW25423   1.183   2.037   3.327 -0.1321 -0.1361 -0.5974
 4654SOL    HW125424   1.115   2.065   3.267 -1.7401 -0.2960  1.1418
 4654SOL    HW225425   1.205   1.952   3.290 -0.1132  0.0568 -1.0246
 4655SOL     OW25426   1.100   1.708  17.085 -0.1290  0.1624 -0.0539
 4655SOL    HW125427   1.037   1.707  17.157  0.8320  0.1012  0.7774
 4655SOL    HW225428   1.042   1.702  17.009  3.1762  2.4725 -2.7193
 4656SOL     OW25429   0.946   2.121   8.982  0.5598  0.1539 -0.4759
 4656SOL    HW125430   0.871   2.177   9.002  0.3076 -0.1033 -0.7015
 4656SOL    HW225431   0.972   2.137   8.892 -1.8897  1.9064 -0.8715
 4657SOL     OW25432   3.636   1.046   6.380 -0.6613 -0.0779  0.1430
 4657SOL    HW125433   3.707   1.050   6.444 -0.2048 -2.5045 -0.2008
 4657SOL    HW225434   3.676   1.068   6.295 -0.2958  0.2481  0.4018
 4658SOL     OW25435   3.719   2.886   8.757 -0.2077 -0.3778  0.3438
 4658SOL    HW125436   3.674   2.893   8.673  1.0408 -1.1296 -0.3852
 4658SOL    HW225437   3.654   2.855   8.820  0.8612  0.1606  1.7231
 4659SOL     OW25438   2.990   4.617   1.194  0.0545  0.0778 -0.2655
 4659SOL    HW125439   3.049   4.647   1.263 -2.1975  0.0663  1.6736
 4659SOL    HW225440   2.920   4.681   1.209  0.3231  0.2075  0.4360
 4660SOL     OW25441   3.173   3.517   9.067 -0.0473  0.3984  0.6257
 4660SOL    HW125442   3.118   3.516   8.988 -0.3735 -0.5873  0.8629
 4660SOL    HW225443   3.236   3.447   9.051  0.6324  1.1418  0.0607
 4661SOL     OW25444   4.372   0.697   5.391  0.0370 -0.5114 -0.8000
 4661SOL    HW125445   4.377   0.603   5.373 -0.5901 -1.1139  2.2925
 4661SOL    HW225446   4.404   0.715   5.479  1.4334 -1.3539 -1.1407
 4662SOL     OW25447   2.898   0.677   8.957  0.0503  0.4067 -0.3829
 4662SOL    HW125448   2.939   0.735   9.022 -3.4071  2.9467 -0.5281
 4662SOL    HW225449   2.976   0.656   8.906 -0.0916 -0.1694 -0.3635
 4663SOL     OW25450   4.156   3.184   7.434 -0.0938 -0.2433  0.1419
 4663SOL    HW125451   4.192   3.217   7.351  0.0492  1.5030  0.9049
 4663SOL    HW225452   4.187   3.255   7.490 -0.0366  0.9838 -1.4435
 4664SOL     OW25453   4.085   1.182   8.464  0.7856  0.7092 -0.7466
 4664SOL    HW125454   4.084   1.267   8.508 -0.9954  0.1573  0.2903
 4664SOL    HW225455   4.135   1.146   8.538 -0.8246  1.9728  0.9593
 4665SOL     OW25456   1.918   4.390   7.915  0.3690  0.0149  0.2178
 4665SOL    HW125457   1.850   4.357   7.973  0.7105 -0.3647  0.3992
 4665SOL    HW225458   1.995   4.341   7.944  0.8602  1.9719  2.2186
 4666SOL     OW25459   1.911   4.139   8.650  0.4912  0.2438 -0.3167
 4666SOL    HW125460   1.909   4.233   8.666  2.7125  0.6110 -2.3066
 4666SOL    HW225461   1.820   4.120   8.673  0.3790 -0.3064 -1.2279
 4667SOL     OW25462   2.759   4.534   1.937 -0.0785 -0.2366  0.7689
 4667SOL    HW125463   2.744   4.442   1.962 -2.1641 -0.3338 -0.8958
 4667SOL    HW225464   2.718   4.520   1.852  1.1993  0.1355  0.0974
 4668SOL     OW25465   0.874   3.707  13.623  0.1014  0.2989  0.2280
 4668SOL    HW125466   0.831   3.785  13.658 -0.8624  0.6852 -1.8133
 4668SOL    HW225467   0.960   3.741  13.598  1.3204 -3.4899 -0.7887
 4669SOL     OW25468   3.116   2.307   0.793 -0.1448  0.3367  0.3120
 4669SOL    HW125469   3.154   2.236   0.845  0.7696  0.7901  0.2680
 4669SOL    HW225470   3.121   2.377   0.858  0.5608 -0.6281  1.2929
 4670SOL     OW25471   0.779   4.636   1.532 -0.0641 -0.0429 -0.2925
 4670SOL    HW125472   0.761   4.726   1.506 -0.1051 -0.2682 -1.0521
 4670SOL    HW225473   0.710   4.587   1.487 -1.3524 -0.1071  1.7736
 4671SOL     OW25474   3.983   0.950  13.695  0.0990 -1.1123  0.3165
 4671SOL    HW125475   4.027   1.026  13.658  0.6226 -0.7307  1.7235
 4671SOL    HW225476   3.992   0.976  13.787 -0.9646 -2.2036  0.7376
 4672SOL     OW25477   2.795   2.743   6.452  0.2492  0.7053 -0.4322
 4672SOL    HW125478   2.803   2.711   6.362 -0.0579  0.6433 -0.4372
 4672SOL    HW225479   2.709   2.717   6.484 -0.8510  4.1619 -0.5923
 4673SOL     OW25480   1.160   2.658   2.442  0.2933 -0.1435  0.2282
 4673SOL    HW125481   1.178   2.653   2.536  1.1231  2.3590  0.2212
 4673SOL    HW225482   1.224   2.594   2.411  0.0498 -0.0117 -0.5370
 4674SOL     OW25483   1.496   4.089   0.543 -0.5803 -0.3531  0.3755
 4674SOL    HW125484   1.491   3.994   0.533 -1.3857 -0.0662 -1.8981
 4674SOL    HW225485   1.582   4.112   0.508 -0.3358 -0.8524  0.6321
 4675SOL     OW25486   1.065   1.268   5.366 -0.3680  0.0696  0.2042
 4675SOL    HW125487   1.056   1.235   5.456  0.0426  0.1778  0.2871
 4675SOL    HW225488   0.976   1.255   5.335  0.5028  1.0200 -2.6313
 4676SOL     OW25489   0.023   3.044  11.241  0.0918  0.0789 -0.1339
 4676SOL    HW125490   4.695   3.068  11.316 -0.5407  0.5111 -0.7353
 4676SOL    HW225491   4.690   3.079  11.176  1.9579 -1.8203 -2.8468
 4677SOL     OW25492   3.869   4.555   8.752  0.4908  0.2893 -0.1050
 4677SOL    HW125493   3.899   4.643   8.775  2.2354  0.0154 -1.2899
 4677SOL    HW225494   3.796   4.546   8.813 -0.3985  1.1470 -1.0530
 4678SOL     OW25495   1.333   4.232   6.431  0.4157  0.3399 -0.1709
 4678SOL    HW125496   1.268   4.177   6.475  0.4709 -0.7067 -1.3886
 4678SOL    HW225497   1.382   4.171   6.375 -1.1332  1.0194 -2.3026
 4679SOL     OW25498   4.725   4.280   6.963  0.5944  0.4233  0.0998
 4679SOL    HW125499   0.024   4.277   7.055  0.5474 -0.9420  0.0721
 4679SOL    HW225500   0.055   4.207   6.939 -0.6881 -0.8018  0.8071
 4680SOL     OW25501   3.971   1.862   4.121 -0.5282  0.2388 -0.3686
 4680SOL    HW125502   3.879   1.878   4.141 -0.2123  2.1017 -0.4410
 4680SOL    HW225503   4.012   1.897   4.200  0.2348  0.7356 -0.9866
 4681SOL     OW25504   3.798   4.471  14.944  0.0099 -0.3246 -0.2639
 4681SOL    HW125505   3.828   4.479  15.035 -1.0858  1.2741 -0.0335
 4681SOL    HW225506   3.780   4.377  14.944  2.5120 -0.8158  2.1705
 4682SOL     OW25507   0.224   1.914   2.388  0.4361  0.6875  0.4467
 4682SOL    HW125508   0.146   1.862   2.367  0.5747  0.3779  0.6888
 4682SOL    HW225509   0.204   1.982   2.324 -0.0100 -1.8137 -2.0743
 4683SOL     OW25510   0.278   2.699   5.912 -0.5883  0.0566  0.5077
 4683SOL    HW125511   0.252   2.776   5.862  1.4879  0.2865 -0.2364
 4683SOL    HW225512   0.372   2.706   5.893 -0.7609 -0.6212 -0.5339
 4684SOL     OW25513   0.252   0.882   5.849  0.3353 -0.4552 -0.3390
 4684SOL    HW125514   0.262   0.962   5.902  1.0466 -1.7774  1.5112
 4684SOL    HW225515   0.197   0.836   5.912 -0.2791  1.1342  0.2971
 4685SOL     OW25516   1.068   0.516   8.566 -0.0793 -0.5087 -0.5663
 4685SOL    HW125517   1.147   0.499   8.617 -1.3771  2.5159  2.4876
 4685SOL    HW225518   1.004   0.480   8.627  0.3892  0.8740  0.7507
 4686SOL     OW25519   4.618   0.025   6.082 -0.4868 -0.1001  0.0678
 4686SOL    HW125520   4.526   0.017   6.058 -0.8887 -1.3688  2.1187
 4686SOL    HW225521   4.635   4.668   6.124  2.0275  1.2728  1.8448
 4687SOL     OW25522   1.870   3.931   3.273 -0.3126  0.4663  0.4115
 4687SOL    HW125523   1.844   3.902   3.360  0.6162 -1.5594  0.0195
 4687SOL    HW225524   1.937   3.864   3.260 -0.4039  0.7227 -1.3517
 4688SOL     OW25525   2.172   0.900   8.117  0.8100 -0.3395  0.0098
 4688SOL    HW125526   2.119   0.917   8.039  3.9465  0.6317 -1.8953
 4688SOL    HW225527   2.147   0.808   8.129  0.4739 -0.1208  1.0001
 4689SOL     OW25528   3.350   1.813   5.173  0.3428 -0.2314 -0.6236
 4689SOL    HW125529   3.354   1.718   5.164 -0.5772 -0.4035  0.9062
 4689SOL    HW225530   3.256   1.824   5.163  0.5184  0.3861 -1.5951
 4690SOL     OW25531   0.675   3.874   9.185 -0.3225 -0.5271  0.4480
 4690SOL    HW125532   0.712   3.803   9.133 -2.7040 -0.6940 -1.0449
 4690SOL    HW225533   0.736   3.870   9.258 -0.3765 -0.7472  0.4805
 4691SOL     OW25534   3.292   0.727  14.384  0.1469 -0.3817 -0.0680
 4691SOL    HW125535   3.201   0.745  14.407  0.7187  1.2301  0.9520
 4691SOL    HW225536   3.317   0.696  14.471  0.8395 -1.3382 -0.6158
 4692SOL     OW25537   2.735   3.615   1.182  0.7128 -0.2016  1.0812
 4692SOL    HW125538   2.821   3.658   1.182  0.6799 -0.0985 -1.9619
 4692SOL    HW225539   2.745   3.577   1.094  1.2315  1.9803  0.2090
 4693SOL     OW25540   4.170   3.709  11.211 -0.2494  0.5734  0.6763
 4693SOL    HW125541   4.253   3.674  11.242 -0.4290 -1.2414 -0.8355
 4693SOL    HW225542   4.110   3.641  11.243  0.4207 -0.1150  0.4874
 4694SOL     OW25543   2.980   3.359  16.471  0.0925  0.1248  0.4477
 4694SOL    HW125544   2.936   3.392  16.549  1.8136  0.1122  1.4251
 4694SOL    HW225545   2.983   3.265  16.491 -0.6410  0.1864  0.8366
 4695SOL     OW25546   3.977   3.443   5.940  0.0171 -0.4371  0.2438
 4695SOL    HW125547   3.991   3.524   5.892 -0.6200  0.0071  0.8077
 4695SOL    HW225548   3.932   3.482   6.015 -0.6861 -1.2040  0.2313
 4696SOL     OW25549   2.112   0.408   2.383  0.3160  0.0898 -0.6506
 4696SOL    HW125550   2.029   0.371   2.413  1.7611 -0.9340  2.1158
 4696SOL    HW225551   2.088   0.501   2.380 -0.6085 -0.0546  2.2653
 4697SOL     OW25552   2.873   2.297  10.800 -0.1807  0.4854  0.1896
 4697SOL    HW125553   2.850   2.376  10.847 -0.5432 -1.0524  2.5986
 4697SOL    HW225554   2.962   2.320  10.771 -0.3990  1.4654  0.3059
 4698SOL     OW25555   3.313   0.791   7.878 -0.0706 -0.2321  0.2771
 4698SOL    HW125556   3.387   0.762   7.931  1.8792  0.9155 -1.8005
 4698SOL    HW225557   3.335   0.884   7.879  1.3095 -0.5772  0.9551
 4699SOL     OW25558   0.927   1.468   7.393  0.8183  0.2206 -0.5591
 4699SOL    HW125559   0.835   1.444   7.398  0.6747  0.8271 -0.2690
 4699SOL    HW225560   0.925   1.498   7.484 -0.7865  1.8084 -1.1168
 4700SOL     OW25561   4.028   4.237   4.990 -0.6296 -0.2633  0.5880
 4700SOL    HW125562   3.984   4.162   5.030  0.0207 -0.0720  1.6550
 4700SOL    HW225563   4.099   4.197   4.939 -1.4658 -1.4372  0.3338
 4701SOL     OW25564   0.043   3.257   8.831  0.2667  0.5203 -0.3170
 4701SOL    HW125565   0.136   3.236   8.842  0.0043 -2.3582 -3.2193
 4701SOL    HW225566   0.047   3.313   8.754  1.7429 -0.5287 -1.0198
 4702SOL     OW25567   2.088   1.622   5.258 -0.3030  0.2462  0.0873
 4702SOL    HW125568   2.026   1.577   5.315  0.2319 -1.4145 -0.6519
 4702SOL    HW225569   2.142   1.554   5.218  0.1073  1.7050 -1.8310
 4703SOL     OW25570   4.426   1.535   3.902  0.0243  0.4183 -0.1850
 4703SOL    HW125571   4.387   1.543   3.989 -2.5748  1.2248 -1.4089
 4703SOL    HW225572   4.474   1.618   3.896 -1.2349  1.2551  1.0802
 4704SOL     OW25573   2.401   1.614   1.807  0.0891 -0.3121 -0.1446
 4704SOL    HW125574   2.489   1.578   1.816  0.2236  0.8295  3.0540
 4704SOL    HW225575   2.403   1.681   1.876  0.7673  0.3265 -0.7866
 4705SOL     OW25576   1.268   2.512   1.145 -0.0036 -0.2100  0.0753
 4705SOL    HW125577   1.357   2.547   1.145 -0.2848  0.5000  0.5181
 4705SOL    HW225578   1.269   2.430   1.095  0.4598 -0.4284  0.4287
 4706SOL     OW25579   3.582   1.805   7.756 -0.6070 -0.4986  0.0349
 4706SOL    HW125580   3.567   1.873   7.690 -1.2482 -0.3606  0.3194
 4706SOL    HW225581   3.531   1.836   7.830 -0.2064  1.4878 -0.5314
 4707SOL     OW25582   2.871   4.170   5.801  0.2394  0.1089  0.2387
 4707SOL    HW125583   2.844   4.185   5.891 -1.4821 -0.2131 -0.2079
 4707SOL    HW225584   2.962   4.192   5.817  0.0701  1.2592 -0.3944
 4708SOL     OW25585   4.576   3.182   0.074 -0.0447 -0.5853  0.3062
 4708SOL    HW125586   4.492   3.180   0.028  0.4682 -0.7523 -0.6222
 4708SOL    HW225587   4.600   3.274   0.059 -0.5445 -0.3882  0.7136
 4709SOL     OW25588   1.510   0.692   4.188 -0.4220  0.1975 -0.1988
 4709SOL    HW125589   1.494   0.704   4.094  0.5626  1.6506 -0.1753
 4709SOL    HW225590   1.578   0.624   4.184 -0.5288 -0.0435  2.6270
 4710SOL     OW25591   3.432   3.981   8.446 -0.0206 -0.0979  0.4180
 4710SOL    HW125592   3.346   3.941   8.441 -0.9725  1.8322  1.3445
 4710SOL    HW225593   3.433   4.030   8.364 -1.3456 -1.4548 -0.3949
 4711SOL     OW25594   1.458   0.309  11.765  0.2991 -0.1438 -0.2075
 4711SOL    HW125595   1.549   0.281  11.754  0.1093 -0.7511 -0.2358
 4711SOL    HW225596   1.448   0.397  11.801 -0.4704  0.3601 -1.6405
 4712SOL     OW25597   1.107   4.443   8.655  0.0032 -0.2228 -0.1873
 4712SOL    HW125598   1.189   4.393   8.653 -0.4270 -1.0388  1.8133
 4712SOL    HW225599   1.128   4.515   8.714  2.0169  0.3368 -1.5837
 4713SOL     OW25600   0.525   0.400   2.542  0.3769 -0.0786  0.1591
 4713SOL    HW125601   0.472   0.345   2.484 -0.7768  0.4892  0.6967
 4713SOL    HW225602   0.516   0.487   2.505  1.9317 -0.3378 -0.8614
 4714SOL     OW25603   4.702   0.953   8.385 -0.0375  0.0456 -0.3740
 4714SOL    HW125604   4.632   1.006   8.423 -0.3398 -1.5886  1.3373
 4714SOL    HW225605   4.689   0.870   8.431 -0.1450  0.0397 -0.4157
 4715SOL     OW25606   2.974   4.702   1.921 -0.1594 -0.3405 -0.4710
 4715SOL    HW125607   3.032   4.676   1.849  0.3566 -0.4986 -0.0003
 4715SOL    HW225608   2.913   4.629   1.926 -0.2386 -0.1776  0.9825
 4716SOL     OW25609   2.707   1.964   8.789  0.4240 -0.6740 -0.2348
 4716SOL    HW125610   2.760   1.985   8.712 -0.2004  0.4448 -0.3570
 4716SOL    HW225611   2.629   1.938   8.740 -1.2403  5.2448 -0.6703
 4717SOL     OW25612   4.266   0.584   6.141 -0.2379  0.2817  0.5764
 4717SOL    HW125613   4.301   0.568   6.228  0.4143 -0.0199  0.2605
 4717SOL    HW225614   4.353   0.595   6.101 -0.2105  0.7702  0.7708
 4718SOL     OW25615   1.223   3.854   1.934 -0.3057  0.2924  0.1415
 4718SOL    HW125616   1.252   3.778   1.985 -0.3733 -0.0623 -0.3447
 4718SOL    HW225617   1.131   3.838   1.956 -0.4814 -1.5980 -1.9821
 4719SOL     OW25618   2.235   4.659   6.920 -0.2480  0.4498 -0.3376
 4719SOL    HW125619   2.246   4.569   6.950  0.2989  0.8745  0.7177
 4719SOL    HW225620   2.166   4.689   6.978 -1.3048  0.2218 -1.4726
 4720SOL     OW25621   0.866   3.729   7.786  0.7419  0.3139  0.2040
 4720SOL    HW125622   0.952   3.706   7.753  1.0529  1.8614 -0.0646
 4720SOL    HW225623   0.884   3.815   7.822  0.9267  0.1347  0.5348
 4721SOL     OW25624   1.541   3.790   1.513 -0.0142  0.1340  0.4944
 4721SOL    HW125625   1.506   3.868   1.470  1.4083  1.4652  1.7526
 4721SOL    HW225626   1.491   3.799   1.594 -0.0360 -1.7041  0.6869
 4722SOL     OW25627   2.831   1.004   4.730  0.1503 -0.7258 -0.4485
 4722SOL    HW125628   2.824   0.984   4.824  0.1312 -0.7827 -0.4620
 4722SOL    HW225629   2.883   1.084   4.725  0.3182 -0.9700 -2.3534
 4723SOL     OW25630   4.175   3.213   8.270 -0.4062  0.8479 -0.0081
 4723SOL    HW125631   4.113   3.177   8.207 -1.0053  0.1248  0.9953
 4723SOL    HW225632   4.132   3.203   8.355 -1.3575 -1.0617 -0.7169
 4724SOL     OW25633   3.208   2.199   9.271  0.3585  0.0207 -0.2921
 4724SOL    HW125634   3.190   2.133   9.204  0.6140  0.3887 -0.7317
 4724SOL    HW225635   3.117   2.226   9.287 -0.1475 -1.5772 -0.5548
 4725SOL     OW25636   2.069   1.068   2.829  0.3200  0.1189 -0.1742
 4725SOL    HW125637   2.135   1.133   2.803  1.9112 -0.8535  1.4024
 4725SOL    HW225638   2.059   1.074   2.924  2.7248  0.2440  0.0894
 4726SOL     OW25639   2.586   3.163   1.448  0.1222 -0.3242 -0.2281
 4726SOL    HW125640   2.608   3.205   1.532  0.3083  0.3861 -0.6333
 4726SOL    HW225641   2.601   3.235   1.386  0.6872 -0.8433 -0.6857
 4727SOL     OW25642   3.882   2.284   7.515 -0.1117  0.8103  0.1253
 4727SOL    HW125643   3.887   2.291   7.611  1.8079  2.3574 -0.0612
 4727SOL    HW225644   3.822   2.211   7.504  0.5844  0.4853 -1.4328
 4728SOL     OW25645   2.042   1.861   5.139  0.2968  0.6963  0.2208
 4728SOL    HW125646   2.044   1.771   5.172 -0.3149 -0.0053 -1.6582
 4728SOL    HW225647   2.091   1.913   5.202  1.6936 -2.1501  1.4704
 4729SOL     OW25648   4.632   0.017   1.489 -0.1076 -0.2863 -0.4081
 4729SOL    HW125649   4.568   0.084   1.464  1.4793  1.5366  0.3526
 4729SOL    HW225650   4.586   4.663   1.466 -1.8997  0.5523  0.2591
 4730SOL     OW25651   1.334   1.487   4.090  0.2782  0.0634 -0.4735
 4730SOL    HW125652   1.413   1.521   4.047  1.5221  0.4446  2.1423
 4730SOL    HW225653   1.275   1.562   4.077 -1.0271 -0.5649  1.9032
 4731SOL     OW25654   3.976   3.120   2.754  0.5480 -0.0816 -0.5974
 4731SOL    HW125655   3.938   3.042   2.794 -0.4603  0.2333 -0.9595
 4731SOL    HW225656   4.066   3.099   2.730  0.9679  1.3325 -0.2524
 4732SOL     OW25657   2.296   3.429  10.579  0.2815 -0.2544 -0.0926
 4732SOL    HW125658   2.306   3.512  10.627 -0.0187 -0.5728  0.5259
 4732SOL    HW225659   2.381   3.386  10.590 -0.7138 -2.4645 -1.1959
 4733SOL     OW25660   3.395   3.346   4.658  0.3385 -0.0113  0.6232
 4733SOL    HW125661   3.348   3.422   4.623  0.1445 -0.0408  0.8222
 4733SOL    HW225662   3.425   3.379   4.742  0.4824  0.3666  0.4254
 4734SOL     OW25663   2.920   3.405   8.254 -0.0673  0.4757 -0.2887
 4734SOL    HW125664   2.876   3.332   8.297  0.0635 -0.0649 -1.0655
 4734SOL    HW225665   2.913   3.467   8.326 -0.6090  0.3716 -0.2564
 4735SOL     OW25666   4.054   1.525   5.154 -0.3083  0.2294  0.3370
 4735SOL    HW125667   4.001   1.558   5.226  0.4743  2.8167 -0.2477
 4735SOL    HW225668   4.000   1.573   5.090  1.3722 -1.3373 -2.2488
 4736SOL     OW25669   2.156   0.244   2.948 -0.0222  0.1177  0.1549
 4736SOL    HW125670   2.153   0.288   3.033 -0.3071 -1.8496  1.1360
 4736SOL    HW225671   2.247   0.215   2.935  0.4810  1.1577  1.3386
 4737SOL     OW25672   3.815   4.713  15.709  0.4078  0.8209 -0.0230
 4737SOL    HW125673   3.872   0.050  15.666  0.1584  1.1666  0.1527
 4737SOL    HW225674   3.748   0.036  15.756 -2.3394 -0.7037 -2.3251
 4738SOL     OW25675   3.457   1.529   6.487 -0.1449  0.1617 -0.1417
 4738SOL    HW125676   3.382   1.587   6.500 -0.4073 -0.1516 -0.2708
 4738SOL    HW225677   3.463   1.475   6.566 -0.5599 -0.7844 -0.7591
 4739SOL     OW25678   0.421   2.279   5.353  0.3765 -0.1865 -0.1708
 4739SOL    HW125679   0.362   2.332   5.406  1.5085  1.3262 -0.4487
 4739SOL    HW225680   0.388   2.190   5.369  1.5933 -1.1328 -2.8746
 4740SOL     OW25681   0.689   2.145  16.615 -0.3949 -0.1192 -0.1845
 4740SOL    HW125682   0.672   2.197  16.693  1.8230 -1.5852  1.2775
 4740SOL    HW225683   0.642   2.063  16.629 -0.1310 -0.0719  0.9643
 4741SOL     OW25684   2.038   2.120   5.685 -0.1979 -0.1421 -0.1129
 4741SOL    HW125685   1.985   2.051   5.644 -0.2720 -0.0499 -0.1713
 4741SOL    HW225686   2.125   2.081   5.681  0.1974  0.5498  1.6152
 4742SOL     OW25687   1.801   3.870   7.092  0.1308 -0.2435  0.4592
 4742SOL    HW125688   1.826   3.963   7.090 -0.8037  0.0235  0.9288
 4742SOL    HW225689   1.819   3.831   7.007 -1.0316 -0.9298  0.5217
 4743SOL     OW25690   0.062   4.230   5.841 -0.0238  0.1879 -0.4292
 4743SOL    HW125691   0.086   4.160   5.782 -0.6235  0.8013 -1.3974
 4743SOL    HW225692   4.712   4.259   5.791 -2.4363 -1.9670  2.0411
 4744SOL     OW25693   2.498   1.043  12.951  0.1001 -0.0614  0.6313
 4744SOL    HW125694   2.454   1.080  12.874  1.5770  1.6354  0.6015
 4744SOL    HW225695   2.553   0.985  12.899  0.4889 -0.2632  1.2695
 4745SOL     OW25696   3.723   3.975   6.817  0.1526 -0.0902  0.2476
 4745SOL    HW125697   3.681   4.017   6.892  1.9027 -1.0393  1.7604
 4745SOL    HW225698   3.762   4.047   6.766 -0.2765 -1.1877 -1.6369
 4746SOL     OW25699   0.382   1.484   3.840  0.3503  0.1215  0.1126
 4746SOL    HW125700   0.289   1.505   3.833  0.5705  0.9497 -0.3512
 4746SOL    HW225701   0.411   1.566   3.880  0.0405  0.0882  0.4019
 4747SOL     OW25702   0.719   1.967   6.686 -0.1836  0.0827  0.3427
 4747SOL    HW125703   0.681   1.961   6.773  0.6699 -0.3012  0.6896
 4747SOL    HW225704   0.693   1.882   6.652 -0.2347 -0.7100  2.3825
 4748SOL     OW25705   3.397   0.622  14.740  0.1920 -0.0020  0.1748
 4748SOL    HW125706   3.483   0.665  14.739  0.7178 -1.0697 -0.7378
 4748SOL    HW225707   3.389   0.562  14.666  1.4665 -0.6232  0.5464
 4749SOL     OW25708   1.344   3.044   2.474  0.0249  0.0439  0.4053
 4749SOL    HW125709   1.249   3.035   2.464  0.2310 -0.9577 -0.7120
 4749SOL    HW225710   1.363   2.994   2.553  1.0489 -0.6360 -0.2706
 4750SOL     OW25711   3.973   3.256   0.374  0.7674 -0.6821  0.9983
 4750SOL    HW125712   4.044   3.200   0.342  0.3092  0.2381 -1.7037
 4750SOL    HW225713   4.020   3.311   0.436  2.4104  0.1178 -0.9424
 4751SOL     OW25714   0.715   1.695   8.576 -0.0128  0.4172  0.0743
 4751SOL    HW125715   0.696   1.625   8.514 -0.8063  0.2249  0.5361
 4751SOL    HW225716   0.716   1.636   8.651  0.7567 -1.2125 -1.2262
 4752SOL     OW25717   1.771   4.665   5.055  0.0651  0.1331 -0.6522
 4752SOL    HW125718   1.710   4.678   5.127  0.0355  0.8286 -0.8047
 4752SOL    HW225719   1.835   0.008   5.068 -0.3372  0.4164 -0.2248
 4753SOL     OW25720   2.336   1.363   7.452  0.6181 -0.2842 -0.3975
 4753SOL    HW125721   2.272   1.412   7.504  1.8207  0.9475 -0.0954
 4753SOL    HW225722   2.293   1.388   7.370  1.1576  1.6730 -0.0801
 4754SOL     OW25723   3.348   2.131   6.679  0.5438 -0.4305  0.8436
 4754SOL    HW125724   3.337   2.206   6.620  0.6847 -1.5665 -0.5930
 4754SOL    HW225725   3.376   2.183   6.755 -0.1611  0.5065  0.4633
 4755SOL     OW25726   1.170   1.702   0.725  0.0159 -0.2951 -0.5050
 4755SOL    HW125727   1.089   1.746   0.751 -0.1732 -1.6906  1.2831
 4755SOL    HW225728   1.131   1.640   0.663  1.7173 -1.7471 -0.1355
 4756SOL     OW25729   2.076   1.609  13.609 -0.3589  0.3571 -0.3701
 4756SOL    HW125730   2.024   1.588  13.686  1.9903  0.6816  1.3104
 4756SOL    HW225731   2.018   1.680  13.581 -2.1608 -0.4922  1.2168
 4757SOL     OW25732   0.279   4.695   7.471  0.4894 -0.8874  0.0451
 4757SOL    HW125733   0.301   4.614   7.517  1.5204 -0.5641  0.1230
 4757SOL    HW225734   0.367   0.006   7.459  1.3432 -2.5075  1.2815
 4758SOL     OW25735   0.992   2.944   4.910  0.1693 -0.0684 -0.8064
 4758SOL    HW125736   1.047   2.903   4.844  0.9397  0.1876 -0.3215
 4758SOL    HW225737   0.980   3.036   4.887  0.3742  0.0492 -0.4351
 4759SOL     OW25738   1.273   1.086   2.113 -0.5398  0.4886 -0.7439
 4759SOL    HW125739   1.314   1.094   2.199 -1.0825 -0.4402 -0.3931
 4759SOL    HW225740   1.256   0.991   2.106 -2.0226  0.7011 -0.1021
 4760SOL     OW25741   3.395   1.949  14.335 -0.5102 -0.3459  0.1202
 4760SOL    HW125742   3.324   1.906  14.287 -0.2944  0.8801 -1.3014
 4760SOL    HW225743   3.376   2.041  14.320  0.6728 -0.4642 -1.9958
 4761SOL     OW25744   0.935   3.101   5.196  0.4742 -0.0648  0.1704
 4761SOL    HW125745   0.897   3.180   5.234 -0.2431  0.5753 -1.9118
 4761SOL    HW225746   0.971   3.127   5.111  3.4202 -1.1685  1.0599
 4762SOL     OW25747   2.894   1.268   4.898 -0.7242 -0.1011  0.5267
 4762SOL    HW125748   2.817   1.324   4.909 -2.3366 -2.3634  0.7270
 4762SOL    HW225749   2.936   1.292   4.981 -0.0758  0.8770 -0.0812
 4763SOL     OW25750   0.904   1.474  16.532  0.1575  0.2102  0.1262
 4763SOL    HW125751   0.924   1.427  16.451  1.1066 -0.5945  0.8368
 4763SOL    HW225752   0.811   1.496  16.521 -0.0398 -0.5309  0.3034
 4764SOL     OW25753   1.455   1.925   7.166 -0.1863  0.8644 -0.4885
 4764SOL    HW125754   1.487   2.014   7.151 -0.9646  1.2826  0.3463
 4764SOL    HW225755   1.367   1.934   7.202 -0.0354 -0.2636  0.1538
 4765SOL     OW25756   2.393   3.921  15.796 -0.0468 -0.0329  0.4662
 4765SOL    HW125757   2.341   3.921  15.876  0.7747 -1.0065  0.9949
 4765SOL    HW225758   2.339   3.860  15.745  2.5644  0.4208 -2.8891
 4766SOL     OW25759   0.152   2.491   8.563 -0.3802  0.2228 -0.0810
 4766SOL    HW125760   0.085   2.556   8.586  1.0938  1.3130  1.1357
 4766SOL    HW225761   0.186   2.459   8.647 -0.9313  2.7911  1.1372
 4767SOL     OW25762   3.651   1.077   4.697  0.2238  0.0375 -0.3836
 4767SOL    HW125763   3.699   1.127   4.764  3.1185 -1.3465 -1.4230
 4767SOL    HW225764   3.726   1.037   4.654 -0.5497  0.0525 -1.7329
 4768SOL     OW25765   3.884   3.622  13.217  0.3032  0.3146 -0.5732
 4768SOL    HW125766   3.864   3.691  13.281 -2.3911 -0.4672 -0.5615
 4768SOL    HW225767   3.978   3.614  13.231  0.0399  0.9970  1.5690
 4769SOL     OW25768   3.212   0.063   4.446 -0.0610 -0.2227 -0.3409
 4769SOL    HW125769   3.291   0.010   4.436 -1.8716 -3.0456  0.0547
 4769SOL    HW225770   3.196   0.067   4.351 -0.3556 -1.1449 -0.3311
 4770SOL     OW25771   3.164   1.457   6.323  0.7401  0.6456 -0.5654
 4770SOL    HW125772   3.158   1.383   6.383  1.8726  1.4368  0.5332
 4770SOL    HW225773   3.194   1.520   6.389  0.4818 -1.3879  1.4861
 4771SOL     OW25774   0.866   0.767  14.393  0.0377  0.2794 -0.3102
 4771SOL    HW125775   0.782   0.781  14.436  0.3697  2.1604 -0.2697
 4771SOL    HW225776   0.849   0.705  14.322  1.1883 -0.1852 -0.1887
 4772SOL     OW25777   3.709   2.165   2.336 -0.0038 -0.3674  0.3821
 4772SOL    HW125778   3.764   2.225   2.285 -0.6302 -0.4371 -0.3940
 4772SOL    HW225779   3.640   2.221   2.373  0.4705 -0.3925  1.2964
 4773SOL     OW25780   2.417   4.336   2.775  0.3293  0.1552 -0.2948
 4773SOL    HW125781   2.498   4.376   2.807 -0.2029 -0.5560  1.9507
 4773SOL    HW225782   2.375   4.325   2.860  0.6773  1.7159  0.0840
 4774SOL     OW25783   4.441   3.352   2.429  0.2789 -0.0911 -0.0442
 4774SOL    HW125784   4.485   3.312   2.504  0.4268  2.2274  1.1223
 4774SOL    HW225785   4.444   3.448   2.434  1.1553 -0.1238  0.0537
 4775SOL     OW25786   3.843   2.267   5.456 -0.0850 -0.8304 -0.2764
 4775SOL    HW125787   3.832   2.328   5.529  1.7227  1.3068 -1.7931
 4775SOL    HW225788   3.923   2.303   5.416  0.8981 -2.4733  0.2141
 4776SOL     OW25789   2.906   4.124  15.602 -0.1194 -0.3360  0.2711
 4776SOL    HW125790   2.816   4.104  15.625 -0.0658 -0.1646  0.6236
 4776SOL    HW225791   2.955   4.109  15.683  2.0487 -2.1547 -1.3611
 4777SOL     OW25792   1.172   3.441   7.405  0.0002 -0.2125  0.0835
 4777SOL    HW125793   1.257   3.470   7.438  0.8006 -1.6146 -0.7793
 4777SOL    HW225794   1.127   3.422   7.487  3.2933  2.0645  2.4145
 4778SOL     OW25795   1.636   0.569  13.331  0.2530 -0.3837 -0.6848
 4778SOL    HW125796   1.631   0.490  13.277  0.8030 -0.9334  0.0898
 4778SOL    HW225797   1.715   0.611  13.296 -1.5378  2.3955 -1.4628
 4779SOL     OW25798   0.221   0.206   1.443  0.4906 -0.0899  0.1478
 4779SOL    HW125799   0.254   0.296   1.453 -0.2089  0.3860 -1.8457
 4779SOL    HW225800   0.137   0.219   1.489 -0.4841 -1.4964 -1.2551
 4780SOL     OW25801   4.692   1.556   4.778 -0.1382 -0.2545  0.0577
 4780SOL    HW125802   0.058   1.575   4.767 -0.2859 -0.0531 -0.8581
 4780SOL    HW225803   4.652   1.643   4.777  0.7852  0.2068  2.0697
 4781SOL     OW25804   0.861   3.885   6.497  0.2075 -0.2118 -0.3589
 4781SOL    HW125805   0.811   3.964   6.518 -0.4321 -1.1727  1.7000
 4781SOL    HW225806   0.873   3.896   6.403  0.4356  0.2134 -0.2792
 4782SOL     OW25807   3.616   0.718   2.251 -0.0733 -0.0585 -0.0156
 4782SOL    HW125808   3.668   0.746   2.326  0.4767  1.3449 -0.9264
 4782SOL    HW225809   3.664   0.757   2.179 -0.5766  2.1645  0.8562
 4783SOL     OW25810   0.459   1.570   6.436  0.2295 -0.2961 -0.2547
 4783SOL    HW125811   0.480   1.503   6.502  0.0476 -0.5529 -0.4544
 4783SOL    HW225812   0.385   1.527   6.392  0.3844  0.7713 -1.5579
 4784SOL     OW25813   0.191   4.386   4.813  0.0099 -0.1521  0.0854
 4784SOL    HW125814   0.257   4.454   4.830 -0.7557  0.9409 -1.3552
 4784SOL    HW225815   0.183   4.343   4.898 -0.6923  1.2097  0.7054
 4785SOL     OW25816   2.956   0.987   7.007  0.5617 -0.0638 -0.1593
 4785SOL    HW125817   2.945   1.002   6.913  1.8559  0.8579 -0.1643
 4785SOL    HW225818   2.959   1.075   7.046 -0.4561 -1.0349  2.1236
 4786SOL     OW25819   3.981   3.661   3.436  0.0045 -0.1109  0.1733
 4786SOL    HW125820   4.031   3.642   3.357 -1.9639 -0.2641 -1.0404
 4786SOL    HW225821   3.904   3.714   3.415 -0.6208 -1.0516  0.0898
 4787SOL     OW25822   4.675   4.057   9.841  0.2868  0.1292 -0.2647
 4787SOL    HW125823   4.667   4.135   9.786  0.8079 -0.6540 -1.4414
 4787SOL    HW225824   0.012   4.001   9.797  0.7448 -0.7898  1.5669
 4788SOL     OW25825   3.372   4.123   8.830 -0.1133  0.0644 -0.6724
 4788SOL    HW125826   3.376   4.034   8.795 -0.2126  0.2609 -1.1821
 4788SOL    HW225827   3.298   4.164   8.786  0.3444  1.6407  0.0178
 4789SOL     OW25828   0.348   4.718   1.655 -0.3435 -0.6989 -0.0423
 4789SOL    HW125829   0.292   4.715   1.578  2.3796 -0.3454 -2.0265
 4789SOL    HW225830   0.418   0.050   1.626  0.1470 -1.0216  0.4860
 4790SOL     OW25831   0.942   1.226   6.932 -0.4448 -0.3190  0.6095
 4790SOL    HW125832   0.958   1.134   6.955 -0.6026 -0.6661 -0.6539
 4790SOL    HW225833   0.979   1.275   7.005 -0.9007 -0.4766  0.9481
 4791SOL     OW25834   2.234   0.595   7.167 -0.0574  0.0354 -0.1796
 4791SOL    HW125835   2.184   0.524   7.207 -1.2312  0.6678 -0.5430
 4791SOL    HW225836   2.191   0.675   7.198  0.2063 -0.1888  0.7616
 4792SOL     OW25837   0.845   2.648   7.696 -0.7846 -0.0351  0.2444
 4792SOL    HW125838   0.754   2.659   7.721 -2.5152 -3.1707 -4.7336
 4792SOL    HW225839   0.860   2.555   7.713 -3.1341 -0.6589 -1.2041
 4793SOL     OW25840   0.996   0.853   7.461 -0.1577 -0.2456 -0.4150
 4793SOL    HW125841   1.064   0.804   7.508  0.1919  1.8934  1.3085
 4793SOL    HW225842   1.049   0.921   7.420 -0.9710  1.6836  1.7524
 4794SOL     OW25843   4.503   2.036  17.371  0.6176 -0.2126  0.2265
 4794SOL    HW125844   4.488   1.999  17.458 -3.6482 -1.3908 -0.9808
 4794SOL    HW225845   4.456   1.972  17.317  1.7054 -0.8469  0.0301
 4795SOL     OW25846   3.720   3.345   2.393 -0.3155  0.0553  0.0183
 4795SOL    HW125847   3.763   3.292   2.461 -0.0507  1.2547  0.7813
 4795SOL    HW225848   3.765   3.427   2.412 -1.9606  1.2568 -1.3407
 4796SOL     OW25849   2.344   2.650   2.327 -0.2084  0.0735  0.0510
 4796SOL    HW125850   2.386   2.731   2.296 -1.1893  0.2979 -0.6881
 4796SOL    HW225851   2.326   2.600   2.248 -2.7488  0.7649  0.1950
 4797SOL     OW25852   2.668   4.077   7.464  0.3723 -0.0169  0.4605
 4797SOL    HW125853   2.713   4.045   7.386  0.0791  0.6854  0.0091
 4797SOL    HW225854   2.717   4.158   7.472 -0.9785  0.6823  1.7244
 4798SOL     OW25855   1.815   0.855  10.547  0.0434  0.0992  0.6230
 4798SOL    HW125856   1.815   0.950  10.557 -0.1528  0.0939  0.6819
 4798SOL    HW225857   1.752   0.821  10.611 -0.9698 -0.0462 -0.4478
 4799SOL     OW25858   1.966   1.263   8.105 -0.2741 -0.5415 -0.1335
 4799SOL    HW125859   1.917   1.319   8.165  1.0338 -1.0302  1.3817
 4799SOL    HW225860   1.915   1.182   8.108  1.0128 -1.3796 -0.8417
 4800SOL     OW25861   2.900   4.445   4.815 -0.0226 -0.4435 -0.0342
 4800SOL    HW125862   2.923   4.451   4.722 -0.5668  0.6998 -0.0889
 4800SOL    HW225863   2.812   4.481   4.810  0.5165  0.8708 -0.3274
 4801SOL     OW25864   4.628   0.536   2.618 -0.7742 -0.0810  0.0192
 4801SOL    HW125865   4.614   0.458   2.671  0.4523 -0.9608 -0.9413
 4801SOL    HW225866   4.704   0.579   2.659 -0.5885 -0.0226 -0.3835
 4802SOL     OW25867   0.467   4.304   5.570 -0.2709 -0.5493  0.1648
 4802SOL    HW125868   0.495   4.335   5.656 -1.4514 -0.6726  0.5980
 4802SOL    HW225869   0.462   4.389   5.527  1.5505  0.0324  1.1290
 4803SOL     OW25870   2.698   3.115  17.059  0.1418 -0.7122  0.3003
 4803SOL    HW125871   2.753   3.137  16.984 -2.1257  0.5595 -0.9916
 4803SOL    HW225872   2.611   3.134  17.025  1.5084  1.0117 -2.2871
 4804SOL     OW25873   2.962   2.662  13.743 -0.0295 -0.7075 -0.6876
 4804SOL    HW125874   2.975   2.620  13.828  2.1947 -0.3984 -0.8659
 4804SOL    HW225875   3.052   2.682  13.717  0.6141 -0.9706  1.3288
 4805SOL     OW25876   1.736   1.398   2.240 -0.3392 -0.4570 -0.3738
 4805SOL    HW125877   1.694   1.313   2.226  0.2453 -1.0354  1.3166
 4805SOL    HW225878   1.826   1.364   2.242 -0.7214 -1.3987  0.6356
 4806SOL     OW25879   1.122   2.343   7.029  0.2033 -0.4219 -0.1177
 4806SOL    HW125880   1.136   2.286   6.954  1.6188  1.3605 -1.2018
 4806SOL    HW225881   1.052   2.388   6.983 -0.0653 -1.2615 -0.5213
 4807SOL     OW25882   4.175   1.155   3.415  0.0999 -0.6905 -0.2074
 4807SOL    HW125883   4.260   1.127   3.448  0.2545 -0.0568 -0.0537
 4807SOL    HW225884   4.131   1.072   3.402 -0.1327 -0.4752 -0.7986
 4808SOL     OW25885   3.313   4.201   6.145  0.2069 -0.8192 -0.5457
 4808SOL    HW125886   3.297   4.273   6.084 -2.4645 -1.4947 -0.6197
 4808SOL    HW225887   3.406   4.220   6.161 -0.0057 -0.4968  0.3196
 4809SOL     OW25888   0.536   4.536   3.962  0.4152  0.0548  0.4562
 4809SOL    HW125889   0.617   4.498   3.929  1.4518  2.3706  0.3324
 4809SOL    HW225890   0.554   4.559   4.053  1.0229  0.8344  0.1343
 4810SOL     OW25891   2.954   3.914  14.679  0.0205 -0.2818 -0.0629
 4810SOL    HW125892   2.906   3.835  14.701 -0.8945  0.8012  1.8499
 4810SOL    HW225893   2.879   3.961  14.642  0.6738  0.2841 -0.6731
 4811SOL     OW25894   2.283   3.517   2.372 -0.3885  0.6197 -0.4809
 4811SOL    HW125895   2.345   3.573   2.419 -0.4779  0.8142 -0.5953
 4811SOL    HW225896   2.198   3.538   2.412 -0.5125 -1.7740  0.5146
 4812SOL     OW25897   3.368   2.324  14.121 -0.4394 -0.3088  0.5805
 4812SOL    HW125898   3.373   2.419  14.125 -0.1019 -0.3014 -0.0240
 4812SOL    HW225899   3.321   2.301  14.202  1.2093  0.8619  1.8679
 4813SOL     OW25900   4.047   1.607   1.787  0.0155 -0.4953  0.9123
 4813SOL    HW125901   4.002   1.524   1.804  1.7545 -1.1663  2.2232
 4813SOL    HW225902   4.047   1.647   1.874 -0.6921 -2.2034  1.6967
 4814SOL     OW25903   4.161   1.473   7.075  0.3826  0.2301  0.1568
 4814SOL    HW125904   4.123   1.561   7.082  0.9967  0.3772  1.6324
 4814SOL    HW225905   4.228   1.494   7.140 -2.1040  0.1995  2.7249
 4815SOL     OW25906   2.931   2.570   7.523  0.0088  0.4275 -0.1845
 4815SOL    HW125907   3.012   2.622   7.531 -0.5633  1.5302 -1.3655
 4815SOL    HW225908   2.885   2.624   7.458 -0.7013 -2.6410 -2.2239
 4816SOL     OW25909   2.655   1.560   1.528  0.1318 -0.4719  0.6952
 4816SOL    HW125910   2.600   1.503   1.475  1.0363 -0.5618 -0.1524
 4816SOL    HW225911   2.662   1.641   1.478 -1.1338 -0.5828  0.3474
 4817SOL     OW25912   3.228   0.658  13.590  0.5318 -0.0558 -0.0663
 4817SOL    HW125913   3.157   0.658  13.526  1.2788  3.4685 -0.9073
 4817SOL    HW225914   3.272   0.734  13.551  0.0190 -0.5784 -1.6482
 4818SOL     OW25915   2.542   1.374  10.733 -0.2076 -0.2625  0.4446
 4818SOL    HW125916   2.562   1.294  10.782 -0.4087 -0.0934  0.7998
 4818SOL    HW225917   2.631   1.396  10.704 -0.2559  0.4282  0.8142
 4819SOL     OW25918   2.439   2.594   4.159  0.0338 -0.0062 -0.3315
 4819SOL    HW125919   2.389   2.518   4.127 -0.1544 -0.3820  0.8688
 4819SOL    HW225920   2.438   2.640   4.075 -0.7624 -1.6561 -1.2284
 4820SOL     OW25921   1.620   4.408  15.691 -0.1150  0.5049 -0.2840
 4820SOL    HW125922   1.556   4.465  15.648 -0.9721 -0.9184 -0.8878
 4820SOL    HW225923   1.643   4.454  15.772  0.4029 -0.0689 -0.1064
 4821SOL     OW25924   1.280   3.144  15.027 -0.2046  0.3575 -0.3168
 4821SOL    HW125925   1.336   3.066  15.021 -2.3766 -1.4089  2.4454
 4821SOL    HW225926   1.204   3.113  14.978 -1.0432  0.0868  1.1775
 4822SOL     OW25927   2.010   2.630   6.539 -0.4953 -0.0259  0.0018
 4822SOL    HW125928   1.987   2.629   6.446  2.6481 -4.0160 -0.7202
 4822SOL    HW225929   2.106   2.631   6.544 -0.5905  1.6671  1.2379
 4823SOL     OW25930   2.332   3.979   4.479  0.4370  0.0754  0.2860
 4823SOL    HW125931   2.267   3.974   4.549 -0.5050  3.3708 -0.3315
 4823SOL    HW225932   2.276   3.968   4.402  2.5804  1.8223 -1.5400
 4824SOL     OW25933   0.472   1.503   5.309 -0.0386 -0.1232  0.4195
 4824SOL    HW125934   0.529   1.433   5.344  0.2005  0.3230  0.9246
 4824SOL    HW225935   0.498   1.583   5.353  0.9591 -0.9306  1.3108
 4825SOL     OW25936   3.323   4.295   5.004 -0.7406  0.3881 -0.7532
 4825SOL    HW125937   3.317   4.316   4.910 -1.1801  0.9922 -0.5854
 4825SOL    HW225938   3.408   4.333   5.026 -0.5002 -0.9188  0.5547
 4826SOL     OW25939   1.677   1.578  10.396  0.4925  0.2040 -0.0657
 4826SOL    HW125940   1.676   1.650  10.459 -0.2475  1.9834 -2.1140
 4826SOL    HW225941   1.588   1.570  10.363  0.5231 -0.6730  0.0787
 4827SOL     OW25942   1.133   2.983  11.439 -0.0234 -0.3405 -0.5613
 4827SOL    HW125943   1.187   2.905  11.449  1.2451  0.5975  0.0270
 4827SOL    HW225944   1.055   2.952  11.393 -0.2682  0.1096 -0.4466
 4828SOL     OW25945   2.595   2.719   2.023  0.5209  0.2183 -0.1448
 4828SOL    HW125946   2.568   2.752   1.937  2.7210 -0.0726 -0.9482
 4828SOL    HW225947   2.568   2.628   2.011  3.2139 -0.7161  1.0725
 4829SOL     OW25948   2.872   4.385   3.204 -0.6121 -0.8046  0.2489
 4829SOL    HW125949   2.841   4.447   3.270 -0.2488 -0.8889  0.4979
 4829SOL    HW225950   2.920   4.434   3.138 -2.8275  1.7324  0.5295
 4830SOL     OW25951   2.921   1.272   7.805 -1.1902 -0.6050 -0.0477
 4830SOL    HW125952   2.853   1.245   7.867 -0.0717  1.5934  2.1392
 4830SOL    HW225953   2.994   1.243   7.860 -1.0575  0.6772  0.4499
 4831SOL     OW25954   2.891   3.284  14.250  0.0963  0.8440  0.5105
 4831SOL    HW125955   2.981   3.253  14.234 -1.0820 -2.7837  0.9065
 4831SOL    HW225956   2.843   3.207  14.220  3.3276 -1.0231  0.1605
 4832SOL     OW25957   3.388   3.730  10.669  0.8170 -0.8014 -0.1251
 4832SOL    HW125958   3.437   3.764  10.744 -0.2614  0.0167  0.2112
 4832SOL    HW225959   3.445   3.747  10.594  1.2347 -2.4007 -0.1571
 4833SOL     OW25960   0.940   4.659   7.379 -0.0726 -0.0290 -0.4859
 4833SOL    HW125961   0.964   4.576   7.337 -2.0641 -1.1459  0.5957
 4833SOL    HW225962   0.860   4.675   7.328 -0.4090 -1.7662 -0.5052
 4834SOL     OW25963   3.449   3.937   3.921 -0.2556 -0.7603  0.3312
 4834SOL    HW125964   3.540   3.915   3.942 -0.1894  1.7973  2.7748
 4834SOL    HW225965   3.432   3.873   3.852 -2.7954  0.8568 -0.5416
 4835SOL     OW25966   3.505   4.049  15.246  0.7544  0.3782 -0.5557
 4835SOL    HW125967   3.429   4.057  15.188  1.0284 -0.4774 -1.0326
 4835SOL    HW225968   3.511   3.957  15.272  0.1117  0.6123  0.4175
 4836SOL     OW25969   0.351   3.695  11.007  0.5495 -0.8199 -0.5190
 4836SOL    HW125970   0.397   3.690  10.923  1.3955  0.3336 -0.1309
 4836SOL    HW225971   0.333   3.604  11.031  1.7301 -1.0471 -0.5029
 4837SOL     OW25972   0.467   2.196  12.615 -0.7325  0.7570  0.5118
 4837SOL    HW125973   0.548   2.214  12.568  0.0454  0.5788  1.7762
 4837SOL    HW225974   0.488   2.226  12.704  2.4856 -0.3716  0.1178
 4838SOL     OW25975   2.874   2.126  14.683  0.0213  0.1165 -0.1492
 4838SOL    HW125976   2.964   2.152  14.665  0.1598 -0.0895  0.2353
 4838SOL    HW225977   2.844   2.201  14.734 -0.2711 -0.3261  0.3307
 4839SOL     OW25978   1.334   0.012   3.880  0.1940  0.2776 -0.4239
 4839SOL    HW125979   1.417   4.705   3.914 -1.1403 -2.3021  0.3392
 4839SOL    HW225980   1.278   4.707   3.951  0.0205 -1.0546 -1.1547
 4840SOL     OW25981   1.415   3.822   8.753 -0.0170  0.1632  0.0325
 4840SOL    HW125982   1.382   3.734   8.773 -0.8508  0.0710 -1.7351
 4840SOL    HW225983   1.499   3.821   8.799 -0.1980 -1.7473  0.3270
 4841SOL     OW25984   2.017   3.243  16.058  0.5636  0.1001 -0.5135
 4841SOL    HW125985   1.995   3.331  16.087 -0.0384 -0.3780  0.4825
 4841SOL    HW225986   2.042   3.269  15.970 -1.8266  0.9355 -0.9545
 4842SOL     OW25987   3.629   1.710   2.531  0.5625  0.7999  0.4400
 4842SOL    HW125988   3.677   1.792   2.519 -2.8754  3.0916  2.1781
 4842SOL    HW225989   3.694   1.654   2.572  0.3932  0.0568 -0.3141
 4843SOL     OW25990   0.343   0.897   3.496 -0.0915 -0.1153  0.0773
 4843SOL    HW125991   0.285   0.972   3.488  1.5529  1.3572  1.8452
 4843SOL    HW225992   0.431   0.933   3.482 -0.9396  2.2507  0.8923
 4844SOL     OW25993   1.080   1.585   4.188 -0.4247  0.0510 -0.0278
 4844SOL    HW125994   1.092   1.541   4.104  1.3142 -0.4058  0.4668
 4844SOL    HW225995   1.085   1.504   4.238  2.1048 -0.1310 -0.6176
 4845SOL     OW25996   3.865   1.680  17.225  0.3321 -0.4975  0.3378
 4845SOL    HW125997   3.788   1.686  17.169  1.0517 -1.1662 -0.7229
 4845SOL    HW225998   3.925   1.628  17.171  0.8558  1.9421 -1.4122
 4846SOL     OW25999   4.686   4.023   8.428 -0.3548  0.5639 -0.2160
 4846SOL    HW126000   0.011   4.079   8.486  1.1954 -0.0034 -1.0876
 4846SOL    HW226001   0.009   4.039   8.348 -0.1042  1.3010  0.0794
 4847SOL     OW26002   3.523   0.654   6.831  0.7711 -0.1461 -0.3310
 4847SOL    HW126003   3.490   0.724   6.775 -0.5867  0.5541  1.3321
 4847SOL    HW226004   3.497   0.685   6.918 -0.8349 -1.4627 -0.3337
 4848SOL     OW26005   3.342   4.570   6.500 -0.5052 -0.3221  0.3321
 4848SOL    HW126006   3.406   4.500   6.512  0.3565  0.4745  0.4057
 4848SOL    HW226007   3.262   4.531   6.465 -0.3110  0.4083 -0.9277
 4849SOL     OW26008   3.040   3.049   7.962  0.2323 -0.2617  0.1389
 4849SOL    HW126009   2.958   3.063   8.010 -0.5196 -1.5750 -0.7577
 4849SOL    HW226010   3.070   3.138   7.945 -1.5815  0.3840  0.3339
 4850SOL     OW26011   1.187   1.872   2.180  0.3627  0.2521 -0.0045
 4850SOL    HW126012   1.224   1.899   2.264  2.6531  0.2326 -1.0136
 4850SOL    HW226013   1.106   1.923   2.174  0.4750  0.6518  1.9810
 4851SOL     OW26014   4.514   4.636   8.202 -0.0481 -0.0009  0.0644
 4851SOL    HW126015   4.576   4.578   8.157 -1.5565 -1.7125  0.1676
 4851SOL    HW226016   4.569   4.668   8.274  0.9083  2.7626 -1.9315
 4852SOL     OW26017   4.604   3.504   4.637  0.3723 -0.1312  0.0773
 4852SOL    HW126018   4.677   3.513   4.698 -0.5952  0.2335  1.1967
 4852SOL    HW226019   4.643   3.475   4.555  2.0840 -0.8424  1.1442
 4853SOL     OW26020   3.460   2.920   1.025  0.6418  0.2708  0.1817
 4853SOL    HW126021   3.552   2.916   0.997  0.6534 -1.6460  0.5115
 4853SOL    HW226022   3.443   3.012   1.005 -2.4972 -0.0678  1.2965
 4854SOL     OW26023   2.184   2.933  12.479 -0.5763 -0.2109 -0.0599
 4854SOL    HW126024   2.180   3.000  12.411 -1.8502  0.2353  0.4458
 4854SOL    HW226025   2.145   2.862  12.427  0.7369  0.7725 -2.3758
 4855SOL     OW26026   4.174   0.937   5.090 -0.3307 -0.8310  0.0955
 4855SOL    HW126027   4.188   0.949   5.184  1.2272 -0.8640 -0.1369
 4855SOL    HW226028   4.083   0.964   5.083 -0.0638 -0.0413 -0.2868
 4856SOL     OW26029   3.369   4.028   0.232  0.4977  0.5975 -0.3347
 4856SOL    HW126030   3.309   3.961   0.200  1.9099  0.1363 -2.0776
 4856SOL    HW226031   3.449   3.995   0.191  0.8021 -0.6034  1.2464
 4857SOL     OW26032   2.318   3.538   6.788 -0.4355 -0.2894  0.7246
 4857SOL    HW126033   2.353   3.602   6.850 -1.8861  0.0460  1.1899
 4857SOL    HW226034   2.267   3.593   6.729 -0.6696 -0.0056  1.1954
 4858SOL     OW26035   4.044   3.660  11.890  0.2353 -0.9270  0.5367
 4858SOL    HW126036   3.949   3.673  11.892  0.2527 -1.0919  2.2291
 4858SOL    HW226037   4.077   3.728  11.831 -1.1331 -0.0598  0.7702
 4859SOL     OW26038   2.009   0.085  11.320 -0.1701 -0.1872  0.4958
 4859SOL    HW126039   1.970   0.168  11.348 -1.5073 -0.6274 -0.0480
 4859SOL    HW226040   2.091   0.078  11.368 -1.0559  0.7667  2.1310
 4860SOL     OW26041   3.413   2.914   7.096  0.3157  0.6996  0.1415
 4860SOL    HW126042   3.489   2.879   7.050 -0.5724 -2.2440  0.8766
 4860SOL    HW226043   3.374   2.834   7.132  1.0640  0.4404  0.3767
 4861SOL     OW26044   4.386   2.455   8.594  0.0500 -0.2433 -0.0449
 4861SOL    HW126045   4.387   2.512   8.671 -3.5592 -1.1091  0.6588
 4861SOL    HW226046   4.441   2.382   8.621 -1.9839 -0.3989  3.6380
 4862SOL     OW26047   3.907   4.079   8.029 -0.0321 -0.0301 -0.1010
 4862SOL    HW126048   3.854   4.053   7.954 -0.5946 -0.7009  0.5231
 4862SOL    HW226049   3.826   4.104   8.073 -0.5630  1.1489 -1.7443
 4863SOL     OW26050   1.481   2.079  12.627  0.4975 -0.6717  0.2500
 4863SOL    HW126051   1.546   2.133  12.670 -0.0366 -1.2230  1.7547
 4863SOL    HW226052   1.398   2.123  12.647  2.6517  2.0954  3.1170
 4864SOL     OW26053   1.062   0.491   6.729 -0.0307 -0.0461 -0.7739
 4864SOL    HW126054   1.058   0.395   6.733  2.0125 -0.0510  1.2655
 4864SOL    HW226055   1.082   0.501   6.636 -0.0346 -1.8142 -0.9633
 4865SOL     OW26056   1.963   4.337  10.731  0.0915  0.5224  0.2629
 4865SOL    HW126057   1.973   4.409  10.793  0.7641  0.8072 -0.1859
 4865SOL    HW226058   1.868   4.341  10.722  0.1233  1.3440  0.2811
 4866SOL     OW26059   2.015   2.365   7.337  0.5705 -0.4528 -0.1438
 4866SOL    HW126060   2.087   2.414   7.297 -0.3879  1.2867  0.2777
 4866SOL    HW226061   2.058   2.351   7.422 -1.2414 -1.8917  0.5284
 4867SOL     OW26062   0.440   0.145  15.341 -0.0559  0.1207 -0.4115
 4867SOL    HW126063   0.411   0.066  15.296  3.6709 -0.1451 -2.3068
 4867SOL    HW226064   0.397   0.146  15.427  0.6466 -1.2893 -0.0412
 4868SOL     OW26065   4.486   3.454  11.709  0.7473  0.0255  0.3673
 4868SOL    HW126066   4.496   3.389  11.778 -1.3713 -1.4682 -0.7204
 4868SOL    HW226067   4.509   3.408  11.628  0.6588 -0.2392  0.4945
 4869SOL     OW26068   1.213   2.300   3.435  0.6805 -0.2445 -0.0726
 4869SOL    HW126069   1.175   2.303   3.347 -0.4864 -0.3120  0.4196
 4869SOL    HW226070   1.190   2.210   3.455  0.3130  0.1562  1.2919
 4870SOL     OW26071   2.310   3.618   6.069 -0.6636  0.0582 -0.3554
 4870SOL    HW126072   2.318   3.527   6.040 -1.9223 -0.7256  1.7341
 4870SOL    HW226073   2.260   3.594   6.147 -1.1895 -0.0997 -0.7356
 4871SOL     OW26074   2.343   1.900   7.754  0.2641 -0.1200  0.3680
 4871SOL    HW126075   2.266   1.875   7.804 -1.8035  1.3382 -2.0640
 4871SOL    HW226076   2.323   1.984   7.712 -0.1592 -0.1453  0.5239
 4872SOL     OW26077   4.301   3.668   5.693  0.3762  0.5327  0.0383
 4872SOL    HW126078   4.376   3.669   5.633  0.7492  1.7874  0.5249
 4872SOL    HW226079   4.343   3.623   5.766  0.6814  1.7406  0.6073
 4873SOL     OW26080   3.390   0.674   8.820  0.4472 -0.5022 -0.5412
 4873SOL    HW126081   3.428   0.747   8.772 -2.0629  0.6995 -0.7063
 4873SOL    HW226082   3.471   0.641   8.859  0.4404  1.4037  1.0872
 4874SOL     OW26083   1.632   1.284   1.890  0.2292 -0.0501  1.0252
 4874SOL    HW126084   1.600   1.342   1.821  1.4038  0.4074  0.8609
 4874SOL    HW226085   1.552   1.279   1.941  1.2471  1.8892  2.8103
 4875SOL     OW26086   3.557   4.461   8.140  0.4172  0.7045  0.0716
 4875SOL    HW126087   3.500   4.491   8.210 -1.3485 -3.0744  0.3022
 4875SOL    HW226088   3.600   4.538   8.104  1.3117  2.2275  4.4554
 4876SOL     OW26089   3.353   2.518   5.396 -0.1956  0.1107 -0.1862
 4876SOL    HW126090   3.433   2.545   5.351 -0.9756  2.3204 -0.2255
 4876SOL    HW226091   3.312   2.604   5.402  1.3551  1.0553 -2.9605
 4877SOL     OW26092   2.840   0.276   4.528  0.2571  0.2150  0.7014
 4877SOL    HW126093   2.917   0.297   4.582 -0.3808 -2.7388  2.7562
 4877SOL    HW226094   2.845   0.350   4.468  0.3644 -1.6678 -1.5945
 4878SOL     OW26095   1.539   1.262   7.512 -0.1125  0.1298 -0.2201
 4878SOL    HW126096   1.496   1.333   7.465  0.8330  1.7862  1.3911
 4878SOL    HW226097   1.631   1.290   7.518  0.8527 -3.4277  2.2199
 4879SOL     OW26098   2.245   3.167   2.518 -0.0368  0.1988 -0.5798
 4879SOL    HW126099   2.248   3.184   2.612 -0.6841  3.1692 -1.0974
 4879SOL    HW226100   2.289   3.247   2.490  0.7365 -0.0541 -0.0842
 4880SOL     OW26101   2.429   0.016   4.333  0.1794 -0.0167 -0.1714
 4880SOL    HW126102   2.353   0.071   4.314  0.4492  0.0175 -1.1298
 4880SOL    HW226103   2.475   0.012   4.250 -0.2285 -0.8963 -0.3599
 4881SOL     OW26104   3.534   1.544   5.756  0.5901  0.6110 -0.6748
 4881SOL    HW126105   3.531   1.585   5.843 -0.3149 -0.5808 -0.1381
 4881SOL    HW226106   3.470   1.596   5.707  0.1433  0.5993 -0.1090
 4882SOL     OW26107   3.962   3.154   3.097  0.3980  1.1559 -0.5377
 4882SOL    HW126108   3.873   3.154   3.133  0.5071  0.8173 -0.2707
 4882SOL    HW226109   3.965   3.079   3.037 -0.9517  0.6155  0.0749
 4883SOL     OW26110   1.236   0.235   5.478 -0.5138 -0.0424  0.2193
 4883SOL    HW126111   1.260   0.143   5.475  1.7965  0.5056  1.4583
 4883SOL    HW226112   1.145   0.228   5.449 -0.0598  3.7702 -2.1282
 4884SOL     OW26113   0.408   2.593   3.966 -0.3209  0.3410  0.2626
 4884SOL    HW126114   0.367   2.507   3.966  1.0671 -0.3293  1.6120
 4884SOL    HW226115   0.357   2.644   3.903 -0.2296  0.6786  0.4618
 4885SOL     OW26116   3.578   3.065   9.181 -0.1840  0.5481  0.3584
 4885SOL    HW126117   3.552   3.028   9.265 -2.0690  1.4312  0.1520
 4885SOL    HW226118   3.590   3.152   9.218 -1.6819  0.3474  1.2893
 4886SOL     OW26119   3.988   2.341   4.851 -0.1231 -0.2360  0.8033
 4886SOL    HW126120   3.996   2.364   4.758 -2.2493 -1.6482  0.2691
 4886SOL    HW226121   3.987   2.431   4.884  0.2164 -0.9130  2.6422
 4887SOL     OW26122   4.076   1.529   8.120  0.5248  0.7748  0.1868
 4887SOL    HW126123   4.051   1.612   8.160  1.2231  0.9836  0.1939
 4887SOL    HW226124   4.160   1.516   8.164  0.8481  0.3513 -0.5503
 4888SOL     OW26125   2.477   1.353   4.829  0.1849  0.0392 -0.9507
 4888SOL    HW126126   2.446   1.427   4.778  0.5826 -0.4357 -1.8856
 4888SOL    HW226127   2.425   1.288   4.782  0.2040 -0.7313  0.0879
 4889SOL     OW26128   3.252   2.622   7.923 -0.1796 -0.1850  0.5961
 4889SOL    HW126129   3.175   2.579   7.960  0.1310 -1.3026 -0.0813
 4889SOL    HW226130   3.301   2.640   8.003  0.6392  0.0768  0.0435
 4890SOL     OW26131   3.045   0.554  12.159  0.0607 -0.0530 -0.6351
 4890SOL    HW126132   3.101   0.608  12.215 -1.8154  0.1275  1.0396
 4890SOL    HW226133   3.029   0.615  12.087 -1.1436  1.5949  1.0401
 4891SOL     OW26134   0.415   1.943  10.931 -0.0191  0.2601 -0.0911
 4891SOL    HW126135   0.352   1.953  10.860 -0.6764 -0.9193  0.3224
 4891SOL    HW226136   0.342   1.960  10.990  1.7820  4.3280  0.9393
 4892SOL     OW26137   0.858   4.432   3.592 -0.1970  0.3714 -0.1259
 4892SOL    HW126138   0.933   4.377   3.568  0.6238  1.7206 -0.6280
 4892SOL    HW226139   0.891   4.518   3.617 -2.1146 -0.0244  3.6804
 4893SOL     OW26140   2.801   3.884   7.889  0.1032  0.3779 -0.1545
 4893SOL    HW126141   2.789   3.793   7.916  0.7748  1.0403  2.3521
 4893SOL    HW226142   2.885   3.912   7.925  1.0151 -1.3867 -0.9349
 4894SOL     OW26143   0.613   2.635   8.400  0.0540 -0.2150 -0.7884
 4894SOL    HW126144   0.682   2.698   8.378  0.8745 -0.7297  0.3115
 4894SOL    HW226145   0.619   2.630   8.495  0.3532  2.9192 -0.6275
 4895SOL     OW26146   4.464   2.920   2.436  0.1814 -0.4593  0.0466
 4895SOL    HW126147   4.406   2.845   2.424 -1.0410  0.4199  0.4422
 4895SOL    HW226148   4.433   2.976   2.365  1.1521 -0.4362 -0.3570
 4896SOL     OW26149   0.834   2.406  11.255  0.0383 -0.8995  0.3921
 4896SOL    HW126150   0.807   2.461  11.329 -0.7585 -2.3037  1.1532
 4896SOL    HW226151   0.749   2.365  11.241 -0.2129 -1.3229  3.0550
 4897SOL     OW26152   1.907   1.079   4.101  0.2840  0.1985  0.1911
 4897SOL    HW126153   1.880   1.171   4.100  0.9567  0.4026  0.5961
 4897SOL    HW226154   1.834   1.046   4.155  0.3939  0.6040  0.5871
 4898SOL     OW26155   2.819   4.723   4.580 -0.2365 -0.1415 -0.6258
 4898SOL    HW126156   2.822   0.087   4.551 -0.5267  0.6923  1.9032
 4898SOL    HW226157   2.851   0.017   4.668 -0.0502  1.1506 -1.0030
 4899SOL     OW26158   4.531   3.285   5.267 -0.3729  0.6882  0.1452
 4899SOL    HW126159   4.490   3.294   5.353 -0.0745  0.1990  0.3426
 4899SOL    HW226160   4.457   3.272   5.207 -0.4979 -0.2857  0.5214
 4900SOL     OW26161   2.253   3.920   4.798 -0.1449  0.2097 -0.6844
 4900SOL    HW126162   2.301   3.856   4.746  1.4727  0.3838  0.5980
 4900SOL    HW226163   2.286   3.890   4.883  0.4337  0.6886 -0.7408
 4901SOL     OW26164   1.911   1.593   8.785 -0.4030 -0.4327 -0.2611
 4901SOL    HW126165   1.837   1.653   8.775 -0.9629 -1.4308 -2.1431
 4901SOL    HW226166   1.886   1.536   8.858 -1.8981  0.7545  0.1563
 4902SOL     OW26167   1.666   2.521   4.665 -1.1181  0.4823  0.4283
 4902SOL    HW126168   1.676   2.612   4.637  1.4667  0.0592  0.0015
 4902SOL    HW226169   1.755   2.492   4.684 -1.4263 -0.4421  0.4609
 4903SOL     OW26170   0.530   2.826   6.680 -0.3560  0.2615  0.0081
 4903SOL    HW126171   0.492   2.880   6.750 -1.6235  0.9792 -1.2316
 4903SOL    HW226172   0.561   2.898   6.626 -2.6491  0.1899 -1.4095
 4904SOL     OW26173   3.040   2.935  11.144 -0.1031  0.1063  0.6374
 4904SOL    HW126174   2.964   2.877  11.152 -0.6199  0.5586 -0.8976
 4904SOL    HW226175   3.002   3.003  11.089  0.4146 -0.0485  0.0850
 4905SOL     OW26176   2.804   0.211   7.022 -0.5611  0.0574 -0.3846
 4905SOL    HW126177   2.726   0.256   6.990 -0.4911  0.1508 -0.4223
 4905SOL    HW226178   2.823   0.251   7.106 -0.1150  0.0265 -0.4707
 4906SOL     OW26179   2.609   4.574   7.938 -0.6525  0.6864 -0.4694
 4906SOL    HW126180   2.658   4.526   8.005 -1.3193 -1.1406 -1.2915
 4906SOL    HW226181   2.524   4.553   7.975 -1.1271  0.9042 -1.4329
 4907SOL     OW26182   2.527   1.680  17.419 -0.3817  0.6335 -0.6582
 4907SOL    HW126183   2.504   1.715  17.333 -0.8980  0.7695 -0.4663
 4907SOL    HW226184   2.579   1.749  17.460 -0.6499  1.2832 -1.4283
 4908SOL     OW26185   0.589   2.119   0.799 -0.0214  0.1865  0.6863
 4908SOL    HW126186   0.634   2.128   0.715 -1.3440 -2.0721 -0.2813
 4908SOL    HW226187   0.498   2.128   0.771  0.0531  3.0215  1.3273
 4909SOL     OW26188   3.029   0.890  16.476  1.0032  0.0066  0.0316
 4909SOL    HW126189   2.952   0.843  16.508 -1.8209  4.6091  0.0013
 4909SOL    HW226190   3.013   0.976  16.515 -1.5265 -0.3509 -0.1943
 4910SOL     OW26191   2.250   2.493   2.518 -0.2849  0.1529 -0.4074
 4910SOL    HW126192   2.280   2.558   2.455 -0.7844  1.8462  1.1035
 4910SOL    HW226193   2.335   2.455   2.538 -1.0951 -1.6320 -0.3929
 4911SOL     OW26194   4.309   2.278   6.274 -0.0389 -0.1922  0.1689
 4911SOL    HW126195   4.290   2.255   6.364 -1.8679 -2.4690 -0.7996
 4911SOL    HW226196   4.394   2.240   6.250 -0.3561 -0.7073 -0.1462
 4912SOL     OW26197   0.090   2.973   6.154  0.7485  0.5011 -1.2101
 4912SOL    HW126198   0.147   3.020   6.215  0.5787 -0.8980  0.0225
 4912SOL    HW226199   0.075   2.898   6.213  2.0195  0.5772 -0.7744
 4913SOL     OW26200   4.146   0.351  12.965  0.2698  0.1373  0.2013
 4913SOL    HW126201   4.075   0.390  13.016  0.0282 -0.0902  0.0402
 4913SOL    HW226202   4.224   0.388  13.007 -0.6773  0.7649  1.3905
 4914SOL     OW26203   3.352   2.449   4.717 -0.3050  0.1885 -0.1834
 4914SOL    HW126204   3.303   2.500   4.652  0.3832 -0.0390 -0.8777
 4914SOL    HW226205   3.284   2.442   4.784 -0.6083  1.1904 -0.3811
 4915SOL     OW26206   1.488   4.199  12.426  0.2620 -0.4866 -0.4646
 4915SOL    HW126207   1.509   4.244  12.344  1.4491 -0.8790 -0.3773
 4915SOL    HW226208   1.577   4.191  12.458 -0.2061 -0.3516  0.8561
 4916SOL     OW26209   1.652   2.814   2.447 -0.0773 -0.5236 -0.1326
 4916SOL    HW126210   1.713   2.748   2.480 -1.3305 -0.6794  1.8552
 4916SOL    HW226211   1.595   2.827   2.522 -1.1643 -2.5102 -0.6209
 4917SOL     OW26212   1.574   0.730   0.595 -0.2003  0.0665 -0.0007
 4917SOL    HW126213   1.507   0.762   0.655  2.1963  0.2895  2.5578
 4917SOL    HW226214   1.544   0.640   0.580  1.9527 -0.5712 -0.5246
 4918SOL     OW26215   3.826   4.029   3.777 -0.0852  0.0767 -0.0151
 4918SOL    HW126216   3.776   4.083   3.839  0.2054  0.0160  0.2690
 4918SOL    HW226217   3.912   4.071   3.780 -0.2024  0.4123 -1.4771
 4919SOL     OW26218   1.642   0.753   8.796 -0.3764 -0.5658 -0.6309
 4919SOL    HW126219   1.653   0.822   8.861  0.0270  0.9259 -2.2755
 4919SOL    HW226220   1.699   0.691   8.839 -2.2433 -0.4946  1.9261
 4920SOL     OW26221   1.006   2.560   1.214 -0.0275  0.0726  0.5781
 4920SOL    HW126222   1.084   2.524   1.172 -0.3520 -1.3119  1.1395
 4920SOL    HW226223   0.971   2.483   1.260  1.3588 -0.4934  0.7012
 4921SOL     OW26224   3.564   2.113   3.322 -0.1186 -0.5943 -0.5014
 4921SOL    HW126225   3.568   2.176   3.393 -2.3140 -1.4406  0.3874
 4921SOL    HW226226   3.559   2.172   3.246  1.0580  0.9312  0.6118
 4922SOL     OW26227   1.516   2.922  16.938 -0.3280 -0.5559  0.2645
 4922SOL    HW126228   1.518   3.008  16.979  0.9211  0.1334 -1.2200
 4922SOL    HW226229   1.439   2.932  16.882  1.5842  1.2674 -2.0380
 4923SOL     OW26230   2.239   3.023   0.446  0.3873 -0.3302  0.3020
 4923SOL    HW126231   2.185   2.987   0.516  0.1754  0.8535  0.7571
 4923SOL    HW226232   2.276   2.946   0.404 -0.8134 -0.1658 -1.0510
 4924SOL     OW26233   1.888   3.664  10.567  0.3388  0.0663 -0.0247
 4924SOL    HW126234   1.892   3.599  10.498 -1.3282  0.8665 -0.8840
 4924SOL    HW226235   1.919   3.613  10.642 -0.1961 -1.2743 -0.7180
 4925SOL     OW26236   4.500   0.946   5.609  0.0073 -0.5834 -0.3049
 4925SOL    HW126237   4.584   0.965   5.652 -1.2545 -0.4370  2.0866
 4925SOL    HW226238   4.513   0.853   5.590 -1.3699 -0.9310  0.5308
 4926SOL     OW26239   4.171   1.554  15.349 -0.0618 -0.2588 -0.4931
 4926SOL    HW126240   4.150   1.645  15.370  1.5022  0.1505 -0.7041
 4926SOL    HW226241   4.208   1.562  15.261  2.6808  1.0935  0.8020
 4927SOL     OW26242   1.504   3.854  16.851 -0.3211 -0.3022 -0.0437
 4927SOL    HW126243   1.506   3.878  16.943  3.4653 -0.1527 -0.1913
 4927SOL    HW226244   1.454   3.772  16.858 -0.8464  0.0278  0.0846
 4928SOL     OW26245   2.448   4.103  11.098  0.1429 -0.3478 -0.0980
 4928SOL    HW126246   2.415   4.186  11.133 -0.2549  0.1327 -1.6459
 4928SOL    HW226247   2.405   4.085  11.015 -1.3301  1.7565  0.2147
 4929SOL     OW26248   3.481   1.147  14.732  0.2556  0.5860  0.3873
 4929SOL    HW126249   3.562   1.103  14.758  0.2358 -0.2682 -1.0255
 4929SOL    HW226250   3.514   1.215  14.674 -0.1286 -0.7802 -1.4283
 4930SOL     OW26251   0.779   2.856  15.891  0.0858 -0.4002  0.3254
 4930SOL    HW126252   0.734   2.771  15.893  0.5086 -0.6535 -1.4675
 4930SOL    HW226253   0.766   2.884  15.801  0.8036 -0.2387  0.2767
 4931SOL     OW26254   3.608   3.640   8.656 -0.0562  0.2697 -0.2578
 4931SOL    HW126255   3.607   3.579   8.583 -1.3196 -0.6909  0.5585
 4931SOL    HW226256   3.615   3.718   8.601  0.1032 -0.2278 -0.9513
 4932SOL     OW26257   1.360   3.958   2.366  0.4533 -0.7815 -0.5900
 4932SOL    HW126258   1.301   3.963   2.291 -0.9137 -0.8072  0.5037
 4932SOL    HW226259   1.443   3.975   2.320 -0.6082  4.3775 -0.5899
 4933SOL     OW26260   4.339   0.194   3.181 -0.9420 -0.0313 -0.7519
 4933SOL    HW126261   4.289   0.113   3.193 -0.4370 -0.3232 -0.6290
 4933SOL    HW226262   4.416   0.166   3.230  0.6571  1.0101 -2.6767
 4934SOL     OW26263   1.794   3.267  11.970 -0.9800  0.0193  0.8105
 4934SOL    HW126264   1.708   3.307  11.955 -1.1845 -0.1733  1.4771
 4934SOL    HW226265   1.765   3.196  12.027 -0.2357 -0.3860  0.6856
 4935SOL     OW26266   2.221   0.511   7.560 -0.1767  0.3981 -0.3144
 4935SOL    HW126267   2.189   0.447   7.624  1.4868  1.1060  1.2182
 4935SOL    HW226268   2.191   0.475   7.476  1.1919 -1.6181  0.0549
 4936SOL     OW26269   4.624   4.078  15.309  0.3142 -0.1883  0.1050
 4936SOL    HW126270   4.625   4.113  15.220  1.4184 -1.8522 -0.5276
 4936SOL    HW226271   4.692   4.137  15.343  0.3972  0.1194 -0.6012
 4937SOL     OW26272   0.206   3.808   1.628  0.0830  0.6871 -0.4171
 4937SOL    HW126273   0.214   3.903   1.621 -0.4090  0.7537 -0.1359
 4937SOL    HW226274   0.298   3.789   1.644  0.6149  1.3357 -2.8057
 4938SOL     OW26275   0.418   4.571  15.356 -0.5050 -0.3628 -0.0954
 4938SOL    HW126276   0.380   4.579  15.443 -1.8632 -0.0468 -0.7166
 4938SOL    HW226277   0.365   4.500  15.321 -0.1784 -0.8606  0.4253
 4939SOL     OW26278   2.075   0.689   9.481 -0.2271  0.7237  0.4871
 4939SOL    HW126279   2.053   0.601   9.451 -0.5424  0.7723  0.5772
 4939SOL    HW226280   2.058   0.679   9.575 -1.6764 -0.5569  0.0957
 4940SOL     OW26281   4.390   1.687   3.478 -0.0979  0.4877  1.0328
 4940SOL    HW126282   4.335   1.646   3.543 -0.6256  0.5602  0.6299
 4940SOL    HW226283   4.387   1.615   3.415 -1.0314  1.0954  0.3780
 4941SOL     OW26284   3.716   1.487  15.718 -0.1430 -0.1457 -0.1882
 4941SOL    HW126285   3.784   1.457  15.778  1.9301  2.9483 -1.0259
 4941SOL    HW226286   3.772   1.495  15.641  0.3287 -1.9104 -0.0430
 4942SOL     OW26287   3.449   3.251   2.307 -0.0923  0.2433  0.5333
 4942SOL    HW126288   3.521   3.313   2.317 -0.6635  0.6565  2.0808
 4942SOL    HW226289   3.382   3.301   2.353 -2.5943 -1.8521 -0.8013
 4943SOL     OW26290   1.034   2.065   7.409  0.5977  0.3591  0.3803
 4943SOL    HW126291   1.072   2.084   7.495  1.1578 -1.1724  0.4856
 4943SOL    HW226292   0.962   2.007   7.436  1.3475 -0.3549  0.8669
 4944SOL     OW26293   4.160   3.080   5.637 -0.0215 -0.6146 -0.2012
 4944SOL    HW126294   4.093   3.026   5.596  1.4941 -2.2633 -0.4909
 4944SOL    HW226295   4.232   3.047   5.583  1.3556  0.7516  0.8156
 4945SOL     OW26296   0.455   1.559   6.119  0.3267  0.1993  0.0934
 4945SOL    HW126297   0.416   1.594   6.199 -1.8218 -1.2749 -0.3054
 4945SOL    HW226298   0.417   1.472   6.110 -2.6052  1.5442 -0.7568
 4946SOL     OW26299   0.402   3.804   6.954 -0.3845  0.1155 -0.4833
 4946SOL    HW126300   0.450   3.754   7.020  1.4892  1.4080 -0.8482
 4946SOL    HW226301   0.315   3.798   6.993 -0.2598  0.7322 -0.1130
 4947SOL     OW26302   2.394   4.443   3.981 -0.1464  0.3046 -0.0828
 4947SOL    HW126303   2.426   4.372   3.925  0.8059  0.8583 -0.2448
 4947SOL    HW226304   2.476   4.457   4.028 -0.1604 -1.7332  0.5376
 4948SOL     OW26305   4.553   2.229   8.980 -0.5516  0.7205  0.5025
 4948SOL    HW126306   4.477   2.173   8.998 -0.1684  0.3058  0.8227
 4948SOL    HW226307   4.578   2.260   9.067 -0.5803  2.6227 -0.1574
 4949SOL     OW26308   2.799   1.555  13.375 -0.2391 -0.2789 -0.3395
 4949SOL    HW126309   2.790   1.501  13.296  1.2539 -2.2223  0.8088
 4949SOL    HW226310   2.825   1.639  13.338 -0.9049  0.5308  1.0339
 4950SOL     OW26311   2.664   1.370   3.876 -0.4692 -0.1749 -0.3160
 4950SOL    HW126312   2.740   1.363   3.934 -0.0838 -4.3780 -1.3519
 4950SOL    HW226313   2.717   1.362   3.796  0.1511 -0.7446  0.1470
 4951SOL     OW26314   1.665   0.741   3.040 -0.7220 -0.2009 -0.2676
 4951SOL    HW126315   1.746   0.790   3.023 -0.1495 -0.8647  0.5753
 4951SOL    HW226316   1.644   0.706   2.953 -0.3958  0.1704 -0.4952
 4952SOL     OW26317   0.648   4.176  11.947  0.3608 -0.7375 -0.3102
 4952SOL    HW126318   0.636   4.214  11.860 -0.7433  0.4971  0.3979
 4952SOL    HW226319   0.559   4.190  11.978  0.8283  0.8879  0.2797
 4953SOL     OW26320   3.343   2.122   8.932  0.1522  0.5938  0.1989
 4953SOL    HW126321   3.287   2.064   8.983 -0.3759  0.9815  0.0600
 4953SOL    HW226322   3.280   2.183   8.894 -0.5218 -0.0680  0.2601
 4954SOL     OW26323   4.249   3.043  16.854  0.4540  0.0617  0.6644
 4954SOL    HW126324   4.305   3.065  16.779 -0.0178 -3.1192 -0.6434
 4954SOL    HW226325   4.164   3.061  16.814  0.9684  1.6624  0.2953
 4955SOL     OW26326   3.120   1.993  16.780  0.2587 -0.1458 -0.4163
 4955SOL    HW126327   3.169   1.911  16.789 -2.0063 -1.4609 -0.1401
 4955SOL    HW226328   3.169   2.058  16.831 -0.3555 -0.3846  0.4677
 4956SOL     OW26329   2.594   1.266   2.981  0.2755 -0.2839  0.8522
 4956SOL    HW126330   2.657   1.327   2.943  0.8107 -1.0537  0.5027
 4956SOL    HW226331   2.653   1.190   2.990  0.7197 -0.0343  0.0635
 4957SOL     OW26332   1.477   3.231  11.907  0.3584  0.0460 -0.1443
 4957SOL    HW126333   1.470   3.167  11.978 -0.5121  0.9805  0.6109
 4957SOL    HW226334   1.408   3.216  11.843  1.5161 -1.8288 -0.9607
 4958SOL     OW26335   3.343   1.311   4.880 -0.1851 -0.3568  0.2355
 4958SOL    HW126336   3.419   1.360   4.910 -0.0049 -0.0151 -0.7889
 4958SOL    HW226337   3.282   1.382   4.862  0.8338  0.0864 -1.3699
 4959SOL     OW26338   3.210   2.947   4.908  0.0252  0.5321  0.5174
 4959SOL    HW126339   3.303   2.943   4.884 -0.2131  0.1126 -0.3408
 4959SOL    HW226340   3.164   2.951   4.824  2.6515 -0.5876 -0.9909
 4960SOL     OW26341   1.846   2.252   0.439  0.6260  0.0350  0.5320
 4960SOL    HW126342   1.869   2.162   0.416  1.8629  0.7252 -0.8931
 4960SOL    HW226343   1.933   2.281   0.467  0.3489  1.1152  0.2760
 4961SOL     OW26344   2.183   1.665   3.086  0.1428  0.2716 -0.7752
 4961SOL    HW126345   2.215   1.722   3.016 -2.5129  1.1430 -1.2785
 4961SOL    HW226346   2.194   1.578   3.046  2.5405  0.1433  0.1498
 4962SOL     OW26347   0.964   4.546   1.053  0.6741  0.5288  0.1369
 4962SOL    HW126348   0.907   4.543   0.977 -0.0234  1.4148  0.6187
 4962SOL    HW226349   1.012   4.629   1.056 -0.6221  1.2788  0.3061
 4963SOL     OW26350   3.661   2.589  10.573 -0.2054  0.0575 -0.1823
 4963SOL    HW126351   3.649   2.496  10.595  0.1302 -0.2161 -1.1721
 4963SOL    HW226352   3.704   2.588  10.488  1.0614 -0.7830  0.4551
 4964SOL     OW26353   1.851   1.888   4.701  0.4295  0.4054 -0.3451
 4964SOL    HW126354   1.764   1.855   4.720 -0.0841  0.7734 -2.0611
 4964SOL    HW226355   1.883   1.918   4.786  0.8312  3.0106 -1.4364
 4965SOL     OW26356   2.405   2.288   3.005 -0.5047 -0.3886 -0.0558
 4965SOL    HW126357   2.435   2.265   3.093 -1.5725 -0.8037  0.1912
 4965SOL    HW226358   2.396   2.383   3.007 -0.5716 -0.4085  0.8999
 4966SOL     OW26359   3.573   1.099   2.663  0.1538  0.3799  0.5834
 4966SOL    HW126360   3.518   1.021   2.660  1.5457 -0.6279  1.9363
 4966SOL    HW226361   3.506   1.166   2.647 -0.8875 -0.7666  0.1211
 4967SOL     OW26362   4.384   1.020   0.479 -0.3505  0.0737  0.3391
 4967SOL    HW126363   4.336   1.005   0.398  0.3709 -0.7579  0.0696
 4967SOL    HW226364   4.328   1.083   0.524  1.4668  0.9433  1.4176
 4968SOL     OW26365   1.570   3.268   1.808 -0.2311  0.3261  0.0170
 4968SOL    HW126366   1.590   3.254   1.901 -0.7661 -0.1193  0.0605
 4968SOL    HW226367   1.511   3.343   1.817 -0.6127  0.0526 -0.2651
 4969SOL     OW26368   4.468   4.118   8.585 -0.1043 -0.4265 -0.6471
 4969SOL    HW126369   4.542   4.117   8.646  0.4204 -2.1392 -1.3053
 4969SOL    HW226370   4.503   4.057   8.520  0.4413 -1.3949  0.5582
 4970SOL     OW26371   4.451   3.857   3.706  0.0356 -0.4002 -0.1263
 4970SOL    HW126372   4.502   3.776   3.711  0.3906  0.2030  5.3497
 4970SOL    HW226373   4.516   3.920   3.737 -0.3712  0.2844 -0.6615
 4971SOL     OW26374   0.693   0.539   9.740 -0.1052 -0.0013 -0.0312
 4971SOL    HW126375   0.749   0.488   9.681  2.3015  1.3340  1.1259
 4971SOL    HW226376   0.654   0.598   9.675 -2.7914 -0.4111  1.2125
 4972SOL     OW26377   2.161   0.634   5.558  0.0940  0.0150  0.2353
 4972SOL    HW126378   2.134   0.714   5.512  0.1818 -0.9821 -1.5491
 4972SOL    HW226379   2.083   0.581   5.545  0.9327 -1.0994 -0.2655
 4973SOL     OW26380   2.814   1.768   8.293  0.0377  0.0554 -0.4040
 4973SOL    HW126381   2.764   1.820   8.230 -0.9695 -0.2437  0.1557
 4973SOL    HW226382   2.742   1.713   8.323 -1.2098  1.5283 -0.6927
 4974SOL     OW26383   4.510   3.077   9.168  0.1588 -0.4695  0.8467
 4974SOL    HW126384   4.481   3.032   9.247  0.2985 -0.5269  0.8656
 4974SOL    HW226385   4.516   3.004   9.106  0.2844 -0.8242  1.2772
 4975SOL     OW26386   1.391   3.654   3.456 -0.4778 -0.2121  0.5656
 4975SOL    HW126387   1.303   3.635   3.424 -0.3181 -1.3659  0.8208
 4975SOL    HW226388   1.373   3.693   3.542 -1.6969  0.9972 -0.2345
 4976SOL     OW26389   1.233   3.188   5.297  0.2638  0.1759  0.6636
 4976SOL    HW126390   1.139   3.188   5.317 -0.9585  2.7432 -5.1270
 4976SOL    HW226391   1.267   3.117   5.351  1.2496  0.8620  0.9509
 4977SOL     OW26392   0.591   0.898  15.639  0.3863 -0.3976  0.4794
 4977SOL    HW126393   0.614   0.941  15.557 -0.9557  0.5617  0.6055
 4977SOL    HW226394   0.507   0.939  15.660 -0.2652 -0.9293 -1.1220
 4978SOL     OW26395   3.062   3.391  17.006  0.0021 -1.1280 -0.2414
 4978SOL    HW126396   3.132   3.360  17.064  1.2609  2.1546 -0.0254
 4978SOL    HW226397   2.988   3.392  17.068 -0.5866 -0.3797 -0.9509
 4979SOL     OW26398   3.479   0.307  16.748  0.1290 -0.0817 -0.2967
 4979SOL    HW126399   3.477   0.213  16.767 -0.3987 -0.6520 -3.0723
 4979SOL    HW226400   3.422   0.338  16.818  0.0923 -0.1267 -0.3066
 4980SOL     OW26401   2.323   2.438   8.174  0.0588  0.1768 -0.1153
 4980SOL    HW126402   2.312   2.395   8.258  1.6076  1.3582  0.6871
 4980SOL    HW226403   2.417   2.455   8.181  0.2712 -1.1623  0.1523
 4981SOL     OW26404   2.342   1.486  10.456 -0.0721  0.2046 -0.4765
 4981SOL    HW126405   2.254   1.511  10.484  0.4687  0.6646  0.8021
 4981SOL    HW226406   2.331   1.509  10.363  1.3225 -0.7601 -0.8901
 4982SOL     OW26407   3.011   3.073  16.221  0.1661 -0.2751  0.7670
 4982SOL    HW126408   2.987   3.109  16.306 -2.3958  1.9989 -0.9436
 4982SOL    HW226409   2.963   2.990  16.222  0.8269 -0.6447  1.9789
 4983SOL     OW26410   3.076   0.506  14.876  0.6187  0.3793 -0.4185
 4983SOL    HW126411   2.981   0.509  14.874  0.4690 -3.1868  2.3352
 4983SOL    HW226412   3.095   0.429  14.822  0.4667  0.3574 -0.4384
 4984SOL     OW26413   4.250   0.213   4.635  0.3182  0.5421  0.1291
 4984SOL    HW126414   4.294   0.129   4.646 -1.6506 -0.5296 -0.1343
 4984SOL    HW226415   4.302   0.264   4.697  2.7664 -1.1698 -0.5253
 4985SOL     OW26416   2.501   4.716   3.842 -0.4900 -0.2322 -0.4372
 4985SOL    HW126417   2.501   0.072   3.792 -1.7957  1.0902  1.7535
 4985SOL    HW226418   2.515   0.014   3.933 -0.5433 -0.5379 -0.3461
 4986SOL     OW26419   2.089   4.500   2.655  0.0876 -0.4981 -0.5541
 4986SOL    HW126420   2.003   4.506   2.613  0.2937  1.3919 -0.7210
 4986SOL    HW226421   2.147   4.478   2.582 -0.3611  1.3197 -1.4666
 4987SOL     OW26422   2.342   0.026   5.796  0.8764 -0.6562  0.7188
 4987SOL    HW126423   2.295   4.718   5.872 -0.2400 -1.8768 -0.5449
 4987SOL    HW226424   2.371   0.105   5.842  1.2519 -0.3465 -0.0580
 4988SOL     OW26425   3.092   2.167   8.591 -0.5317  0.5811  0.1921
 4988SOL    HW126426   3.121   2.105   8.658  2.8135  1.0467 -0.8314
 4988SOL    HW226427   3.169   2.178   8.536 -0.7763 -2.7877 -0.8762
 4989SOL     OW26428   3.969   2.212   5.845  0.5103  0.6990 -0.0143
 4989SOL    HW126429   3.951   2.299   5.810  2.5551  2.1755  2.6731
 4989SOL    HW226430   3.905   2.161   5.795 -0.0684  1.9511 -0.5364
 4990SOL     OW26431   3.154   2.468   4.916 -0.1156  0.6820  0.2198
 4990SOL    HW126432   3.151   2.484   5.011 -2.0547 -0.5049  0.3681
 4990SOL    HW226433   3.110   2.546   4.882  0.4867  1.5086  1.3299
 4991SOL     OW26434   3.997   3.910   2.851  0.5063 -0.2157 -0.4113
 4991SOL    HW126435   4.070   3.890   2.792  2.3585  0.1928  1.7543
 4991SOL    HW226436   3.917   3.875   2.811  0.1623  0.1501 -0.0373
 4992SOL     OW26437   3.053   3.673   9.953 -0.0859 -0.1156 -0.2801
 4992SOL    HW126438   2.974   3.727   9.953  0.4123  0.6219  0.8795
 4992SOL    HW226439   3.078   3.673   9.861  0.5737 -2.2503 -0.1046
 4993SOL     OW26440   4.332   3.387  10.092  0.3689 -0.1866 -0.2477
 4993SOL    HW126441   4.238   3.401  10.081 -0.0294 -0.3978  3.0842
 4993SOL    HW226442   4.360   3.468  10.050  0.1541  1.6113  3.1381
 4994SOL     OW26443   1.793   0.319   8.400 -0.1602 -0.4134 -0.4691
 4994SOL    HW126444   1.724   0.374   8.436 -0.9549 -2.4955  1.2116
 4994SOL    HW226445   1.861   0.342   8.464 -0.1203 -2.0501  0.0810
 4995SOL     OW26446   3.843   4.382   7.933  0.1755  0.3671 -0.1277
 4995SOL    HW126447   3.863   4.440   8.007 -0.5402 -0.2729  0.5717
 4995SOL    HW226448   3.851   4.301   7.983 -0.7851  0.7640  0.6632
 4996SOL     OW26449   2.985   4.211  16.696 -0.1277 -0.4890 -0.0073
 4996SOL    HW126450   3.071   4.218  16.654 -0.5972  2.3580 -0.4784
 4996SOL    HW226451   2.979   4.116  16.693 -3.6401 -0.2352 -0.3746
 4997SOL     OW26452   3.244   1.528   5.377  0.0484  0.5035 -0.3224
 4997SOL    HW126453   3.271   1.547   5.467 -0.1061  0.7919 -0.3377
 4997SOL    HW226454   3.161   1.485   5.397  1.6261 -2.4586 -0.1316
 4998SOL     OW26455   1.402   2.628   5.108  0.2013 -0.0183 -0.2139
 4998SOL    HW126456   1.461   2.598   5.038  0.0363 -1.9796  0.4776
 4998SOL    HW226457   1.426   2.720   5.116 -0.0728 -0.1587  2.3877
 4999SOL     OW26458   3.672   0.558  12.998  0.2441 -0.0444 -0.5258
 4999SOL    HW126459   3.763   0.529  12.991  0.3250  0.3702 -1.1824
 4999SOL    HW226460   3.661   0.563  12.903  2.2284 -0.4014 -0.7747
 5000SOL     OW26461   2.092   2.909   0.668  0.1773  0.1768 -0.5948
 5000SOL    HW126462   2.084   2.828   0.618 -0.2816  0.6702 -1.3290
 5000SOL    HW226463   2.186   2.904   0.680  0.4782  1.0995 -2.5555
 5001SOL     OW26464   0.382   3.751  13.855  0.1580  0.8341  0.1684
 5001SOL    HW126465   0.453   3.755  13.918  0.6790 -0.2637 -0.3415
 5001SOL    HW226466   0.368   3.845  13.842 -1.2236  0.3329 -1.9841
 5002SOL     OW26467   3.920   0.128  12.909  0.1435  0.1951  0.0519
 5002SOL    HW126468   3.993   0.068  12.918 -0.1270 -0.0312  0.7538
 5002SOL    HW226469   3.896   0.127  13.001  1.6370 -2.7712  0.4145
 5003SOL     OW26470   1.998   1.388   9.204  0.3931  0.3650 -0.1955
 5003SOL    HW126471   1.967   1.334   9.277  0.7106 -0.4711 -0.6941
 5003SOL    HW226472   2.049   1.328   9.150  0.8916  0.6305 -0.0201
 5004SOL     OW26473   1.348   1.981   0.963 -0.4475 -0.0442 -0.5304
 5004SOL    HW126474   1.384   1.952   0.880  0.4768  0.7513 -0.4173
 5004SOL    HW226475   1.427   2.021   1.001 -0.0836 -1.0917 -0.1944
 5005SOL     OW26476   1.701   1.105  16.358 -0.0302  0.4634  0.5890
 5005SOL    HW126477   1.677   1.126  16.448  2.4200  1.5700  0.9912
 5005SOL    HW226478   1.662   1.173  16.302  1.2221  0.9402  0.2838
 5006SOL     OW26479   1.586   0.988   2.023 -0.5673  0.4234  0.1377
 5006SOL    HW126480   1.512   0.930   2.043  0.3303 -0.4276  1.0381
 5006SOL    HW226481   1.546   1.042   1.955 -0.9619 -0.5895 -0.4467
 5007SOL     OW26482   1.766   4.153   7.634 -0.2798 -0.6027  0.2280
 5007SOL    HW126483   1.740   4.098   7.707  0.3231 -1.8939 -0.5356
 5007SOL    HW226484   1.737   4.239   7.664 -0.0951 -1.4856  2.9092
 5008SOL     OW26485   4.674   0.948   1.494 -0.1207 -0.5017  0.1575
 5008SOL    HW126486   4.592   0.953   1.445 -1.3325 -0.1768  2.2130
 5008SOL    HW226487   4.716   1.026   1.459  0.4629 -1.0628 -0.3931
 5009SOL     OW26488   3.370   1.646  10.282  0.0413 -0.0170  0.3217
 5009SOL    HW126489   3.281   1.612  10.290 -0.1766  0.3663 -0.5112
 5009SOL    HW226490   3.378   1.633  10.187  1.7260  1.1169  0.3091
 5010SOL     OW26491   3.521   1.550   4.539  0.0815  0.4980 -0.0883
 5010SOL    HW126492   3.490   1.574   4.626  0.9857 -0.6818  0.5592
 5010SOL    HW226493   3.462   1.476   4.531  0.6970  0.1069 -1.0887
 5011SOL     OW26494   4.535   2.004   6.249 -0.6080  0.5428  0.1604
 5011SOL    HW126495   4.511   2.013   6.341  1.5898 -0.3724  0.8429
 5011SOL    HW226496   4.596   2.077   6.239 -2.1878  1.9585  1.0160
 5012SOL     OW26497   0.214   3.329   7.167  0.7105 -0.0150  0.0869
 5012SOL    HW126498   0.121   3.309   7.171  0.4348  0.8063 -2.2611
 5012SOL    HW226499   0.210   3.406   7.110 -1.6407  0.9932  1.6164
 5013SOL     OW26500   1.894   0.798   4.868  0.4592  0.0531 -0.1252
 5013SOL    HW126501   1.807   0.758   4.867 -0.3078  1.7098 -0.2665
 5013SOL    HW226502   1.918   0.773   4.779 -0.7077  0.7831 -0.6543
 5014SOL     OW26503   1.882   0.253   5.480  0.2133 -1.1142 -0.1432
 5014SOL    HW126504   1.949   0.185   5.487  0.4300 -1.2708 -3.6551
 5014SOL    HW226505   1.870   0.263   5.574 -1.7031  1.1576 -0.6300
 5015SOL     OW26506   1.314   3.171   7.747  0.0445  0.2304  0.0426
 5015SOL    HW126507   1.264   3.252   7.756 -0.6852 -0.3148  0.9395
 5015SOL    HW226508   1.331   3.163   7.653  0.6415 -1.1583  0.2661
 5016SOL     OW26509   3.507   4.349   3.139 -0.3102 -0.2911  0.6335
 5016SOL    HW126510   3.466   4.270   3.173 -1.0273  0.3074  1.1632
 5016SOL    HW226511   3.572   4.314   3.079  0.1364 -1.4987  1.8149
 5017SOL     OW26512   1.279   1.973   2.464  0.3057  0.3385  0.1637
 5017SOL    HW126513   1.208   1.914   2.490 -0.1829  0.8548 -0.0051
 5017SOL    HW226514   1.358   1.921   2.473  0.8687  1.4506  1.5968
 5018SOL     OW26515   3.199   4.500   3.331 -0.0326  0.0880  0.3456
 5018SOL    HW126516   3.211   4.553   3.252  0.2528 -0.4533  0.0224
 5018SOL    HW226517   3.110   4.520   3.359  0.2168  0.7418  0.6686
 5019SOL     OW26518   2.483   2.942   9.806 -0.1043  0.1229  0.2357
 5019SOL    HW126519   2.462   2.981   9.721 -1.2881  2.9338  1.8333
 5019SOL    HW226520   2.400   2.972   9.842  0.4903  0.2381  1.5123
 5020SOL     OW26521   2.276   2.527  10.921  0.1276  0.2374  0.1840
 5020SOL    HW126522   2.334   2.504  10.848 -0.2470  0.1337 -0.0813
 5020SOL    HW226523   2.219   2.597  10.890  0.4933  0.7229  0.5992
 5021SOL     OW26524   0.197   1.333   3.062 -0.3105 -0.5455 -0.0491
 5021SOL    HW126525   0.276   1.291   3.029 -0.1819 -0.0372 -0.3953
 5021SOL    HW226526   0.130   1.292   3.007 -1.1938 -0.3935  0.9087
 5022SOL     OW26527   1.877   2.404   2.908 -0.2396  0.1925  0.4988
 5022SOL    HW126528   1.814   2.458   2.860 -0.4404 -0.0407  0.5009
 5022SOL    HW226529   1.836   2.319   2.893  2.8201 -1.0187 -0.9762
 5023SOL     OW26530   4.174   1.490   7.448  0.8550 -0.0753 -0.2799
 5023SOL    HW126531   4.211   1.501   7.361 -1.1476 -0.3002 -1.1589
 5023SOL    HW226532   4.188   1.397   7.462 -1.8013 -0.1315  2.0878
 5024SOL     OW26533   3.717   1.465   8.472 -0.3989  0.0408  0.0273
 5024SOL    HW126534   3.787   1.445   8.410 -0.8608 -0.6121 -0.2714
 5024SOL    HW226535   3.769   1.494   8.547 -1.0515 -0.1628  0.5645
 5025SOL     OW26536   3.663   4.161   7.315  0.0345 -0.3348 -0.0299
 5025SOL    HW126537   3.675   4.157   7.410 -0.8592  1.6738  0.1654
 5025SOL    HW226538   3.635   4.252   7.303 -2.4103 -0.8400  1.9395
 5026SOL     OW26539   1.776   1.370   5.067 -0.3006 -0.3059  0.1392
 5026SOL    HW126540   1.698   1.317   5.084  1.7503 -3.3566  0.0764
 5026SOL    HW226541   1.841   1.301   5.051 -0.5160 -0.5508  0.3293
 5027SOL     OW26542   0.111   0.407  13.297 -0.2114  0.3990 -0.7922
 5027SOL    HW126543   0.205   0.396  13.289 -0.5828 -2.0106 -1.8402
 5027SOL    HW226544   0.100   0.464  13.373 -1.1106 -0.7274 -0.0747
 5028SOL     OW26545   1.631   0.163  16.368 -0.0799 -0.5280  0.6324
 5028SOL    HW126546   1.578   0.240  16.351 -0.1589 -1.0999 -1.6740
 5028SOL    HW226547   1.685   0.204  16.436  0.0372  2.1437 -1.0854
 5029SOL     OW26548   2.588   0.216   7.250 -0.1994 -0.3042  0.0842
 5029SOL    HW126549   2.513   0.157   7.260  1.1473 -1.9980  0.1701
 5029SOL    HW226550   2.657   0.161   7.287 -2.0709 -4.2010 -2.2479
 5030SOL     OW26551   4.669   0.212   5.717 -0.2934  0.3396 -0.3520
 5030SOL    HW126552   4.574   0.215   5.705 -0.0512  1.7254 -1.8173
 5030SOL    HW226553   4.700   0.251   5.636 -0.5910 -0.1635 -0.7109
 5031SOL     OW26554   4.691   0.970   3.079 -0.2135  0.0717  0.1790
 5031SOL    HW126555   4.705   1.041   3.017 -0.4247 -0.2169 -0.2048
 5031SOL    HW226556   4.656   0.909   3.014 -0.5836  2.8693 -2.2464
 5032SOL     OW26557   2.778   3.452   9.060 -0.3148  0.4200 -0.6182
 5032SOL    HW126558   2.854   3.401   9.033 -1.9314 -2.1325 -0.3851
 5032SOL    HW226559   2.820   3.506   9.128 -1.6738  0.3961  0.2425
 5033SOL     OW26560   0.173   1.653   4.473  0.1012 -0.5703  0.2374
 5033SOL    HW126561   0.126   1.650   4.389 -0.6538  0.7664  0.6108
 5033SOL    HW226562   0.259   1.657   4.431 -0.5211  0.0083 -0.9775
 5034SOL     OW26563   4.156   2.068  17.389 -0.0642 -0.2888 -0.0405
 5034SOL    HW126564   4.063   2.057  17.411 -0.3111  0.7998 -0.5783
 5034SOL    HW226565   4.180   1.978  17.364 -0.8523 -0.0532 -1.6375
 5035SOL     OW26566   1.854   3.894   8.167  0.5595 -0.2775  0.3998
 5035SOL    HW126567   1.926   3.831   8.166 -0.5850 -1.5592 -0.2517
 5035SOL    HW226568   1.798   3.850   8.231  1.2930 -2.7308 -0.6706
 5036SOL     OW26569   0.354   2.413  10.855  0.3095  0.3883 -0.1390
 5036SOL    HW126570   0.263   2.435  10.875  0.4142  0.2292  0.5216
 5036SOL    HW226571   0.396   2.496  10.833  2.0312 -0.4262  0.0980
 5037SOL     OW26572   0.042   3.515   2.709 -0.6468  0.0502  0.1862
 5037SOL    HW126573   4.688   3.555   2.677 -1.0082 -0.3150  0.6262
 5037SOL    HW226574   0.106   3.562   2.656 -0.0075 -0.6084  0.3749
 5038SOL     OW26575   1.680   3.334   5.348 -0.6129  0.0115 -0.5380
 5038SOL    HW126576   1.700   3.300   5.435  1.1834  1.6568 -0.3051
 5038SOL    HW226577   1.686   3.428   5.369  0.5412 -0.4904  1.4075
 5039SOL     OW26578   1.963   3.975  11.584  0.6486  0.2778  0.0890
 5039SOL    HW126579   1.995   3.932  11.664  0.4573  0.8538  0.4720
 5039SOL    HW226580   2.033   3.938  11.530  1.1517  0.6162  0.5002
 5040SOL     OW26581   3.367   2.336   5.937  0.1770  0.0722  0.0784
 5040SOL    HW126582   3.448   2.330   5.886 -0.6447 -0.2749 -1.1838
 5040SOL    HW226583   3.312   2.326   5.860  0.2864  0.3894 -0.0404
 5041SOL     OW26584   4.446   1.827   4.057 -0.0522 -0.5069 -0.6370
 5041SOL    HW126585   4.426   1.885   4.130  0.5168 -1.7267  0.5017
 5041SOL    HW226586   4.354   1.807   4.038  0.0723  1.6511 -3.4854
 5042SOL     OW26587   4.499   0.796   1.283  0.8620  0.0227  0.4874
 5042SOL    HW126588   4.471   0.732   1.349 -0.7275  1.4022  1.1415
 5042SOL    HW226589   4.420   0.850   1.277  1.2174  0.6554  1.5229
 5043SOL     OW26590   2.724   2.839  16.523  0.0908  0.0495 -0.0467
 5043SOL    HW126591   2.789   2.892  16.570  1.2600  0.1132 -1.7235
 5043SOL    HW226592   2.760   2.755  16.551  0.1794 -0.9802 -3.2342
 5044SOL     OW26593   2.317   0.070  13.481 -0.2304 -0.4690 -0.6492
 5044SOL    HW126594   2.324   0.165  13.472  1.3446 -0.4966  0.4008
 5044SOL    HW226595   2.306   0.056  13.575  3.0779  0.7810 -0.0832
 5045SOL     OW26596   2.539   0.588   6.032  0.5548 -0.2521  0.8753
 5045SOL    HW126597   2.469   0.652   6.018  0.3788 -0.8138 -0.8931
 5045SOL    HW226598   2.587   0.604   5.950 -1.9515 -1.1698 -0.7796
 5046SOL     OW26599   2.406   0.857   4.363 -0.6251  0.2810 -0.9145
 5046SOL    HW126600   2.424   0.895   4.277  1.3027  1.8016  0.1668
 5046SOL    HW226601   2.455   0.914   4.421 -1.7031  0.7119 -0.4327
 5047SOL     OW26602   0.760   3.358   6.351  0.3580  0.3404  0.1026
 5047SOL    HW126603   0.790   3.270   6.373 -0.4130  0.3027  0.9771
 5047SOL    HW226604   0.688   3.320   6.301  0.3293  1.1207 -0.4635
 5048SOL     OW26605   1.294   4.239   0.496 -0.4893 -0.0777 -0.3143
 5048SOL    HW126606   1.364   4.185   0.533 -0.7281 -0.0016  0.2465
 5048SOL    HW226607   1.218   4.182   0.510 -0.7919  0.4601  0.2083
 5049SOL     OW26608   3.699   0.938  13.242  0.2021 -0.1295 -0.2055
 5049SOL    HW126609   3.644   0.922  13.318 -1.0793 -2.0008 -1.5303
 5049SOL    HW226610   3.705   1.034  13.248 -0.6026  0.1534 -3.5682
 5050SOL     OW26611   0.813   3.711  15.105 -0.0921 -0.1408 -0.7735
 5050SOL    HW126612   0.816   3.619  15.132  1.3397  0.6822  1.8414
 5050SOL    HW226613   0.807   3.757  15.188  2.1965 -2.8285  0.9091
 5051SOL     OW26614   3.141   3.736  16.645  0.3017 -0.0454 -0.0006
 5051SOL    HW126615   3.183   3.710  16.563  1.0448 -1.3067  0.7727
 5051SOL    HW226616   3.186   3.819  16.660  0.9454 -0.5383  0.7892
 5052SOL     OW26617   1.292   3.811   1.662  0.0197 -0.0755 -0.2283
 5052SOL    HW126618   1.278   3.840   1.752 -0.7478 -0.1542 -0.3250
 5052SOL    HW226619   1.201   3.810   1.633 -0.2158  0.8486  0.4608
 5053SOL     OW26620   2.428   1.746  10.157  0.1361  0.1082 -0.0988
 5053SOL    HW126621   2.458   1.804  10.227  0.4997  0.9381 -0.9437
 5053SOL    HW226622   2.383   1.808  10.101 -1.0622 -1.1037 -0.4884
 5054SOL     OW26623   1.832   1.018   6.021 -0.1137 -1.3096 -0.3508
 5054SOL    HW126624   1.765   0.949   6.026 -1.3493 -0.0190  0.8939
 5054SOL    HW226625   1.853   1.038   6.112 -0.6838 -0.2036 -0.4660
 5055SOL     OW26626   3.687   0.793  17.614 -0.1007 -0.2762 -0.3472
 5055SOL    HW126627   3.677   0.862  17.549  1.4164  1.3257  1.1191
 5055SOL    HW226628   3.604   0.801  17.661  0.6109  1.7110  0.5475
 5056SOL     OW26629   2.683   2.404   6.100  0.4855 -0.1502 -0.0226
 5056SOL    HW126630   2.626   2.435   6.170  2.9077  0.6706  1.6040
 5056SOL    HW226631   2.671   2.311   6.116  0.7708  0.3951  3.2993
 5057SOL     OW26632   2.728   2.419   5.835  0.5618 -0.5469  0.1584
 5057SOL    HW126633   2.823   2.405   5.840  0.3147 -2.2149  0.3168
 5057SOL    HW226634   2.718   2.419   5.930 -2.0988 -2.5084 -0.1265
 5058SOL     OW26635   3.209   0.952   8.636  0.3196 -0.0324 -0.1890
 5058SOL    HW126636   3.295   0.914   8.653  0.7539  1.5575  1.1486
 5058SOL    HW226637   3.229   1.042   8.613 -2.3574  0.7232  0.4885
 5059SOL     OW26638   3.800   0.344   7.308  0.4546 -0.1934  0.3489
 5059SOL    HW126639   3.860   0.417   7.290 -0.2548  0.1663 -0.5499
 5059SOL    HW226640   3.817   0.290   7.230 -1.1968 -2.2046  1.3876
 5060SOL     OW26641   4.008   4.378  10.995 -0.3435  0.2657 -0.4213
 5060SOL    HW126642   4.030   4.374  11.089 -0.2148 -0.5444 -0.4884
 5060SOL    HW226643   3.930   4.433  11.003 -1.0264 -0.7048 -0.4690
 5061SOL     OW26644   0.318   3.825   9.692 -0.3415 -0.0152 -0.1413
 5061SOL    HW126645   0.362   3.843   9.609 -1.5618  1.1440 -0.5320
 5061SOL    HW226646   0.227   3.806   9.670 -1.5131  5.2610  0.3168
 5062SOL     OW26647   1.075   0.207   1.526  0.0285  0.1200  0.4162
 5062SOL    HW126648   1.048   0.224   1.436  1.1387  0.8299  0.2183
 5062SOL    HW226649   1.168   0.227   1.523  0.0583 -0.4389 -1.9705
 5063SOL     OW26650   3.805   4.272   9.997 -0.2703 -0.6634 -0.6621
 5063SOL    HW126651   3.755   4.354   9.990  0.7529 -0.1424 -1.9548
 5063SOL    HW226652   3.782   4.233   9.913 -1.6967 -1.4921  0.1071
 5064SOL     OW26653   2.876   1.956   5.428 -0.2021 -0.1461 -0.6548
 5064SOL    HW126654   2.814   1.883   5.432 -0.7248  0.3801  0.7810
 5064SOL    HW226655   2.843   2.011   5.499 -0.5509  1.7588 -2.2935
 5065SOL     OW26656   3.383   3.944  15.856 -0.0671 -0.6110  0.3279
 5065SOL    HW126657   3.367   3.982  15.769  2.5243 -1.8653 -0.6704
 5065SOL    HW226658   3.442   4.010  15.891 -0.6110 -0.1906  0.4497
 5066SOL     OW26659   0.235   2.298   6.205 -0.3123  0.9477  0.5258
 5066SOL    HW126660   0.265   2.258   6.123 -1.1941  1.3412  0.0169
 5066SOL    HW226661   0.292   2.375   6.206  2.5790 -1.1725  0.4767
 5067SOL     OW26662   3.505   0.540  11.882 -0.6878 -0.2728  0.8546
 5067SOL    HW126663   3.469   0.554  11.794 -0.6250 -0.4574  0.8011
 5067SOL    HW226664   3.571   0.605  11.905 -0.2605 -0.2440 -0.4519
 5068SOL     OW26665   2.568   2.132   8.493 -0.5652 -0.3332 -0.1522
 5068SOL    HW126666   2.568   2.040   8.468 -0.2056 -0.3413 -0.1310
 5068SOL    HW226667   2.606   2.170   8.414  0.5397 -1.5884 -0.2300
 5069SOL     OW26668   2.871   0.878   7.653  0.1542  0.1812 -0.3892
 5069SOL    HW126669   2.879   0.846   7.564  2.5924  1.3598 -0.5870
 5069SOL    HW226670   2.819   0.957   7.637  0.7827  0.3386 -1.6457
 5070SOL     OW26671   2.379   2.907   5.835 -0.2660 -0.6728 -0.3283
 5070SOL    HW126672   2.342   2.881   5.920  0.7627 -1.1102 -0.0085
 5070SOL    HW226673   2.374   2.829   5.780 -0.4882 -0.8753 -0.0246
 5071SOL     OW26674   3.439   3.349   3.032 -0.1435 -0.5508  0.1922
 5071SOL    HW126675   3.349   3.381   3.035  0.1610  0.2094  1.5273
 5071SOL    HW226676   3.455   3.352   2.938 -1.4183  0.9549  0.0210
 5072SOL     OW26677   4.682   4.436   7.745 -0.0650 -0.0448  0.0922
 5072SOL    HW126678   4.593   4.471   7.753 -1.4720 -4.1402  2.2754
 5072SOL    HW226679   4.667   4.348   7.709  0.0824  0.3884 -1.0135
 5073SOL     OW26680   1.850   2.347   2.568  0.1845  0.9277 -0.1445
 5073SOL    HW126681   1.769   2.385   2.602 -0.8531 -1.6750  0.3378
 5073SOL    HW226682   1.870   2.395   2.488 -0.5355 -0.0785 -0.9256
 5074SOL     OW26683   2.257   3.824   7.503 -0.1492 -0.0837 -0.1916
 5074SOL    HW126684   2.250   3.755   7.436  0.0882  0.2289 -0.5405
 5074SOL    HW226685   2.163   3.840   7.515 -0.0491 -0.1632  0.6367
 5075SOL     OW26686   3.536   1.701  15.673 -0.0836  0.4066 -0.1070
 5075SOL    HW126687   3.450   1.673  15.705  0.0642  0.1023  0.0251
 5075SOL    HW226688   3.591   1.628  15.704  0.5815 -0.0099 -2.3100
 5076SOL     OW26689   4.229   3.154  11.772 -0.1591 -0.0400  0.2766
 5076SOL    HW126690   4.297   3.178  11.836 -1.7691  0.6746  1.7068
 5076SOL    HW226691   4.157   3.216  11.783  0.9006  1.3536 -0.5575
 5077SOL     OW26692   1.644   3.226   1.141 -0.3462 -0.1390  0.0034
 5077SOL    HW126693   1.674   3.294   1.202 -1.0036  0.4846 -0.3688
 5077SOL    HW226694   1.722   3.170   1.132  1.3573  2.3395 -0.6351
 5078SOL     OW26695   3.347   4.451  11.972 -0.4079  0.4814  0.1400
 5078SOL    HW126696   3.371   4.422  11.885  0.6771  0.6452  0.3858
 5078SOL    HW226697   3.261   4.491  11.953 -0.9125 -1.3771 -1.4283
 5079SOL     OW26698   1.923   3.980   3.788 -0.1283 -0.1155 -0.4009
 5079SOL    HW126699   1.880   4.065   3.784 -0.7329 -0.4592 -1.2012
 5079SOL    HW226700   2.012   4.013   3.783  1.1312 -3.5734 -0.8657
 5080SOL     OW26701   1.172   0.548  14.354  0.1077  0.7031 -0.7695
 5080SOL    HW126702   1.193   0.629  14.399  3.0649  1.0726 -2.8308
 5080SOL    HW226703   1.098   0.518  14.408  0.5233 -1.1668 -1.2156
 5081SOL     OW26704   2.023   0.160   8.910 -0.2467 -0.6558 -0.0753
 5081SOL    HW126705   1.967   0.202   8.975  0.7081 -0.5826  0.7074
 5081SOL    HW226706   2.090   0.227   8.898 -1.5975  0.6951 -0.1280
 5082SOL     OW26707   4.552   3.617   5.283  0.4115 -0.0767 -0.7213
 5082SOL    HW126708   4.478   3.608   5.223 -0.8074 -0.1575  0.7806
 5082SOL    HW226709   4.588   3.529   5.283  0.2119 -0.1611 -0.4318
 5083SOL     OW26710   4.378   3.317  16.470 -0.1197 -0.3358 -0.0798
 5083SOL    HW126711   4.460   3.267  16.477  1.1119  1.3363 -2.5773
 5083SOL    HW226712   4.316   3.244  16.471 -1.7771  1.0546 -1.9767
 5084SOL     OW26713   1.009   3.106   6.231  0.2134 -0.0644 -0.0101
 5084SOL    HW126714   1.001   3.052   6.152 -0.0552  0.5634 -0.4121
 5084SOL    HW226715   1.103   3.097   6.241  0.4184 -1.4221 -3.1940
 5085SOL     OW26716   4.213   0.782   0.565 -0.0869 -0.4006  0.0129
 5085SOL    HW126717   4.183   0.870   0.540  1.4752  0.3584  0.7891
 5085SOL    HW226718   4.292   0.792   0.617  0.0274  1.0360 -0.4361
 5086SOL     OW26719   3.801   1.930   8.589 -0.2242 -0.0371 -0.0571
 5086SOL    HW126720   3.896   1.945   8.588 -0.3935  1.0913  0.0493
 5086SOL    HW226721   3.782   1.957   8.679  2.3557  0.8438  0.2216
 5087SOL     OW26722   3.727   2.961   7.064 -0.0092 -0.6073 -0.0840
 5087SOL    HW126723   3.745   2.907   6.986  0.8439 -0.5767  0.0911
 5087SOL    HW226724   3.694   3.040   7.021  0.7738 -0.8134 -1.0903
 5088SOL     OW26725   0.170   2.112   7.855  0.7844 -0.4043 -0.7480
 5088SOL    HW126726   0.158   2.177   7.786  2.0141  0.5085 -0.0988
 5088SOL    HW226727   0.189   2.160   7.935  0.5549 -0.0173 -0.9258
 5089SOL     OW26728   0.785   1.263   7.611 -0.2408  0.2448  0.0583
 5089SOL    HW126729   0.862   1.239   7.663  0.2671 -0.4904 -1.0330
 5089SOL    HW226730   0.796   1.199   7.541 -3.3066  0.8874 -1.0109
 5090SOL     OW26731   0.913   3.224   4.187 -0.0711 -0.0046  0.1399
 5090SOL    HW126732   0.906   3.297   4.248  0.5447  0.2473 -0.0888
 5090SOL    HW226733   0.934   3.150   4.245  0.2880  0.0051  0.0213
 5091SOL     OW26734   1.957   0.424   5.175  0.0527 -0.4068 -0.6423
 5091SOL    HW126735   1.978   0.509   5.135  1.8737 -0.9926 -0.9327
 5091SOL    HW226736   2.016   0.371   5.122  0.6791 -1.2938  0.9430
 5092SOL     OW26737   0.557   3.387   7.457  0.0731  0.0152 -0.2048
 5092SOL    HW126738   0.537   3.466   7.408  0.0169  0.2992  0.2786
 5092SOL    HW226739   0.532   3.318   7.395 -0.3641  1.1357 -1.2751
 5093SOL     OW26740   3.781   0.246   4.842  0.0644  0.0884 -0.0271
 5093SOL    HW126741   3.776   0.341   4.851 -1.6987 -0.0179  0.2408
 5093SOL    HW226742   3.863   0.244   4.794  0.1537 -1.6301  0.2019
 5094SOL     OW26743   2.668   4.036   6.431 -0.4594 -0.3019 -0.1348
 5094SOL    HW126744   2.594   4.090   6.460  1.9433  2.4490  0.8617
 5094SOL    HW226745   2.678   3.982   6.509 -0.7336 -1.4814 -0.9142
 5095SOL     OW26746   2.544   0.970   7.869 -0.3638  0.1530  0.0660
 5095SOL    HW126747   2.605   1.002   7.802  0.2029 -0.6481  0.2032
 5095SOL    HW226748   2.473   0.943   7.812 -0.1540 -0.9151  0.3252
 5096SOL     OW26749   1.486   3.757   7.909 -0.1482 -0.0061 -0.2944
 5096SOL    HW126750   1.553   3.754   7.841 -0.7259 -0.5847 -0.8388
 5096SOL    HW226751   1.410   3.789   7.860 -2.7140 -4.1931  0.9677
 5097SOL     OW26752   0.377   1.760   5.470  0.0122 -0.2554  0.2857
 5097SOL    HW126753   0.371   1.855   5.478  0.4004 -0.0557 -1.6203
 5097SOL    HW226754   0.322   1.738   5.545  0.7179  3.1078  1.8044
 5098SOL     OW26755   4.404   3.466   8.432 -0.0732 -0.8725  0.0272
 5098SOL    HW126756   4.333   3.453   8.369  0.1292  0.1512 -0.4082
 5098SOL    HW226757   4.370   3.536   8.488 -1.8197 -0.8707 -1.0351
 5099SOL     OW26758   0.842   1.531  14.807  0.1091  0.1575 -0.0034
 5099SOL    HW126759   0.770   1.500  14.861 -0.5388  0.2190 -0.8470
 5099SOL    HW226760   0.804   1.584  14.737 -1.6045 -1.4723 -0.2896
 5100SOL     OW26761   0.508   2.098  14.405 -0.3664 -0.3100  0.1540
 5100SOL    HW126762   0.477   2.124  14.318  0.4402 -2.3917 -0.7552
 5100SOL    HW226763   0.461   2.017  14.424  0.0007 -0.4130  0.6335
 5101SOL     OW26764   2.607   3.169   2.170  0.4198 -0.4681  0.0919
 5101SOL    HW126765   2.665   3.139   2.100 -0.1036  0.4911 -0.7601
 5101SOL    HW226766   2.522   3.126   2.157  0.0291  0.4967 -0.6217
 5102SOL     OW26767   3.187   4.144   4.279  0.0455 -0.4903 -0.6668
 5102SOL    HW126768   3.247   4.116   4.211 -0.2538  0.4192 -1.3065
 5102SOL    HW226769   3.238   4.124   4.358  0.7271  0.1589 -0.9430
 5103SOL     OW26770   3.137   4.613   2.369 -0.0967  0.2564 -0.1425
 5103SOL    HW126771   3.183   4.534   2.398 -0.9386 -0.8121 -1.6719
 5103SOL    HW226772   3.052   4.573   2.347  0.1534 -0.6834  0.5946
 5104SOL     OW26773   0.166   4.568  14.239 -0.0905  0.2418 -1.1653
 5104SOL    HW126774   0.076   4.543  14.221 -0.0723 -0.0874 -0.8096
 5104SOL    HW226775   0.161   4.624  14.317  0.1531 -3.6241  1.6481
 5105SOL     OW26776   0.028   1.166   2.908 -0.1533 -0.5867  0.0180
 5105SOL    HW126777   4.666   1.193   2.886 -0.2563 -2.4776 -1.8701
 5105SOL    HW226778   0.082   1.177   2.829 -2.1021  0.1686 -1.1928
 5106SOL     OW26779   4.451   0.792   9.128 -0.0358  0.0705 -0.6222
 5106SOL    HW126780   4.487   0.810   9.214  2.3132 -0.0265 -1.5811
 5106SOL    HW226781   4.361   0.800   9.159 -0.0302 -0.7770 -0.3831
 5107SOL     OW26782   2.543   3.364   6.771 -0.2325  0.6221 -0.7135
 5107SOL    HW126783   2.491   3.290   6.740 -0.1368  0.1588  0.2196
 5107SOL    HW226784   2.476   3.432   6.772  1.0738  1.9016  1.4882
 5108SOL     OW26785   3.702   2.604  15.617 -0.2643  0.3768  0.4370
 5108SOL    HW126786   3.699   2.669  15.687  1.2367 -1.0182  1.7591
 5108SOL    HW226787   3.629   2.546  15.637  0.9450 -2.3189 -2.8987
 5109SOL     OW26788   1.206   0.484   3.127  0.1108 -0.1069  0.3267
 5109SOL    HW126789   1.242   0.396   3.125  1.8880  0.5650  2.0023
 5109SOL    HW226790   1.270   0.529   3.183 -0.8274 -1.1774  2.2857
 5110SOL     OW26791   0.864   2.162  10.953  0.2797  0.4049 -0.7924
 5110SOL    HW126792   0.775   2.156  10.987  0.9807 -0.2960  0.9136
 5110SOL    HW226793   0.863   2.117  10.868 -1.3554 -0.6210 -0.2129
 5111SOL     OW26794   4.325   3.431   1.810 -0.3392  0.1065  0.6154
 5111SOL    HW126795   4.416   3.428   1.841 -1.1725 -3.1886  2.6631
 5111SOL    HW226796   4.286   3.380   1.881  1.2015 -1.2374  0.5055
 5112SOL     OW26797   1.785   2.414  15.073  0.0635  0.0816 -0.0029
 5112SOL    HW126798   1.705   2.461  15.049 -0.7614 -0.3141  1.9368
 5112SOL    HW226799   1.765   2.367  15.154  3.4580 -1.7671 -0.2527
 5113SOL     OW26800   3.995   0.619   3.946  0.1826  0.5256 -0.0979
 5113SOL    HW126801   4.019   0.651   4.033 -0.4751  1.4073 -0.2514
 5113SOL    HW226802   3.980   0.699   3.896 -2.9118  0.8896  1.3822
 5114SOL     OW26803   1.873   2.998   7.389  0.5987  0.4736 -0.8541
 5114SOL    HW126804   1.785   3.026   7.412  0.7799 -2.3390  3.3333
 5114SOL    HW226805   1.886   2.924   7.449  0.3417 -0.4715 -1.9477
 5115SOL     OW26806   1.443   0.789  10.029  0.9545  0.2505  0.1036
 5115SOL    HW126807   1.503   0.778   9.954  0.6574  0.9880 -0.2406
 5115SOL    HW226808   1.478   0.724  10.089 -0.5058  0.0377  0.7156
 5116SOL     OW26809   2.485   0.080   6.465  0.0940 -0.2424 -0.1165
 5116SOL    HW126810   2.522   0.152   6.516  0.8901 -0.6279 -0.1490
 5116SOL    HW226811   2.478   0.116   6.376 -0.5055  0.6532  0.2896
 5117SOL     OW26812   1.848   0.531   7.247  0.3154  0.5347  0.0058
 5117SOL    HW126813   1.768   0.503   7.292  0.0676 -0.6710 -1.2030
 5117SOL    HW226814   1.819   0.609   7.199 -1.4831  0.8825  1.6174
 5118SOL     OW26815   1.270   1.999   6.699 -0.0169  0.1984 -0.3385
 5118SOL    HW126816   1.360   2.028   6.711 -0.2348  0.0877  1.4428
 5118SOL    HW226817   1.283   1.946   6.620  1.2541 -1.4421  0.9746
 5119SOL     OW26818   3.636   0.023   8.856 -0.2973 -0.0723  0.3628
 5119SOL    HW126819   3.643   4.657   8.876  2.1908 -0.3113 -1.7228
 5119SOL    HW226820   3.675   0.069   8.930  1.4731 -2.0305  0.6167
 5120SOL     OW26821   2.506   1.260   6.101 -0.3183  0.1855  0.2489
 5120SOL    HW126822   2.480   1.321   6.171 -0.0438 -1.0576  1.4338
 5120SOL    HW226823   2.541   1.326   6.042  0.4641  1.0035  1.6278
 5121SOL     OW26824   2.801   1.058   2.989 -0.0994 -0.2637 -0.8405
 5121SOL    HW126825   2.725   1.004   2.966 -0.9116  0.1228  0.9456
 5121SOL    HW226826   2.864   1.028   2.923 -0.0831 -0.1357 -0.8837
 5122SOL     OW26827   2.559   3.035  12.422  0.1877 -0.3835 -0.3420
 5122SOL    HW126828   2.557   3.098  12.350  0.3740 -2.3250 -2.0572
 5122SOL    HW226829   2.613   2.967  12.381  0.6337  0.2280 -0.7644
 5123SOL     OW26830   2.301   1.031  12.666 -0.8909 -0.1836  0.5285
 5123SOL    HW126831   2.304   0.963  12.599  1.9548 -0.6257  1.1098
 5123SOL    HW226832   2.362   1.091  12.623 -1.4695  0.1349  0.1538
 5124SOL     OW26833   4.661   2.918   8.344  0.3207 -0.3385 -0.1257
 5124SOL    HW126834   4.714   2.956   8.414 -0.1310  1.9000 -0.9927
 5124SOL    HW226835   4.581   2.970   8.353  0.3854 -0.3445  0.4629
 5125SOL     OW26836   0.742   1.290   8.355 -0.1207  0.0752 -0.1704
 5125SOL    HW126837   0.812   1.299   8.419 -0.0734 -1.0244 -0.0829
 5125SOL    HW226838   0.669   1.326   8.406 -1.1137 -2.4634  0.1870
 5126SOL     OW26839   1.488   2.817   2.016 -0.3052 -0.0885 -0.1016
 5126SOL    HW126840   1.481   2.741   1.960 -0.4073 -1.8094  2.2351
 5126SOL    HW226841   1.497   2.780   2.104  0.7436 -1.7247 -0.9047
 5127SOL     OW26842   4.484   3.751  13.808 -0.0067 -0.2505 -0.1178
 5127SOL    HW126843   4.470   3.727  13.717  2.9981 -0.2243 -0.5900
 5127SOL    HW226844   4.577   3.732  13.820  0.5288  1.1370 -2.0835
 5128SOL     OW26845   3.612   1.848   3.708 -0.3628 -0.3203 -0.0071
 5128SOL    HW126846   3.582   1.886   3.791 -2.1732 -1.4311 -0.1555
 5128SOL    HW226847   3.654   1.771   3.745  0.1475 -0.8847 -1.7960
 5129SOL     OW26848   3.417   3.373   5.348 -0.0551 -0.1220  0.1862
 5129SOL    HW126849   3.379   3.338   5.267  1.5381  0.4305 -0.7863
 5129SOL    HW226850   3.337   3.414   5.381  0.2102  2.6832 -2.6334
 5130SOL     OW26851   1.401   3.943  10.692  0.0960  0.2157  0.3518
 5130SOL    HW126852   1.351   3.957  10.773 -0.0395  1.0105  0.1325
 5130SOL    HW226853   1.353   4.002  10.633  1.2014 -0.9729 -1.7257
 5131SOL     OW26854   4.655   0.808  10.686  0.6491  0.0240 -0.2953
 5131SOL    HW126855   4.673   0.714  10.685  1.3565  0.1460  0.7922
 5131SOL    HW226856   4.718   0.844  10.624  1.3932  1.4279  1.2619
 5132SOL     OW26857   0.088   3.407   5.993  0.2708 -0.3768 -0.2233
 5132SOL    HW126858   0.111   3.327   5.945 -0.0434 -0.5282 -0.1216
 5132SOL    HW226859   0.095   3.474   5.924  0.3273 -0.3959 -0.2358
 5133SOL     OW26860   4.350   0.525   4.021  0.2793 -0.6063 -0.1844
 5133SOL    HW126861   4.433   0.478   4.017 -0.8197 -2.4446 -1.2173
 5133SOL    HW226862   4.374   0.565   4.104 -0.9436 -1.3541  0.5256
 5134SOL     OW26863   4.149   0.199   4.973 -0.3460  0.0931 -0.3679
 5134SOL    HW126864   4.114   0.257   4.906  2.2934  2.1644  0.0643
 5134SOL    HW226865   4.227   0.250   4.994  1.4546 -2.6718 -0.3610
 5135SOL     OW26866   0.087   4.174   6.112  0.2906 -0.0531  0.3021
 5135SOL    HW126867   0.160   4.147   6.168  0.2752  1.0528  0.8380
 5135SOL    HW226868   0.134   4.206   6.034 -0.3260  0.7575  0.2753
 5136SOL     OW26869   0.933   3.375   8.482 -0.3615 -0.4052 -0.6159
 5136SOL    HW126870   0.844   3.403   8.505 -1.0792 -2.1887 -1.2826
 5136SOL    HW226871   0.973   3.462   8.490  1.0698 -1.3338  2.1757
 5137SOL     OW26872   0.334   3.075  10.314  0.2422 -0.3268  0.3331
 5137SOL    HW126873   0.292   3.084  10.229  0.6580  1.2085  0.2838
 5137SOL    HW226874   0.272   3.121  10.371 -0.4666 -0.6263 -0.1927
 5138SOL     OW26875   0.828   0.925   2.026 -0.0806  0.1386  0.0211
 5138SOL    HW126876   0.912   0.967   2.044  0.4422 -0.1964 -1.6200
 5138SOL    HW226877   0.777   1.006   2.031  0.5802  0.4679  1.3962
 5139SOL     OW26878   4.078   3.554   5.364 -0.2920 -0.4637 -0.1569
 5139SOL    HW126879   4.098   3.488   5.431  0.4862 -1.1197 -1.0362
 5139SOL    HW226880   4.101   3.518   5.278  0.1310  0.3115 -0.3660
 5140SOL     OW26881   3.342   1.662  17.434 -0.2639 -0.5875 -0.5981
 5140SOL    HW126882   3.351   1.573  17.400 -2.3529 -0.7748 -0.6913
 5140SOL    HW226883   3.408   1.656  17.503  0.1525 -0.8772 -1.0274
 5141SOL     OW26884   0.989   3.569   7.267  0.3391 -0.2239  0.2117
 5141SOL    HW126885   0.952   3.485   7.238  1.3093 -0.9506  1.0821
 5141SOL    HW226886   1.041   3.541   7.342  2.1006  2.3876 -0.0601
 5142SOL     OW26887   3.317   0.854   2.346 -0.0796 -0.3133 -0.0591
 5142SOL    HW126888   3.384   0.786   2.342  0.5219  0.1737  1.3569
 5142SOL    HW226889   3.286   0.874   2.258  1.4807 -0.5989 -0.6791
 5143SOL     OW26890   1.611   2.062   3.879 -0.0697  1.1831 -0.2575
 5143SOL    HW126891   1.563   2.050   3.796  2.2930  1.8507 -1.7276
 5143SOL    HW226892   1.573   2.141   3.917 -0.4425  0.4206  0.9242
 5144SOL     OW26893   1.098   0.432  13.903 -0.7528  0.0219 -0.9336
 5144SOL    HW126894   1.020   0.385  13.873  1.1177 -1.8333 -2.9126
 5144SOL    HW226895   1.068   0.521  13.888 -3.2787 -0.8866 -1.2611
 5145SOL     OW26896   0.231   4.036   6.329 -0.1819 -0.1442  0.4541
 5145SOL    HW126897   0.264   4.088   6.402  3.2336 -0.0881 -1.1120
 5145SOL    HW226898   0.308   3.980   6.321 -0.2105 -0.1050 -0.1178
 5146SOL     OW26899   0.358   1.094   4.319 -0.4508  0.1037  0.2769
 5146SOL    HW126900   0.321   1.009   4.295 -1.3557  0.7648 -0.6802
 5146SOL    HW226901   0.295   1.126   4.384  0.6244 -3.2098  2.9421
 5147SOL     OW26902   0.712   3.250   8.716  0.4521 -0.0532 -0.1065
 5147SOL    HW126903   0.790   3.245   8.771  0.5462 -1.3103 -0.3591
 5147SOL    HW226904   0.723   3.336   8.675 -0.1668  1.2586  2.4184
 5148SOL     OW26905   1.958   3.137   1.584 -0.1214  0.6345  0.6752
 5148SOL    HW126906   1.875   3.098   1.611  0.1941  0.6029  1.6028
 5148SOL    HW226907   1.989   3.179   1.665  1.4662  1.0866 -0.1859
 5149SOL     OW26908   1.552   2.103   4.937 -1.1989 -0.2416  0.3198
 5149SOL    HW126909   1.570   2.074   5.027 -1.2826 -0.8985  0.1220
 5149SOL    HW226910   1.547   2.019   4.892  1.1659  0.2439 -0.8674
 5150SOL     OW26911   0.305   0.914   0.775 -0.0077  0.0821 -1.1493
 5150SOL    HW126912   0.347   0.974   0.713  0.6026  0.5703 -0.2699
 5150SOL    HW226913   0.230   0.896   0.718 -0.1905 -0.6594 -0.6733
 5151SOL     OW26914   2.226   4.255   6.932 -0.2491  0.5624 -0.4084
 5151SOL    HW126915   2.302   4.197   6.924 -0.4421 -0.1217  2.8812
 5151SOL    HW226916   2.262   4.320   6.993  1.1794  0.3405 -1.0183
 5152SOL     OW26917   1.020   2.203  11.223 -0.0537  0.0722  0.3719
 5152SOL    HW126918   0.972   2.184  11.142  0.5127 -2.0242  0.5258
 5152SOL    HW226919   0.980   2.283  11.256  2.5439  1.7951 -0.6730
 5153SOL     OW26920   0.014   0.649   5.253  0.4650  0.0302 -0.4645
 5153SOL    HW126921   0.110   0.654   5.246  0.4387 -0.2357 -0.9705
 5153SOL    HW226922   4.724   0.687   5.339  1.3131 -1.7433  0.4788
 5154SOL     OW26923   0.670   1.362   5.447 -0.3805  0.4470 -0.1811
 5154SOL    HW126924   0.754   1.350   5.491 -1.3261  1.2767  1.8228
 5154SOL    HW226925   0.620   1.282   5.464 -0.0020  0.2113 -0.1770
 5155SOL     OW26926   3.767   4.454   7.585  0.0424  0.2782 -0.3714
 5155SOL    HW126927   3.763   4.541   7.544  0.8804  1.1907  1.4781
 5155SOL    HW226928   3.721   4.466   7.668 -0.7578  0.1306 -0.7885
 5156SOL     OW26929   2.850   3.211   4.920 -0.3738 -0.8109  0.0270
 5156SOL    HW126930   2.926   3.170   4.962  0.2184 -0.1764 -0.4268
 5156SOL    HW226931   2.833   3.132   4.868 -1.7656 -1.4730  1.5143
 5157SOL     OW26932   1.375   2.582   3.525  0.1032 -0.1435 -0.3237
 5157SOL    HW126933   1.310   2.519   3.493  0.4801  0.1563 -1.6583
 5157SOL    HW226934   1.335   2.656   3.479  0.5005 -0.4179 -1.1119
 5158SOL     OW26935   1.576   2.524  13.828  0.5839  0.2622 -0.2869
 5158SOL    HW126936   1.641   2.454  13.833  0.2385 -0.0731 -0.5659
 5158SOL    HW226937   1.636   2.598  13.833 -0.3333  0.8857  1.4988
 5159SOL     OW26938   1.131   2.741   9.681  0.2920  0.0155 -0.5858
 5159SOL    HW126939   1.068   2.812   9.668 -0.2525 -0.7702 -2.2076
 5159SOL    HW226940   1.211   2.782   9.713  0.3421  0.7837 -1.6833
 5160SOL     OW26941   2.642   1.388   1.803 -0.4189  0.9668 -0.2345
 5160SOL    HW126942   2.663   1.420   1.715 -1.6683  0.0251 -0.8792
 5160SOL    HW226943   2.569   1.334   1.773 -0.9249  0.7367  1.4225
 5161SOL     OW26944   0.776   1.470   2.570 -0.1823 -0.1726 -0.1959
 5161SOL    HW126945   0.778   1.411   2.495 -0.1002  0.5704 -0.7835
 5161SOL    HW226946   0.721   1.414   2.625  0.0595  1.2387  1.4819
 5162SOL     OW26947   3.974   3.884   4.307  0.1730  0.5431 -0.1546
 5162SOL    HW126948   3.931   3.938   4.240  0.1296  0.3809 -0.2574
 5162SOL    HW226949   3.965   3.799   4.264 -3.9298  1.4317 -1.0846
 5163SOL     OW26950   0.150   0.585  12.777 -0.2282  0.3549 -1.2930
 5163SOL    HW126951   0.112   0.602  12.863  2.3451  1.7549 -0.4444
 5163SOL    HW226952   0.196   0.503  12.797 -0.6258  1.6210  4.7930
 5164SOL     OW26953   1.316   0.320  16.532 -0.6939 -0.1772 -0.0652
 5164SOL    HW126954   1.369   0.352  16.459  1.7959 -0.4162  1.6602
 5164SOL    HW226955   1.381   0.338  16.600 -0.6938  0.6662 -0.2859
 5165SOL     OW26956   2.564   4.707  16.365 -0.1239  0.7859 -0.0642
 5165SOL    HW126957   2.627   4.723  16.294  0.7302  0.4223  0.6133
 5165SOL    HW226958   2.579   4.615  16.384 -2.2012  0.1879 -1.3150
 5166SOL     OW26959   3.707   0.237   1.835 -0.3287 -0.4239 -0.1724
 5166SOL    HW126960   3.670   0.238   1.747 -3.5270  0.6168  1.1828
 5166SOL    HW226961   3.627   0.236   1.888 -0.7800  1.1701 -0.8284
 5167SOL     OW26962   3.266   2.134  11.874  0.3004  0.2764 -0.1724
 5167SOL    HW126963   3.256   2.111  11.781 -1.3296  1.8003 -0.3651
 5167SOL    HW226964   3.201   2.202  11.893 -0.1195 -0.7088  1.9323
 5168SOL     OW26965   4.564   0.020   4.200 -0.6047  0.0702 -0.5409
 5168SOL    HW126966   4.555   4.672   4.260 -0.4547  0.7558  0.3366
 5168SOL    HW226967   4.632   0.067   4.249 -0.0382 -0.2843 -0.9798
 5169SOL     OW26968   1.899   0.084   0.018 -0.5212  0.4913  0.2004
 5169SOL    HW126969   1.816   0.067  17.680 -0.5585 -1.8092  1.1735
 5169SOL    HW226970   1.954   0.023  17.677 -1.8101 -0.5062  0.0046
 5170SOL     OW26971   1.829   2.274   3.995 -0.1568 -0.0407  0.3051
 5170SOL    HW126972   1.736   2.290   3.979 -0.4560 -2.3668 -0.2407
 5170SOL    HW226973   1.820   2.207   4.062 -3.0278  2.4439  2.3898
 5171SOL     OW26974   0.394   4.223   8.137  0.2160  0.2555  0.0192
 5171SOL    HW126975   0.487   4.209   8.123  0.0590  1.2345 -1.9674
 5171SOL    HW226976   0.386   4.216   8.233 -3.3626 -0.0371 -0.2926
 5172SOL     OW26977   3.362   2.091   9.803 -0.3391  0.0193 -0.3781
 5172SOL    HW126978   3.434   2.029   9.809 -0.3567  0.1070  0.7129
 5172SOL    HW226979   3.355   2.094   9.708  1.7214  0.4612 -0.5153
 5173SOL     OW26980   0.447   3.524   6.179  0.0198  0.3876 -0.1892
 5173SOL    HW126981   0.383   3.470   6.225 -0.1954  1.4434  0.7437
 5173SOL    HW226982   0.501   3.540   6.257  1.3522 -0.9324 -0.8383
 5174SOL     OW26983   0.585   1.713  10.151 -0.3625 -0.0903 -0.6224
 5174SOL    HW126984   0.584   1.783  10.216  0.6903  0.2486 -0.9726
 5174SOL    HW226985   0.670   1.716  10.107 -0.6647  0.1163 -1.2053
 5175SOL     OW26986   3.487   2.514   4.401 -0.2922  0.1792 -0.6479
 5175SOL    HW126987   3.472   2.474   4.315  1.3116  0.0935 -0.8717
 5175SOL    HW226988   3.422   2.463   4.449  0.8391 -2.5923 -2.0293
 5176SOL     OW26989   3.594   1.810   9.453 -0.0012  0.6152  0.2381
 5176SOL    HW126990   3.518   1.812   9.394 -0.1134  2.4213  0.4506
 5176SOL    HW226991   3.551   1.745   9.510  0.4283  0.4655  0.3882
 5177SOL     OW26992   1.425   4.523   2.732  0.1848  0.3034  0.4252
 5177SOL    HW126993   1.408   4.607   2.774 -1.1612  0.2681 -0.0407
 5177SOL    HW226994   1.338   4.486   2.744  0.4069  0.1709  1.6723
 5178SOL     OW26995   0.850   3.061   7.577 -0.1801  0.7166  0.0378
 5178SOL    HW126996   0.807   3.066   7.662 -2.8809  3.2193 -1.4790
 5178SOL    HW226997   0.931   3.018   7.604  0.4929  1.1112 -1.3476
 5179SOL     OW26998   2.718   1.208  17.437 -0.0188 -0.1572 -0.0151
 5179SOL    HW126999   2.770   1.165  17.369  1.1860  1.7148 -0.2955
 5179SOL    HW227000   2.684   1.285  17.390 -3.2168 -1.6876 -0.2347
 5180SOL     OW27001   0.471   2.061   2.219 -0.1020  0.3431  0.3926
 5180SOL    HW127002   0.555   2.104   2.201 -1.2722  2.2933 -0.4345
 5180SOL    HW227003   0.399   2.124   2.211 -0.4948 -0.0052  1.1827
 5181SOL     OW27004   2.478   3.953   8.706 -0.6959  0.3307 -0.4565
 5181SOL    HW127005   2.442   4.042   8.701 -0.2346  0.6869  2.6420
 5181SOL    HW227006   2.427   3.904   8.641  2.8068 -1.6834 -1.6553
 5182SOL     OW27007   4.083   1.446  11.035  0.2064 -0.0858 -0.1668
 5182SOL    HW127008   4.124   1.490  10.961  0.9623 -1.1549 -0.3858
 5182SOL    HW227009   4.068   1.514  11.101  0.1757  0.5952 -0.8680
 5183SOL     OW27010   3.397   0.894  14.116  0.5671  0.5058  0.1340
 5183SOL    HW127011   3.326   0.949  14.149  0.7719 -0.5148  2.2916
 5183SOL    HW227012   3.468   0.928  14.170  0.4727 -0.6607  0.9934
 5184SOL     OW27013   1.701   3.321  11.284  1.2394  0.2164 -0.4637
 5184SOL    HW127014   1.661   3.255  11.341  0.0297  1.3693  0.0097
 5184SOL    HW227015   1.793   3.298  11.297  1.0370 -0.4618 -0.2290
 5185SOL     OW27016   3.604   0.601   9.213 -0.1954  0.4914 -0.6075
 5185SOL    HW127017   3.633   0.613   9.122  0.8167  0.4382 -0.2892
 5185SOL    HW227018   3.514   0.585   9.184 -0.6509  0.0854  1.0327
 5186SOL     OW27019   1.312   3.159   1.127 -0.3003  0.0774  0.4751
 5186SOL    HW127020   1.242   3.149   1.192 -0.4045  0.7479  0.4616
 5186SOL    HW227021   1.389   3.135   1.178 -1.1650  1.6171  2.5103
 5187SOL     OW27022   2.659   3.192   5.291  0.3775 -0.2456 -0.1062
 5187SOL    HW127023   2.660   3.254   5.218 -1.6709  0.3452  0.3679
 5187SOL    HW227024   2.701   3.239   5.363 -2.9538  1.1693  0.9163
 5188SOL     OW27025   0.976   2.197   5.748 -0.2968  0.3755  0.5989
 5188SOL    HW127026   1.005   2.196   5.657 -3.1928 -1.5938 -0.3070
 5188SOL    HW227027   1.032   2.132   5.791  1.6095 -0.2284 -2.8290
 5189SOL     OW27028   4.301   1.220  14.150  0.3015  0.4151  0.2024
 5189SOL    HW127029   4.223   1.276  14.157 -1.5747 -2.1176 -0.7426
 5189SOL    HW227030   4.297   1.165  14.229  0.0242 -0.9812 -0.7919
 5190SOL     OW27031   2.828   2.922   4.131  0.4970 -0.7540 -0.4126
 5190SOL    HW127032   2.841   3.012   4.101  0.9668 -0.5586  0.3761
 5190SOL    HW227033   2.778   2.928   4.212 -0.8159  0.3797 -1.3228
 5191SOL     OW27034   2.823   1.821  13.844  0.2587 -0.5588  0.4522
 5191SOL    HW127035   2.857   1.741  13.803  0.9356 -0.2599  0.4336
 5191SOL    HW227036   2.748   1.833  13.786  0.4169  2.2525  0.8404
 5192SOL     OW27037   1.037   1.398   2.127  0.9640 -0.6186 -0.4835
 5192SOL    HW127038   1.099   1.471   2.131 -0.9831  1.0098 -0.1917
 5192SOL    HW227039   1.011   1.406   2.035 -2.4702  2.7781  0.8089
 5193SOL     OW27040   0.856   3.085   6.466  0.4847 -0.0170 -0.4971
 5193SOL    HW127041   0.900   3.131   6.538  0.0617  1.6218 -1.2890
 5193SOL    HW227042   0.925   3.089   6.400 -0.5500 -1.1668 -1.6550
 5194SOL     OW27043   4.310   1.308   3.778 -0.3829 -0.4909  0.0301
 5194SOL    HW127044   4.362   1.335   3.853 -0.1127  0.2871 -0.4442
 5194SOL    HW227045   4.370   1.319   3.704 -0.5307 -0.1970 -0.0423
 5195SOL     OW27046   3.334   2.502  14.913  0.0352  0.2612  0.1641
 5195SOL    HW127047   3.396   2.570  14.887 -0.9160  0.1120 -2.4650
 5195SOL    HW227048   3.270   2.545  14.969  0.4515 -0.6418  1.3372
 5196SOL     OW27049   1.097   1.926   1.035 -0.3390 -0.1453  0.4232
 5196SOL    HW127050   1.185   1.952   1.009 -0.3022 -0.1337  0.5571
 5196SOL    HW227051   1.053   1.920   0.950  0.6829 -0.1214 -0.1018
 5197SOL     OW27052   2.515   0.977   2.545  0.0849 -0.4916  0.3466
 5197SOL    HW127053   2.607   0.998   2.528 -0.0712  0.8203  1.1232
 5197SOL    HW227054   2.473   1.062   2.531 -1.1634 -0.9775  1.1341
 5198SOL     OW27055   2.933   2.694  16.410  0.1461 -0.1754  0.3025
 5198SOL    HW127056   2.877   2.633  16.362  0.2114 -0.6323  0.8084
 5198SOL    HW227057   2.933   2.640  16.489  2.2022  2.0445  1.8179
 5199SOL     OW27058   3.034   1.206   8.213  0.0280  0.2536  0.0239
 5199SOL    HW127059   3.105   1.267   8.192  1.4528 -1.1576  0.6987
 5199SOL    HW227060   3.077   1.130   8.251 -1.2952 -0.2546  0.4801
 5200SOL     OW27061   3.804   0.157  13.168  0.6981 -0.2104 -0.3429
 5200SOL    HW127062   3.856   0.220  13.219  0.1701 -1.7938  2.1768
 5200SOL    HW227063   3.712   0.178  13.184  0.6952  1.4569 -2.6191
 5201SOL     OW27064   4.607   1.140   3.991 -0.2466  0.1373  0.4914
 5201SOL    HW127065   4.516   1.144   4.019 -0.0612 -1.1152  1.3004
 5201SOL    HW227066   4.642   1.098   4.070 -0.7357 -0.2864  0.4804
 5202SOL     OW27067   2.870   1.443  10.987  0.6964  0.4291  0.1233
 5202SOL    HW127068   2.899   1.354  11.011  1.4354  0.4183 -0.7898
 5202SOL    HW227069   2.853   1.434  10.894 -1.0942 -2.4003  0.7054
 5203SOL     OW27070   2.802   1.311  13.556  0.4891  0.5573  0.3171
 5203SOL    HW127071   2.822   1.320  13.463  1.1019  1.9763  0.5776
 5203SOL    HW227072   2.707   1.304  13.554  0.5710 -0.6110  0.8146
 5204SOL     OW27073   1.757   0.394  15.943  0.3411 -0.1798 -0.2022
 5204SOL    HW127074   1.820   0.461  15.918 -2.0409  2.7539  1.7172
 5204SOL    HW227075   1.735   0.432  16.028  2.2144 -2.1304  1.1554
 5205SOL     OW27076   2.173   2.412   3.174  0.2060 -0.4495  0.0321
 5205SOL    HW127077   2.100   2.363   3.213  0.0279 -2.1210 -2.4532
 5205SOL    HW227078   2.174   2.487   3.233  2.0940 -1.6613  1.5366
 5206SOL     OW27079   1.766   0.010  13.869  0.4824  0.3591 -0.6395
 5206SOL    HW127080   1.738   4.668  13.930  1.8585  0.2900 -0.0863
 5206SOL    HW227081   1.721   0.085  13.907 -0.3365 -0.2916 -0.3197
 5207SOL     OW27082   0.189   0.815   5.060 -0.3345 -0.1808 -0.1659
 5207SOL    HW127083   0.275   0.856   5.071 -0.1686  0.1738 -2.8065
 5207SOL    HW227084   0.192   0.750   5.130 -0.5667 -0.5666 -0.5107
 5208SOL     OW27085   3.691   1.501   1.074  0.1115  0.4092  0.1202
 5208SOL    HW127086   3.653   1.532   0.992  0.7949 -0.7344 -0.6181
 5208SOL    HW227087   3.712   1.586   1.112  1.0091 -1.2116  3.3409
 5209SOL     OW27088   1.763   2.860   6.439  0.8491 -0.6153 -0.6709
 5209SOL    HW127089   1.795   2.870   6.529  2.7198 -1.8496 -1.1968
 5209SOL    HW227090   1.824   2.917   6.391  1.3246 -0.2269  0.4006
 5210SOL     OW27091   0.470   0.391   3.185  0.3183  0.2015  0.0561
 5210SOL    HW127092   0.399   0.454   3.178 -0.0075 -0.1659  0.0546
 5210SOL    HW227093   0.485   0.388   3.280 -0.9637 -0.4179  0.2349
 5211SOL     OW27094   2.039   1.230  11.922  0.1789 -0.3216 -0.5348
 5211SOL    HW127095   2.015   1.237  11.830  0.4870  0.1951 -0.5755
 5211SOL    HW227096   2.075   1.315  11.946  0.3746 -1.0885  1.9318
 5212SOL     OW27097   1.149   3.539   8.516  0.1228  0.2814 -1.3178
 5212SOL    HW127098   1.217   3.605   8.532 -0.2176  0.2960  0.0991
 5212SOL    HW227099   1.207   3.463   8.516 -1.8779 -1.2729  0.2859
 5213SOL     OW27100   3.426   2.209  15.534  0.3418  0.5803  0.1241
 5213SOL    HW127101   3.452   2.119  15.512 -0.2296  0.5329 -0.3280
 5213SOL    HW227102   3.463   2.266  15.467  1.2852 -0.3184 -0.1267
 5214SOL     OW27103   0.973   2.969   1.527 -0.9632 -0.1567  0.3045
 5214SOL    HW127104   0.980   2.906   1.455 -0.6609 -0.0485  0.2386
 5214SOL    HW227105   0.945   2.909   1.595  0.6796  0.3624  1.4210
 5215SOL     OW27106   0.565   3.126   2.761 -0.0056  0.4326  0.3524
 5215SOL    HW127107   0.487   3.112   2.816 -0.9858  1.9246 -0.6480
 5215SOL    HW227108   0.618   3.050   2.785 -2.3605 -1.3449 -0.0319
 5216SOL     OW27109   3.699   3.848   3.963  0.5457  0.5330  0.5854
 5216SOL    HW127110   3.737   3.836   3.876  1.5977  3.5915  0.6225
 5216SOL    HW227111   3.713   3.763   4.005 -0.3495 -0.2700 -0.6962
 5217SOL     OW27112   2.893   0.073   5.914 -0.4264  0.1534 -0.0494
 5217SOL    HW127113   2.945   0.154   5.921  0.0809 -0.3537  1.9092
 5217SOL    HW227114   2.811   0.098   5.956  0.5816  0.0844  1.9255
 5218SOL     OW27115   2.862   1.038  13.436  0.2472  0.7173 -0.0662
 5218SOL    HW127116   2.906   0.986  13.503 -1.2215  1.2104  1.2594
 5218SOL    HW227117   2.772   1.030  13.468  0.2713 -0.0162 -0.1802
 5219SOL     OW27118   1.055   4.436   3.213 -0.1650  0.2839  0.5112
 5219SOL    HW127119   1.068   4.398   3.300 -0.4121 -1.2447 -0.1157
 5219SOL    HW227120   1.142   4.416   3.178 -0.4497  0.9781 -0.5888
 5220SOL     OW27121   1.111   0.470   3.622 -0.1023 -0.4526  0.3210
 5220SOL    HW127122   1.065   0.503   3.699  1.5176 -0.8883  1.4941
 5220SOL    HW227123   1.062   0.511   3.551  1.1755  1.7846  0.7080
 5221SOL     OW27124   1.974   1.964   8.133 -0.5259 -0.5639 -0.0225
 5221SOL    HW127125   2.017   2.031   8.186  0.2867 -0.2767 -1.0388
 5221SOL    HW227126   1.883   1.986   8.153 -0.3534  1.9650 -1.9366
 5222SOL     OW27127   0.051   2.222   2.388  0.4958 -0.1446  0.5784
 5222SOL    HW127128   0.139   2.258   2.401  0.5446  0.1160 -0.4631
 5222SOL    HW227129   4.717   2.282   2.431  1.3685  2.0281 -1.2048
 5223SOL     OW27130   2.571   2.142   2.348 -0.0830  0.2085 -0.0670
 5223SOL    HW127131   2.484   2.107   2.329 -0.9891  1.8533  0.9885
 5223SOL    HW227132   2.626   2.064   2.342 -0.4019 -0.0883  0.7705
 5224SOL     OW27133   1.575   1.462   0.576  0.3512 -0.4175  0.1276
 5224SOL    HW127134   1.668   1.451   0.556  0.1922 -2.5276  0.5912
 5224SOL    HW227135   1.550   1.507   0.495  2.4225 -0.6282 -0.6252
 5225SOL     OW27136   0.876   4.234  17.299  0.0738  0.0544 -0.3005
 5225SOL    HW127137   0.800   4.292  17.294 -1.4154 -1.8576  0.1016
 5225SOL    HW227138   0.881   4.188  17.383 -0.6412 -2.4561 -1.6416
 5226SOL     OW27139   1.320   0.915   2.833 -0.4129 -0.6513 -0.3719
 5226SOL    HW127140   1.327   0.998   2.879 -0.9848 -1.5636  1.3399
 5226SOL    HW227141   1.313   0.851   2.903  0.3268 -0.9799 -0.5874
 5227SOL     OW27142   1.422   3.502   6.402 -0.0048  0.6028  0.7164
 5227SOL    HW127143   1.375   3.419   6.398 -1.9688  1.7346  0.5751
 5227SOL    HW227144   1.357   3.571   6.412 -0.5269  0.2176 -0.1083
 5228SOL     OW27145   2.164   0.267   4.046 -0.5800 -0.9807 -0.0688
 5228SOL    HW127146   2.210   0.245   4.127  0.3778  0.1204 -0.3222
 5228SOL    HW227147   2.153   0.361   4.055 -1.5711 -1.2617  1.7608
 5229SOL     OW27148   0.566   3.074   0.925 -0.4016 -0.2122  0.3595
 5229SOL    HW127149   0.554   3.069   1.020 -2.0934 -1.6634  0.0588
 5229SOL    HW227150   0.480   3.093   0.888  0.0554  0.1690 -0.5281
 5230SOL     OW27151   2.727   1.844   5.894 -0.0747  0.3351  0.7102
 5230SOL    HW127152   2.792   1.871   5.829 -0.5457  2.0024  0.9535
 5230SOL    HW227153   2.768   1.760   5.915 -0.3873  0.4340  1.6887
 5231SOL     OW27154   1.390   4.058   2.010  0.0746 -0.3017  0.5364
 5231SOL    HW127155   1.406   4.089   1.921 -1.6329  0.5624  0.5232
 5231SOL    HW227156   1.343   3.976   1.996  0.0410 -0.1305 -0.3248
 5232SOL     OW27157   4.514   3.245  13.494 -0.1909  0.0687 -0.0578
 5232SOL    HW127158   4.540   3.224  13.404 -2.2300 -1.9851 -0.1656
 5232SOL    HW227159   4.491   3.160  13.533 -1.8075  1.5472  2.2402
 5233SOL     OW27160   0.500   3.302   8.079 -0.7193  0.0726 -0.1762
 5233SOL    HW127161   0.564   3.265   8.140 -0.7978  0.9392  0.4312
 5233SOL    HW227162   0.489   3.391   8.112 -1.9253 -0.0488 -0.2419
 5234SOL     OW27163   3.252   4.195  17.044 -0.6195 -0.5068  0.5356
 5234SOL    HW127164   3.245   4.101  17.035 -0.6967 -0.6307  1.8261
 5234SOL    HW227165   3.329   4.195  17.101 -0.6620  0.0566  0.6030
 5235SOL     OW27166   4.083   2.669  14.784 -0.0021 -0.4151  0.2320
 5235SOL    HW127167   3.994   2.657  14.816 -0.3642 -0.9667 -0.9872
 5235SOL    HW227168   4.079   2.620  14.702 -0.5328  0.0662 -0.0316
 5236SOL     OW27169   1.300   0.269  15.694 -0.5363 -0.4609 -0.3911
 5236SOL    HW127170   1.370   0.208  15.717  0.8519  0.8816 -1.0400
 5236SOL    HW227171   1.273   0.243  15.605  1.3672  1.5018 -1.5372
 5237SOL     OW27172   2.453   1.245   5.096  0.0271 -0.8510 -0.1067
 5237SOL    HW127173   2.522   1.291   5.144  0.5611 -1.6843 -0.0649
 5237SOL    HW227174   2.451   1.285   5.009 -1.2742  0.7816  0.6922
 5238SOL     OW27175   2.509   2.967  16.253  0.3580 -0.4865 -0.0123
 5238SOL    HW127176   2.442   2.927  16.197 -0.1168  1.3320 -0.7429
 5238SOL    HW227177   2.507   3.058  16.223  0.7004 -0.4927 -0.0507
 5239SOL     OW27178   1.210   3.931   8.391  0.3629  0.0139 -0.4149
 5239SOL    HW127179   1.153   3.903   8.463  0.9694  2.5637  1.0766
 5239SOL    HW227180   1.252   3.849   8.365  1.4377  0.1216  0.9667
 5240SOL     OW27181   2.659   0.004   1.420 -0.1465  0.1466 -0.2824
 5240SOL    HW127182   2.704   0.062   1.359  0.1723 -0.6183 -0.7840
 5240SOL    HW227183   2.714   4.721   1.498 -0.7109  0.7005  0.1846
 5241SOL     OW27184   1.089   4.127  15.052  0.1664  0.1778  0.7109
 5241SOL    HW127185   1.018   4.070  15.020  1.3055 -1.2718  0.7480
 5241SOL    HW227186   1.052   4.214  15.064  1.2575  0.7025  0.1779
 5242SOL     OW27187   0.502   3.660   3.685 -0.2654  0.3858  0.2618
 5242SOL    HW127188   0.455   3.585   3.647 -0.5998  1.5855 -1.7284
 5242SOL    HW227189   0.453   3.664   3.767 -1.8225  1.0527 -0.6950
 5243SOL     OW27190   1.897   3.585   3.957  0.5592 -0.3416  0.1937
 5243SOL    HW127191   1.902   3.633   3.874  0.9653  0.7242  0.8311
 5243SOL    HW227192   1.920   3.500   3.920 -0.1630 -0.4818  0.0651
 5244SOL     OW27193   4.542   0.668   8.188  0.5244 -0.2138  0.1441
 5244SOL    HW127194   4.573   0.578   8.187 -0.5878 -0.5494 -3.1238
 5244SOL    HW227195   4.460   0.652   8.141  1.3447 -2.2801 -0.5474
 5245SOL     OW27196   3.042   2.245   1.671 -0.6315  0.1897 -0.3628
 5245SOL    HW127197   3.132   2.245   1.701 -0.0603 -2.3741 -2.0917
 5245SOL    HW227198   3.044   2.164   1.620  0.7606  0.0669 -0.1003
 5246SOL     OW27199   1.601   4.699   4.014  0.0493  0.1150  0.6149
 5246SOL    HW127200   1.612   4.605   4.003  0.5363  0.1137  1.1003
 5246SOL    HW227201   1.566   4.719   4.100  0.7000  0.0459  0.8996
 5247SOL     OW27202   2.091   3.490   6.224 -0.3225 -0.3677 -0.3620
 5247SOL    HW127203   2.010   3.539   6.238  0.2380 -0.3395  2.8283
 5247SOL    HW227204   2.069   3.404   6.187  1.1253 -0.1208 -1.8267
 5248SOL     OW27205   0.490   0.112   7.948  0.0275  0.6821  0.3809
 5248SOL    HW127206   0.534   0.061   7.880 -0.8598 -0.2904  0.5406
 5248SOL    HW227207   0.506   0.202   7.922  0.2200  0.2987 -0.8264
 5249SOL     OW27208   1.397   1.547   6.332  0.3968  0.0666  0.9578
 5249SOL    HW127209   1.443   1.482   6.384 -1.5202 -1.4999  0.7058
 5249SOL    HW227210   1.364   1.500   6.255  0.6092  0.6411  0.5087
 5250SOL     OW27211   0.106   4.722  11.290  0.4115  0.6129  0.0566
 5250SOL    HW127212   0.044   0.006  11.218 -1.2191 -0.6442  1.2893
 5250SOL    HW227213   0.183   4.678  11.253 -1.2772 -1.2873 -1.1653
 5251SOL     OW27214   3.393   4.680   1.012  0.1571 -0.1029  0.5977
 5251SOL    HW127215   3.386   4.640   0.925  0.4859  0.6774  0.2172
 5251SOL    HW227216   3.409   4.601   1.064  1.9541  1.1207  1.9300
 5252SOL     OW27217   3.488   3.393   3.304  0.1412 -0.2124  0.3445
 5252SOL    HW127218   3.582   3.411   3.294 -0.1594 -0.6100 -3.2719
 5252SOL    HW227219   3.473   3.377   3.210 -2.0267  0.6949  0.5305
 5253SOL     OW27220   3.774   4.654  15.166  0.3608 -0.0298  0.4255
 5253SOL    HW127221   3.796   4.567  15.201 -0.2386 -0.3246  0.0615
 5253SOL    HW227222   3.681   4.646  15.184  0.5255  0.5950  1.5462
 5254SOL     OW27223   1.550   2.772   7.908 -0.2946  0.2951 -0.4552
 5254SOL    HW127224   1.520   2.809   7.825  1.7305  0.3848 -1.1410
 5254SOL    HW227225   1.496   2.831   7.961 -2.1614 -2.3775  0.5934
 5255SOL     OW27226   2.913   4.438   4.513  0.0265  0.7769 -0.3097
 5255SOL    HW127227   2.952   4.423   4.426 -1.3730 -0.2871 -0.7528
 5255SOL    HW227228   2.969   4.505   4.552 -0.7624  2.2472 -1.7351
 5256SOL     OW27229   2.869   3.742   9.306 -0.4522  0.0377  0.2795
 5256SOL    HW127230   2.908   3.739   9.394 -2.0119 -0.9515  0.9431
 5256SOL    HW227231   2.894   3.656   9.271 -1.2200 -0.8510  1.9389
 5257SOL     OW27232   3.106   4.215   5.314 -0.0397 -0.9638 -0.1462
 5257SOL    HW127233   3.091   4.164   5.395 -3.0450 -0.1231 -0.1768
 5257SOL    HW227234   3.162   4.282   5.352  1.8726 -2.4460 -0.3642
 5258SOL     OW27235   4.040   0.402   1.353 -0.5045 -0.1117  0.2285
 5258SOL    HW127236   4.055   0.369   1.264 -1.0556  0.9249 -0.2463
 5258SOL    HW227237   3.956   0.361   1.372 -0.0792 -0.0382  2.2771
 5259SOL     OW27238   2.859   3.673   1.643  0.0435 -0.2510 -0.2113
 5259SOL    HW127239   2.869   3.735   1.571 -0.4619  0.7060  0.5390
 5259SOL    HW227240   2.846   3.592   1.594  0.1911 -1.7866  2.3027
 5260SOL     OW27241   0.684   2.992   5.769 -0.1092  0.2208 -0.2868
 5260SOL    HW127242   0.699   3.015   5.677 -0.5758  0.4012 -0.3179
 5260SOL    HW227243   0.685   3.080   5.807 -0.7390  0.0318  0.1599
 5261SOL     OW27244   0.925   0.103  16.461  0.3026 -0.2058  0.6639
 5261SOL    HW127245   0.996   0.083  16.523 -1.3088 -1.0790  2.2403
 5261SOL    HW227246   0.889   0.019  16.433  3.6697 -1.6205  0.5062
 5262SOL     OW27247   3.598   0.714  14.456  0.0162 -0.4515 -0.4170
 5262SOL    HW127248   3.506   0.739  14.455  0.0322 -0.4030 -0.7186
 5262SOL    HW227249   3.598   0.650  14.384  2.2140 -1.2279  0.2849
 5263SOL     OW27250   2.129   2.730   7.534 -0.2568 -0.6444  0.6769
 5263SOL    HW127251   2.105   2.773   7.616  2.3274  0.5981  0.7820
 5263SOL    HW227252   2.199   2.790   7.506 -0.8189  0.2307  1.1568
 5264SOL     OW27253   0.303   2.334  16.936  0.0627 -0.8779  0.0448
 5264SOL    HW127254   0.334   2.351  16.847 -0.0554 -3.2367 -0.4727
 5264SOL    HW227255   0.276   2.242  16.928  0.9666 -1.2048  0.7592
 5265SOL     OW27256   0.383   3.857   8.023 -0.2845  0.4337 -0.0733
 5265SOL    HW127257   0.459   3.871   8.080 -0.5958 -0.5161  0.5804
 5265SOL    HW227258   0.400   3.902   7.941  2.4451 -0.3831  0.0510
 5266SOL     OW27259   1.130   3.601   3.795 -0.4672 -0.6595  0.0769
 5266SOL    HW127260   1.076   3.548   3.736 -0.3896 -0.9586  0.2779
 5266SOL    HW227261   1.179   3.527   3.831  1.6986  0.5507 -0.4026
 5267SOL     OW27262   0.260   0.783  12.488  0.0689 -0.5270 -0.2734
 5267SOL    HW127263   0.332   0.750  12.542  1.1655  1.7273 -0.3874
 5267SOL    HW227264   0.302   0.861  12.451 -0.9680  0.3612  0.4366
 5268SOL     OW27265   0.089   2.406   4.981  0.2463  0.1992 -0.8957
 5268SOL    HW127266   0.064   2.369   5.066 -1.4597 -3.1202 -2.8445
 5268SOL    HW227267   0.124   2.491   5.007  2.3022 -1.1382  0.8172
 5269SOL     OW27268   0.261   3.843   3.108 -0.3136  0.0794 -0.0280
 5269SOL    HW127269   0.172   3.813   3.094  0.4059 -2.0552  0.0584
 5269SOL    HW227270   0.320   3.770   3.126 -0.8267 -0.0641  1.0797
 5270SOL     OW27271   4.414   4.132  15.490  0.0478  0.1674  0.5771
 5270SOL    HW127272   4.465   4.110  15.411  0.6241  0.0815  0.9708
 5270SOL    HW227273   4.379   4.218  15.468  0.0894  0.0589  0.0713
 5271SOL     OW27274   2.790   0.137  17.678  0.3454 -0.0140 -0.8639
 5271SOL    HW127275   2.755   0.078   0.037  1.4964  1.4363  1.0053
 5271SOL    HW227276   2.707   0.173  17.647  0.5287 -0.2129 -1.5752
 5272SOL     OW27277   0.339   3.436   8.938  0.7364  0.1468  0.0542
 5272SOL    HW127278   0.395   3.455   9.013  1.7650 -1.4773 -0.2825
 5272SOL    HW227279   0.304   3.523   8.922 -1.1230 -0.6784 -0.3750
 5273SOL     OW27280   2.158   2.298   6.784 -0.4737 -0.2440 -0.1993
 5273SOL    HW127281   2.202   2.212   6.781 -0.2744 -0.0766 -1.8237
 5273SOL    HW227282   2.233   2.356   6.772  0.4311 -1.1546  1.0461
 5274SOL     OW27283   1.668   1.874   8.366  0.1511 -0.1886 -0.1348
 5274SOL    HW127284   1.748   1.888   8.417 -0.2754  0.2038  0.4261
 5274SOL    HW227285   1.606   1.926   8.417 -1.4621 -1.0519 -1.2286
 5275SOL     OW27286   3.349   1.103   7.551  0.1450 -0.2640  0.0888
 5275SOL    HW127287   3.421   1.048   7.521 -1.3136 -1.7417 -0.7081
 5275SOL    HW227288   3.290   1.030   7.571 -0.7953  0.7640  1.0980
 5276SOL     OW27289   1.172   1.148   4.083  0.0001 -0.6967 -0.4089
 5276SOL    HW127290   1.178   1.155   3.987  1.5491 -0.3269 -0.2869
 5276SOL    HW227291   1.079   1.127   4.089 -0.0399 -0.1840  0.7693
 5277SOL     OW27292   2.669   0.630   8.847 -0.4914 -0.1475 -0.0334
 5277SOL    HW127293   2.754   0.627   8.892 -0.4211  2.4134  0.0274
 5277SOL    HW227294   2.666   0.540   8.814  2.9702 -0.9927  1.9186
 5278SOL     OW27295   1.788   3.368  12.864  0.3268  0.9180  0.6173
 5278SOL    HW127296   1.851   3.332  12.802 -0.2458 -1.0662  1.1719
 5278SOL    HW227297   1.835   3.380  12.947  0.8380 -1.3227  0.6446
 5279SOL     OW27298   4.136   1.049   5.689  0.0201 -0.1787 -0.0562
 5279SOL    HW127299   4.190   1.099   5.627  2.2435 -1.7261  0.6211
 5279SOL    HW227300   4.096   1.116   5.746  0.0733  1.6070 -2.1227
 5280SOL     OW27301   3.814   3.162  15.608  0.5983 -0.1370 -0.1698
 5280SOL    HW127302   3.816   3.141  15.515 -2.7794 -1.3631  0.0376
 5280SOL    HW227303   3.844   3.079  15.644 -0.1657 -0.5888 -0.5888
 5281SOL     OW27304   3.869   1.698   9.443  0.1569 -0.2468  0.5824
 5281SOL    HW127305   3.776   1.683   9.422  0.1499  0.4217  0.1503
 5281SOL    HW227306   3.866   1.788   9.475  0.4928 -0.0273 -0.0125
 5282SOL     OW27307   3.724   0.881   2.069  0.1665 -0.3314 -0.0087
 5282SOL    HW127308   3.774   0.837   2.001 -1.3574 -0.5710 -0.9812
 5282SOL    HW227309   3.764   0.966   2.088 -0.5113  0.0920 -0.4362
 5283SOL     OW27310   0.778   0.927  12.366 -0.6678 -0.1529 -0.0906
 5283SOL    HW127311   0.808   0.950  12.278 -0.4719 -1.1182 -0.2706
 5283SOL    HW227312   0.844   0.972  12.419  0.0813 -1.2343 -0.0935
 5284SOL     OW27313   0.342   4.186   6.750 -0.1753  0.4678 -0.3444
 5284SOL    HW127314   0.252   4.152   6.744  1.0458 -2.4484 -2.1225
 5284SOL    HW227315   0.383   4.126   6.688  1.0017  0.6022  0.3199
 5285SOL     OW27316   0.082   0.344   4.133 -0.3621 -0.0815  0.0244
 5285SOL    HW127317   0.062   0.271   4.193 -0.5323 -1.1612 -1.3593
 5285SOL    HW227318   0.114   0.401   4.204  0.6653  1.4631 -1.6935
 5286SOL     OW27319   4.566   0.335   2.274 -0.2688 -0.0910  0.0034
 5286SOL    HW127320   4.540   0.393   2.203 -0.6114 -1.7977 -1.2792
 5286SOL    HW227321   4.533   0.252   2.238  0.9872 -0.0562 -1.2402
 5287SOL     OW27322   2.986   3.586   3.825  0.3836  0.0992 -0.5118
 5287SOL    HW127323   2.961   3.635   3.746  1.1147  0.4735 -0.5061
 5287SOL    HW227324   3.023   3.654   3.881  0.7296 -0.3146 -0.2370
 5288SOL     OW27325   2.044   3.186   5.864 -0.0407  0.1580 -0.2280
 5288SOL    HW127326   1.958   3.229   5.859  0.5366  1.2261 -0.9050
 5288SOL    HW227327   2.024   3.112   5.808  0.9861 -1.6764  1.8562
 5289SOL     OW27328   4.469   3.859   0.826 -0.2149 -0.3340  0.1521
 5289SOL    HW127329   4.485   3.869   0.732 -0.1229 -2.5408 -0.0749
 5289SOL    HW227330   4.495   3.770   0.850  0.0186 -0.2776  0.1125
 5290SOL     OW27331   0.642   1.744   5.450  0.0293 -0.6173  0.1876
 5290SOL    HW127332   0.638   1.688   5.528  0.5063 -1.8803 -0.6998
 5290SOL    HW227333   0.553   1.780   5.452  0.2747  0.0605 -1.1356
 5291SOL     OW27334   3.845   1.129   5.152  0.2802  0.6069  0.0248
 5291SOL    HW127335   3.924   1.163   5.193  1.2019 -1.4547 -0.0452
 5291SOL    HW227336   3.780   1.140   5.222  0.2518  1.7181 -0.1852
 5292SOL     OW27337   1.768   4.711   1.616  0.0492 -0.5909 -0.6427
 5292SOL    HW127338   1.776   4.636   1.556 -0.9317  0.6665 -2.3573
 5292SOL    HW227339   1.852   4.707   1.662 -0.8847  2.1487  1.3189
 5293SOL     OW27340   1.408   1.337  16.136 -0.2714 -0.0590  0.0326
 5293SOL    HW127341   1.425   1.396  16.210 -1.1476 -1.3335  1.2447
 5293SOL    HW227342   1.496   1.325  16.100 -0.5203  1.8313 -1.2197
 5294SOL     OW27343   1.315   1.590   1.831 -0.0954  0.7754  0.0744
 5294SOL    HW127344   1.272   1.504   1.829 -1.0904  1.2890 -0.7039
 5294SOL    HW227345   1.271   1.632   1.757  2.7132 -0.3353 -2.2280
 5295SOL     OW27346   1.781   0.169  13.001  0.4429 -0.2209  0.4044
 5295SOL    HW127347   1.725   0.112  12.948  1.1631 -1.2193  0.7259
 5295SOL    HW227348   1.829   0.107  13.055  1.7882  2.0296  1.7996
 5296SOL     OW27349   0.874   0.832   5.356  0.5064 -0.3252 -0.3724
 5296SOL    HW127350   0.955   0.833   5.408  1.2524  1.7239 -1.6069
 5296SOL    HW227351   0.903   0.877   5.277  3.0434  2.0523  1.9016
 5297SOL     OW27352   0.209   0.548   0.855 -0.7955 -0.0975  0.0231
 5297SOL    HW127353   0.173   0.495   0.926  0.3663  0.8761  1.3389
 5297SOL    HW227354   0.192   0.500   0.774 -0.6298 -1.9884  1.1305
 5298SOL     OW27355   2.871   4.179   4.582 -0.3784  0.4658 -0.1702
 5298SOL    HW127356   2.776   4.173   4.586 -0.4274  2.1055  1.3938
 5298SOL    HW227357   2.882   4.261   4.535  0.6844 -0.4510 -1.5077
 5299SOL     OW27358   0.347   2.407   4.311  0.1344 -0.1593 -0.2951
 5299SOL    HW127359   0.408   2.351   4.359 -0.1927  1.0928  1.5909
 5299SOL    HW227360   0.380   2.495   4.328 -2.9870  1.4073 -2.2460
 5300SOL     OW27361   4.692   2.424   7.911  0.4490  0.1864 -0.1379
 5300SOL    HW127362   0.005   2.392   7.830  1.4956  1.1264  0.0085
 5300SOL    HW227363   0.041   2.430   7.969  1.2273 -0.9531 -1.0391
 5301SOL     OW27364   4.059   1.720   4.578  0.4055  0.2153  0.2764
 5301SOL    HW127365   3.968   1.716   4.548 -0.1717  2.7448  1.8084
 5301SOL    HW227366   4.051   1.664   4.655 -0.5953  1.1096  0.8265
 5302SOL     OW27367   1.502   4.632  11.674  1.0389 -0.2554 -0.5584
 5302SOL    HW127368   1.456   4.667  11.750 -0.0111  1.4919 -1.9936
 5302SOL    HW227369   1.494   4.705  11.613 -1.3803 -1.6954 -1.9575
 5303SOL     OW27370   1.340   2.479   4.046 -0.1504 -0.1653  0.3140
 5303SOL    HW127371   1.366   2.528   4.124  1.8548  0.1241 -0.5454
 5303SOL    HW227372   1.297   2.546   3.993  0.6218  1.0620  1.2580
 5304SOL     OW27373   2.381   0.330  11.444 -0.4859  0.3876  0.6518
 5304SOL    HW127374   2.474   0.323  11.423 -0.3385 -1.3301  1.9161
 5304SOL    HW227375   2.388   0.404  11.504 -0.4695  0.0706  1.0423
 5305SOL     OW27376   0.222   3.939  17.174  0.0251 -0.1106  0.1144
 5305SOL    HW127377   0.267   3.944  17.090  1.3186 -0.1522  0.7956
 5305SOL    HW227378   0.190   4.028  17.189  0.6063  0.0519  0.4246
 5306SOL     OW27379   0.628   0.186   3.010 -0.9002 -0.1452  0.1670
 5306SOL    HW127380   0.565   0.184   2.938 -2.4084  2.6713  1.3998
 5306SOL    HW227381   0.574   0.242   3.066  1.8223  1.2695  1.4020
 5307SOL     OW27382   3.209   3.672   9.741  0.4369 -0.3424 -0.2997
 5307SOL    HW127383   3.194   3.690   9.648  0.6528 -3.1230 -0.8569
 5307SOL    HW227384   3.289   3.620   9.738  0.4306 -0.5040  2.2406
 5308SOL     OW27385   3.105   0.155   1.580 -0.4526 -0.4876 -0.3905
 5308SOL    HW127386   3.039   0.197   1.635 -2.5579 -1.2995 -2.3334
 5308SOL    HW227387   3.189   0.176   1.621 -1.4086 -0.4968  1.6015
 5309SOL     OW27388   2.906   2.352   4.101 -0.1705 -0.1157  0.1530
 5309SOL    HW127389   2.950   2.292   4.040 -1.1167 -0.9473  0.2770
 5309SOL    HW227390   2.839   2.292   4.135  1.9165 -0.5126  3.5809
 5310SOL     OW27391   1.582   1.521   3.149 -0.1116  0.6474 -0.0312
 5310SOL    HW127392   1.674   1.547   3.156 -0.5830  2.3860 -0.1681
 5310SOL    HW227393   1.601   1.440   3.102 -2.5948  0.0644 -0.0658
 5311SOL     OW27394   2.390   2.887   6.450 -0.0676 -0.0585  0.0527
 5311SOL    HW127395   2.354   2.955   6.393  1.1768  1.3330  0.9165
 5311SOL    HW227396   2.473   2.931   6.469 -0.0674  0.9156 -2.1568
 5312SOL     OW27397   4.561   4.019  13.254  0.1700 -0.3154 -0.0099
 5312SOL    HW127398   4.524   3.999  13.168 -1.0597 -1.3971  0.7931
 5312SOL    HW227399   4.488   3.998  13.311  1.2874 -0.7042  1.2830
 5313SOL     OW27400   0.002   4.586   1.206 -0.0148  0.2296 -0.9107
 5313SOL    HW127401   0.045   4.569   1.290  0.1366 -0.9954 -1.2297
 5313SOL    HW227402   4.715   4.496   1.177 -0.7898 -0.1401  0.5911
 5314SOL     OW27403   2.779   3.693   7.401  0.0097 -0.0464 -0.0609
 5314SOL    HW127404   2.788   3.786   7.381  2.6257 -0.2692 -0.0017
 5314SOL    HW227405   2.728   3.657   7.328 -0.6144 -1.4509  1.0497
 5315SOL     OW27406   1.356   1.800   6.432 -0.1345  0.2928  0.2091
 5315SOL    HW127407   1.403   1.729   6.388 -0.7209 -1.3350  2.2061
 5315SOL    HW227408   1.273   1.790   6.385 -0.3875  0.8493  0.5391
 5316SOL     OW27409   0.048   2.975   8.580 -0.0051 -0.1371 -0.0775
 5316SOL    HW127410   0.104   2.911   8.623  0.4019 -0.1752 -0.6662
 5316SOL    HW227411   0.093   3.056   8.604  0.5379 -0.4478 -0.0613
 5317SOL     OW27412   2.989   0.828   3.859 -0.0824  0.5543  0.2667
 5317SOL    HW127413   3.048   0.886   3.811  0.0636  1.2791  1.3121
 5317SOL    HW227414   2.907   0.870   3.833  0.0541  0.8196  0.2651
 5318SOL     OW27415   0.311   0.175   6.873 -0.1083 -0.5063 -0.1073
 5318SOL    HW127416   0.355   0.250   6.833 -0.4484 -0.9600 -1.3498
 5318SOL    HW227417   0.379   0.108   6.879  2.5698  1.9553 -2.9397
 5319SOL     OW27418   3.370   2.921   0.513 -0.4161  0.1666  0.1310
 5319SOL    HW127419   3.370   2.829   0.541  2.1097 -0.4204 -1.7342
 5319SOL    HW227420   3.280   2.934   0.483 -0.6132 -1.6942 -0.0779
 5320SOL     OW27421   2.185   4.612   2.076  0.1647  0.2702  0.1901
 5320SOL    HW127422   2.220   4.528   2.106 -1.1790 -0.1045  0.7113
 5320SOL    HW227423   2.268   4.658   2.065  0.7912 -0.5356  1.6712
 5321SOL     OW27424   2.728   3.065   1.940 -0.8989  0.0692 -0.1523
 5321SOL    HW127425   2.731   2.986   1.888  0.0377 -0.0347  0.0560
 5321SOL    HW227426   2.819   3.095   1.948 -0.7980 -0.8456  2.0749
 5322SOL     OW27427   1.488   0.029   3.641 -0.2502  0.6182  0.0869
 5322SOL    HW127428   1.452   0.027   3.729  1.1211 -0.9552  0.6282
 5322SOL    HW227429   1.486   0.122   3.621  0.4437  0.5597 -0.2761
 5323SOL     OW27430   0.003   3.988   1.732  0.6180  0.0389 -0.0338
 5323SOL    HW127431   4.714   3.972   1.639 -4.0540 -1.9093  1.1105
 5323SOL    HW227432   4.664   4.056   1.741  1.8748  1.3276 -0.5588
 5324SOL     OW27433   2.997   2.666   2.010  0.5471 -0.0025  0.5855
 5324SOL    HW127434   3.087   2.668   1.975 -0.3014 -1.4415 -1.7202
 5324SOL    HW227435   2.976   2.573   2.007 -0.6511  0.2427  1.5837
 5325SOL     OW27436   1.259   1.127  17.035 -0.5516  0.3774  0.4318
 5325SOL    HW127437   1.235   1.105  17.125 -0.2947  1.5758  0.8046
 5325SOL    HW227438   1.239   1.047  16.987  0.5711 -0.4361  1.3039
 5326SOL     OW27439   3.141   2.698   1.311 -0.4049  0.0005 -0.0485
 5326SOL    HW127440   3.137   2.746   1.228  2.7775 -3.1672 -2.0408
 5326SOL    HW227441   3.147   2.611   1.271  0.0318 -0.7606  1.6815
 5327SOL     OW27442   1.658   1.511   8.547  0.1059 -0.6830 -0.3494
 5327SOL    HW127443   1.720   1.583   8.542  0.2249 -0.6475  1.5673
 5327SOL    HW227444   1.712   1.435   8.570  1.1903  1.1104  2.9518
 5328SOL     OW27445   4.217   3.231   3.183 -0.8064 -0.3348  0.6443
 5328SOL    HW127446   4.127   3.219   3.154 -0.5244 -0.0273 -0.3501
 5328SOL    HW227447   4.216   3.149   3.232  0.6218 -1.4650 -1.2254
 5329SOL     OW27448   3.263   0.472   6.582 -0.0707  0.0833  0.1599
 5329SOL    HW127449   3.351   0.489   6.548 -0.7875 -0.4558 -1.9488
 5329SOL    HW227450   3.244   0.566   6.580 -3.1548 -0.4697  3.0352
 5330SOL     OW27451   4.294   1.590   1.670  0.2142  0.3612 -0.1036
 5330SOL    HW127452   4.210   1.615   1.708 -1.1017 -4.5595  0.2447
 5330SOL    HW227453   4.322   1.539   1.746  1.2343  1.6605  0.3815
 5331SOL     OW27454   1.489   0.242   5.712  0.1692  0.0667 -0.3488
 5331SOL    HW127455   1.409   0.201   5.745  0.7881 -0.1719  0.8605
 5331SOL    HW227456   1.557   0.178   5.735  0.2377  0.0567 -0.5870
 5332SOL     OW27457   3.251   1.478  13.387 -0.5841  0.0084  0.5940
 5332SOL    HW127458   3.227   1.565  13.419  1.8155  1.2809 -1.0541
 5332SOL    HW227459   3.172   1.456  13.337  0.0264  1.4563 -1.0098
 5333SOL     OW27460   1.778   4.199   3.548  0.0245 -0.0253 -0.3467
 5333SOL    HW127461   1.857   4.196   3.493  0.1401  3.4247 -0.3803
 5333SOL    HW227462   1.715   4.212   3.477  0.8027 -2.1245 -1.4060
 5334SOL     OW27463   1.070   1.638   5.565  0.6924  0.3702 -0.2117
 5334SOL    HW127464   1.086   1.690   5.644  0.5449 -0.3100  0.2731
 5334SOL    HW227465   1.014   1.572   5.607  0.8125  1.2728  1.3911
 5335SOL     OW27466   2.884   3.347   3.721  0.5272  0.0227  0.2395
 5335SOL    HW127467   2.824   3.333   3.794 -1.3342 -1.2217 -1.5392
 5335SOL    HW227468   2.930   3.421   3.759  0.0605  0.1532  0.5441
 5336SOL     OW27469   1.493   1.829  12.801 -0.5751  0.2214  0.2650
 5336SOL    HW127470   1.587   1.817  12.816 -0.4407  0.4605 -0.3875
 5336SOL    HW227471   1.486   1.915  12.761  0.0331  0.8124  1.4301
 5337SOL     OW27472   0.931   2.832   8.952  0.4636 -0.0256  0.7097
 5337SOL    HW127473   0.837   2.851   8.951  0.7243  1.1746 -2.7272
 5337SOL    HW227474   0.945   2.840   8.857 -0.6912 -1.3656  0.4242
 5338SOL     OW27475   2.927   0.989   9.748  0.1344  0.5622 -0.3284
 5338SOL    HW127476   2.859   1.048   9.781 -0.6240 -0.5488  0.0741
 5338SOL    HW227477   2.983   0.958   9.818  0.3582 -1.5912 -1.4671
 5339SOL     OW27478   3.402   1.376   8.094  0.1413  0.5591  0.2458
 5339SOL    HW127479   3.329   1.396   8.035 -0.1700 -1.1561  0.0638
 5339SOL    HW227480   3.464   1.449   8.085  0.9183 -0.1186  0.1859
 5340SOL     OW27481   3.741   0.606  10.998 -0.4536  0.0587 -0.3308
 5340SOL    HW127482   3.752   0.561  10.915 -5.1485 -3.1445  0.7850
 5340SOL    HW227483   3.712   0.694  10.978  1.1540  0.0544 -2.6407
 5341SOL     OW27484   2.777   2.761  11.223  0.5533 -0.1391  0.5895
 5341SOL    HW127485   2.768   2.674  11.263  2.3453 -0.2301  0.8056
 5341SOL    HW227486   2.738   2.748  11.136 -3.3109  0.4469  2.2577
 5342SOL     OW27487   2.179   2.791  12.878 -0.4390  0.0681  0.2372
 5342SOL    HW127488   2.089   2.774  12.851 -0.0514  0.0784 -1.0509
 5342SOL    HW227489   2.220   2.705  12.891 -0.2239  0.2713  0.9121
 5343SOL     OW27490   1.288   4.267   5.280  0.0162  0.1855 -0.0147
 5343SOL    HW127491   1.282   4.301   5.190  1.4651  1.3170  0.3222
 5343SOL    HW227492   1.362   4.206   5.276 -0.3246 -0.1554 -1.0549
 5344SOL     OW27493   4.450   4.205   8.190  0.3908 -0.2622 -0.1260
 5344SOL    HW127494   4.450   4.110   8.205  1.2306  0.0201  1.6818
 5344SOL    HW227495   4.420   4.241   8.274  0.2726 -0.6871  0.0165
 5345SOL     OW27496   0.121   0.477   4.390 -0.6408 -0.3182 -0.2120
 5345SOL    HW127497   0.165   0.416   4.449 -2.7516  0.0562  1.7384
 5345SOL    HW227498   0.061   0.509   4.457 -0.0701 -1.0418  0.6531
 5346SOL     OW27499   2.054   1.076   3.110  0.6348 -0.6013  0.5020
 5346SOL    HW127500   2.078   0.987   3.138 -0.9436 -0.8905  0.9949
 5346SOL    HW227501   2.110   1.128   3.167  0.5782 -0.0298  0.0241
 5347SOL     OW27502   1.832   1.320   6.602  0.1588 -0.4850  0.0526
 5347SOL    HW127503   1.909   1.296   6.552  0.8821 -1.1364  1.4693
 5347SOL    HW227504   1.770   1.353   6.537  1.7915  0.9024 -0.7958
 5348SOL     OW27505   2.033   2.758  14.563  0.3128  0.2413 -0.0184
 5348SOL    HW127506   1.996   2.796  14.643  2.4261  1.7078  0.2556
 5348SOL    HW227507   2.125   2.760  14.591  1.2625  2.4623 -3.3206
 5349SOL     OW27508   4.593   1.529   9.433  0.3795  0.0869 -0.2244
 5349SOL    HW127509   4.638   1.571   9.506 -0.7474 -0.1534  0.6080
 5349SOL    HW227510   4.504   1.530   9.468  0.5854  1.7205  0.2334
 5350SOL     OW27511   1.921   1.454   4.718  0.0492 -0.0854  0.1218
 5350SOL    HW127512   1.986   1.463   4.788  1.2580  2.1290 -1.2833
 5350SOL    HW227513   1.837   1.463   4.763  0.2020  0.5024  0.2924
 5351SOL     OW27514   4.106   2.300   5.344  0.3427  0.1799 -0.0713
 5351SOL    HW127515   4.097   2.385   5.301 -0.7956 -0.3736 -0.9255
 5351SOL    HW227516   4.115   2.253   5.261 -0.8224  0.0205 -0.1045
 5352SOL     OW27517   3.417   0.345  16.237  0.3915 -0.6031 -0.2487
 5352SOL    HW127518   3.482   0.406  16.271  0.9516 -2.4505  1.9785
 5352SOL    HW227519   3.347   0.376  16.295  1.5257 -1.0004  1.3197
 5353SOL     OW27520   2.286   1.098   6.006  0.6481  0.4804 -0.1858
 5353SOL    HW127521   2.244   1.071   6.088  0.3599 -0.3610 -0.6096
 5353SOL    HW227522   2.368   1.138   6.036 -0.1752  2.5844 -0.7607
 5354SOL     OW27523   3.476   2.496   7.790  0.3584  0.4132 -0.6874
 5354SOL    HW127524   3.562   2.532   7.810  0.7552 -0.3881 -0.9505
 5354SOL    HW227525   3.421   2.556   7.840 -0.7223  0.3936 -1.8477
 5355SOL     OW27526   4.336   1.516   5.130 -0.1279 -0.1236 -0.0071
 5355SOL    HW127527   4.242   1.528   5.139 -0.3551 -1.8485 -0.0062
 5355SOL    HW227528   4.344   1.434   5.080  2.3510  0.9015 -1.2639
 5356SOL     OW27529   0.508   1.817  11.367 -0.2613 -0.0327 -0.2871
 5356SOL    HW127530   0.531   1.897  11.414  2.3539  0.2294 -1.9738
 5356SOL    HW227531   0.473   1.769  11.443 -1.3448 -0.0760 -0.8183
 5357SOL     OW27532   3.105   2.844   7.777  0.3880 -0.2522  0.5201
 5357SOL    HW127533   3.069   2.888   7.854  1.1547  1.3623 -0.0250
 5357SOL    HW227534   3.149   2.766   7.810 -0.6808 -1.6097 -1.2161
 5358SOL     OW27535   0.515   1.842   7.638  0.6068  0.1858  0.0233
 5358SOL    HW127536   0.453   1.858   7.710 -0.5680 -0.9914 -0.7216
 5358SOL    HW227537   0.562   1.926   7.635  0.9009  0.0507  0.7785
 5359SOL     OW27538   2.587   4.276  10.540  0.0526  0.5261  0.1329
 5359SOL    HW127539   2.588   4.280  10.635  0.4199  1.6442  0.0922
 5359SOL    HW227540   2.537   4.196  10.526 -0.0248  0.1953  2.3070
 5360SOL     OW27541   3.431   2.589   6.131  0.3119 -0.0719 -0.3247
 5360SOL    HW127542   3.512   2.557   6.171  1.9957  2.1069 -1.9794
 5360SOL    HW227543   3.399   2.508   6.092  0.5220  0.0192 -0.6937
 5361SOL     OW27544   2.258   3.463  15.991  0.3995  0.1011 -0.6109
 5361SOL    HW127545   2.334   3.456  15.932 -0.5097 -2.2531 -1.5035
 5361SOL    HW227546   2.191   3.472  15.923  0.5610  0.5201 -0.7176
 5362SOL     OW27547   0.609   1.455   7.541 -0.0210 -0.2006 -0.0404
 5362SOL    HW127548   0.676   1.398   7.577  1.4938  2.5184  1.4734
 5362SOL    HW227549   0.554   1.475   7.616  0.8837 -1.6905  1.0042
 5363SOL     OW27550   2.290   1.418   4.431  0.0342 -0.1349 -0.9604
 5363SOL    HW127551   2.297   1.370   4.514  1.6979 -0.6856 -1.4174
 5363SOL    HW227552   2.300   1.349   4.365 -1.0052  0.9181 -2.2352
 5364SOL     OW27553   2.157   1.128   9.546  0.4694 -0.0959 -0.1542
 5364SOL    HW127554   2.107   1.200   9.586  0.7284  1.3445 -2.4324
 5364SOL    HW227555   2.102   1.055   9.575 -0.7391  1.0497  0.4255
 5365SOL     OW27556   0.623   1.479  16.417 -0.2285 -0.0035 -0.3837
 5365SOL    HW127557   0.658   1.426  16.346  2.7558  0.7388  0.5378
 5365SOL    HW227558   0.568   1.537  16.365  0.2648  1.1114  0.3460
 5366SOL     OW27559   1.123   3.731   5.228  0.3469 -0.3442  0.0341
 5366SOL    HW127560   1.176   3.806   5.201  0.8333 -0.7833 -0.2553
 5366SOL    HW227561   1.034   3.763   5.215  0.2419 -0.3492  0.7633
 5367SOL     OW27562   3.241   2.034   7.456  0.2352 -0.0563  0.0546
 5367SOL    HW127563   3.309   2.016   7.391  0.6380  1.4623  0.0528
 5367SOL    HW227564   3.292   2.041   7.536  0.5284 -0.4740 -0.0962
 5368SOL     OW27565   1.375   2.356   5.528  0.3527  0.0038 -0.0533
 5368SOL    HW127566   1.354   2.425   5.591  2.5232  1.1759 -0.6481
 5368SOL    HW227567   1.384   2.396   5.442 -0.0618  2.1840  0.9229
 5369SOL     OW27568   4.427   0.516   4.605 -0.3205 -0.1506 -0.0600
 5369SOL    HW127569   4.342   0.555   4.583 -0.4142  0.8322  2.0267
 5369SOL    HW227570   4.456   0.579   4.672 -0.7986 -0.7427  0.7017
 5370SOL     OW27571   3.040   0.260   7.857 -0.0554 -0.4506 -0.0917
 5370SOL    HW127572   3.081   0.347   7.863  1.9185 -1.3857 -0.1772
 5370SOL    HW227573   3.086   0.224   7.781 -1.9882  1.5470 -2.1907
 5371SOL     OW27574   3.511   3.258   5.614  0.2095 -0.0174 -0.2605
 5371SOL    HW127575   3.560   3.335   5.642 -0.3332  0.3988 -0.4557
 5371SOL    HW227576   3.496   3.281   5.523  0.1691 -0.2201 -0.3062
 5372SOL     OW27577   0.243   0.401   7.267 -0.9172 -0.1144 -0.3738
 5372SOL    HW127578   0.161   0.410   7.315 -1.4746  0.4006 -1.4319
 5372SOL    HW227579   0.229   0.319   7.221 -2.2367 -0.9893  1.6205
 5373SOL     OW27580   3.303   3.474  15.806 -0.6847 -0.0343 -0.3303
 5373SOL    HW127581   3.265   3.486  15.894  1.9314 -0.7574  0.9096
 5373SOL    HW227582   3.299   3.558  15.762 -0.3271 -0.0598 -0.4070
 5374SOL     OW27583   1.409   0.573   7.508 -0.8944  0.3443  0.5224
 5374SOL    HW127584   1.428   0.546   7.598  0.8106  0.8066  0.3135
 5374SOL    HW227585   1.493   0.610   7.478  0.1459 -1.4289  1.2601
 5375SOL     OW27586   3.876   2.252   7.135 -0.2584  0.0387  0.1911
 5375SOL    HW127587   3.949   2.256   7.197 -0.9412 -2.2965  1.1382
 5375SOL    HW227588   3.913   2.311   7.069 -2.4409  2.4690  1.1215
 5376SOL     OW27589   3.495   4.654   8.655  0.3335  0.5851  0.2871
 5376SOL    HW127590   3.553   4.693   8.721  1.7221  1.5382 -1.5144
 5376SOL    HW227591   3.524   4.711   8.584  0.8647  1.1259  0.9411
 5377SOL     OW27592   0.315   1.891   7.826  0.2579  0.4632  0.0190
 5377SOL    HW127593   0.240   1.832   7.823 -0.9938  2.0036  0.9890
 5377SOL    HW227594   0.268   1.974   7.837 -2.9321 -1.5416  1.5016
 5378SOL     OW27595   2.405   4.200   7.692  0.2744 -0.0546 -0.2202
 5378SOL    HW127596   2.452   4.270   7.648 -1.3186  1.5498  0.6312
 5378SOL    HW227597   2.474   4.138   7.715  0.2829 -0.0046 -0.1101
 5379SOL     OW27598   2.018   3.569   2.472 -0.1958  0.5487 -0.3046
 5379SOL    HW127599   2.032   3.660   2.447  0.4412  0.4114 -0.4595
 5379SOL    HW227600   1.968   3.539   2.397  2.5773  3.6709 -3.4014
 5380SOL     OW27601   3.788   3.397   8.863  0.2168  0.4874  0.2980
 5380SOL    HW127602   3.733   3.326   8.828  0.6228 -0.8276  2.3288
 5380SOL    HW227603   3.725   3.469   8.858  0.3671  0.6454  0.7551
 5381SOL     OW27604   1.176   1.599   8.593  0.0133  0.6039  0.0593
 5381SOL    HW127605   1.229   1.670   8.557  1.9908 -0.9980 -0.2294
 5381SOL    HW227606   1.199   1.598   8.686  1.1227  1.8118 -0.2151
 5382SOL     OW27607   3.864   2.721   5.233  0.0106 -0.2352 -0.9711
 5382SOL    HW127608   3.924   2.697   5.303  0.3765  1.7701 -0.5999
 5382SOL    HW227609   3.881   2.816   5.234 -1.2306 -0.0204 -0.2527
 5383SOL     OW27610   3.409   4.557   8.323  0.0677  0.0452  0.3239
 5383SOL    HW127611   3.358   4.637   8.335  1.1186  1.1463 -2.4831
 5383SOL    HW227612   3.375   4.492   8.384 -2.5569  1.3119  0.2308
 5384SOL     OW27613   4.153   2.285   6.960  0.2587  0.2762  0.3498
 5384SOL    HW127614   4.082   2.321   6.906 -0.0345 -1.3872 -0.3551
 5384SOL    HW227615   4.217   2.354   6.977  1.1043 -1.0709  2.5406
 5385SOL     OW27616   0.607   4.126   5.818  0.3919  0.4830 -0.4919
 5385SOL    HW127617   0.516   4.158   5.817  1.3132  3.1343  0.0430
 5385SOL    HW227618   0.651   4.150   5.737  1.9727 -0.6832  0.0314
 5386SOL     OW27619   0.423   3.733  12.048 -0.2380  0.1667  0.0865
 5386SOL    HW127620   0.391   3.765  12.132 -0.7651 -0.8747  0.2821
 5386SOL    HW227621   0.513   3.716  12.076  0.0158  1.0137 -0.2235
 5387SOL     OW27622   1.790   2.797   1.294  0.6211  0.7370 -0.6032
 5387SOL    HW127623   1.701   2.768   1.311  2.4438 -2.8159  2.9951
 5387SOL    HW227624   1.829   2.775   1.378 -1.5647  0.3289  0.3030
 5388SOL     OW27625   4.594   2.118   6.533  0.4219 -0.0119 -0.1699
 5388SOL    HW127626   4.659   2.188   6.527 -0.8681  1.0962 -0.9492
 5388SOL    HW227627   4.649   2.045   6.562 -1.2639 -1.7068 -1.2213
 5389SOL     OW27628   1.352   1.681   8.272  0.0586 -0.0330  0.0901
 5389SOL    HW127629   1.374   1.588   8.263  1.5763  0.2131  1.2792
 5389SOL    HW227630   1.394   1.704   8.355  0.9392 -1.1322 -0.0562
 5390SOL     OW27631   0.772   0.851   7.589  0.0180 -0.6462 -0.0716
 5390SOL    HW127632   0.845   0.856   7.527 -0.0177  0.3874 -0.0373
 5390SOL    HW227633   0.810   0.874   7.673 -0.3326 -0.0774 -0.0699
 5391SOL     OW27634   2.446   1.188   5.463 -0.7959  0.2058 -1.1029
 5391SOL    HW127635   2.457   1.153   5.551  0.5204  1.7315 -0.6518
 5391SOL    HW227636   2.522   1.147   5.423 -0.0407  0.9026 -0.3727
 5392SOL     OW27637   1.214   2.202   9.140  0.0642 -0.1195 -0.0897
 5392SOL    HW127638   1.241   2.241   9.057  2.5182 -1.3294  0.1546
 5392SOL    HW227639   1.123   2.223   9.161 -0.2909 -0.7226 -1.0445
 5393SOL     OW27640   4.621   3.089   2.926 -0.4847 -0.0713 -0.2836
 5393SOL    HW127641   4.565   3.030   2.976  0.6519 -1.6944 -0.9390
 5393SOL    HW227642   4.665   3.131   3.001 -1.8388  1.6220 -0.4371
 5394SOL     OW27643   4.455   2.774   3.533  0.2936  0.5967  0.1114
 5394SOL    HW127644   4.491   2.718   3.465  1.4881 -0.2430  1.4337
 5394SOL    HW227645   4.371   2.731   3.545 -0.0156  0.6146 -2.1273
 5395SOL     OW27646   3.170   3.329   8.511  0.3372 -0.2765  0.0103
 5395SOL    HW127647   3.142   3.420   8.519  1.7744  0.2201 -0.6277
 5395SOL    HW227648   3.262   3.355   8.514  0.4120 -0.2844 -1.6764
 5396SOL     OW27649   4.244   0.065   9.259 -0.5248  0.6142 -0.4494
 5396SOL    HW127650   4.205   4.712   9.223  0.1397  0.0687  0.0479
 5396SOL    HW227651   4.193   0.067   9.340  0.1082  3.4812 -0.0935
 5397SOL     OW27652   4.551   1.144   4.806 -0.1236 -0.2863 -0.2385
 5397SOL    HW127653   4.624   1.088   4.832  1.4947  1.7763 -0.3039
 5397SOL    HW227654   4.592   1.197   4.737 -1.8369  2.8384  1.1446
 5398SOL     OW27655   2.146   3.465  17.176 -0.3465 -0.5874  0.0127
 5398SOL    HW127656   2.121   3.553  17.148  1.2270  0.0647  0.6437
 5398SOL    HW227657   2.215   3.441  17.114 -0.5772 -1.5538  0.1382
 5399SOL     OW27658   4.324   0.596   7.487 -0.0331  0.0355 -0.7205
 5399SOL    HW127659   4.267   0.625   7.558 -0.2909  0.1443 -0.9766
 5399SOL    HW227660   4.311   0.663   7.420  2.9613  0.5372 -0.8224
 5400SOL     OW27661   0.705   2.957   4.980  0.2754 -0.4372 -0.5183
 5400SOL    HW127662   0.685   2.873   5.023  0.5864 -0.1352  0.2153
 5400SOL    HW227663   0.800   2.961   4.975  0.2960 -0.4182 -0.1394
 5401SOL     OW27664   0.404   0.989   2.319 -0.2988  0.5024 -0.3569
 5401SOL    HW127665   0.349   1.004   2.242 -0.5539  0.7831 -0.1218
 5401SOL    HW227666   0.488   1.026   2.292  0.9321 -1.4123  0.8044
 5402SOL     OW27667   3.416   3.876   7.883  0.0290 -0.0222  0.0699
 5402SOL    HW127668   3.462   3.960   7.884  0.8404 -0.4798  1.5094
 5402SOL    HW227669   3.358   3.887   7.808  0.3480 -0.6742 -0.2770
 5403SOL     OW27670   2.118   3.719  17.069  0.7580  0.0176  0.1468
 5403SOL    HW127671   2.115   3.814  17.077 -0.2472  0.0746 -0.9707
 5403SOL    HW227672   2.175   3.706  16.993 -0.2728 -1.6754 -0.3488
 5404SOL     OW27673   0.583   2.436   2.533  0.1019  0.4017 -0.3005
 5404SOL    HW127674   0.654   2.386   2.492  1.8095  0.8457  2.1273
 5404SOL    HW227675   0.633   2.517   2.544  0.9085  0.1462 -2.0643
 5405SOL     OW27676   0.253   3.428   5.511 -0.2860 -0.2275 -0.1588
 5405SOL    HW127677   0.228   3.423   5.419 -1.6595 -0.4827  0.2328
 5405SOL    HW227678   0.169   3.404   5.550 -0.8154  2.0873  0.0795
 5406SOL     OW27679   2.420   3.673   4.214  0.7066 -0.0954  0.0877
 5406SOL    HW127680   2.477   3.676   4.137 -0.6976  2.6361 -0.8630
 5406SOL    HW227681   2.339   3.638   4.179  0.6483 -0.4348  0.5775
 5407SOL     OW27682   1.658   2.031  13.838  0.3628  0.1564 -0.2829
 5407SOL    HW127683   1.737   2.031  13.892  0.2234 -2.6016 -0.0690
 5407SOL    HW227684   1.623   2.105  13.888 -0.4302  1.1007 -2.2368
 5408SOL     OW27685   0.236   3.762  10.559  0.4233  0.6212 -0.2379
 5408SOL    HW127686   0.286   3.788  10.481  0.0029  0.1215 -0.6697
 5408SOL    HW227687   0.146   3.761  10.525 -0.0265  0.9077  0.9528
 5409SOL     OW27688   2.486   2.431  11.215  0.5616 -0.2818 -0.0292
 5409SOL    HW127689   2.398   2.415  11.182  0.5123 -1.3312  0.6110
 5409SOL    HW227690   2.541   2.386  11.151  0.2158  0.1005 -0.5917
 5410SOL     OW27691   3.372   3.176   2.597  0.2453  0.5199 -0.3601
 5410SOL    HW127692   3.316   3.193   2.672  1.6645 -0.0977  0.8530
 5410SOL    HW227693   3.331   3.229   2.529 -0.0888  0.2538 -0.3615
 5411SOL     OW27694   1.252   1.477   8.865  0.3131 -0.3262  0.1671
 5411SOL    HW127695   1.339   1.516   8.874  0.2103  0.1299 -0.7573
 5411SOL    HW227696   1.263   1.416   8.792 -0.9619 -1.0540  0.5820
 5412SOL     OW27697   0.545   1.810   1.841  0.0549  0.5409  0.3127
 5412SOL    HW127698   0.620   1.759   1.871  0.7984  0.6412 -1.3546
 5412SOL    HW227699   0.575   1.898   1.864 -0.9132  1.5205 -2.1329
 5413SOL     OW27700   0.389   2.453   3.527 -1.0011 -0.0574 -0.0611
 5413SOL    HW127701   0.415   2.391   3.596 -3.1316 -1.4098 -0.4729
 5413SOL    HW227702   0.398   2.398   3.449  0.4546  0.9957 -0.6399
 5414SOL     OW27703   4.109   0.673   1.991 -0.0752  0.2156 -0.0580
 5414SOL    HW127704   4.080   0.684   2.081  1.5974  0.2721  0.4778
 5414SOL    HW227705   4.041   0.696   1.928  0.3197 -0.0514 -0.5795
 5415SOL     OW27706   2.861   2.569   7.861  0.4051 -0.0604 -0.8597
 5415SOL    HW127707   2.891   2.525   7.782 -1.0413 -0.6542 -1.0802
 5415SOL    HW227708   2.918   2.527   7.926  0.7918  1.9554  0.1107
 5416SOL     OW27709   1.214   2.926  13.970  0.2958  0.2233  0.1531
 5416SOL    HW127710   1.150   2.856  13.977 -0.5583  1.2436  2.3700
 5416SOL    HW227711   1.298   2.882  13.982 -0.3360 -0.2386  2.7465
 5417SOL     OW27712   2.096   0.313   6.025  0.5897  0.1340  0.1096
 5417SOL    HW127713   2.127   0.304   6.116 -1.6712 -2.4366  0.6181
 5417SOL    HW227714   2.007   0.280   6.017  0.8256 -0.0420 -1.8029
 5418SOL     OW27715   0.255   3.178   9.896 -0.0618  0.0592  0.3360
 5418SOL    HW127716   0.223   3.149   9.982  0.7427 -1.0178  0.2806
 5418SOL    HW227717   0.346   3.205   9.905  0.1530 -1.0258  1.5096
 5419SOL     OW27718   1.248   0.680  10.854  0.1821  0.4714 -0.3711
 5419SOL    HW127719   1.248   0.741  10.928 -0.1163 -0.8746  0.7299
 5419SOL    HW227720   1.243   0.596  10.900 -0.7531  0.0085 -1.3335
 5420SOL     OW27721   3.055   4.088   6.280  1.0060  0.5113  0.1676
 5420SOL    HW127722   3.114   4.016   6.301  0.9910 -0.4547 -3.0551
 5420SOL    HW227723   3.083   4.146   6.351 -1.9101  1.7115  0.3414
 5421SOL     OW27724   0.650   4.390  14.689 -0.1954  0.0162  0.1254
 5421SOL    HW127725   0.711   4.464  14.689  0.9722 -0.9335  1.5891
 5421SOL    HW227726   0.591   4.408  14.616 -0.4609 -1.3026  0.0337
 5422SOL     OW27727   2.414   2.572   2.925 -0.1550 -0.3577  0.1171
 5422SOL    HW127728   2.327   2.611   2.921 -1.2003 -2.5254  1.4450
 5422SOL    HW227729   2.439   2.595   2.836  0.7402  0.1151  0.4886
 5423SOL     OW27730   3.208   3.990  10.954 -0.6147 -0.1756 -0.2314
 5423SOL    HW127731   3.160   3.908  10.967 -2.1508  0.1616 -3.8635
 5423SOL    HW227732   3.141   4.052  10.925 -0.5118  0.4784  0.9601
 5424SOL     OW27733   0.230   0.862   4.240 -0.4695 -0.4767 -0.1626
 5424SOL    HW127734   0.264   0.773   4.239  1.4139  0.2349  1.9470
 5424SOL    HW227735   0.151   0.858   4.186 -0.7323  0.2221  0.1578
 5425SOL     OW27736   3.898   1.683   5.330  0.0672 -0.1701  0.2977
 5425SOL    HW127737   3.900   1.630   5.411 -2.7408 -1.4269 -0.4452
 5425SOL    HW227738   3.844   1.754   5.364 -0.7299 -0.7706  0.2840
 5426SOL     OW27739   3.731   4.134   6.538  0.6199 -0.0344 -0.1097
 5426SOL    HW127740   3.641   4.104   6.543  0.1463  1.8008  2.0347
 5426SOL    HW227741   3.758   4.081   6.463  0.0564 -0.6670  0.1327
 5427SOL     OW27742   1.261   0.908   3.142 -0.4656  0.7689 -0.1474
 5427SOL    HW127743   1.169   0.926   3.161 -0.5885  0.0288 -0.0646
 5427SOL    HW227744   1.307   0.932   3.223 -3.2958  2.8881  0.8060
 5428SOL     OW27745   3.275   0.374  13.936 -0.1644 -0.1693  0.4472
 5428SOL    HW127746   3.185   0.373  13.970 -1.0147  0.1790 -1.7801
 5428SOL    HW227747   3.322   0.453  13.964 -1.0203 -0.6269  3.2327
 5429SOL     OW27748   3.966   1.491   2.788 -0.3722  0.0468  0.1561
 5429SOL    HW127749   3.941   1.398   2.784 -3.9325  1.0823 -1.3144
 5429SOL    HW227750   3.881   1.532   2.800  1.1881  2.9108  1.1530
 5430SOL     OW27751   4.686   3.071  17.393  0.5521  0.2293 -0.7289
 5430SOL    HW127752   4.648   3.008  17.453  0.7350 -0.5488 -1.4250
 5430SOL    HW227753   4.690   3.003  17.326 -0.5745 -2.5350  2.0221
 5431SOL     OW27754   0.220   0.880   7.914  0.1212  0.0702  0.5402
 5431SOL    HW127755   0.135   0.896   7.872  0.7810 -0.2636 -0.8965
 5431SOL    HW227756   0.280   0.844   7.850  0.8470  0.4784  0.9916
 5432SOL     OW27757   3.002   0.427   2.434 -0.7063  0.3872  0.3284
 5432SOL    HW127758   2.991   0.389   2.346  3.0923  3.3176 -1.3680
 5432SOL    HW227759   2.951   0.368   2.490  0.4502  2.0735  3.1508
 5433SOL     OW27760   3.424   1.005  14.498 -0.1323 -0.2129 -0.3644
 5433SOL    HW127761   3.433   1.028  14.590  0.2915 -1.0823 -0.1854
 5433SOL    HW227762   3.502   1.038  14.453  0.1461  0.5947  0.7373
 5434SOL     OW27763   3.905   2.381   0.131 -0.1401 -0.9289 -0.5875
 5434SOL    HW127764   3.972   2.445   0.156 -0.6616 -0.5172 -0.2299
 5434SOL    HW227765   3.967   2.310   0.115  0.7891 -0.6015  1.5501
 5435SOL     OW27766   2.552   4.213   8.903 -0.5232 -0.4225  0.0299
 5435SOL    HW127767   2.513   4.166   8.977  1.5312 -1.4276  0.4535
 5435SOL    HW227768   2.616   4.156   8.861 -0.9180 -0.8421 -0.0048
 5436SOL     OW27769   2.939   4.629   8.223  0.4241  0.0150 -0.0349
 5436SOL    HW127770   2.941   4.715   8.181  0.7161  0.0459  0.0385
 5436SOL    HW227771   3.032   4.612   8.205  0.4694 -0.2391  0.4630
 5437SOL     OW27772   3.007   3.238   5.548 -0.2818  0.0626  0.4249
 5437SOL    HW127773   3.001   3.258   5.454 -0.9225  1.7028  0.8113
 5437SOL    HW227774   2.945   3.165   5.552 -0.5707  0.2932  0.1821
 5438SOL     OW27775   0.537   3.998   9.620 -0.2479  0.1679  0.1669
 5438SOL    HW127776   0.466   4.061   9.631  0.9608  1.9715 -2.0932
 5438SOL    HW227777   0.580   4.041   9.545  0.2834 -0.5422  0.0689
 5439SOL     OW27778   0.667   1.487   8.768 -0.2285 -0.1193  0.9938
 5439SOL    HW127779   0.688   1.479   8.861 -0.5005  2.1890  1.2461
 5439SOL    HW227780   0.573   1.482   8.784 -0.6923  2.0218 -1.1622
 5440SOL     OW27781   2.580   4.601   1.189 -0.5892  0.2200  0.2162
 5440SOL    HW127782   2.584   4.651   1.270 -1.8529  0.1197  0.3346
 5440SOL    HW227783   2.653   4.541   1.207 -0.5125  0.2473  0.0036
 5441SOL     OW27784   4.523   3.059  15.983 -0.8636 -0.2062 -0.8503
 5441SOL    HW127785   4.492   2.974  16.011 -0.0516 -0.2955 -0.2016
 5441SOL    HW227786   4.529   3.034  15.891  0.2005 -0.8160 -0.6227
 5442SOL     OW27787   1.140   2.746   3.110  0.0105  0.1871  0.4430
 5442SOL    HW127788   1.092   2.827   3.094  0.1915  0.3542  0.7302
 5442SOL    HW227789   1.074   2.677   3.111  2.5015 -2.2062  0.3029
 5443SOL     OW27790   2.681   0.718  15.105  0.5332 -0.4028  0.4713
 5443SOL    HW127791   2.722   0.801  15.128 -0.7664  0.7728 -1.4841
 5443SOL    HW227792   2.594   0.743  15.073  1.0402  0.2713 -0.3771
 5444SOL     OW27793   1.496   4.203   6.066 -0.7818 -0.3198  0.2504
 5444SOL    HW127794   1.526   4.217   6.156  2.4666  0.4206 -0.9382
 5444SOL    HW227795   1.468   4.290   6.036  0.0777  0.1312  0.7459
 5445SOL     OW27796   4.240   0.588   8.063  0.1246 -0.3235 -0.1905
 5445SOL    HW127797   4.208   0.584   7.973  2.3277 -0.7880 -0.9560
 5445SOL    HW227798   4.287   0.505   8.070 -0.8459 -0.8239  0.4027
 5446SOL     OW27799   1.788   2.267   9.890  0.4137 -0.0808  0.4436
 5446SOL    HW127800   1.870   2.238   9.849 -1.3184 -3.0891 -0.8393
 5446SOL    HW227801   1.797   2.362   9.896  0.5544 -0.0983  0.5035
 5447SOL     OW27802   2.432   1.418   4.071  0.3410 -0.6478 -0.2556
 5447SOL    HW127803   2.462   1.328   4.089  1.6643 -0.6147 -2.3514
 5447SOL    HW227804   2.497   1.448   4.135  0.7939 -0.2289 -0.9187
 5448SOL     OW27805   4.704   1.205   5.858  0.4305  0.1917  0.7504
 5448SOL    HW127806   0.040   1.159   5.802 -0.6036  2.1321 -2.0222
 5448SOL    HW227807   0.036   1.271   5.896  0.4134  0.7735 -0.2340
 5449SOL     OW27808   4.190   2.003   8.869 -0.3419  0.2948 -0.2143
 5449SOL    HW127809   4.282   2.002   8.897 -0.5796 -1.4663  0.5330
 5449SOL    HW227810   4.154   1.924   8.909 -2.7520  1.8566  0.7091
 5450SOL     OW27811   1.753   0.793   6.607 -0.0574 -0.4150  0.8456
 5450SOL    HW127812   1.813   0.753   6.670 -0.5249 -3.3242 -0.5188
 5450SOL    HW227813   1.688   0.722   6.600  0.2413 -0.4671 -1.1337
 5451SOL     OW27814   1.354   2.369   2.756  0.0595  0.3030  0.3767
 5451SOL    HW127815   1.413   2.302   2.721  0.2653 -0.3992  2.0906
 5451SOL    HW227816   1.276   2.347   2.704  0.5182  0.9035 -0.5724
 5452SOL     OW27817   2.015   4.408   2.285 -0.3090  0.4968  0.1581
 5452SOL    HW127818   1.963   4.488   2.292  1.1236  1.5196 -0.9404
 5452SOL    HW227819   1.978   4.369   2.206 -1.8083  0.7018  0.7633
 5453SOL     OW27820   4.234   0.471   8.961  0.3295  0.4334 -0.4008
 5453SOL    HW127821   4.171   0.414   8.916  0.7573  0.8582 -1.5281
 5453SOL    HW227822   4.190   0.462   9.046  1.3203  0.4709  0.1220
 5454SOL     OW27823   0.706   4.702   6.503  0.2672 -0.3612 -0.4557
 5454SOL    HW127824   0.644   0.035   6.545  1.1398 -0.3974  0.8958
 5454SOL    HW227825   0.663   4.689   6.419 -0.8720 -1.0667  0.2296
 5455SOL     OW27826   0.832   4.244   0.489 -0.1182 -0.1309 -0.0520
 5455SOL    HW127827   0.864   4.295   0.564 -0.0488 -2.1893  1.3100
 5455SOL    HW227828   0.850   4.314   0.427  0.7378  0.3983  0.7919
 5456SOL     OW27829   0.971   0.377   1.908 -0.3310  0.1031  0.8100
 5456SOL    HW127830   0.903   0.331   1.958  0.6711 -1.1276  1.0255
 5456SOL    HW227831   0.926   0.413   1.832 -0.4037  0.3498  0.9693
 5457SOL     OW27832   1.802   0.142  10.835  0.0354  0.3685 -0.0380
 5457SOL    HW127833   1.867   0.110  10.773 -0.3934 -0.2010 -0.1897
 5457SOL    HW227834   1.732   0.151  10.770 -0.9181 -0.0478  0.9315
 5458SOL     OW27835   3.346   2.839  11.094  0.2240  0.2318  0.0260
 5458SOL    HW127836   3.390   2.774  11.039  1.0072  1.3588 -0.6526
 5458SOL    HW227837   3.361   2.797  11.179  1.7357  1.4509  0.3536
 5459SOL     OW27838   1.952   1.310  13.747 -0.0024  0.2984 -0.2445
 5459SOL    HW127839   1.914   1.300  13.835  0.3997  0.4794 -0.0489
 5459SOL    HW227840   1.910   1.393  13.725  0.8670  0.9697  0.6461
 5460SOL     OW27841   3.975   1.288  14.914  0.0812  0.1934  0.0897
 5460SOL    HW127842   4.007   1.311  15.001 -1.8226 -1.2873  1.1786
 5460SOL    HW227843   4.040   1.338  14.865  1.7088 -2.1021 -0.1194
 5461SOL     OW27844   1.617   2.256   0.610 -0.2292  0.4132 -0.0042
 5461SOL    HW127845   1.698   2.283   0.654  0.5581  0.5240 -1.5201
 5461SOL    HW227846   1.612   2.314   0.534 -1.5424  0.4075  0.0881
 5462SOL     OW27847   0.421   0.641   2.687 -0.3119  0.5093  0.2525
 5462SOL    HW127848   0.487   0.686   2.739 -1.8999  1.9690  0.9804
 5462SOL    HW227849   0.472   0.653   2.607 -1.3193  2.9555 -0.0345
 5463SOL     OW27850   4.352   2.875   9.639 -0.6820 -0.4433 -0.0126
 5463SOL    HW127851   4.311   2.901   9.722 -0.0356 -2.8163  1.0282
 5463SOL    HW227852   4.348   2.780   9.634 -2.5409 -0.3095 -1.2327
 5464SOL     OW27853   0.992   1.584   2.684 -0.1768 -0.1520 -1.0669
 5464SOL    HW127854   1.046   1.574   2.606 -0.5696  1.2040 -1.5188
 5464SOL    HW227855   0.912   1.545   2.648 -0.0913 -0.0880 -1.3244
 5465SOL     OW27856   1.915   1.146  10.541  1.1421  0.2309 -0.7428
 5465SOL    HW127857   1.955   1.171  10.458  0.7541  0.6892 -0.7886
 5465SOL    HW227858   1.985   1.166  10.603 -0.1708  0.8247  0.5734
 5466SOL     OW27859   0.290   3.149   3.531 -0.0487 -0.0340  0.1410
 5466SOL    HW127860   0.281   3.055   3.519  0.0692 -0.2733  1.9815
 5466SOL    HW227861   0.198   3.172   3.544 -0.1023  0.5083 -1.2138
 5467SOL     OW27862   1.994   3.689   3.742 -0.0172 -0.7348 -0.1143
 5467SOL    HW127863   1.944   3.769   3.762  0.2362 -0.6642  0.2431
 5467SOL    HW227864   2.086   3.712   3.746  0.2191 -1.7695  0.4865
 5468SOL     OW27865   2.783   3.928   9.078  0.0220 -0.0307  0.1578
 5468SOL    HW127866   2.688   3.925   9.086 -0.0178  0.8309  0.0478
 5468SOL    HW227867   2.808   3.878   9.156 -1.0469  0.4479  0.8034
 5469SOL     OW27868   3.660   1.677   6.325 -0.3494  0.0120 -0.4049
 5469SOL    HW127869   3.583   1.638   6.365 -1.0236 -0.4507 -2.1592
 5469SOL    HW227870   3.622   1.757   6.288  1.9345  0.5065 -1.6524
 5470SOL     OW27871   1.067   1.920  12.231 -0.3544  0.2158 -0.0768
 5470SOL    HW127872   1.033   1.986  12.291  0.6005 -0.5280  1.3116
 5470SOL    HW227873   1.054   1.959  12.145  2.3485 -2.0791 -1.5625
 5471SOL     OW27874   0.480   2.765   4.598  0.0420  0.2107  0.3717
 5471SOL    HW127875   0.408   2.791   4.539  0.4609  0.6300  0.0400
 5471SOL    HW227876   0.549   2.762   4.531  1.5701 -0.4781  1.9966
 5472SOL     OW27877   3.091   1.027  14.853 -0.3411  0.5585  0.3700
 5472SOL    HW127878   3.099   0.932  14.860  2.9861  0.7698 -0.6728
 5472SOL    HW227879   3.057   1.043  14.765  2.7190 -1.5086 -1.1977
 5473SOL     OW27880   0.026   0.268  12.663  0.4865  0.3898  0.3100
 5473SOL    HW127881   0.021   0.178  12.632 -0.9114 -0.7949  3.9587
 5473SOL    HW227882   4.664   0.298  12.685 -0.4654 -0.2809 -2.5126
 5474SOL     OW27883   1.498   3.836   0.430 -0.1347  0.7088  0.2127
 5474SOL    HW127884   1.473   3.747   0.405 -0.9367  0.8987  0.3608
 5474SOL    HW227885   1.588   3.830   0.462 -0.8948 -0.5747  2.0896
 5475SOL     OW27886   2.542   1.705   3.065  0.1831 -0.2148  0.4667
 5475SOL    HW127887   2.489   1.777   3.031  1.4006  1.2270  1.5870
 5475SOL    HW227888   2.556   1.659   2.983  0.3184 -0.0988  0.4243
 5476SOL     OW27889   1.523   0.056   7.735 -0.5055 -0.2246  0.6813
 5476SOL    HW127890   1.532   0.110   7.814 -0.8646  1.3991 -0.3895
 5476SOL    HW227891   1.483   4.705   7.774 -1.2150  0.8827  2.1639
 5477SOL     OW27892   1.899   1.171   0.538 -0.4215  0.1459  0.0136
 5477SOL    HW127893   1.960   1.171   0.612  0.5795  1.6312 -0.7989
 5477SOL    HW227894   1.851   1.089   0.549 -0.8323  0.2135 -1.2397
 5478SOL     OW27895   1.485   0.550   9.050 -0.2793 -0.0597  0.2791
 5478SOL    HW127896   1.411   0.603   9.081 -0.0607  0.4643 -0.0988
 5478SOL    HW227897   1.554   0.599   9.094 -0.4247  1.8172 -1.6008
 5479SOL     OW27898   4.486   2.611   7.988  0.0628 -0.3928 -0.3254
 5479SOL    HW127899   4.408   2.640   7.942 -0.5309 -0.2271  0.7853
 5479SOL    HW227900   4.495   2.526   7.945 -1.3959  0.5370 -2.4276
 5480SOL     OW27901   1.386   3.401   6.020  0.4550  0.1159 -0.1882
 5480SOL    HW127902   1.461   3.346   5.996 -1.4615 -2.3861 -0.4391
 5480SOL    HW227903   1.311   3.346   5.997  1.5420 -1.8452  0.9179
 5481SOL     OW27904   0.960   2.034   1.265  0.3534 -0.0285  0.3856
 5481SOL    HW127905   0.985   2.002   1.178 -1.2956 -2.7301  0.8956
 5481SOL    HW227906   1.042   2.047   1.313 -0.3869  1.8634  1.1145
 5482SOL     OW27907   3.545   1.564   7.944 -0.1706 -0.0577 -0.3955
 5482SOL    HW127908   3.550   1.655   7.973 -1.6015 -0.2430  0.4251
 5482SOL    HW227909   3.540   1.569   7.848  1.2981 -0.7000 -0.4981
 5483SOL     OW27910   0.485   3.829  13.077 -0.1786 -0.3796 -0.0189
 5483SOL    HW127911   0.429   3.753  13.058 -2.7877  1.5007  0.1861
 5483SOL    HW227912   0.502   3.883  13.000  1.2594  0.1686  0.6921
 5484SOL     OW27913   3.757   1.300   7.328 -0.0749  0.5220 -0.3427
 5484SOL    HW127914   3.715   1.278   7.245  0.2808 -0.8193 -0.1637
 5484SOL    HW227915   3.775   1.394   7.333 -0.5249  0.5717  0.4436
 5485SOL     OW27916   4.184   3.657   8.266  0.4310  0.4640  0.0785
 5485SOL    HW127917   4.166   3.663   8.360  0.9740  0.7607  0.1662
 5485SOL    HW227918   4.161   3.742   8.229  0.0828  0.4411  0.2455
 5486SOL     OW27919   2.267   0.459   0.284 -0.5645  0.0645  0.2687
 5486SOL    HW127920   2.355   0.484   0.313 -0.8505  0.6507  0.6275
 5486SOL    HW227921   2.284   0.381   0.231 -1.4975  2.2377 -3.2319
 5487SOL     OW27922   1.795   2.088   4.459  0.7579  0.2915  0.3187
 5487SOL    HW127923   1.753   2.150   4.519 -1.6657 -0.4421 -0.6134
 5487SOL    HW227924   1.867   2.053   4.512  0.8758  2.3462  1.5096
 5488SOL     OW27925   3.087   2.608   8.238 -0.1935 -0.3266  0.0537
 5488SOL    HW127926   3.080   2.694   8.280  1.3465 -0.7221  1.1411
 5488SOL    HW227927   3.159   2.564   8.284  0.6973  0.5459 -0.4947
 5489SOL     OW27928   4.207   3.411  16.719 -0.1498  0.5386 -0.1661
 5489SOL    HW127929   4.288   3.417  16.669  0.4067  1.2568  0.8231
 5489SOL    HW227930   4.141   3.404  16.650  2.9401 -0.4805 -2.9735
 5490SOL     OW27931   2.715   2.856  17.416  0.1388  0.1858  0.3136
 5490SOL    HW127932   2.784   2.913  17.380 -0.5310  0.6218 -0.2904
 5490SOL    HW227933   2.760   2.771  17.415 -1.0837 -0.4567 -0.5567
 5491SOL     OW27934   2.514   1.903  13.434 -0.2152  0.2701 -0.3734
 5491SOL    HW127935   2.535   1.964  13.504 -0.7356 -0.1171  0.1119
 5491SOL    HW227936   2.537   1.826  13.486 -2.6774 -0.3847 -0.2807
 5492SOL     OW27937   4.005   2.445  15.109  0.0154 -0.0624  0.3701
 5492SOL    HW127938   3.953   2.504  15.163  0.6395  0.8151  0.0158
 5492SOL    HW227939   3.972   2.357  15.127  0.6610  0.0932  2.2972
 5493SOL     OW27940   2.386   3.489   1.350  0.0524 -0.1141 -0.0967
 5493SOL    HW127941   2.309   3.492   1.407 -0.2879  0.8260 -0.6114
 5493SOL    HW227942   2.354   3.493   1.259 -0.8964  0.0354  0.2444
 5494SOL     OW27943   0.963   1.463   8.156  0.0159  0.1903 -0.2582
 5494SOL    HW127944   1.016   1.408   8.213  0.5081  0.9032 -0.0417
 5494SOL    HW227945   0.999   1.548   8.178  2.1319 -0.8786  0.4046
 5495SOL     OW27946   3.965   0.466  13.132 -0.0185 -0.3961 -0.3466
 5495SOL    HW127947   3.908   0.430  13.201  0.2280 -1.0762 -0.4973
 5495SOL    HW227948   4.005   0.541  13.175  1.2601 -0.1174 -2.0371
 5496SOL     OW27949   4.340   1.697  11.123 -0.0109 -0.5448  0.0009
 5496SOL    HW127950   4.377   1.671  11.038 -0.2109 -0.4058 -0.1278
 5496SOL    HW227951   4.317   1.613  11.162  1.9888 -1.9938 -1.9762
 5497SOL     OW27952   3.460   2.730   7.457 -0.1162  0.4656 -0.7319
 5497SOL    HW127953   3.529   2.786   7.422 -1.8927  2.2006 -1.4701
 5497SOL    HW227954   3.433   2.777   7.536  1.4096  0.8067 -0.4289
 5498SOL     OW27955   1.458   0.747   4.616  0.3439 -0.2129 -0.7271
 5498SOL    HW127956   1.489   0.801   4.543  1.1572  1.0609  0.5671
 5498SOL    HW227957   1.363   0.740   4.611  0.3490  0.3130 -1.5308
 5499SOL     OW27958   3.980   3.410   2.901 -0.7644  0.0917  0.5341
 5499SOL    HW127959   3.974   3.319   2.929  2.4166 -0.3853 -0.3506
 5499SOL    HW227960   4.018   3.403   2.813 -1.9011 -0.3034  0.0769
 5500SOL     OW27961   0.608   1.704   2.517 -0.2585  0.4494  0.1566
 5500SOL    HW127962   0.521   1.662   2.518  1.6091 -3.5115 -2.0052
 5500SOL    HW227963   0.668   1.637   2.551 -0.3382  0.5549  0.4997
 5501SOL     OW27964   4.091   2.444   2.854 -0.3264  0.1676 -0.1076
 5501SOL    HW127965   4.170   2.468   2.807  0.2276  0.7101  1.0968
 5501SOL    HW227966   4.046   2.528   2.853  3.6668  2.2707  0.1754
 5502SOL     OW27967   2.106   0.680   6.180  0.2513 -0.1949  0.1287
 5502SOL    HW127968   2.152   0.757   6.145 -2.2002  0.9135 -0.6232
 5502SOL    HW227969   2.157   0.606   6.146  0.3267 -0.1828  0.2134
 5503SOL     OW27970   4.624   1.757   0.977  0.2434 -0.4692 -0.1793
 5503SOL    HW127971   4.699   1.700   0.960  0.3843 -1.0484  2.3029
 5503SOL    HW227972   4.556   1.693   0.997 -0.8687  1.0178  0.8137
 5504SOL     OW27973   2.316   0.756   9.697  0.0227  0.0538  0.1111
 5504SOL    HW127974   2.265   0.685   9.737 -0.9212  2.1957  2.7254
 5504SOL    HW227975   2.270   0.781   9.617 -2.4798 -1.9376  0.9348
 5505SOL     OW27976   0.960   1.860   4.760 -0.3657  0.6521 -0.5337
 5505SOL    HW127977   0.870   1.891   4.772  0.1549  1.8556  0.2141
 5505SOL    HW227978   0.953   1.822   4.673 -1.8447  0.8501 -0.4958
 5506SOL     OW27979   1.777   2.957  17.563  0.2200 -0.2649 -0.2358
 5506SOL    HW127980   1.842   2.995  17.505  1.6274  0.0357  1.5111
 5506SOL    HW227981   1.814   2.988  17.646  1.1687 -0.1412 -0.7091
 5507SOL     OW27982   3.002   0.649  13.948 -0.7034  0.4565 -0.6529
 5507SOL    HW127983   2.995   0.733  13.993 -4.2062 -0.0330 -0.2839
 5507SOL    HW227984   3.073   0.676  13.889  0.1349 -0.8516 -0.2384
 5508SOL     OW27985   4.577   3.107   7.363 -0.0546  0.1514 -0.2152
 5508SOL    HW127986   4.620   3.168   7.305  1.8045 -1.0555 -0.1158
 5508SOL    HW227987   4.628   3.116   7.444 -0.4749  2.6310 -0.2474
 5509SOL     OW27988   1.086   1.641   5.078 -0.3253  0.4368  0.2891
 5509SOL    HW127989   0.992   1.627   5.062 -0.2244 -2.6086  2.1755
 5509SOL    HW227990   1.114   1.563   5.127  1.3480  2.1288  2.0222
 5510SOL     OW27991   3.281   4.034   2.373  0.3570  0.4253  0.1168
 5510SOL    HW127992   3.298   3.946   2.408 -0.1184 -0.3656 -1.6002
 5510SOL    HW227993   3.187   4.038   2.392  0.6811 -1.9155  2.2946
 5511SOL     OW27994   2.369   0.857   7.723  0.0341  0.7155 -0.5904
 5511SOL    HW127995   2.383   0.844   7.629  0.2910  0.3167 -0.4965
 5511SOL    HW227996   2.296   0.918   7.727 -1.6686 -1.4944  2.0459
 5512SOL     OW27997   3.338   1.681  11.460  0.0635  0.2136  0.1760
 5512SOL    HW127998   3.324   1.674  11.366 -1.4701  1.0972  0.3376
 5512SOL    HW227999   3.401   1.611  11.473 -1.2852 -1.1190 -0.4955
 5513SOL     OW28000   1.481   3.162  15.324  0.0014  0.0145  0.0771
 5513SOL    HW128001   1.574   3.168  15.348 -0.0249 -0.4516  0.2940
 5513SOL    HW228002   1.481   3.070  15.299 -2.1153  0.6903 -2.2962
 5514SOL     OW28003   0.245   2.243   8.665  0.6820 -0.6796 -0.0090
 5514SOL    HW128004   0.182   2.201   8.606  1.3162  0.3133 -1.3881
 5514SOL    HW228005   0.202   2.238   8.751 -0.9506 -0.5071 -0.8209
 5515SOL     OW28006   0.439   2.551   6.979 -0.3478  0.2268  0.3070
 5515SOL    HW128007   0.377   2.612   6.940 -0.9792  0.8053  2.2000
 5515SOL    HW228008   0.421   2.574   7.070 -0.8603  1.0911 -0.0152
 5516SOL     OW28009   1.756   0.843   3.951 -0.7695  0.3105  0.0494
 5516SOL    HW128010   1.678   0.791   3.932 -1.7405  1.4758  0.7808
 5516SOL    HW228011   1.730   0.932   3.926 -0.8276  0.2720 -0.0285
 5517SOL     OW28012   2.570   2.821   8.268 -0.0152 -0.0566 -0.4711
 5517SOL    HW128013   2.526   2.795   8.349 -0.9282  2.0913 -0.2739
 5517SOL    HW228014   2.535   2.905   8.236  0.4201  0.2660 -0.0993
 5518SOL     OW28015   0.719   1.614   9.815 -0.2360  0.0120  0.0285
 5518SOL    HW128016   0.703   1.546   9.880  0.3068  0.5451  0.7142
 5518SOL    HW228017   0.769   1.680   9.863 -0.0663 -0.6867  0.8100
 5519SOL     OW28018   3.537   0.101   5.708 -0.5962 -0.2147 -0.1482
 5519SOL    HW128019   3.526   0.165   5.637 -1.2748  0.5341  0.6228
 5519SOL    HW228020   3.505   0.150   5.784 -1.9452  0.5222 -1.1792
 5520SOL     OW28021   3.629   2.423   2.774  0.1860  0.0932 -0.4235
 5520SOL    HW128022   3.596   2.415   2.684 -1.1303 -2.8103  0.2994
 5520SOL    HW228023   3.703   2.482   2.764 -0.3850  1.0201  0.8798
 5521SOL     OW28024   0.782   1.906   0.567 -0.3039  0.3905 -0.6022
 5521SOL    HW128025   0.721   1.980   0.559 -0.0629  0.7683  1.0148
 5521SOL    HW228026   0.845   1.934   0.500  0.2969  1.5132  0.4334
 5522SOL     OW28027   1.876   0.812   9.883 -0.2612  0.6073 -0.7809
 5522SOL    HW128028   1.794   0.802   9.835 -0.6219  3.2212 -0.6942
 5522SOL    HW228029   1.880   0.908   9.886  1.3811  0.5136  0.2070
 5523SOL     OW28030   0.886   1.204  12.863 -0.1630 -0.3356  0.5286
 5523SOL    HW128031   0.826   1.276  12.846 -0.7352 -1.2160 -1.2318
 5523SOL    HW228032   0.889   1.161  12.777  0.3924 -1.6678  1.2089
 5524SOL     OW28033   1.966   4.181  10.943  0.0724 -0.2305  0.3479
 5524SOL    HW128034   1.989   4.210  11.031 -1.1903 -2.1438  1.2799
 5524SOL    HW228035   1.954   4.256  10.884 -1.8738 -1.2568 -0.5652
 5525SOL     OW28036   2.415   0.983   4.794  0.2217  0.0922 -0.8497
 5525SOL    HW128037   2.465   0.987   4.876  1.4417 -1.5689 -1.5186
 5525SOL    HW228038   2.325   0.989   4.826 -0.1765 -0.3739 -1.9124
 5526SOL     OW28039   3.055   0.121  10.666  0.1705 -0.8330  0.2762
 5526SOL    HW128040   3.052   0.070  10.747 -0.9678 -0.6972  0.3257
 5526SOL    HW228041   2.963   0.121  10.639  0.3882 -1.0151 -0.4785
 5527SOL     OW28042   1.921   3.180   0.812  0.1866 -0.1157 -0.0804
 5527SOL    HW128043   1.991   3.226   0.860  0.5219 -0.0934 -0.5910
 5527SOL    HW228044   1.944   3.088   0.824 -2.0714 -0.4143  1.9110
 5528SOL     OW28045   2.492   2.923   5.315  0.6998  0.3668  0.1475
 5528SOL    HW128046   2.421   2.925   5.251  0.7602 -2.6053 -0.0137
 5528SOL    HW228047   2.549   2.995   5.290  1.0431  0.0271 -0.0431
 5529SOL     OW28048   1.847   1.128   9.337 -0.4133 -0.6733 -0.2256
 5529SOL    HW128049   1.753   1.114   9.327  0.3031 -2.8602 -3.8506
 5529SOL    HW228050   1.874   1.049   9.384  1.5712  0.1621  0.0518
 5530SOL     OW28051   0.590   0.747   8.223  0.0006  0.4590 -0.2695
 5530SOL    HW128052   0.597   0.742   8.318 -1.7792 -1.4215 -0.2564
 5530SOL    HW228053   0.505   0.787   8.205 -0.8735 -1.0834  0.4306
 5531SOL     OW28054   3.176   3.835   8.484 -0.2736 -0.1720 -0.1052
 5531SOL    HW128055   3.138   3.779   8.551 -1.3929  0.0840 -0.5281
 5531SOL    HW228056   3.123   3.912   8.504 -1.1451 -0.7096 -0.3518
 5532SOL     OW28057   4.626   0.576  12.654  0.1643  0.1111  0.0012
 5532SOL    HW128058   4.646   0.588  12.561  1.5729 -3.0273 -0.0958
 5532SOL    HW228059   4.712   0.594  12.691 -0.6744  2.8638  0.5901
 5533SOL     OW28060   1.085   1.706   9.121 -0.3690 -0.2102  0.4999
 5533SOL    HW128061   1.053   1.794   9.139  2.4810  0.6055  1.6738
 5533SOL    HW228062   1.042   1.685   9.038  0.6243 -0.2604 -0.0025
 5534SOL     OW28063   1.720   3.870   4.590  0.2338  0.3905  0.2334
 5534SOL    HW128064   1.783   3.820   4.641 -0.2617  0.1049  0.5614
 5534SOL    HW228065   1.634   3.839   4.619  0.2491  0.1177 -0.0118
 5535SOL     OW28066   2.387   3.706  13.094  0.0793  0.0169 -0.0348
 5535SOL    HW128067   2.319   3.772  13.088 -1.0030 -1.4305 -4.0549
 5535SOL    HW228068   2.340   3.627  13.068  0.6847 -0.9950  1.9389
 5536SOL     OW28069   4.259   0.866   8.926 -0.1889 -0.6339 -0.6332
 5536SOL    HW128070   4.227   0.809   8.996 -0.7594 -1.7527 -1.8018
 5536SOL    HW228071   4.219   0.949   8.953 -0.5451 -0.8083 -0.6200
 5537SOL     OW28072   4.192   1.468   9.059 -0.1777  0.0060 -0.2258
 5537SOL    HW128073   4.133   1.509   9.122 -0.8696 -0.2819 -0.6867
 5537SOL    HW228074   4.255   1.426   9.118  1.2261  1.5273 -0.6411
 5538SOL     OW28075   3.483   1.757   1.434  0.2099 -0.1385 -0.0410
 5538SOL    HW128076   3.458   1.769   1.342  0.0156  1.0698  0.1767
 5538SOL    HW228077   3.579   1.758   1.423  0.4604 -1.9706  1.9615
 5539SOL     OW28078   3.447   1.585   0.311 -0.1076  0.4770  0.0237
 5539SOL    HW128079   3.467   1.492   0.304  0.7127  0.5412  1.5308
 5539SOL    HW228080   3.459   1.608   0.219 -0.8377  1.7848  0.2579
 5540SOL     OW28081   0.615   3.156   5.264 -0.0100  0.0429  0.2400
 5540SOL    HW128082   0.610   3.110   5.348  4.5238 -0.5483  0.1748
 5540SOL    HW228083   0.604   3.249   5.284  1.4247  0.3839 -0.6126
 5541SOL     OW28084   3.599   1.207   8.153  0.0441  0.0262  0.1691
 5541SOL    HW128085   3.527   1.267   8.132 -0.9159 -0.0626  3.2664
 5541SOL    HW228086   3.631   1.203   8.063  0.9560 -1.5368  0.5670
 5542SOL     OW28087   3.738   1.771   1.308 -0.0953 -0.1553 -0.1200
 5542SOL    HW128088   3.801   1.718   1.260  1.3178  1.6469 -0.2504
 5542SOL    HW228089   3.776   1.781   1.395 -0.5266 -0.5029  0.1048
 5543SOL     OW28090   1.954   1.941  17.141 -0.1483  0.2136 -0.4694
 5543SOL    HW128091   2.046   1.945  17.114  0.7790  2.2585  3.0241
 5543SOL    HW228092   1.963   1.882  17.216  3.3802  1.9641  0.4643
 5544SOL     OW28093   0.957   3.786   2.080  0.5746 -0.4253 -0.6288
 5544SOL    HW128094   0.953   3.721   2.009  0.7738 -1.1468  0.0161
 5544SOL    HW228095   0.912   3.732   2.145  1.2441  1.5129  1.4442
 5545SOL     OW28096   3.777   2.234   9.704 -0.2129  0.2962 -0.3842
 5545SOL    HW128097   3.719   2.302   9.737  0.2043 -0.4108  1.7786
 5545SOL    HW228098   3.714   2.164   9.685 -0.9325  0.6679  0.6562
 5546SOL     OW28099   3.097   1.248  13.576  0.4832  0.0372 -0.2486
 5546SOL    HW128100   3.122   1.299  13.653 -0.7775 -1.0877  0.8959
 5546SOL    HW228101   3.003   1.262  13.583  0.6673  1.4705 -0.6330
 5547SOL     OW28102   0.758   3.078  11.183  0.1691 -0.6594 -0.3813
 5547SOL    HW128103   0.745   3.079  11.088  1.2993 -5.5386 -0.5766
 5547SOL    HW228104   0.675   3.041  11.215 -1.1014  1.1192 -1.5969
 5548SOL     OW28105   2.785   2.865  16.229 -0.1485  0.1967  0.7453
 5548SOL    HW128106   2.805   2.820  16.311 -0.3975  0.5528  1.0023
 5548SOL    HW228107   2.702   2.911  16.242  1.3095  2.3809  2.3843
 5549SOL     OW28108   0.065   2.266   5.537 -0.0976 -1.0478  0.0144
 5549SOL    HW128109   4.710   2.310   5.515 -1.1462 -1.9921  2.0219
 5549SOL    HW228110   0.048   2.193   5.597 -2.0285  0.1925  0.9576
 5550SOL     OW28111   3.002   3.453   8.851 -0.8005  0.0708  0.1539
 5550SOL    HW128112   2.920   3.502   8.860 -1.6649 -1.0510 -1.8083
 5550SOL    HW228113   2.971   3.394   8.783 -0.7625  2.2041 -1.6917
 5551SOL     OW28114   0.623   1.891  16.695  0.0024  0.2706 -0.1363
 5551SOL    HW128115   0.639   1.803  16.662  2.7662  0.4799  0.6200
 5551SOL    HW228116   0.698   1.905  16.754  0.8755 -0.0205 -1.1841
 5552SOL     OW28117   0.601   1.775   6.534  0.6327  0.1041  0.2782
 5552SOL    HW128118   0.628   1.786   6.443  1.2543 -2.5314  0.1555
 5552SOL    HW228119   0.528   1.714   6.520  0.1472  0.6112  0.5937
 5553SOL     OW28120   3.793   1.187   6.135  0.3827  0.0730 -0.3435
 5553SOL    HW128121   3.860   1.190   6.203 -0.9285  2.3466  0.8404
 5553SOL    HW228122   3.749   1.270   6.152  2.8618  1.3138 -0.0922
 5554SOL     OW28123   1.245   2.235   2.442  0.0892  0.3374 -0.1968
 5554SOL    HW128124   1.172   2.255   2.502 -1.0865 -0.3584 -1.3980
 5554SOL    HW228125   1.245   2.140   2.455 -0.4681  0.1120 -1.8623
 5555SOL     OW28126   4.694   0.581  17.560  0.0515 -0.3627 -0.5791
 5555SOL    HW128127   0.037   0.584  17.494  1.1202  1.0505  0.6101
 5555SOL    HW228128   4.650   0.666  17.553  1.0159  0.2218  0.3840
 5556SOL     OW28129   1.453   3.947  12.267 -0.8420  0.0393 -0.0224
 5556SOL    HW128130   1.378   4.007  12.258 -0.8742  0.0412  0.2399
 5556SOL    HW228131   1.522   4.013  12.265  0.3275 -1.2181 -0.8413
 5557SOL     OW28132   0.102   1.654  12.804 -0.0755  0.3194  0.3592
 5557SOL    HW128133   0.055   1.594  12.746 -0.7255  2.2289 -1.0653
 5557SOL    HW228134   0.028   1.699  12.843  0.8036  1.1006  1.1054
 5558SOL     OW28135   0.661   3.618   5.125 -0.4286  0.7027 -0.3591
 5558SOL    HW128136   0.737   3.634   5.069 -1.9105  2.0570 -1.9901
 5558SOL    HW228137   0.653   3.523   5.131 -1.0916  0.7293 -0.8503
 5559SOL     OW28138   0.037   3.612   1.805  0.3062 -0.7021 -0.3539
 5559SOL    HW128139   0.071   3.667   1.734 -0.7306  0.4392  0.0225
 5559SOL    HW228140   0.013   3.540   1.747 -1.5348  1.4922 -2.3446
 5560SOL     OW28141   4.435   0.134   2.138 -0.4682  0.8130 -0.2981
 5560SOL    HW128142   4.445   0.083   2.058 -1.4518  0.0856  0.0295
 5560SOL    HW228143   4.342   0.115   2.156  0.2226 -3.5090 -1.2166
 5561SOL     OW28144   0.164   3.383   2.942  0.1544  0.6324  0.4181
 5561SOL    HW128145   0.162   3.453   3.007  0.5229  1.9484 -0.9995
 5561SOL    HW228146   0.148   3.429   2.860  0.0201 -0.1139  0.0270
 5562SOL     OW28147   0.650   3.001  10.929  0.1651 -0.2472 -0.3811
 5562SOL    HW128148   0.572   2.947  10.940 -0.7504  1.0613 -0.4796
 5562SOL    HW228149   0.673   2.974  10.840 -0.5503  0.3360 -0.7432
 5563SOL     OW28150   0.616   4.489   6.825  0.4352  0.0299  0.6001
 5563SOL    HW128151   0.696   4.521   6.867 -0.9060  2.6997  1.1276
 5563SOL    HW228152   0.559   4.561   6.853  0.7937  0.7808 -0.5855
 5564SOL     OW28153   3.534   2.888  10.904 -0.1649 -0.4195 -0.4825
 5564SOL    HW128154   3.510   2.879  10.811 -0.5069 -1.3136 -0.3038
 5564SOL    HW228155   3.510   2.803  10.940  0.2533 -0.5346 -0.4770
 5565SOL     OW28156   0.800   0.260   6.943  0.5350 -0.6388  0.0551
 5565SOL    HW128157   0.806   0.353   6.920 -0.8898 -1.1195 -2.3012
 5565SOL    HW228158   0.893   0.260   6.963  0.6938 -1.8970 -0.7386
 5566SOL     OW28159   1.413   1.223   2.909 -0.0815  0.4830 -0.1564
 5566SOL    HW128160   1.368   1.267   2.981  0.8028 -1.1080  1.3617
 5566SOL    HW228161   1.501   1.245   2.939 -0.7493 -0.2028  2.3440
 5567SOL     OW28162   3.860   1.696   3.204 -0.5511  0.0676  0.0574
 5567SOL    HW128163   3.845   1.703   3.298 -0.2025 -2.6823  0.3153
 5567SOL    HW228164   3.823   1.780   3.175 -0.6088 -0.1768 -0.5839
 5568SOL     OW28165   1.015   2.129   4.516  0.0533 -0.1716  0.5978
 5568SOL    HW128166   1.056   2.067   4.576  0.1122 -1.8649 -1.1760
 5568SOL    HW228167   0.935   2.147   4.565  0.6092 -1.4296  1.9805
 5569SOL     OW28168   1.348   3.372   3.848  0.5779  0.0976  0.1345
 5569SOL    HW128169   1.415   3.317   3.888  0.0311 -1.9244 -1.7621
 5569SOL    HW228170   1.270   3.321   3.871 -1.3664  2.7834 -0.4442
 5570SOL     OW28171   4.673   3.306  17.243 -0.1041 -0.2569 -0.0924
 5570SOL    HW128172   0.018   3.362  17.270 -0.5615  0.0762  0.4344
 5570SOL    HW228173   4.675   3.232  17.303 -0.6625  0.2083  0.5033
 5571SOL     OW28174   3.033   2.490   2.446 -0.3841 -0.9528 -0.4211
 5571SOL    HW128175   2.978   2.426   2.401 -1.5164 -0.6210  0.4822
 5571SOL    HW228176   2.967   2.534   2.499  0.2563 -0.0634 -0.3678
 5572SOL     OW28177   2.918   2.279  16.487 -0.0830  0.7788  0.3144
 5572SOL    HW128178   2.897   2.365  16.451 -0.8872 -0.4324 -2.0878
 5572SOL    HW228179   2.892   2.294  16.578  2.7409  0.0653  1.2732
 5573SOL     OW28180   1.705   0.852  15.502  0.1028  0.0463  0.6944
 5573SOL    HW128181   1.753   0.778  15.465 -1.7004 -1.2442  0.8954
 5573SOL    HW228182   1.680   0.808  15.583 -0.9323  0.0412  0.3767
 5574SOL     OW28183   1.194   1.265   7.951 -0.3528  0.4803 -0.0198
 5574SOL    HW128184   1.279   1.309   7.956  0.7229 -1.7531  1.2180
 5574SOL    HW228185   1.205   1.199   8.019  1.7741  0.2363 -0.6050
 5575SOL     OW28186   4.720   4.462   0.874 -0.3546 -0.1419  0.4744
 5575SOL    HW128187   0.074   4.503   0.906  2.7141 -3.5426 -3.0542
 5575SOL    HW228188   4.669   4.543   0.873  1.7686  1.2069  0.5090
 5576SOL     OW28189   4.588   3.637   0.999 -0.2393 -0.3299  0.1514
 5576SOL    HW128190   4.683   3.648   1.000 -0.2208 -0.2762 -2.5660
 5576SOL    HW228191   4.558   3.691   1.072  1.8226 -1.3357  1.7736
 5577SOL     OW28192   1.114   3.751   3.570  0.2922 -0.7314 -0.3029
 5577SOL    HW128193   1.032   3.702   3.570 -0.7537  0.9907 -0.0813
 5577SOL    HW228194   1.138   3.744   3.663 -1.7448  0.0250  0.2845
 5578SOL     OW28195   0.119   3.762   6.823  0.0859 -0.4386  0.2304
 5578SOL    HW128196   0.155   3.798   6.742  1.8030 -0.0133  1.1756
 5578SOL    HW228197   0.025   3.769   6.806 -0.2535 -3.1350  1.0410
 5579SOL     OW28198   4.152   0.596  15.570  0.0961 -0.0779  0.1986
 5579SOL    HW128199   4.173   0.679  15.613 -1.2903  0.5557 -0.3389
 5579SOL    HW228200   4.060   0.597  15.596 -0.3136  0.4436 -1.2506
 5580SOL     OW28201   4.177   3.351   3.404  0.5380 -0.2407 -0.1313
 5580SOL    HW128202   4.206   3.322   3.318  3.3647 -1.2695  1.1666
 5580SOL    HW228203   4.083   3.335   3.399  0.0400  1.9880  1.9453
 5581SOL     OW28204   4.661   3.081   4.637 -0.0085 -0.2753 -0.2851
 5581SOL    HW128205   4.621   3.036   4.711 -0.5529  0.5573 -0.0697
 5581SOL    HW228206   4.591   3.116   4.582 -0.6900 -1.8030 -0.3889
 5582SOL     OW28207   1.642   1.267   2.511 -0.3057 -0.3558 -0.1348
 5582SOL    HW128208   1.551   1.289   2.533 -0.5773 -0.9173 -0.6912
 5582SOL    HW228209   1.625   1.243   2.420  1.6518 -1.7923 -0.1092
 5583SOL     OW28210   0.136   1.318   7.460  0.3267 -0.5246  0.3995
 5583SOL    HW128211   0.226   1.340   7.436  0.3808  0.0896  1.1832
 5583SOL    HW228212   0.111   1.375   7.533 -0.1006  1.3322 -1.2023
 5584SOL     OW28213   2.862   0.364   7.242  0.2726  0.2891 -0.7761
 5584SOL    HW128214   2.784   0.415   7.261  1.1939  1.3062  0.2446
 5584SOL    HW228215   2.935   0.425   7.237  1.2794 -0.4808  4.4078
 5585SOL     OW28216   0.731   1.845   5.202  0.5156 -0.0724 -0.0564
 5585SOL    HW128217   0.697   1.794   5.275 -1.8122 -0.1639 -1.2087
 5585SOL    HW228218   0.805   1.879   5.252  0.7219 -0.2572 -0.2321
 5586SOL     OW28219   4.687   3.987  12.862 -0.0510  0.5279 -0.6409
 5586SOL    HW128220   0.033   3.946  12.909 -0.3202 -0.3333 -0.9588
 5586SOL    HW228221   4.611   3.954  12.911  0.3863  1.1265  0.4196
 5587SOL     OW28222   0.569   0.727   2.155  0.0775  0.0560 -0.0697
 5587SOL    HW128223   0.473   0.727   2.150  0.1183  0.2598 -0.8510
 5587SOL    HW228224   0.599   0.817   2.143  0.6626 -0.1415 -0.0794
 5588SOL     OW28225   1.668   4.442   7.632 -1.1871  0.1772  0.2869
 5588SOL    HW128226   1.573   4.451   7.627 -1.3646 -1.8545 -0.2522
 5588SOL    HW228227   1.690   4.518   7.686  0.0009  1.8498 -2.5322
 5589SOL     OW28228   1.529   2.392  12.500  0.4374  0.4582 -0.2188
 5589SOL    HW128229   1.574   2.327  12.553 -2.7823 -2.5125 -1.1316
 5589SOL    HW228230   1.495   2.461  12.557  0.1428 -0.9990  1.3837
 5590SOL     OW28231   1.209   0.378   5.067  0.3192 -0.0686  0.1053
 5590SOL    HW128232   1.245   0.352   4.982  1.6395  0.6138  0.4587
 5590SOL    HW228233   1.156   0.302   5.088 -2.1260  1.6492  0.1766
 5591SOL     OW28234   1.352   0.065   6.051 -0.0017 -0.5221  0.0077
 5591SOL    HW128235   1.448   0.063   6.048 -0.0044 -0.2240 -0.2758
 5591SOL    HW228236   1.343   0.060   5.956  1.2838 -0.8725 -0.0897
 5592SOL     OW28237   3.938   1.361   3.527 -0.3819 -0.4341  0.1552
 5592SOL    HW128238   3.948   1.455   3.520 -1.0839 -0.2704  1.3720
 5592SOL    HW228239   4.021   1.322   3.497  0.6325  1.8819 -0.0151
 5593SOL     OW28240   3.994   2.693   2.773 -0.0808 -0.1500  0.0061
 5593SOL    HW128241   3.927   2.675   2.707  1.5931  1.0015 -2.0154
 5593SOL    HW228242   4.020   2.781   2.746 -0.7757  0.2352  0.6316
 5594SOL     OW28243   1.293   2.963   2.897  0.7622 -0.3015 -0.1524
 5594SOL    HW128244   1.210   2.991   2.858 -0.0014 -2.3001  0.0674
 5594SOL    HW228245   1.338   3.048   2.897  2.2057 -1.0668 -1.7082
 5595SOL     OW28246   0.347   0.214   5.580  0.2823  0.0531 -0.2725
 5595SOL    HW128247   0.435   0.194   5.549  0.2914 -3.0912  1.7812
 5595SOL    HW228248   0.306   0.128   5.588 -1.0404  0.6522 -0.5576
 5596SOL     OW28249   4.318   0.653   1.516 -0.6534  0.7479 -0.0803
 5596SOL    HW128250   4.295   0.573   1.468 -1.6200  2.6927 -2.8137
 5596SOL    HW228251   4.235   0.700   1.514 -0.8814  0.2979 -1.0745
 5597SOL     OW28252   1.476   3.474   7.243 -0.2463 -0.1055 -0.3586
 5597SOL    HW128253   1.502   3.563   7.219 -1.7048  0.6920  0.9539
 5597SOL    HW228254   1.448   3.493   7.332 -2.4695  0.3484 -1.1545
 5598SOL     OW28255   2.381   1.516   9.241  0.5835  0.1806 -0.4369
 5598SOL    HW128256   2.405   1.606   9.218 -0.8571  0.2114 -1.8319
 5598SOL    HW228257   2.406   1.522   9.333 -0.4415  0.2259 -0.1596
 5599SOL     OW28258   1.607   4.710   2.006 -0.2707 -0.3794 -0.4904
 5599SOL    HW128259   1.513   4.725   2.020  0.0713 -0.3496  1.7504
 5599SOL    HW228260   1.608   4.698   1.911 -1.6881 -1.9211 -0.3082
 5600SOL     OW28261   1.843   3.281   4.097 -0.5906  0.3970  0.0860
 5600SOL    HW128262   1.775   3.229   4.139 -0.1472 -0.2046  0.0520
 5600SOL    HW228263   1.813   3.369   4.120 -1.7519 -0.5379  2.0826
 5601SOL     OW28264   3.058   0.779   6.028  0.1192 -0.0981  0.6053
 5601SOL    HW128265   3.135   0.726   6.011  0.1016  0.8223 -2.3710
 5601SOL    HW228266   3.071   0.806   6.119  0.6166  1.0656  0.1874
 5602SOL     OW28267   3.203   0.101   3.124 -0.3796  0.5562 -0.3344
 5602SOL    HW128268   3.291   0.069   3.141 -0.6541  0.7116  1.3895
 5602SOL    HW228269   3.211   0.100   3.029 -0.1041 -3.2733 -0.2840
 5603SOL     OW28270   4.643   2.658   9.656  0.1119 -0.2481  0.2030
 5603SOL    HW128271   4.597   2.696   9.731 -1.6966  0.1325 -1.0970
 5603SOL    HW228272   4.700   2.587   9.685 -0.2985  0.3548  2.5081
 5604SOL     OW28273   1.603   2.999  10.630 -0.2123 -0.0237 -0.3507
 5604SOL    HW128274   1.509   3.002  10.611 -0.3051 -1.5904 -0.0825
 5604SOL    HW228275   1.612   2.943  10.707  2.7118  1.9455  0.7563
 5605SOL     OW28276   3.113   0.674   8.141  0.0263  0.2752 -0.6950
 5605SOL    HW128277   3.133   0.591   8.097 -0.4772  0.6445 -1.6167
 5605SOL    HW228278   3.133   0.662   8.233 -0.3126  2.0513 -0.3862
 5606SOL     OW28279   2.009   2.005  13.264  0.9344 -0.2986 -0.3544
 5606SOL    HW128280   2.096   2.040  13.284  1.4713 -0.2060 -2.9603
 5606SOL    HW228281   1.989   1.948  13.338 -2.4983  2.0804  0.5864
 5607SOL     OW28282   3.992   1.297   6.957 -0.1604  0.3814  0.0115
 5607SOL    HW128283   4.061   1.292   6.890 -1.9557 -1.3293 -1.7073
 5607SOL    HW228284   4.030   1.367   7.009  0.8420  0.6600 -1.0812
 5608SOL     OW28285   2.722   3.553   4.297  0.3536 -0.3932 -0.0873
 5608SOL    HW128286   2.791   3.502   4.340 -0.5836  0.7176  2.7240
 5608SOL    HW228287   2.773   3.619   4.250  0.6110  0.8668  1.9466
 5609SOL     OW28288   0.311   4.385   6.001 -0.2960  0.1516 -0.0748
 5609SOL    HW128289   0.313   4.466   6.053 -0.0632 -1.1404  1.9290
 5609SOL    HW228290   0.365   4.326   6.053 -1.1057  0.6700  1.3751
 5610SOL     OW28291   1.899   4.473   4.139 -0.6976  0.3125 -0.3929
 5610SOL    HW128292   1.978   4.496   4.090 -0.9892 -1.5012 -1.7132
 5610SOL    HW228293   1.828   4.471   4.075 -0.0308 -0.5564 -1.1000
 5611SOL     OW28294   0.965   3.529  17.513 -0.0156 -0.2512  0.5525
 5611SOL    HW128295   1.019   3.469  17.565 -1.4733 -1.8303  0.2575
 5611SOL    HW228296   0.876   3.505  17.537 -0.0134 -0.6016  0.2237
 5612SOL     OW28297   4.448   0.224   0.601 -0.2534 -0.0106 -0.4705
 5612SOL    HW128298   4.504   0.178   0.538  0.6613  1.9757 -1.0880
 5612SOL    HW228299   4.501   0.197   0.676  0.2508  3.0905  0.2913
 5613SOL     OW28300   2.663   3.990   1.515  0.0209  0.1516  0.1082
 5613SOL    HW128301   2.577   3.948   1.503 -0.5114  0.5371  2.5937
 5613SOL    HW228302   2.709   3.928   1.459 -3.1065 -1.4695 -0.6808
 5614SOL     OW28303   3.104   3.022  15.975  0.0778 -0.5034  0.4927
 5614SOL    HW128304   3.012   2.997  15.962  0.0150 -0.2959  0.5486
 5614SOL    HW228305   3.112   3.039  16.069  1.0380 -0.1984  0.3551
 5615SOL     OW28306   0.442   1.251  13.896 -0.0607 -0.6771  0.0391
 5615SOL    HW128307   0.467   1.278  13.807 -1.4987 -1.9310 -0.7298
 5615SOL    HW228308   0.348   1.269  13.897 -0.2600 -1.6751 -0.3780
 5616SOL     OW28309   0.276   0.447   8.217 -0.0052 -0.2798 -0.2607
 5616SOL    HW128310   0.228   0.493   8.286 -0.8189  1.1796 -1.8103
 5616SOL    HW228311   0.358   0.462   8.265  0.3143  1.3314 -1.3171
 5617SOL     OW28312   0.316   1.042   6.709  0.3778 -0.0403 -0.1083
 5617SOL    HW128313   0.361   1.092   6.777 -0.8397 -1.5390  1.8186
 5617SOL    HW228314   0.279   1.118   6.665  1.4833 -0.2925 -1.4848
 5618SOL     OW28315   1.512   4.556   7.907  0.2335 -0.0169 -1.0324
 5618SOL    HW128316   1.435   4.498   7.900 -0.6990  1.3083 -1.7710
 5618SOL    HW228317   1.479   4.607   7.981 -0.9965 -0.9560 -0.9194
 5619SOL     OW28318   4.395   4.510  10.897 -0.2248  0.0101  0.2944
 5619SOL    HW128319   4.355   4.422  10.897 -3.4619  1.4761 -0.4120
 5619SOL    HW228320   4.486   4.494  10.873  0.4340  0.8726  2.2395
 5620SOL     OW28321   2.762   1.921   6.609  0.3005 -0.6000 -0.2503
 5620SOL    HW128322   2.776   1.961   6.695  0.8685 -0.2474 -0.4996
 5620SOL    HW228323   2.794   1.832   6.619  1.9191  0.0394  0.2759
 5621SOL     OW28324   0.427   1.483   7.114  0.5484 -0.2608 -0.3690
 5621SOL    HW128325   0.507   1.465   7.065  0.2725 -0.9414 -0.5698
 5621SOL    HW228326   0.442   1.576   7.132  0.4764 -0.7340  2.2094
 5622SOL     OW28327   4.115   0.316   6.109 -0.6138  0.2784  0.0614
 5622SOL    HW128328   4.073   0.363   6.181 -1.7170 -3.1286  1.6209
 5622SOL    HW228329   4.195   0.369   6.111 -0.3142 -0.1444 -0.4496
 5623SOL     OW28330   0.964   1.174  10.094 -0.6449  0.2157  0.6279
 5623SOL    HW128331   1.057   1.155  10.098 -0.8746 -1.4165 -1.6855
 5623SOL    HW228332   0.923   1.088  10.105 -1.1228  0.4195  0.4722
 5624SOL     OW28333   1.659   2.764   4.458  0.1730 -0.5601 -0.4629
 5624SOL    HW128334   1.749   2.770   4.428  0.3320 -0.0631  0.1118
 5624SOL    HW228335   1.618   2.807   4.384  0.3720 -0.6914 -0.6493
 5625SOL     OW28336   2.410   0.042   2.062 -0.2565 -0.5374  0.1411
 5625SOL    HW128337   2.383   0.132   2.041  3.3448 -0.4638 -4.2940
 5625SOL    HW228338   2.504   0.055   2.077  0.3067 -1.1979 -2.7987
 5626SOL     OW28339   2.177   1.293   5.830  0.3027 -0.2020 -0.2833
 5626SOL    HW128340   2.232   1.370   5.844 -0.6838  0.3484  0.5603
 5626SOL    HW228341   2.214   1.233   5.894 -1.3768 -1.9815 -0.9786
 5627SOL     OW28342   0.505   0.247   3.779 -0.1966 -0.1327  0.5415
 5627SOL    HW128343   0.515   0.171   3.836  0.2578  0.4164  1.1960
 5627SOL    HW228344   0.463   0.314   3.834  0.8830  1.5849 -0.6959
 5628SOL     OW28345   0.532   2.864   6.210  0.1129 -0.2175 -0.7044
 5628SOL    HW128346   0.461   2.806   6.237 -1.0641  2.2530  1.4800
 5628SOL    HW228347   0.582   2.805   6.153 -0.0134 -2.2936  1.3005
 5629SOL     OW28348   3.492   1.100   6.660 -0.6133  0.3950  0.2898
 5629SOL    HW128349   3.471   1.193   6.660 -1.1853  0.2731  1.7217
 5629SOL    HW228350   3.561   1.100   6.726 -0.3642 -1.6294  0.0428
 5630SOL     OW28351   0.167   1.348   8.574 -0.0839 -0.0256 -0.6737
 5630SOL    HW128352   0.260   1.339   8.594 -0.5044  2.3706  2.4329
 5630SOL    HW228353   0.158   1.275   8.513 -2.8421  0.0848 -0.4304
 5631SOL     OW28354   3.862   0.984   4.500 -0.2048 -0.0972  0.5747
 5631SOL    HW128355   3.843   0.901   4.456 -1.4883  1.4911 -1.8884
 5631SOL    HW228356   3.938   1.017   4.451 -0.2244  0.4885  0.9423
 5632SOL     OW28357   4.413   3.514   9.127 -0.1386 -0.1351 -0.1721
 5632SOL    HW128358   4.416   3.578   9.056 -1.2974 -0.5361 -0.5752
 5632SOL    HW228359   4.431   3.433   9.078 -2.0566 -0.5182 -0.2271
 5633SOL     OW28360   4.084   2.727   0.006  0.3908 -0.0576  0.0564
 5633SOL    HW128361   4.126   2.770  17.639  2.1053 -1.8255 -0.0129
 5633SOL    HW228362   4.151   2.664   0.031 -0.6694 -1.1739  0.1167
 5634SOL     OW28363   2.249   4.257   3.031  0.4130  0.0329  0.0658
 5634SOL    HW128364   2.159   4.272   3.060  1.0966  1.2884  1.5240
 5634SOL    HW228365   2.287   4.336   3.070  1.0954  0.3571 -1.2371
 5635SOL     OW28366   4.411   1.694   8.657  0.0701  0.2592 -0.0537
 5635SOL    HW128367   4.346   1.764   8.647  1.0129  1.3728  1.6553
 5635SOL    HW228368   4.451   1.740   8.730 -3.3645  1.9223  0.8213
 5636SOL     OW28369   1.663   3.849  15.001  0.0977 -0.1507 -0.4305
 5636SOL    HW128370   1.614   3.771  15.028 -1.4626  0.5715 -1.2087
 5636SOL    HW228371   1.680   3.885  15.088 -0.9842  0.8533 -0.6326
 5637SOL     OW28372   2.659   0.892   6.378  0.4371 -0.1861  0.1346
 5637SOL    HW128373   2.735   0.846   6.413  2.9544  2.5730 -1.7130
 5637SOL    HW228374   2.606   0.817   6.350  0.4847 -0.0728 -0.2647
 5638SOL     OW28375   0.723   1.701   7.750  0.2535  0.6294  0.4110
 5638SOL    HW128376   0.775   1.673   7.675 -0.7918 -1.2263  0.3780
 5638SOL    HW228377   0.645   1.741   7.711  0.2826  0.9698  0.7051
 5639SOL     OW28378   4.195   2.747  16.829  0.5773  0.1566 -0.1326
 5639SOL    HW128379   4.116   2.720  16.784  1.7298  1.3348 -2.8762
 5639SOL    HW228380   4.159   2.819  16.881 -2.5876 -1.6097  0.0974
 5640SOL     OW28381   3.722   1.007   6.835 -0.7176 -0.9160  0.1311
 5640SOL    HW128382   3.774   0.927   6.838 -2.0948 -1.7861  0.9021
 5640SOL    HW228383   3.731   1.024   6.929  0.2532  0.6770 -0.2572
 5641SOL     OW28384   2.010   4.148   0.346  0.0192  0.4617  0.3850
 5641SOL    HW128385   1.987   4.064   0.308  3.9247 -1.6954  2.9024
 5641SOL    HW228386   2.090   4.179   0.302  1.3872 -0.1295  2.4768
 5642SOL     OW28387   2.075   0.012  16.454  0.6211 -0.1440 -0.0772
 5642SOL    HW128388   2.076   0.058  16.537  1.7417  2.7210 -1.6713
 5642SOL    HW228389   2.097   4.651  16.485  0.2471 -0.9095 -1.9273
 5643SOL     OW28390   2.024   0.165   7.389  0.0398  0.6068  0.3326
 5643SOL    HW128391   1.948   0.140   7.440  1.3676 -1.3062  1.3596
 5643SOL    HW228392   2.062   0.079   7.373  0.4412  0.2805  3.0333
 5644SOL     OW28393   3.385   3.550  15.172  0.2135  0.2371  0.1338
 5644SOL    HW128394   3.387   3.504  15.256  0.1074  0.8025  0.4470
 5644SOL    HW228395   3.325   3.619  15.201 -1.1631 -0.6327 -0.6423
 5645SOL     OW28396   0.057   2.405   4.302 -0.3991 -0.5950  0.0818
 5645SOL    HW128397   0.070   2.488   4.256  0.9969  0.4189  2.3331
 5645SOL    HW228398   0.146   2.387   4.332  0.5768  1.6616 -1.4961
 5646SOL     OW28399   3.347   0.405   1.108  0.3200  0.1385  0.2650
 5646SOL    HW128400   3.407   0.472   1.076  0.6516 -0.2007  0.1635
 5646SOL    HW228401   3.269   0.459   1.122  0.6794  0.2048  1.9620
 5647SOL     OW28402   4.131   2.989   4.624  0.2255  0.6300 -0.3428
 5647SOL    HW128403   4.185   3.046   4.679 -0.6287 -0.3266  1.4542
 5647SOL    HW228404   4.115   2.914   4.680 -1.1980  1.8091  0.8169
 5648SOL     OW28405   1.048   0.203   8.518  0.4939  0.0216  0.0606
 5648SOL    HW128406   0.985   0.136   8.544  1.2276 -0.7528 -0.1325
 5648SOL    HW228407   1.037   0.263   8.591  0.2996  0.4571 -0.3330
 5649SOL     OW28408   0.162   3.843  11.160 -0.2122  0.0321  0.4739
 5649SOL    HW128409   0.227   3.796  11.107 -1.1298 -2.0120  1.1574
 5649SOL    HW228410   0.107   3.860  11.083 -0.9901 -2.7334  0.4152
 5650SOL     OW28411   1.535   3.054  13.034  0.1260 -0.9030  0.0072
 5650SOL    HW128412   1.447   3.037  13.067  1.0038 -3.7692  0.9097
 5650SOL    HW228413   1.536   3.149  13.024 -0.4923 -0.9324 -0.3427
 5651SOL     OW28414   2.912   4.471   2.701  0.4106 -0.1040 -0.3478
 5651SOL    HW128415   2.930   4.422   2.621 -1.7882 -2.0826  0.3465
 5651SOL    HW228416   2.894   4.559   2.670  1.8130 -0.1250 -1.2084
 5652SOL     OW28417   2.312   2.694   5.298 -0.1871  0.2939  0.5638
 5652SOL    HW128418   2.224   2.659   5.310  0.9179 -2.4721  0.6401
 5652SOL    HW228419   2.325   2.746   5.376  1.1213  0.9081 -0.0697
 5653SOL     OW28420   1.220   1.967   8.928  0.1265  0.4488  0.3302
 5653SOL    HW128421   1.307   1.994   8.900 -0.1287  1.7950  0.8433
 5653SOL    HW228422   1.186   2.045   8.972 -1.6887  0.0382 -0.3274
 5654SOL     OW28423   1.923   3.371   2.641 -0.3166 -0.2294  0.0523
 5654SOL    HW128424   1.918   3.431   2.716  0.7686  0.3636 -0.3451
 5654SOL    HW228425   1.958   3.441   2.585 -0.2172 -0.0688  0.3130
 5655SOL     OW28426   2.212   1.771   3.502 -0.4700  0.3520 -0.1433
 5655SOL    HW128427   2.217   1.787   3.596  1.0988 -0.8126 -0.0091
 5655SOL    HW228428   2.289   1.717   3.479  0.2208  0.9923  0.7114
 5656SOL     OW28429   3.541   0.866   9.261 -0.1987  0.1463 -0.1312
 5656SOL    HW128430   3.584   0.781   9.261 -0.0916  0.2032 -1.7244
 5656SOL    HW228431   3.451   0.838   9.244 -0.1718  0.3099 -0.5432
 5657SOL     OW28432   1.978   3.288   7.129 -0.1893  0.1844  0.1440
 5657SOL    HW128433   2.005   3.303   7.219 -1.3923  1.1423  0.3493
 5657SOL    HW228434   1.986   3.377   7.094 -0.9047 -0.6677 -2.1522
 5658SOL     OW28435   3.362   1.558   2.923  0.0618 -0.6829  0.7441
 5658SOL    HW128436   3.409   1.496   2.979 -0.7380 -0.8943  1.1970
 5658SOL    HW228437   3.425   1.627   2.904 -1.9737  1.1651  0.7044
 5659SOL     OW28438   4.649   3.933   2.520 -0.0784 -0.4222 -0.2369
 5659SOL    HW128439   4.627   4.008   2.464 -0.5160 -0.0932  0.3699
 5659SOL    HW228440   4.666   3.866   2.455  0.5126  0.5892 -1.1284
 5660SOL     OW28441   3.008   2.779   4.943 -0.6599 -0.5868 -0.4461
 5660SOL    HW128442   2.969   2.805   5.027 -0.6931  0.2974 -0.7342
 5660SOL    HW228443   3.088   2.828   4.960 -0.9759 -1.0189  2.3868
 5661SOL     OW28444   2.287   0.795   6.357 -0.5681  0.4595  0.1683
 5661SOL    HW128445   2.208   0.743   6.356 -0.5195  0.3788  0.6320
 5661SOL    HW228446   2.329   0.763   6.437 -1.2861 -2.4409 -0.6159
 5662SOL     OW28447   2.966   2.942  17.316  0.1931 -0.0926  0.2346
 5662SOL    HW128448   2.965   3.036  17.333 -0.0271 -0.5557  2.8101
 5662SOL    HW228449   3.050   2.917  17.353 -0.1984 -0.4479  0.8815
 5663SOL     OW28450   0.549   4.425   9.347 -0.2525  0.5475  0.1037
 5663SOL    HW128451   0.549   4.341   9.393 -0.0902 -0.1522 -1.1907
 5663SOL    HW228452   0.629   4.419   9.296 -0.9737 -1.5448 -0.7675
 5664SOL     OW28453   2.500   2.797  12.856  0.3289 -0.4123  0.5960
 5664SOL    HW128454   2.451   2.846  12.923 -0.7783  2.1579 -2.1081
 5664SOL    HW228455   2.562   2.743  12.905  1.2366  0.6279  0.6027
 5665SOL     OW28456   0.103   3.420   7.507  0.1565  0.2929 -0.0614
 5665SOL    HW128457   0.179   3.418   7.447 -0.7535  1.6620 -1.2686
 5665SOL    HW228458   0.113   3.334   7.548 -1.4334  0.5373  0.8305
 5666SOL     OW28459   0.116   4.165  17.271  0.1930  0.0580  0.4992
 5666SOL    HW128460   0.044   4.104  17.285  0.8900 -0.3852  2.1814
 5666SOL    HW228461   0.082   4.229  17.209  2.1749  0.2169 -0.4211
 5667SOL     OW28462   4.675   1.903   3.906  0.5629  0.5859 -0.2339
 5667SOL    HW128463   4.621   1.879   3.982  1.0946  0.3624  0.0691
 5667SOL    HW228464   4.619   1.870   3.835  1.2486 -0.0476 -0.4735
 5668SOL     OW28465   2.275   2.343   5.061  0.6383 -0.2379  0.1535
 5668SOL    HW128466   2.340   2.398   5.104  0.3173  0.4914 -0.2937
 5668SOL    HW228467   2.204   2.328   5.124 -0.2105  0.5959 -0.5992
 5669SOL     OW28468   3.439   3.370   8.556 -0.2518 -0.0814  0.6363
 5669SOL    HW128469   3.492   3.335   8.628 -2.4430  0.8928  2.6921
 5669SOL    HW228470   3.501   3.394   8.486  2.4710  1.0483  3.4312
 5670SOL     OW28471   2.100   3.640   6.629  0.2970 -0.3950 -0.1014
 5670SOL    HW128472   2.015   3.598   6.618 -0.1432  0.7239 -1.0280
 5670SOL    HW228473   2.085   3.724   6.586 -0.9929 -0.4396  0.2574
 5671SOL     OW28474   0.833   3.454   9.467 -0.3917  0.4618  0.1410
 5671SOL    HW128475   0.842   3.362   9.490 -0.3366  0.8659  1.7265
 5671SOL    HW228476   0.761   3.478   9.526 -2.6561 -0.7196 -2.1261
 5672SOL     OW28477   3.222   3.722  15.307 -0.6838  0.1135 -0.0601
 5672SOL    HW128478   3.216   3.793  15.371  2.8439 -0.3071  0.7110
 5672SOL    HW228479   3.194   3.780  15.236 -0.5119  1.1391  0.7086
 5673SOL     OW28480   3.671   3.809   4.421 -0.0434 -0.0372  0.2001
 5673SOL    HW128481   3.757   3.836   4.390 -0.1769  0.9422  0.6785
 5673SOL    HW228482   3.606   3.861   4.373 -0.9681 -0.6070  0.8321
 5674SOL     OW28483   0.157   0.714  10.954  0.3332 -0.0461 -0.3044
 5674SOL    HW128484   0.160   0.806  10.929  0.9175  0.6036  2.1497
 5674SOL    HW228485   0.123   0.674  10.874 -0.8041 -1.4853  0.9043
 5675SOL     OW28486   0.082   3.303   2.540 -0.5740 -0.1218  0.0394
 5675SOL    HW128487   0.079   3.397   2.558 -0.5503 -0.4185  1.5640
 5675SOL    HW228488   0.043   3.270   2.620  0.2005  2.0179  1.3135
 5676SOL     OW28489   4.011   3.622   4.521 -0.1980  0.6419 -0.4434
 5676SOL    HW128490   4.064   3.662   4.589 -1.0509 -1.6718  1.6066
 5676SOL    HW228491   3.975   3.695   4.472 -0.8782  0.2097 -0.5920
 5677SOL     OW28492   0.576   1.954  10.297 -0.0477  0.5573  0.8630
 5677SOL    HW128493   0.648   1.933  10.356 -0.8457 -0.2273  1.5490
 5677SOL    HW228494   0.571   2.048  10.315 -2.2519  0.7011 -0.3765
 5678SOL     OW28495   2.375   2.723  16.804  0.1273 -0.4116  0.1339
 5678SOL    HW128496   2.367   2.780  16.728  3.4419 -1.5397 -1.1065
 5678SOL    HW228497   2.376   2.784  16.878  1.1769  0.9908 -1.0609
 5679SOL     OW28498   2.589   1.541   8.652 -0.6897 -0.2667  0.1467
 5679SOL    HW128499   2.537   1.570   8.727  1.2290  1.5589  0.7662
 5679SOL    HW228500   2.676   1.549   8.691 -1.1898 -0.3608  1.2790
 5680SOL     OW28501   4.604   2.945   3.699 -0.0471  0.2664  0.2119
 5680SOL    HW128502   4.522   2.952   3.748 -0.8142  0.3184 -1.0911
 5680SOL    HW228503   4.577   2.868   3.649 -2.7432  0.1401  1.8443
 5681SOL     OW28504   2.425   2.752   7.408  0.1800 -0.4542  0.1965
 5681SOL    HW128505   2.438   2.669   7.453 -0.9026  0.5269  2.3459
 5681SOL    HW228506   2.423   2.723   7.317  0.2636 -1.4050  0.5031
 5682SOL     OW28507   4.685   2.287  14.533  0.3370 -0.0291  0.7689
 5682SOL    HW128508   0.020   2.305  14.604 -0.3455  2.8141  0.6449
 5682SOL    HW228509   4.624   2.235  14.585  1.4843 -1.9996  0.1481
 5683SOL     OW28510   2.482   1.896   6.593 -0.0362 -0.4817  0.0509
 5683SOL    HW128511   2.574   1.909   6.613  0.4140 -0.4029 -2.0386
 5683SOL    HW228512   2.432   1.961   6.643  2.0381  0.9586  0.2686
 5684SOL     OW28513   2.974   2.055   4.655 -0.7253 -0.5260 -0.5220
 5684SOL    HW128514   2.967   2.150   4.647 -1.4897 -0.6677 -1.5462
 5684SOL    HW228515   3.007   2.029   4.741 -0.8632 -1.4901 -0.7533
 5685SOL     OW28516   1.896   0.549   5.561 -0.1676  0.7561  0.5348
 5685SOL    HW128517   1.805   0.533   5.585 -0.8268  2.2446 -0.9323
 5685SOL    HW228518   1.917   0.600   5.639 -0.0325  0.2247  0.8373
 5686SOL     OW28519   3.175   2.554   4.535  0.6080 -0.7830  0.3683
 5686SOL    HW128520   3.119   2.620   4.493 -0.5014 -1.6940  0.4160
 5686SOL    HW228521   3.144   2.475   4.490 -2.1295  0.0391  0.8347
 5687SOL     OW28522   2.325   3.208   1.770  0.0770 -0.1600 -0.3593
 5687SOL    HW128523   2.300   3.140   1.708  1.1094 -0.5503 -0.3423
 5687SOL    HW228524   2.351   3.286   1.721 -3.8449 -0.7548 -3.3715
 5688SOL     OW28525   4.223   0.506   9.485 -0.1204 -0.3152 -0.2985
 5688SOL    HW128526   4.303   0.511   9.537 -0.7289  0.2371  0.6067
 5688SOL    HW228527   4.200   0.599   9.481  1.1745  0.0399  0.5078
 5689SOL     OW28528   0.913   3.247   9.639  0.5302 -0.0134 -0.1123
 5689SOL    HW128529   0.902   3.315   9.705 -0.3548 -0.0440 -0.2306
 5689SOL    HW228530   0.994   3.278   9.598 -0.2642  2.8532  0.5214
 5690SOL     OW28531   1.775   4.195   2.615  0.2025  0.0908  0.2674
 5690SOL    HW128532   1.683   4.219   2.625 -0.3977 -3.0849  2.5057
 5690SOL    HW228533   1.755   4.133   2.545  1.4890  1.0685 -0.9687
 5691SOL     OW28534   2.302   3.826  11.962  0.6640 -0.9402 -0.3573
 5691SOL    HW128535   2.340   3.894  12.018 -0.5805 -0.2518 -0.3339
 5691SOL    HW228536   2.281   3.756  12.024  0.5477 -1.9645 -1.5634
 5692SOL     OW28537   3.522   0.339   4.472  0.7972 -0.5234  0.0341
 5692SOL    HW128538   3.522   0.416   4.529 -0.5612 -0.5632  0.0909
 5692SOL    HW228539   3.468   0.365   4.398  1.1869 -0.1612 -0.1193
 5693SOL     OW28540   0.693   4.179   8.115 -0.3354 -0.2228  0.5105
 5693SOL    HW128541   0.660   4.193   8.026  0.2501 -2.6160 -0.0800
 5693SOL    HW228542   0.758   4.249   8.126  0.0702 -0.7904  1.6563
 5694SOL     OW28543   3.715   2.631  10.883 -0.0109  0.5224  0.2224
 5694SOL    HW128544   3.675   2.613  10.798 -1.5837  0.3002  1.0170
 5694SOL    HW228545   3.636   2.634  10.936 -1.6303  2.4602 -2.3079
 5695SOL     OW28546   3.782   0.223   8.209 -0.2779  0.3805 -0.3501
 5695SOL    HW128547   3.813   0.132   8.210  2.9706  1.5112  0.2860
 5695SOL    HW228548   3.837   0.263   8.141  0.9511  0.1044  0.4878
 5696SOL     OW28549   0.118   0.944   4.002  0.2918  0.2389  0.0534
 5696SOL    HW128550   0.199   0.934   3.953 -0.7710 -2.3857 -1.1494
 5696SOL    HW228551   0.057   0.956   3.929  0.1409 -0.4401  0.0688
 5697SOL     OW28552   1.795   0.450   7.534  0.8603 -0.2109  0.2202
 5697SOL    HW128553   1.867   0.389   7.549  0.6390 -0.2714  1.0395
 5697SOL    HW228554   1.748   0.412   7.460 -1.9342 -2.0582  2.9016
 5698SOL     OW28555   1.932   0.978   5.648 -0.0908 -0.0682  0.2171
 5698SOL    HW128556   2.019   1.017   5.646 -0.6775  1.1579 -1.6534
 5698SOL    HW228557   1.935   0.923   5.726  1.4166 -1.2827 -0.6911
 5699SOL     OW28558   2.267   2.597   6.296  0.4026  0.4589  0.5110
 5699SOL    HW128559   2.189   2.641   6.263 -0.9764 -2.5569 -0.2539
 5699SOL    HW228560   2.267   2.635   6.383  0.5272  2.9775 -0.6011
 5700SOL     OW28561   3.401   2.587   3.043  0.2469  0.0211  0.7454
 5700SOL    HW128562   3.381   2.609   2.952  0.2797 -2.5824  0.0930
 5700SOL    HW228563   3.315   2.563   3.076 -0.9274 -0.1059 -2.3887
 5701SOL     OW28564   0.363   2.985   2.616  0.3249 -0.5349  0.0190
 5701SOL    HW128565   0.391   3.076   2.627  0.9503 -0.5563 -1.3660
 5701SOL    HW228566   0.270   3.001   2.601  0.4713  0.1069 -0.2405
 5702SOL     OW28567   2.830   1.467   4.475  0.2167 -0.3759  0.1355
 5702SOL    HW128568   2.815   1.554   4.513  1.7862 -1.0123  2.2433
 5702SOL    HW228569   2.916   1.448   4.514 -0.0624 -2.4872 -0.2827
 5703SOL     OW28570   3.984   0.832   7.398 -0.7402  0.5665  0.0726
 5703SOL    HW128571   3.971   0.923   7.423 -2.3043  0.6758 -1.1209
 5703SOL    HW228572   4.069   0.825   7.354 -0.7626  0.7536 -0.0013
 5704SOL     OW28573   1.301   4.208   3.558 -0.1950 -0.3273 -0.3354
 5704SOL    HW128574   1.309   4.259   3.477 -0.9808  4.2192  2.4406
 5704SOL    HW228575   1.306   4.117   3.530  2.2431 -0.6698  1.2336
 5705SOL     OW28576   1.868   3.498   3.210 -0.6255  0.1522  0.2199
 5705SOL    HW128577   1.911   3.441   3.274  0.4749  0.6480 -0.0835
 5705SOL    HW228578   1.796   3.529   3.265 -1.3599  0.3350 -0.8269
 5706SOL     OW28579   0.832   2.612  12.944  0.8533  0.0043  0.3393
 5706SOL    HW128580   0.796   2.523  12.952 -0.6998  0.7109  1.2916
 5706SOL    HW228581   0.820   2.640  12.853 -2.7898 -1.8011  0.2531
 5707SOL     OW28582   3.812   1.848   9.843 -0.6822 -0.0715 -0.5186
 5707SOL    HW128583   3.848   1.874   9.758  1.9543 -1.1314  0.2606
 5707SOL    HW228584   3.894   1.849   9.893 -0.3789 -0.0869 -1.0153
 5708SOL     OW28585   0.165   4.007   5.619  0.3802  0.1177  0.1271
 5708SOL    HW128586   0.244   4.017   5.566  0.8861 -1.9115  0.4883
 5708SOL    HW228587   0.100   4.034   5.554  1.2115 -0.7761 -1.0994
 5709SOL     OW28588   3.463   3.913   3.074  0.8695 -0.4797  0.4883
 5709SOL    HW128589   3.427   3.826   3.090 -0.7683  0.4643  1.8343
 5709SOL    HW228590   3.555   3.888   3.063  1.1772  0.3901  1.0950
 5710SOL     OW28591   2.883   4.137   5.051 -0.7437  0.4874 -0.4392
 5710SOL    HW128592   2.831   4.150   4.972 -0.2554  1.0196 -0.6719
 5710SOL    HW228593   2.814   4.123   5.116  0.9482  0.8367  1.4483
 5711SOL     OW28594   3.831   2.946   6.617  0.5236  0.1946 -0.0083
 5711SOL    HW128595   3.910   2.939   6.670  0.1877 -1.0338  0.3290
 5711SOL    HW228596   3.849   3.034   6.584  0.3886 -0.4959 -1.9535
 5712SOL     OW28597   1.577   0.608  10.206 -0.1488  0.0050 -0.1892
 5712SOL    HW128598   1.588   0.533  10.265  1.3201 -0.8068 -1.4858
 5712SOL    HW228599   1.628   0.588  10.128 -0.0118 -0.6165  0.0622
 5713SOL     OW28600   1.033   2.148   1.894 -0.1609 -0.0622  0.0177
 5713SOL    HW128601   1.112   2.101   1.919 -0.8395 -0.8792  0.6471
 5713SOL    HW228602   1.008   2.097   1.818 -0.0160 -0.8280  0.4881
 5714SOL     OW28603   3.410   2.378   1.880 -0.1268 -0.5023 -0.2101
 5714SOL    HW128604   3.371   2.302   1.838 -0.7371 -0.4414  0.2528
 5714SOL    HW228605   3.380   2.442   1.815 -1.2436 -1.6157 -0.7838
 5715SOL     OW28606   4.516   2.925   9.407  0.3992  0.0348  0.2636
 5715SOL    HW128607   4.490   2.913   9.498 -0.5806  2.7628  0.3648
 5715SOL    HW228608   4.543   2.838   9.379 -1.2878  0.3768 -2.4354
 5716SOL     OW28609   0.790   2.441   8.752 -0.3894  1.2121 -0.1119
 5716SOL    HW128610   0.750   2.526   8.768 -0.7143  1.3267 -1.4776
 5716SOL    HW228611   0.786   2.432   8.657 -0.4675 -0.8461  0.0793
 5717SOL     OW28612   3.905   4.027   5.113  0.5302 -0.2551  0.1464
 5717SOL    HW128613   3.899   3.962   5.043  0.0352  1.7983 -1.7220
 5717SOL    HW228614   3.822   4.008   5.157 -0.2473  2.4816 -0.1582
 5718SOL     OW28615   4.062   4.277  10.005  0.3975  0.0823 -0.8795
 5718SOL    HW128616   3.967   4.272  10.008  0.4201  0.8061  1.0319
 5718SOL    HW228617   4.089   4.339  10.073 -0.2492 -0.4386 -0.1535
 5719SOL     OW28618   2.453   0.982   6.215  0.3655 -0.0921 -0.0971
 5719SOL    HW128619   2.418   0.908   6.265 -1.1486 -0.4741 -1.7284
 5719SOL    HW228620   2.546   0.978   6.237 -0.2940 -0.2495  2.5775
 5720SOL     OW28621   0.392   1.998   2.596  0.0397 -0.2861  0.3056
 5720SOL    HW128622   0.354   2.081   2.623 -1.1908 -0.7714  0.0789
 5720SOL    HW228623   0.354   1.990   2.509 -1.5203 -1.3688  1.0721
 5721SOL     OW28624   0.111   0.078   5.384  0.4386  0.6248  0.2696
 5721SOL    HW128625   0.016   0.090   5.377  0.3989 -0.5329 -1.1739
 5721SOL    HW228626   0.120   0.009   5.450  2.1420 -1.0591 -1.7272
 5722SOL     OW28627   0.883   1.599  16.907 -0.2294 -0.4497  0.0632
 5722SOL    HW128628   0.959   1.541  16.900  0.7740  0.7504  0.9084
 5722SOL    HW228629   0.850   1.595  16.818 -0.1504 -1.6492  0.0986
 5723SOL     OW28630   3.587   3.037   2.681 -0.6085  0.0137 -0.1926
 5723SOL    HW128631   3.529   3.101   2.641 -0.0703  0.6865  0.0964
 5723SOL    HW228632   3.562   3.061   2.770 -2.1533 -1.8212 -0.1228
 5724SOL     OW28633   0.235   0.844   6.942 -0.5341 -0.5368 -0.2218
 5724SOL    HW128634   0.170   0.899   6.986  1.8947  1.1140  1.2560
 5724SOL    HW228635   0.216   0.760   6.984  1.0156 -0.1899  1.1580
 5725SOL     OW28636   3.655   4.259   5.110  0.0740  0.2831  0.3741
 5725SOL    HW128637   3.613   4.340   5.078 -1.0777 -0.4510  0.0290
 5725SOL    HW228638   3.704   4.239   5.030  1.7391  1.9646  0.9546
 5726SOL     OW28639   3.255   2.271  15.711 -0.0181  0.6504 -0.4125
 5726SOL    HW128640   3.303   2.267  15.629  0.2860 -0.8229 -0.1512
 5726SOL    HW228641   3.327   2.288  15.771 -0.2695  0.0868  0.0482
 5727SOL     OW28642   2.526   2.368   4.734 -0.3174 -0.1505  0.2526
 5727SOL    HW128643   2.525   2.303   4.663  1.6537  2.1731 -1.8963
 5727SOL    HW228644   2.433   2.365   4.757 -0.8910  0.8339 -1.9382
 5728SOL     OW28645   2.192   1.444   2.941  0.6536  0.8267  0.1344
 5728SOL    HW128646   2.239   1.382   2.886 -0.6857  1.0929 -1.3214
 5728SOL    HW228647   2.138   1.489   2.875 -0.5193 -1.9777 -0.8338
 5729SOL     OW28648   2.432   1.122  13.440  0.2446 -0.2635 -0.0943
 5729SOL    HW128649   2.397   1.115  13.352 -0.1153  0.4672 -0.0082
 5729SOL    HW228650   2.457   1.032  13.460 -1.3014 -1.1066 -2.0002
 5730SOL     OW28651   0.643   2.010   1.199  0.5035  0.1578 -1.3578
 5730SOL    HW128652   0.649   1.933   1.142 -0.3866 -0.8239 -0.1194
 5730SOL    HW228653   0.733   2.011   1.231 -0.3462  1.0806  0.9500
 5731SOL     OW28654   1.761   3.505   0.622 -0.3296  0.0266 -0.7089
 5731SOL    HW128655   1.746   3.575   0.686  0.6237  0.6185 -1.1248
 5731SOL    HW228656   1.817   3.559   0.565  0.6683 -0.9006 -0.6084
 5732SOL     OW28657   0.417   1.866   7.322  0.6457  0.0525  0.2605
 5732SOL    HW128658   0.400   1.867   7.228  1.9235 -2.1332 -0.0001
 5732SOL    HW228659   0.507   1.834   7.331 -0.2663 -2.0332  2.0487
 5733SOL     OW28660   2.371   0.652  15.188 -0.2185  0.0578  0.1594
 5733SOL    HW128661   2.444   0.674  15.246  0.8080 -0.4877 -0.9412
 5733SOL    HW228662   2.366   0.736  15.143  0.8553  0.4949  0.8460
 5734SOL     OW28663   3.231   1.961   8.743  0.0361 -0.1951 -0.2791
 5734SOL    HW128664   3.181   1.908   8.805  1.4217 -1.6698 -0.4149
 5734SOL    HW228665   3.292   1.891   8.717 -0.2412 -0.1404 -1.0778
 5735SOL     OW28666   2.392   0.150   5.110  0.7456  0.0781 -0.2534
 5735SOL    HW128667   2.374   0.230   5.160  3.9438  1.1995 -0.8875
 5735SOL    HW228668   2.435   0.102   5.180 -1.8969 -2.4895 -0.4206
 5736SOL     OW28669   2.956   1.690   4.878 -0.2637 -0.0597 -0.5045
 5736SOL    HW128670   2.900   1.633   4.825 -0.2031 -0.0957 -0.5284
 5736SOL    HW228671   2.898   1.685   4.955  0.1812 -1.6676 -0.2873
 5737SOL     OW28672   4.632   4.607   3.742  0.3117 -0.0373 -0.1073
 5737SOL    HW128673   4.716   4.598   3.696  0.5106  3.1888 -0.4080
 5737SOL    HW228674   4.655   4.610   3.835  0.1488 -1.1545 -0.0289
 5738SOL     OW28675   3.962   0.600   3.336 -0.1339  0.4241 -0.3261
 5738SOL    HW128676   4.005   0.525   3.294  1.3716  1.3924 -0.5228
 5738SOL    HW228677   3.968   0.576   3.429 -0.0518  2.1695  0.1127
 5739SOL     OW28678   1.496   1.826  14.566 -0.5806  0.6687  0.1251
 5739SOL    HW128679   1.452   1.742  14.557  0.1353  0.3654 -0.6136
 5739SOL    HW228680   1.490   1.837  14.661 -0.2699  1.0991  0.0958
 5740SOL     OW28681   4.061   1.148  14.558 -0.4701 -0.1948  0.1505
 5740SOL    HW128682   4.050   1.146  14.463 -0.6075 -0.7985  0.1746
 5740SOL    HW228683   4.132   1.211  14.555  0.2142 -0.8763  1.8176
 5741SOL     OW28684   3.926   2.017   1.093  0.2057  0.5977 -0.5747
 5741SOL    HW128685   3.856   2.033   1.157 -1.1932  0.0191 -1.9833
 5741SOL    HW228686   3.983   2.087   1.125 -1.1338  1.9584 -1.1612
 5742SOL     OW28687   0.928   2.274   0.765  0.1490  0.0397  0.3289
 5742SOL    HW128688   0.862   2.267   0.834  0.0977 -0.6844  0.2143
 5742SOL    HW228689   0.890   2.345   0.712  0.6868  0.3811  0.4092
 5743SOL     OW28690   2.118   3.162   2.253  0.1837 -0.5460 -0.0874
 5743SOL    HW128691   2.152   3.159   2.343 -1.1957  0.3896  0.4639
 5743SOL    HW228692   2.188   3.210   2.209  1.3065 -2.2025 -0.1150
 5744SOL     OW28693   2.598   3.837   0.978  0.6450 -0.7954  0.1914
 5744SOL    HW128694   2.607   3.742   0.987 -1.7142 -0.7577  2.8792
 5744SOL    HW228695   2.519   3.847   1.031  2.2779  1.1119  2.3166
 5745SOL     OW28696   1.628   2.604   1.855 -0.1211 -0.0937 -0.3852
 5745SOL    HW128697   1.709   2.633   1.897 -1.1081  2.3236 -0.1872
 5745SOL    HW228698   1.647   2.659   1.779  2.1611 -0.4296 -0.0747
 5746SOL     OW28699   2.847   2.017   8.578  0.4409  0.3337  0.1002
 5746SOL    HW128700   2.815   2.029   8.489  3.1502  3.7626 -0.4219
 5746SOL    HW228701   2.919   2.081   8.576  0.1303  0.7403  1.4971
 5747SOL     OW28702   2.577   2.139  11.660 -0.1931  0.3017  0.0536
 5747SOL    HW128703   2.548   2.073  11.723  0.3811 -0.0785 -0.0692
 5747SOL    HW228704   2.535   2.101  11.582 -0.3664  0.0454  0.2725
 5748SOL     OW28705   1.009   3.571   9.052  0.3010 -0.0926 -0.0511
 5748SOL    HW128706   0.924   3.543   9.085 -0.7804  2.0194 -1.0835
 5748SOL    HW228707   1.060   3.493   9.075  1.2329  0.0561 -1.5787
 5749SOL     OW28708   3.833   2.262   7.846 -0.5194  0.4751  0.0192
 5749SOL    HW128709   3.871   2.178   7.822 -0.2830  0.5444  0.1487
 5749SOL    HW228710   3.901   2.298   7.904  0.5241 -3.7271  1.3656
 5750SOL     OW28711   3.255   0.132   8.118  0.1895 -0.3796  0.1163
 5750SOL    HW128712   3.336   0.180   8.104 -0.9015  0.9907 -1.5527
 5750SOL    HW228713   3.266   0.094   8.205  2.5943  1.6378  0.6783
 5751SOL     OW28714   3.177   2.270   7.247  0.0380  0.0982  0.4886
 5751SOL    HW128715   3.171   2.317   7.330  1.8688 -0.0418  0.7124
 5751SOL    HW228716   3.201   2.180   7.271  1.8747  0.8289  1.4310
 5752SOL     OW28717   0.080   1.351   7.759 -0.4765  0.1353 -0.0602
 5752SOL    HW128718   0.031   1.395   7.829 -0.7488 -2.5620  1.4702
 5752SOL    HW228719   0.137   1.299   7.817 -0.0554 -0.5796 -1.1129
 5753SOL     OW28720   0.174   3.209   7.686 -0.6688  0.5284  0.8700
 5753SOL    HW128721   0.268   3.211   7.669 -1.2553 -2.0234 -2.5192
 5753SOL    HW228722   0.167   3.232   7.779 -2.3709 -1.3914  1.2320
 5754SOL     OW28723   3.810   2.366  12.349  0.1787 -0.1687  0.1303
 5754SOL    HW128724   3.895   2.360  12.392  0.8346  0.5437 -1.0477
 5754SOL    HW228725   3.773   2.453  12.365 -0.0667  0.1588 -2.1670
 5755SOL     OW28726   1.778   3.857  13.809 -0.7537 -0.1207  0.1384
 5755SOL    HW128727   1.783   3.883  13.717  0.4215  1.0052  0.5232
 5755SOL    HW228728   1.868   3.830  13.828 -0.0549  0.9961 -1.5958
 5756SOL     OW28729   4.013   0.119   1.620  0.6015  0.3383 -0.4177
 5756SOL    HW128730   4.073   0.187   1.590 -0.3156  1.3741  0.0669
 5756SOL    HW228731   3.934   0.147   1.574 -1.2846 -0.8971  2.0747
 5757SOL     OW28732   3.174   1.407   8.586 -0.2783  0.1405 -0.3298
 5757SOL    HW128733   3.191   1.382   8.495  1.3782  2.8556 -0.7793
 5757SOL    HW228734   3.139   1.495   8.572  0.7227  0.5621 -0.1653
 5758SOL     OW28735   1.781   1.159   5.540  0.0754  0.6478 -0.0114
 5758SOL    HW128736   1.834   1.165   5.460 -1.1211 -0.0090 -0.8519
 5758SOL    HW228737   1.819   1.081   5.582 -1.4760  0.6299  1.3406
 5759SOL     OW28738   0.491   4.501   7.196  0.2627 -0.1191 -0.7875
 5759SOL    HW128739   0.509   4.412   7.164 -0.2755 -0.5912  0.2235
 5759SOL    HW228740   0.408   4.479   7.237 -0.7892  1.7117 -1.9371
 5760SOL     OW28741   3.000   3.153  10.453 -0.4032  0.0679 -0.0123
 5760SOL    HW128742   3.047   3.105  10.385  0.1977 -0.0264  0.4690
 5760SOL    HW228743   2.977   3.229  10.401 -1.8524 -0.3973 -0.0697
 5761SOL     OW28744   3.904   3.830  13.976 -0.0096  0.1480 -0.5066
 5761SOL    HW128745   3.957   3.760  14.014  2.0050  1.1062 -1.5878
 5761SOL    HW228746   3.894   3.890  14.049 -1.4911 -1.6402  0.7782
 5762SOL     OW28747   1.939   2.803  12.705 -0.4231 -0.2883 -0.5318
 5762SOL    HW128748   1.935   2.716  12.665 -0.4605 -1.4765  2.0862
 5762SOL    HW228749   1.876   2.854  12.653  0.7111  1.2278 -0.4194
 5763SOL     OW28750   0.723   3.785   8.595  0.1683 -0.0903  0.1709
 5763SOL    HW128751   0.766   3.749   8.517 -1.7447 -2.0083 -0.0206
 5763SOL    HW228752   0.800   3.789   8.651 -0.2556 -3.0417  0.9469
 5764SOL     OW28753   0.416   2.457  15.910 -0.0021 -0.3719 -0.3145
 5764SOL    HW128754   0.493   2.418  15.870  0.2221  1.1634 -1.3643
 5764SOL    HW228755   0.410   2.529  15.848 -0.0419  0.5507  0.7715
 5765SOL     OW28756   0.234   4.349   3.571  0.3334  0.3069 -0.0338
 5765SOL    HW128757   0.231   4.347   3.667 -0.1364  1.4155 -0.0284
 5765SOL    HW228758   0.309   4.294   3.550 -1.3038 -1.8358 -0.3332
 5766SOL     OW28759   0.813   1.558   0.809  0.2014 -0.5039 -0.6044
 5766SOL    HW128760   0.860   1.640   0.820 -1.8173  0.8218 -1.8417
 5766SOL    HW228761   0.868   1.490   0.770  0.7094 -0.5697  0.2111
 5767SOL     OW28762   0.289   0.486   8.598 -0.0220 -0.3274  0.2977
 5767SOL    HW128763   0.358   0.504   8.535  1.5884  0.7751  2.3932
 5767SOL    HW228764   0.214   0.507   8.542  1.0518  0.4097 -0.8670
 5768SOL     OW28765   4.295   0.565   2.362 -0.4771 -0.4818 -0.0218
 5768SOL    HW128766   4.244   0.646   2.359  1.1096  0.6305  2.3822
 5768SOL    HW228767   4.247   0.517   2.295 -3.6795  1.4683  0.9057
 5769SOL     OW28768   3.914   4.184   6.803 -0.2242  0.5093  0.0986
 5769SOL    HW128769   3.871   4.255   6.755 -1.2361 -0.5943 -0.6184
 5769SOL    HW228770   3.991   4.221   6.847 -0.2143  0.0232  0.4913
 5770SOL     OW28771   2.655   0.268   0.211  0.2972  0.2839 -0.5247
 5770SOL    HW128772   2.577   0.223   0.178  0.3222 -1.2175  1.4754
 5770SOL    HW228773   2.666   0.337   0.146  1.2392  0.9073  0.3120
 5771SOL     OW28774   0.091   3.360   0.649  0.2644  0.1825 -0.3569
 5771SOL    HW128775   0.074   3.284   0.704  1.9378  0.5056  0.5914
 5771SOL    HW228776   0.161   3.414   0.686  0.6564 -0.6564  0.1284
 5772SOL     OW28777   2.153   0.970   4.830 -0.1787  0.6360 -0.2811
 5772SOL    HW128778   2.089   0.898   4.835  0.1956  0.4216  1.2471
 5772SOL    HW228779   2.098   1.028   4.777 -1.0167  1.9666  2.0714
 5773SOL     OW28780   3.805   3.360   6.299  0.2941 -0.0058  0.0964
 5773SOL    HW128781   3.880   3.301   6.290  0.1659 -0.4108  1.6948
 5773SOL    HW228782   3.851   3.443   6.313 -1.5117  1.2559 -1.4427
 5774SOL     OW28783   0.972   0.076   3.977 -0.9540 -0.0928  0.1194
 5774SOL    HW128784   0.993   0.053   4.068 -2.4400  1.0394  0.7460
 5774SOL    HW228785   1.006   0.163   3.959  0.1624 -0.2670  1.3457
 5775SOL     OW28786   4.589   0.750  13.903 -0.3695  0.0405  0.7264
 5775SOL    HW128787   4.632   0.671  13.936  1.4597  1.6782  2.2990
 5775SOL    HW228788   4.668   0.796  13.874 -1.5585  1.4383 -0.3227
 5776SOL     OW28789   1.708   0.846  10.276  0.2558 -0.0595 -0.2213
 5776SOL    HW128790   1.697   0.908  10.204 -2.0042 -2.8390 -2.2536
 5776SOL    HW228791   1.673   0.766  10.239  0.3177 -0.0993 -0.1947
 5777SOL     OW28792   0.433   2.705   9.037  0.0657  0.3577  0.2015
 5777SOL    HW128793   0.357   2.744   9.080  0.6044 -1.5470  2.9009
 5777SOL    HW228794   0.504   2.764   9.064  0.0113 -0.5417  2.3558
 5778SOL     OW28795   0.808   1.108   7.387 -0.7385  0.0150 -0.3530
 5778SOL    HW128796   0.857   1.030   7.361 -2.7127 -0.8756 -1.3877
 5778SOL    HW228797   0.778   1.131   7.299  1.3890 -0.3679 -1.1670
 5779SOL     OW28798   3.843   3.134  15.323  0.1318  0.0638  0.0522
 5779SOL    HW128799   3.854   3.083  15.242  0.7861 -1.2254  0.9648
 5779SOL    HW228800   3.811   3.215  15.284 -0.5088  0.2078  0.8784
 5780SOL     OW28801   0.249   1.645  10.552  0.3332  0.1267  0.6129
 5780SOL    HW128802   0.244   1.637  10.647  0.3050 -0.6690  0.5454
 5780SOL    HW228803   0.174   1.593  10.523  0.6899  0.7699 -1.4761
 5781SOL     OW28804   4.216   2.255   9.793  0.1129 -0.4138 -0.5887
 5781SOL    HW128805   4.142   2.248   9.732 -1.3429  1.2188  0.9665
 5781SOL    HW228806   4.231   2.161   9.801  2.3527  0.0900  0.9756
 5782SOL     OW28807   4.487   0.902  11.503 -0.2710  0.3986 -0.0013
 5782SOL    HW128808   4.559   0.839  11.503 -0.1655  0.5160 -0.4707
 5782SOL    HW228809   4.531   0.976  11.544 -1.9746 -0.4040  3.2805
 5783SOL     OW28810   1.713   4.307   8.096  0.1721  0.2387  0.3237
 5783SOL    HW128811   1.705   4.358   8.176  0.0178  1.6399 -0.5855
 5783SOL    HW228812   1.790   4.259   8.126 -1.1988 -2.0432  0.1895
 5784SOL     OW28813   1.673   1.318  11.747  0.2024 -0.1252 -0.3473
 5784SOL    HW128814   1.728   1.279  11.679  1.4766 -0.4047  0.8425
 5784SOL    HW228815   1.653   1.237  11.793  0.4290  0.4390  0.7542
 5785SOL     OW28816   2.780   2.143   8.960 -0.1695  0.3319  0.2501
 5785SOL    HW128817   2.700   2.188   8.936  0.0537  0.0837 -0.9885
 5785SOL    HW228818   2.768   2.061   8.911 -1.3642  1.9636 -2.1593
 5786SOL     OW28819   3.835   0.810   3.222  0.0414  0.0710  0.0043
 5786SOL    HW128820   3.827   0.866   3.299  3.8838  2.4223 -1.2981
 5786SOL    HW228821   3.878   0.731   3.255 -1.9388 -1.2837 -0.6754
 5787SOL     OW28822   2.557   3.661   8.744 -0.5721  0.1709  1.0631
 5787SOL    HW128823   2.491   3.663   8.675 -0.9180  0.6633  1.4064
 5787SOL    HW228824   2.585   3.752   8.741  0.4977 -0.0382  3.9519
 5788SOL     OW28825   0.227   1.986   1.178 -0.0391 -0.2466  0.1445
 5788SOL    HW128826   0.193   1.952   1.261  0.2182 -0.3585  0.2060
 5788SOL    HW228827   0.288   2.059   1.184 -1.4424  0.9078  0.1913
 5789SOL     OW28828   3.279   1.504   4.418  0.3115  0.0943 -0.1795
 5789SOL    HW128829   3.276   1.599   4.428 -1.6390  0.0718 -0.6823
 5789SOL    HW228830   3.287   1.496   4.323 -1.4758 -2.5389 -0.1118
 5790SOL     OW28831   4.226   1.867   8.160  0.1464  0.3762  0.5066
 5790SOL    HW128832   4.133   1.857   8.138  0.8694 -2.7684 -1.0854
 5790SOL    HW228833   4.215   1.903   8.248 -1.0269  4.4169 -1.3022
 5791SOL     OW28834   1.082   2.207   6.800  0.3808  1.1311  0.2196
 5791SOL    HW128835   1.039   2.241   6.722  0.6644  3.0274  0.8931
 5791SOL    HW228836   1.138   2.144   6.756 -4.0236 -1.0143 -2.3044
 5792SOL     OW28837   0.609   1.104   7.955 -0.1528 -0.1424  0.0513
 5792SOL    HW128838   0.652   1.041   8.013 -0.2896  0.0430  0.3527
 5792SOL    HW228839   0.652   1.189   7.964 -2.9221  1.4217 -1.4679
 5793SOL     OW28840   0.047   3.657   0.718  0.0525  0.5119  0.5866
 5793SOL    HW128841   4.722   3.623   0.645  2.4688 -0.1504 -0.8343
 5793SOL    HW228842   0.052   3.586   0.781 -1.7251  0.5280  0.7421
 5794SOL     OW28843   2.141   1.424   0.570  0.2676  0.0620 -0.2337
 5794SOL    HW128844   2.185   1.365   0.509  0.5117  1.1326 -1.0786
 5794SOL    HW228845   2.167   1.510   0.538  0.2677  0.0167 -0.3530
 5795SOL     OW28846   1.552   0.298   2.383 -0.4468  0.0775 -0.4383
 5795SOL    HW128847   1.479   0.242   2.411  0.0986  0.7167  2.2808
 5795SOL    HW228848   1.550   0.279   2.289  0.7271 -0.3126 -0.3733
 5796SOL     OW28849   1.662   2.110  15.449 -0.2299  0.2996 -0.0023
 5796SOL    HW128850   1.669   2.065  15.364  3.0874 -1.0685  0.9744
 5796SOL    HW228851   1.731   2.066  15.499 -1.6779 -0.8226  0.9771
 5797SOL     OW28852   1.704   2.191   2.872 -0.3014 -0.8937  0.4772
 5797SOL    HW128853   1.653   2.155   2.800  0.2066  0.6464 -0.6536
 5797SOL    HW228854   1.724   2.112   2.921  1.6732 -0.5698  0.2124
 5798SOL     OW28855   3.058   3.704   6.587 -0.0367 -0.5749  0.3691
 5798SOL    HW128856   3.020   3.783   6.625  4.3288  2.1739 -1.0510
 5798SOL    HW228857   2.980   3.682   6.536  0.6083  2.5761 -2.0156
 5799SOL     OW28858   2.909   4.171   9.001 -0.3884  0.2919 -0.1258
 5799SOL    HW128859   2.995   4.128   9.007 -1.7258 -2.1583  1.4986
 5799SOL    HW228860   2.848   4.098   9.007  0.4614 -0.3071  1.4753
 5800SOL     OW28861   4.271   4.178   1.835  0.1063  0.1841 -0.3280
 5800SOL    HW128862   4.200   4.223   1.880  0.2730  0.9274 -0.8236
 5800SOL    HW228863   4.222   4.112   1.786  0.3302  0.8195 -1.3963
 5801SOL     OW28864   0.712   3.640   4.195 -0.0027 -0.2349 -0.1850
 5801SOL    HW128865   0.663   3.699   4.138  1.9870  2.8771  1.3078
 5801SOL    HW228866   0.795   3.687   4.201 -0.4976  0.5923  0.1823
 5802SOL     OW28867   0.391   3.624   4.052 -0.2406 -0.2891  0.1312
 5802SOL    HW128868   0.383   3.565   4.127 -1.2282  0.3417  0.5203
 5802SOL    HW228869   0.339   3.575   3.989 -0.2793  0.9164 -0.7844
 5803SOL     OW28870   3.018   0.678   6.808 -0.2309  0.1853 -0.5140
 5803SOL    HW128871   3.071   0.722   6.875 -0.4921 -1.7320  0.9443
 5803SOL    HW228872   2.962   0.620   6.860 -0.9969  2.3084  1.0142
 5804SOL     OW28873   3.638   2.254   4.199  0.5913 -0.5695  0.4773
 5804SOL    HW128874   3.550   2.291   4.188 -0.2566 -2.8248 -0.3808
 5804SOL    HW228875   3.683   2.318   4.144  0.7130 -0.5742  0.5712
 5805SOL     OW28876   2.884   2.538  12.382 -0.4675 -0.3676 -0.1278
 5805SOL    HW128877   2.969   2.527  12.425 -1.4166  0.6276  2.0430
 5805SOL    HW228878   2.862   2.625  12.416  0.7357 -0.3831  0.6893
 5806SOL     OW28879   3.493   4.581  15.175 -0.2559 -0.8966  0.5208
 5806SOL    HW128880   3.464   4.563  15.086 -2.3448 -0.8347  1.1898
 5806SOL    HW228881   3.546   4.506  15.203  2.8762  1.4625  0.9418
 5807SOL     OW28882   1.597   3.623   4.685  0.9799 -0.0416 -0.2650
 5807SOL    HW128883   1.606   3.536   4.646  0.5646  0.2961 -1.0978
 5807SOL    HW228884   1.688   3.639   4.711  0.3306  0.5374  1.7165
 5808SOL     OW28885   2.876   4.691   4.325 -0.2119  0.1085  0.0816
 5808SOL    HW128886   2.967   4.664   4.309 -0.3352  0.1606 -0.7103
 5808SOL    HW228887   2.863   4.669   4.417  2.4163  1.2446  0.7288
 5809SOL     OW28888   0.198   4.383   9.571 -0.0490 -0.3079  0.3654
 5809SOL    HW128889   0.212   4.415   9.660  2.6096  0.0782 -0.1932
 5809SOL    HW228890   0.240   4.448   9.515 -0.4559 -1.5441 -1.3922
 5810SOL     OW28891   3.660   1.701  11.612  0.5565 -0.0157 -0.7567
 5810SOL    HW128892   3.622   1.786  11.632  0.7405  0.0424 -0.6587
 5810SOL    HW228893   3.717   1.680  11.686  0.4733  1.2144 -0.3453
 5811SOL     OW28894   2.611   2.189   1.318  0.0280 -0.0721  0.4699
 5811SOL    HW128895   2.699   2.157   1.340  1.1772  2.4913 -0.3954
 5811SOL    HW228896   2.621   2.253   1.248 -2.4963  2.2505  2.2390
 5812SOL     OW28897   4.404   0.070   8.955 -0.4247  0.3226  0.6095
 5812SOL    HW128898   4.403   0.105   9.044  2.9793  3.0208 -0.4045
 5812SOL    HW228899   4.470   0.121   8.908 -1.8951  0.4304 -1.3364
 5813SOL     OW28900   3.709   3.709  10.936  0.8666 -0.1172 -0.0076
 5813SOL    HW128901   3.684   3.659  11.013  1.0186 -1.2946 -0.7286
 5813SOL    HW228902   3.649   3.784  10.939  1.9248  0.6688  1.3361
 5814SOL     OW28903   3.902   2.502  11.427 -0.2416  0.0722  0.1752
 5814SOL    HW128904   3.815   2.466  11.443 -0.4061 -0.9315 -2.9119
 5814SOL    HW228905   3.941   2.502  11.514  0.0933  0.6641  0.0246
 5815SOL     OW28906   1.641   2.375   0.329 -0.3786 -0.3358 -0.0902
 5815SOL    HW128907   1.686   2.396   0.247  0.4442 -0.4167  0.3426
 5815SOL    HW228908   1.716   2.355   0.385  0.2251 -1.6291 -1.3733
 5816SOL     OW28909   3.250   2.750   2.113  0.2326 -0.4635  0.5359
 5816SOL    HW128910   3.342   2.774   2.103  0.3273 -0.7101  0.7989
 5816SOL    HW228911   3.213   2.829   2.153  0.3572 -0.7310  1.1948
 5817SOL     OW28912   3.331   2.020   2.664 -0.0455 -0.4716  0.7661
 5817SOL    HW128913   3.307   1.956   2.597 -0.1281  2.8195 -2.3457
 5817SOL    HW228914   3.246   2.062   2.673 -0.0554 -0.4405  0.5394
 5818SOL     OW28915   0.324   1.782   1.722  0.1911  0.3870  0.1083
 5818SOL    HW128916   0.291   1.707   1.773 -2.2892 -0.8873 -3.3771
 5818SOL    HW228917   0.404   1.794   1.772  0.8500 -2.4751 -0.2109
 5819SOL     OW28918   2.590   2.232   6.571 -0.2938  0.0754  0.5797
 5819SOL    HW128919   2.503   2.197   6.554 -0.4958  0.4539  0.8246
 5819SOL    HW228920   2.640   2.161   6.531 -0.3814 -0.0205  0.6407
 5820SOL     OW28921   2.274   0.241   4.322 -0.0136 -0.0759 -0.2520
 5820SOL    HW128922   2.339   0.311   4.328  0.2354 -0.3519  0.2805
 5820SOL    HW228923   2.222   0.247   4.402  0.2959 -0.6714 -0.0076
 5821SOL     OW28924   3.943   1.642   6.344  0.3584  0.2404  0.1107
 5821SOL    HW128925   3.850   1.653   6.325  0.2765 -1.9416 -0.7625
 5821SOL    HW228926   3.984   1.723   6.314  0.2343  0.5578  0.7933
 5822SOL     OW28927   3.877   1.818  13.704 -0.1014 -0.3311 -0.5961
 5822SOL    HW128928   3.822   1.817  13.782 -1.1231 -0.0285 -1.3236
 5822SOL    HW228929   3.899   1.725  13.693 -1.3083 -0.7546  0.5393
 5823SOL     OW28930   2.286   2.098   6.035  0.7521 -0.0648  0.4934
 5823SOL    HW128931   2.339   2.046   5.974  0.2298 -2.1479  1.8317
 5823SOL    HW228932   2.320   2.064   6.118 -1.1051 -1.2272  0.7770
 5824SOL     OW28933   2.328   0.562   1.945  0.8387 -0.2461  0.8457
 5824SOL    HW128934   2.402   0.509   1.916 -0.2046 -0.1186 -2.0602
 5824SOL    HW228935   2.329   0.633   1.881  0.3947  0.3960  1.5493
 5825SOL     OW28936   2.041   4.582   4.347 -0.1041 -0.3985 -0.0972
 5825SOL    HW128937   2.117   4.530   4.320 -0.5896 -0.3450 -1.5627
 5825SOL    HW228938   1.979   4.549   4.283  1.3718 -2.1185 -0.6301
 5826SOL     OW28939   0.734   0.563  11.578  0.2462  0.1897  0.3064
 5826SOL    HW128940   0.648   0.592  11.609  0.4408  0.8522  0.2331
 5826SOL    HW228941   0.778   0.552  11.662 -2.0556  1.2067  1.6713
 5827SOL     OW28942   2.557   3.398   4.117 -0.2681  0.1098 -0.1909
 5827SOL    HW128943   2.600   3.431   4.196  0.0535 -1.7552  0.4136
 5827SOL    HW228944   2.492   3.343   4.161  0.6427 -0.3012  0.6371
 5828SOL     OW28945   3.602   0.057   8.450 -0.4699  0.2697  0.5234
 5828SOL    HW128946   3.692   0.026   8.458 -0.5140  0.2922  1.0685
 5828SOL    HW228947   3.586   0.029   8.360 -1.4821  0.1999  0.7274
 5829SOL     OW28948   2.381   3.811   8.130  0.6136 -0.7239  0.0869
 5829SOL    HW128949   2.325   3.854   8.195 -0.0665  1.8069 -2.1748
 5829SOL    HW228950   2.370   3.865   8.052 -1.7412 -1.0198  0.2073
 5830SOL     OW28951   2.586   1.404   8.217  0.1236  0.0406 -0.3575
 5830SOL    HW128952   2.661   1.345   8.217  1.4483  1.7226 -1.3219
 5830SOL    HW228953   2.520   1.336   8.234  0.0559  0.0518 -0.5748
 5831SOL     OW28954   0.078   4.436   7.485  0.2124  0.2391  0.1470
 5831SOL    HW128955   0.003   4.395   7.442 -0.1908  2.2483 -1.0599
 5831SOL    HW228956   0.047   4.434   7.576  0.7452 -0.2572  0.3182
 5832SOL     OW28957   3.492   0.390   3.371 -0.0469  0.4531  0.0082
 5832SOL    HW128958   3.407   0.435   3.372  0.0861  0.7221 -0.5967
 5832SOL    HW228959   3.547   0.453   3.326  0.1411 -0.8913 -1.6159
 5833SOL     OW28960   0.467   3.067   8.740  0.1024 -0.2002 -0.2721
 5833SOL    HW128961   0.534   3.135   8.738 -0.1033  0.0185  0.2403
 5833SOL    HW228962   0.392   3.126   8.737  0.4405  0.2791  0.7658
 5834SOL     OW28963   0.846   2.910   2.499 -0.7327 -0.2651  0.1477
 5834SOL    HW128964   0.927   2.904   2.447 -1.6867 -2.2957 -1.1087
 5834SOL    HW228965   0.809   2.990   2.464 -0.2072 -0.0981 -0.0264
 5835SOL     OW28966   3.327   4.526   4.176  0.0635  0.1903  0.1429
 5835SOL    HW128967   3.275   4.599   4.144 -0.3061 -0.6789 -1.2302
 5835SOL    HW228968   3.412   4.560   4.150  0.6771 -1.8239 -0.5298
 5836SOL     OW28969   4.396   0.087   8.023  0.3287 -0.7283 -0.2312
 5836SOL    HW128970   4.435   0.019   8.078 -0.6342 -0.5821  0.6248
 5836SOL    HW228971   4.475   0.097   7.969  1.1147 -0.0405  1.0555
 5837SOL     OW28972   1.950   4.662   8.820  0.6020 -0.2290  0.4714
 5837SOL    HW128973   1.983   0.018   8.854  1.1570  0.9539 -2.9059
 5837SOL    HW228974   2.003   4.659   8.740 -0.2334 -0.3446 -0.0721
 5838SOL     OW28975   1.831   4.223   3.805 -0.3120  0.3967  0.5245
 5838SOL    HW128976   1.899   4.290   3.808 -2.5135  2.6888 -0.9903
 5838SOL    HW228977   1.796   4.240   3.718  1.2928 -1.0198 -0.4028
 5839SOL     OW28978   2.200   3.847  12.314  0.1281  0.1191  0.4686
 5839SOL    HW128979   2.158   3.932  12.303  0.9415  0.5839  0.9538
 5839SOL    HW228980   2.288   3.870  12.285  0.5854 -0.6185  1.2887
 5840SOL     OW28981   1.317   3.826  15.853  0.2879  0.1272 -0.6022
 5840SOL    HW128982   1.381   3.898  15.858  0.5664 -0.0813 -1.2107
 5840SOL    HW228983   1.296   3.828  15.760  2.4085 -1.9424 -1.1407
 5841SOL     OW28984   0.804   3.435   9.178  0.2128 -0.1340  0.1305
 5841SOL    HW128985   0.725   3.488   9.171  0.5522 -0.0154 -2.6006
 5841SOL    HW228986   0.817   3.433   9.273 -1.9668  0.3807  0.4369
 5842SOL     OW28987   0.416   3.889   4.713 -0.2259 -0.6824  1.0050
 5842SOL    HW128988   0.338   3.844   4.680 -1.3528  1.4425  0.7833
 5842SOL    HW228989   0.418   3.955   4.644  1.4911 -1.7531  0.0197
 5843SOL     OW28990   4.250   2.218   3.218 -0.3268  0.1206 -0.1236
 5843SOL    HW128991   4.176   2.157   3.220 -0.0462 -0.1112  2.7959
 5843SOL    HW228992   4.208   2.298   3.187  0.7711  1.3878  1.6863
 5844SOL     OW28993   0.283   0.977   2.772  0.4871  0.1804  0.0102
 5844SOL    HW128994   0.326   1.012   2.694 -0.0032  0.1189 -0.2890
 5844SOL    HW228995   0.209   0.925   2.741  1.6812 -1.2593 -0.3974
 5845SOL     OW28996   0.218   4.226   7.107  0.1077 -0.0863 -0.6917
 5845SOL    HW128997   0.287   4.273   7.060  1.2886 -0.9877  0.1437
 5845SOL    HW228998   0.261   4.146   7.139 -0.1876 -0.5223 -1.3728
 5846SOL     OW28999   4.484   1.068   8.531  0.3905 -0.4660  0.3108
 5846SOL    HW129000   4.396   1.064   8.568 -1.5871 -0.2306 -4.4531
 5846SOL    HW229001   4.521   1.155   8.549 -4.0374  2.0922 -2.9154
 5847SOL     OW29002   2.252   3.121  10.406  0.6889 -0.2364  0.2741
 5847SOL    HW129003   2.338   3.116  10.366  1.5253  1.5310  1.8316
 5847SOL    HW229004   2.211   3.036  10.392  1.3467 -0.9537  2.7691
 5848SOL     OW29005   3.743   1.572   8.736  0.0967  0.1093 -0.4322
 5848SOL    HW129006   3.679   1.531   8.677  1.5917 -3.4521  0.4501
 5848SOL    HW229007   3.694   1.576   8.818  0.0046  0.3560 -0.5001
 5849SOL     OW29008   4.723   1.629  14.211 -0.1071 -0.0981 -0.2578
 5849SOL    HW129009   0.010   1.682  14.132  1.2398  0.0944  0.1063
 5849SOL    HW229010   0.074   1.573  14.214  0.0726  0.1322 -0.5526
 5850SOL     OW29011   1.320   3.966   3.979  0.0865 -0.1551 -0.4389
 5850SOL    HW129012   1.239   3.916   3.981 -0.2610  0.3939 -0.7953
 5850SOL    HW229013   1.362   3.943   3.896 -0.7268 -0.7163 -0.6866
 5851SOL     OW29014   0.677   2.335   0.319 -0.0361 -0.0471  0.2926
 5851SOL    HW129015   0.645   2.370   0.236  0.2513  0.3842  0.3645
 5851SOL    HW229016   0.735   2.408   0.342  1.1964 -0.9222 -0.0476
 5852SOL     OW29017   3.091   0.809   7.383  0.9789  0.0402  0.5247
 5852SOL    HW129018   3.073   0.897   7.417  1.7270  0.6052 -0.5711
 5852SOL    HW229019   3.111   0.760   7.463  0.7119  0.8407  1.0928
 5853SOL     OW29020   0.146   4.130   1.938 -0.5051 -0.2476  0.5760
 5853SOL    HW129021   0.102   4.065   1.882 -2.1727  0.8329  0.6362
 5853SOL    HW229022   0.197   4.079   2.001 -0.1673 -3.2494 -2.0779
 5854SOL     OW29023   0.344   2.289  15.342 -0.1176 -0.7421  0.1481
 5854SOL    HW129024   0.390   2.205  15.344 -1.8641 -1.6870  0.9438
 5854SOL    HW229025   0.335   2.301  15.248 -1.7236 -0.5426  0.3170
 5855SOL     OW29026   3.232   2.417  11.718  0.2975  0.2144 -0.0024
 5855SOL    HW129027   3.236   2.341  11.659 -0.7964 -0.6422  1.0391
 5855SOL    HW229028   3.173   2.384  11.786 -0.5370  1.3177 -0.1990
 5856SOL     OW29029   1.181   1.453   5.821  0.5036  0.5170 -0.0909
 5856SOL    HW129030   1.212   1.389   5.757 -0.6484  0.0291 -0.1538
 5856SOL    HW229031   1.092   1.470   5.790  1.1392  0.9944 -1.6447
 5857SOL     OW29032   0.152   3.302   1.395 -0.2580 -0.0682  0.2882
 5857SOL    HW129033   0.219   3.240   1.369  0.1621 -0.6830  2.8317
 5857SOL    HW229034   0.197   3.385   1.413  2.7356 -1.4297 -0.9761
 5858SOL     OW29035   0.166   1.611   9.471  0.1080 -0.1593  0.1252
 5858SOL    HW129036   0.130   1.688   9.427  0.0170  0.6318  1.5896
 5858SOL    HW229037   0.216   1.570   9.402 -0.1574  0.0338 -0.1848
 5859SOL     OW29038   0.120   0.018   8.172  0.3930  0.1724 -0.9083
 5859SOL    HW129039   0.159   4.668   8.128  1.3313  0.3907 -0.4577
 5859SOL    HW229040   0.197   0.074   8.177  0.3888  0.0780  0.2283
 5860SOL     OW29041   2.656   4.003   5.839 -0.1487 -0.3616 -0.4337
 5860SOL    HW129042   2.652   3.919   5.794  0.3122 -0.6818  0.1226
 5860SOL    HW229043   2.751   4.011   5.850 -0.1322  1.8505 -2.0345
 5861SOL     OW29044   3.033   1.467  13.205  0.0300 -0.2236  0.1312
 5861SOL    HW129045   3.015   1.453  13.112  3.2826 -0.5607 -0.4609
 5861SOL    HW229046   2.981   1.398  13.246 -0.9256 -0.0757 -0.8409
 5862SOL     OW29047   1.809   3.668   0.864 -0.3115  0.3374 -0.2226
 5862SOL    HW129048   1.881   3.673   0.927  2.9528  0.1552 -3.9092
 5862SOL    HW229049   1.736   3.648   0.922  0.4568 -0.9640  0.2784
 5863SOL     OW29050   1.332   2.143   5.063 -0.0671  0.0369 -0.0649
 5863SOL    HW129051   1.367   2.066   5.108  4.0485  0.7955 -1.9206
 5863SOL    HW229052   1.408   2.159   5.006  0.9875 -1.4116  0.9256
 5864SOL     OW29053   0.072   2.200   3.015  0.8284 -0.1096  0.5237
 5864SOL    HW129054   4.724   2.152   3.050 -1.9296  2.9818 -1.0894
 5864SOL    HW229055   0.076   2.285   3.059  0.2507 -0.6029  1.5060
 5865SOL     OW29056   2.565   4.655   3.196 -0.7246 -0.1816 -0.4197
 5865SOL    HW129057   2.546   0.017   3.228 -2.0692  0.7123 -3.5984
 5865SOL    HW229058   2.581   4.603   3.274 -1.3802  0.8482  0.4128
 5866SOL     OW29059   3.339   4.627  11.494 -0.2368  0.0275 -0.0767
 5866SOL    HW129060   3.256   4.629  11.445 -0.5835  1.3406  0.5670
 5866SOL    HW229061   3.309   4.673  11.573  2.3294 -0.7407  1.3222
 5867SOL     OW29062   4.031   0.383   6.661  0.2690 -0.2833  0.3459
 5867SOL    HW129063   4.075   0.466   6.643 -0.3900 -0.3185 -1.3947
 5867SOL    HW229064   4.073   0.332   6.592 -0.3823 -1.2010  0.6291
 5868SOL     OW29065   0.200   2.417  13.939 -0.3588 -0.0929 -0.1647
 5868SOL    HW129066   0.155   2.372  13.868  0.1907 -1.8446  0.5942
 5868SOL    HW229067   0.203   2.505  13.901 -1.1302 -0.8944 -2.0953
 5869SOL     OW29068   0.426   4.517   2.892  0.0730 -0.0019 -0.2205
 5869SOL    HW129069   0.331   4.523   2.882 -0.0817 -2.3438 -0.2601
 5869SOL    HW229070   0.440   4.585   2.958  2.0122 -0.3862 -0.2125
 5870SOL     OW29071   3.051   1.375   7.307  0.2161 -0.2787  0.7393
 5870SOL    HW129072   3.146   1.383   7.315  0.6766 -5.0664 -0.2854
 5870SOL    HW229073   3.016   1.433   7.374  1.2723  0.3431  0.7611
 5871SOL     OW29074   0.010   0.774   7.735  0.6006 -0.0826  0.0320
 5871SOL    HW129075   0.053   0.703   7.782 -1.5137 -0.8692  0.7240
 5871SOL    HW229076   4.653   0.785   7.779  0.0070  0.5663 -1.2426
 5872SOL     OW29077   2.025   0.128   9.345 -0.4024  0.1010  0.4147
 5872SOL    HW129078   1.968   0.109   9.419 -0.6007  2.0488  0.7812
 5872SOL    HW229079   1.979   0.097   9.267  0.5613  2.1163 -0.9655
 5873SOL     OW29080   3.031   0.557  14.184  0.0457 -0.2660  0.1688
 5873SOL    HW129081   2.957   0.599  14.227  0.9927  1.7610 -0.1857
 5873SOL    HW229082   3.033   0.597  14.097 -1.3671 -1.7628 -0.5546
 5874SOL     OW29083   4.293   2.633  15.210 -0.2486 -0.3770 -0.1356
 5874SOL    HW129084   4.290   2.708  15.270 -2.9725  0.3561 -1.1738
 5874SOL    HW229085   4.216   2.587  15.243  0.1275  0.2355  1.5742
 5875SOL     OW29086   2.251   3.216   8.237  0.5476  0.0934 -0.3688
 5875SOL    HW129087   2.232   3.198   8.330 -2.9426 -0.5857 -1.2148
 5875SOL    HW229088   2.165   3.212   8.196  1.2876  1.0466 -2.0042
 5876SOL     OW29089   3.103   1.126   5.969 -0.0244  0.1823 -0.7040
 5876SOL    HW129090   3.159   1.204   5.963 -1.7166  1.5729  2.0224
 5876SOL    HW229091   3.092   1.112   6.063  0.1641  1.5653 -0.4777
 5877SOL     OW29092   3.581   3.786   2.287 -0.2650 -0.4381  0.0908
 5877SOL    HW129093   3.649   3.840   2.327 -0.3225 -0.3805  0.1098
 5877SOL    HW229094   3.505   3.840   2.306  1.2167  1.8011 -0.2884
 5878SOL     OW29095   0.932   4.029   5.293 -0.1326 -0.1475  0.1177
 5878SOL    HW129096   0.935   4.026   5.389 -0.5245  2.3891  0.2244
 5878SOL    HW229097   0.875   3.957   5.267  0.7668 -0.8403  0.0698
 5879SOL     OW29098   3.743   3.295   7.261 -0.2235 -0.5346  0.7986
 5879SOL    HW129099   3.838   3.284   7.251 -0.0527  2.3496 -0.7541
 5879SOL    HW229100   3.739   3.388   7.285 -0.6255  0.0965 -1.7352
 5880SOL     OW29101   3.904   0.643   5.929  0.0974  0.7497 -0.2992
 5880SOL    HW129102   3.853   0.720   5.904  2.3450  2.4412  0.3647
 5880SOL    HW229103   3.948   0.627   5.845 -0.2164  1.0288 -0.5179
 5881SOL     OW29104   3.452   4.223   1.921 -0.0691 -0.4237  0.3203
 5881SOL    HW129105   3.442   4.298   1.979  2.3699  0.1089  0.0280
 5881SOL    HW229106   3.394   4.165   1.971 -0.7018  1.1255  1.3762
 5882SOL     OW29107   4.425   2.881   7.492  0.0887 -0.2399 -0.3777
 5882SOL    HW129108   4.331   2.883   7.510  0.3230  1.1483  0.6989
 5882SOL    HW229109   4.436   2.962   7.442 -0.0129  2.2878  3.7263
 5883SOL     OW29110   2.574   1.651  16.418 -0.4906  0.2168  0.6960
 5883SOL    HW129111   2.582   1.740  16.453 -2.1453  1.2673 -1.5099
 5883SOL    HW229112   2.564   1.679  16.326  1.2780 -0.3947  0.3210
 5884SOL     OW29113   2.017   1.541   2.748 -0.8063  0.6001 -0.3165
 5884SOL    HW129114   1.932   1.555   2.790 -0.4391 -0.6931  0.8292
 5884SOL    HW229115   2.023   1.620   2.694 -0.7214 -0.1787 -1.4370
 5885SOL     OW29116   4.086   3.188   5.896 -0.4199 -0.0691 -0.0473
 5885SOL    HW129117   4.061   3.280   5.899  1.4216  0.4115  0.5811
 5885SOL    HW229118   4.101   3.164   5.804 -1.0997 -2.3406  0.4411
 5886SOL     OW29119   2.181   2.135   7.571 -0.0633  0.0258  0.1127
 5886SOL    HW129120   2.192   2.229   7.556 -0.3370  0.0273 -0.0791
 5886SOL    HW229121   2.118   2.138   7.643  0.2133 -0.8961  0.3966
 5887SOL     OW29122   0.558   4.522   2.127 -0.0252  0.7618 -0.4281
 5887SOL    HW129123   0.606   4.442   2.148  1.0679  1.7621  0.8942
 5887SOL    HW229124   0.615   4.558   2.059  0.8965 -0.5018 -0.3376
 5888SOL     OW29125   1.707   4.209   4.966  0.2457 -0.4285  0.1155
 5888SOL    HW129126   1.694   4.301   4.943  0.4006  0.0943  2.1161
 5888SOL    HW229127   1.742   4.203   5.055  1.3865  3.5434 -0.0772
 5889SOL     OW29128   3.368   4.188   3.755 -0.4152  0.3028 -0.2672
 5889SOL    HW129129   3.379   4.273   3.798  0.1007 -0.1320  0.4638
 5889SOL    HW229130   3.437   4.132   3.789 -1.7527 -0.3621  1.3734
 5890SOL     OW29131   3.012   1.691  12.078 -0.0397 -0.0094  0.8468
 5890SOL    HW129132   3.079   1.733  12.025 -1.3875  2.3862  1.0639
 5890SOL    HW229133   2.937   1.689  12.019  0.3909 -0.0436  0.3091
 5891SOL     OW29134   2.693   1.667   9.497 -0.0125 -0.2192 -0.0943
 5891SOL    HW129135   2.609   1.623   9.511  0.5241 -1.0665  0.4744
 5891SOL    HW229136   2.663   1.757   9.484  0.1236 -0.1771 -0.1160
 5892SOL     OW29137   2.137   1.651   7.837  0.2390 -0.0385 -0.1868
 5892SOL    HW129138   2.057   1.666   7.888 -0.0588  0.5149 -0.8200
 5892SOL    HW229139   2.202   1.665   7.906  0.0607  0.8222 -0.1922
 5893SOL     OW29140   1.763   1.328   2.732 -0.3666  0.8954 -0.3617
 5893SOL    HW129141   1.841   1.341   2.678  0.1088  0.5550  0.2495
 5893SOL    HW229142   1.712   1.280   2.666 -0.1272  0.5340 -0.2857
 5894SOL     OW29143   2.566   2.650  16.130  0.2757 -0.4372 -0.3212
 5894SOL    HW129144   2.545   2.711  16.059  1.5738 -1.1623 -1.3398
 5894SOL    HW229145   2.634   2.697  16.179 -0.9317  1.9408 -0.9205
 5895SOL     OW29146   0.681   1.035  15.433  0.1476  0.7950 -0.1740
 5895SOL    HW129147   0.771   1.025  15.466 -0.4455  0.0290  1.2413
 5895SOL    HW229148   0.681   1.125  15.401 -0.5903  0.9382  0.2259
 5896SOL     OW29149   4.216   2.395   8.171 -0.0124  0.3758  0.3679
 5896SOL    HW129150   4.311   2.382   8.162  0.0992 -0.0472  2.1066
 5896SOL    HW229151   4.196   2.342   8.248 -0.1056  2.0101  1.4814
 5897SOL     OW29152   1.538   0.414  16.364 -0.3511 -0.4060 -0.0422
 5897SOL    HW129153   1.594   0.460  16.303  0.1831 -0.5707  0.3223
 5897SOL    HW229154   1.551   0.460  16.447  0.5319 -0.0075 -0.4129
 5898SOL     OW29155   3.424   1.603  11.748 -0.1244 -0.6979  0.0800
 5898SOL    HW129156   3.357   1.665  11.719 -2.0940 -3.6297 -1.5884
 5898SOL    HW229157   3.507   1.633  11.712 -0.4492  1.0941  0.7803
 5899SOL     OW29158   3.383   4.405   4.466  0.3649 -0.2671 -0.3407
 5899SOL    HW129159   3.380   4.440   4.377 -1.1390 -0.3666 -0.3236
 5899SOL    HW229160   3.472   4.428   4.492 -0.0103  1.5151 -0.5828
 5900SOL     OW29161   2.132   0.323   4.966 -0.1296  0.2695  0.7639
 5900SOL    HW129162   2.214   0.349   5.008  1.1920 -1.6452 -0.6363
 5900SOL    HW229163   2.141   0.348   4.875 -2.1376  1.0774  0.7861
 5901SOL     OW29164   3.066   1.797   1.877  0.2361 -0.0748 -0.4284
 5901SOL    HW129165   3.132   1.835   1.935  2.2135 -1.4361 -1.8181
 5901SOL    HW229166   2.985   1.794   1.929  0.7574  1.6546  0.4915
 5902SOL     OW29167   3.041   1.923   3.635  0.5243 -0.1315  0.3687
 5902SOL    HW129168   3.086   2.007   3.646  1.0343 -0.1554 -1.5382
 5902SOL    HW229169   2.969   1.948   3.577 -0.5484 -0.3491  1.6251
 5903SOL     OW29170   4.535   0.058   4.943 -0.3516 -0.8330 -0.1758
 5903SOL    HW129171   4.483   0.131   4.977  0.4197 -0.5265  0.3360
 5903SOL    HW229172   4.618   0.091   4.976 -0.6362  0.5126 -0.8130
 5904SOL     OW29173   2.313   1.903   4.256  0.2388 -0.0718  0.1044
 5904SOL    HW129174   2.321   1.838   4.326  1.3106  1.1639  1.1353
 5904SOL    HW229175   2.250   1.958   4.302 -1.7455 -0.2241 -2.4279
 5905SOL     OW29176   2.727   3.417   6.541  0.4793  0.1126  0.1416
 5905SOL    HW129177   2.701   3.351   6.477 -0.9662 -0.2195  1.0613
 5905SOL    HW229178   2.653   3.424   6.602 -0.4253 -0.6343 -0.8642
 5906SOL     OW29179   0.420   3.024   7.857  0.0755  0.3729 -0.0416
 5906SOL    HW129180   0.441   3.069   7.775 -0.6245  0.2537 -0.2895
 5906SOL    HW229181   0.363   3.093   7.890  0.5382  1.0372 -0.6418
 5907SOL     OW29182   0.444   4.296   3.238  0.1626 -0.1090  0.5568
 5907SOL    HW129183   0.404   4.228   3.183  1.1176 -0.4004  0.2176
 5907SOL    HW229184   0.535   4.299   3.208 -0.5691 -0.8275 -1.8054
 5908SOL     OW29185   2.231   1.284   3.186 -0.2833  0.5713  0.1362
 5908SOL    HW129186   2.313   1.249   3.151 -0.7685 -1.0194  0.5985
 5908SOL    HW229187   2.203   1.345   3.118  0.0936  0.1214 -0.4192
 5909SOL     OW29188   4.622   3.643   0.021  0.2441  0.3151 -0.2160
 5909SOL    HW129189   4.653   3.697  17.656  1.8230 -0.8064 -0.3921
 5909SOL    HW229190   4.665   3.682   0.097  1.6242 -0.6342 -0.4906
 5910SOL     OW29191   1.953   0.223  12.787  0.3243  0.0755  0.0610
 5910SOL    HW129192   1.887   0.223  12.857 -0.7910 -0.6572 -0.9870
 5910SOL    HW229193   2.022   0.268  12.835 -1.0198  0.4256  1.6869
 5911SOL     OW29194   4.294   0.509   3.751  0.1330  0.5893 -0.5415
 5911SOL    HW129195   4.306   0.499   3.846  0.5000 -0.4615 -0.7058
 5911SOL    HW229196   4.382   0.493   3.718  1.2220  3.0192  1.1708
 5912SOL     OW29197   2.632   2.107   6.107  0.1631 -0.1062  0.1081
 5912SOL    HW129198   2.620   2.032   6.165 -0.1104  1.6362  2.2888
 5912SOL    HW229199   2.571   2.083   6.037 -2.4441  3.4289  1.1553
 5913SOL     OW29200   3.846   3.333  12.012  0.1229  0.0065  0.2133
 5913SOL    HW129201   3.792   3.283  11.952 -0.0621  3.2071 -2.2969
 5913SOL    HW229202   3.922   3.352  11.957 -0.7594  2.8369 -0.0266
 5914SOL     OW29203   0.782   2.919  14.077  0.1898  0.4249 -0.5717
 5914SOL    HW129204   0.864   2.950  14.114  0.2491 -0.3020 -0.0807
 5914SOL    HW229205   0.728   2.935  14.155 -0.5658  1.0088 -1.2102
 5915SOL     OW29206   1.553   3.333  13.002 -0.3354  0.1569 -0.1402
 5915SOL    HW129207   1.618   3.369  12.941 -0.1774  1.3008  0.7077
 5915SOL    HW229208   1.478   3.391  12.993 -0.7790 -0.3396  0.4742
 5916SOL     OW29209   2.616   4.698   8.664  0.3636 -0.2706 -0.0100
 5916SOL    HW129210   2.673   4.645   8.608  2.5443  1.8677  0.1986
 5916SOL    HW229211   2.598   4.635   8.733 -1.1331  1.4244  1.1261
 5917SOL     OW29212   1.004   0.482  11.482 -0.2679 -0.6872 -0.2449
 5917SOL    HW129213   1.051   0.512  11.404 -0.5172  0.0663 -0.1036
 5917SOL    HW229214   0.944   0.556  11.493  0.3501 -0.1196 -0.6700
 5918SOL     OW29215   1.956   3.210   1.332  0.6555 -0.3529  0.9060
 5918SOL    HW129216   1.961   3.139   1.268 -0.9032  1.3066 -1.0587
 5918SOL    HW229217   1.971   3.159   1.411  0.9010  1.7793  2.2261
 5919SOL     OW29218   0.567   2.202   4.010  0.0260 -0.2559 -0.4497
 5919SOL    HW129219   0.614   2.133   3.964  1.3246  0.5111 -0.2802
 5919SOL    HW229220   0.623   2.279   4.019 -0.6060 -0.0605  1.8261
 5920SOL     OW29221   3.862   3.017   5.249 -0.3281 -0.6141 -0.2801
 5920SOL    HW129222   3.938   3.070   5.275 -0.0587 -0.3993 -1.4795
 5920SOL    HW229223   3.870   3.011   5.154  1.3941 -0.6161 -0.1364
 5921SOL     OW29224   3.113   0.648   8.794  0.1908  0.1393 -0.2585
 5921SOL    HW129225   3.209   0.656   8.788  0.3671 -0.1127  2.3895
 5921SOL    HW229226   3.079   0.729   8.755 -1.9462 -0.2632  0.7991
 5922SOL     OW29227   1.499   3.956   9.457  0.0032  0.0659  0.3147
 5922SOL    HW129228   1.424   3.919   9.411 -0.1474  0.9608 -0.1588
 5922SOL    HW229229   1.565   3.974   9.391 -1.9929 -0.2958 -1.7722
 5923SOL     OW29230   2.059   2.218   4.215  0.2701 -0.0551 -0.8789
 5923SOL    HW129231   2.122   2.218   4.143  1.7736  0.8987  0.4459
 5923SOL    HW229232   1.980   2.223   4.161 -0.4817  1.2195  0.3522
 5924SOL     OW29233   2.950   2.657  16.024 -0.7524 -0.4432 -0.1517
 5924SOL    HW129234   3.012   2.586  16.005 -0.5254  0.0885 -1.4131
 5924SOL    HW229235   2.863   2.621  16.012 -0.4651 -0.7860 -1.1480
 5925SOL     OW29236   3.199   2.503   6.680  0.4921 -0.0996 -0.1908
 5925SOL    HW129237   3.277   2.457   6.650  1.5712  0.2895  1.9866
 5925SOL    HW229238   3.140   2.428   6.668  1.0223 -0.6545  0.6468
 5926SOL     OW29239   0.155   2.827   9.934  0.1707 -0.0742 -0.2786
 5926SOL    HW129240   0.222   2.895   9.942  0.1915 -0.0341 -0.7604
 5926SOL    HW229241   0.200   2.762   9.880  2.4496  0.7402  0.6500
 5927SOL     OW29242   0.065   3.685   3.487 -0.2552 -0.1484  0.1017
 5927SOL    HW129243   0.006   3.645   3.424 -0.4061  2.7259 -1.5830
 5927SOL    HW229244   0.093   3.749   3.422  1.2623 -0.3300  0.5847
 5928SOL     OW29245   3.697   0.785  10.435 -0.3848 -0.0272 -0.2205
 5928SOL    HW129246   3.773   0.731  10.413  0.3550  1.3811 -1.0409
 5928SOL    HW229247   3.623   0.737  10.396 -1.4801  1.5373 -0.0557
 5929SOL     OW29248   1.365   2.621   9.030 -0.3287  0.1586 -0.2773
 5929SOL    HW129249   1.410   2.663   9.104 -1.1701  0.4813  0.0527
 5929SOL    HW229250   1.275   2.652   9.040 -0.6853 -0.8328 -0.4416
 5930SOL     OW29251   1.903   2.312  11.094 -0.2146  0.0140 -0.0186
 5930SOL    HW129252   1.818   2.304  11.138 -0.2726 -3.4690 -0.7463
 5930SOL    HW229253   1.948   2.239  11.137 -1.3130 -1.1909 -0.9127
 5931SOL     OW29254   3.047   2.092  17.658 -0.1842 -0.3576  0.3469
 5931SOL    HW129255   2.993   2.066  17.583  0.9965 -1.0714 -0.2616
 5931SOL    HW229256   3.016   2.024   0.010  0.4740 -0.4310  0.6060
 5932SOL     OW29257   2.286   4.700   2.440  0.3660  0.0528 -0.4375
 5932SOL    HW129258   2.199   0.012   2.442  0.0099 -0.7610  0.1001
 5932SOL    HW229259   2.323   0.025   2.369 -1.4103  0.0860 -1.3374
 5933SOL     OW29260   0.378   4.360   6.946  0.0266  0.4565  0.1197
 5933SOL    HW129261   0.472   4.379   6.940  0.2905 -0.7897  0.1341
 5933SOL    HW229262   0.367   4.296   6.876  1.8612 -2.2864  2.3047
 5934SOL     OW29263   1.372   2.026   1.371  0.3605 -0.7348  0.3985
 5934SOL    HW129264   1.284   2.059   1.392 -0.0500 -1.9679  0.6241
 5934SOL    HW229265   1.351   1.982   1.289  0.9663  0.9887 -0.6756
 5935SOL     OW29266   3.767   1.427   2.535  0.1588 -0.2810 -0.2787
 5935SOL    HW129267   3.855   1.455   2.512 -0.7091  0.5743 -2.6258
 5935SOL    HW229268   3.784   1.363   2.605 -0.1009 -1.3977 -1.2210
 5936SOL     OW29269   4.379   0.128   2.650  0.2957 -0.1256  0.2753
 5936SOL    HW129270   4.442   0.187   2.608 -1.6278  0.9231 -1.1608
 5936SOL    HW229271   4.426   0.045   2.641 -0.6937 -0.7495  0.8844
 5937SOL     OW29272   2.257   1.292   4.682  0.6123 -0.5746 -0.4305
 5937SOL    HW129273   2.194   1.349   4.726 -2.1228 -1.4713 -3.1720
 5937SOL    HW229274   2.210   1.209   4.680 -2.4083  1.1812 -3.4587
 5938SOL     OW29275   3.497   0.716  13.402 -0.3854 -0.0724  0.0749
 5938SOL    HW129276   3.451   0.760  13.474 -0.3613 -1.0731  0.7008
 5938SOL    HW229277   3.585   0.735  13.435 -0.3295 -1.1184  0.5263
 5939SOL     OW29278   1.468   4.220   9.513  0.3567 -0.2131  0.3444
 5939SOL    HW129279   1.491   4.219   9.606  0.0423 -0.3042  0.4206
 5939SOL    HW229280   1.481   4.126   9.501  0.7949 -0.0362 -0.6172
 5940SOL     OW29281   2.093   2.010   2.546 -0.2562  0.5790 -0.6012
 5940SOL    HW129282   2.055   2.059   2.472  1.0462  1.3554 -0.7464
 5940SOL    HW229283   2.077   2.075   2.614 -0.0553  1.7271 -1.6567
 5941SOL     OW29284   4.279   2.236   4.663 -0.0876 -0.0325 -0.1974
 5941SOL    HW129285   4.231   2.181   4.725 -1.0060  0.6920 -0.2627
 5941SOL    HW229286   4.225   2.225   4.584 -0.3499 -0.6665  0.0659
 5942SOL     OW29287   1.176   4.338   4.353  0.2600  0.0531  0.0275
 5942SOL    HW129288   1.182   4.272   4.284  3.3693  1.9011 -1.4959
 5942SOL    HW229289   1.182   4.278   4.427  1.6208  0.6713  0.4319
 5943SOL     OW29290   3.255   1.612   5.655 -0.3826  0.3466  0.0758
 5943SOL    HW129291   3.227   1.601   5.746 -0.4982  0.3194  0.0363
 5943SOL    HW229292   3.236   1.704   5.637 -2.8637 -0.5390 -1.8187
 5944SOL     OW29293   1.382   4.605   4.606 -0.4325 -0.7962  0.5505
 5944SOL    HW129294   1.470   4.582   4.576 -1.5726 -0.5022 -3.0061
 5944SOL    HW229295   1.408   4.687   4.647 -2.2835  1.1256 -2.1403
 5945SOL     OW29296   2.224   3.225   0.144  0.0992 -0.0073 -0.2723
 5945SOL    HW129297   2.317   3.201   0.141  0.1216  0.0469 -0.0176
 5945SOL    HW229298   2.200   3.153   0.085  1.4442 -0.5310 -0.1787
 5946SOL     OW29299   2.474   2.952   3.258  0.0119 -0.5011  0.1000
 5946SOL    HW129300   2.431   3.006   3.325 -0.1478 -2.4443  1.5430
 5946SOL    HW229301   2.465   2.864   3.294 -0.2872 -1.4685 -2.3302
 5947SOL     OW29302   3.275   4.330   9.110 -0.4325  0.0073 -0.1801
 5947SOL    HW129303   3.349   4.356   9.054 -0.7082  1.2638  0.0528
 5947SOL    HW229304   3.309   4.344   9.198 -1.3180 -1.5821  0.4172
 5948SOL     OW29305   2.867   2.213   0.704  0.6714  0.2199  0.0307
 5948SOL    HW129306   2.947   2.245   0.748  0.5620  1.2583 -0.5284
 5948SOL    HW229307   2.804   2.216   0.776  0.6600 -0.3232  0.0409
 5949SOL     OW29308   3.625   4.640   0.720  0.2336 -0.5756  0.3422
 5949SOL    HW129309   3.535   4.611   0.705  0.2549 -0.0590 -0.7699
 5949SOL    HW229310   3.613   0.007   0.738 -0.3924 -0.2541 -1.7574
 5950SOL     OW29311   2.969   2.118   4.290 -0.3065  0.1455  0.2345
 5950SOL    HW129312   2.877   2.135   4.269  0.2798  3.0636  0.0976
 5950SOL    HW229313   2.961   2.038   4.343 -0.3595 -0.3516 -0.5244
 5951SOL     OW29314   2.309   4.480  16.333  0.2876 -0.1085 -0.2777
 5951SOL    HW129315   2.272   4.455  16.418  2.3483  0.2677  0.7175
 5951SOL    HW229316   2.399   4.491  16.364  0.1581 -1.5366  0.6435
 5952SOL     OW29317   0.750   1.416   2.884 -0.1151 -0.3885  0.8393
 5952SOL    HW129318   0.820   1.354   2.861 -0.4767 -0.3047 -0.5104
 5952SOL    HW229319   0.813   1.486   2.901  1.0385 -1.0051 -0.8615
 5953SOL     OW29320   0.408   3.255   0.585  0.6455  0.0745  0.2564
 5953SOL    HW129321   0.484   3.313   0.584  0.1565  0.7148  1.8048
 5953SOL    HW229322   0.352   3.289   0.654  1.5857 -0.3208  1.2019
 5954SOL     OW29323   2.423   0.886  13.289  0.2647  0.1276 -0.1427
 5954SOL    HW129324   2.398   0.970  13.249 -0.2379  0.3813  0.6888
 5954SOL    HW229325   2.367   0.825  13.242  2.2749 -0.4257 -1.7678
 5955SOL     OW29326   3.362   3.941   5.715 -0.1315 -0.1332 -0.6137
 5955SOL    HW129327   3.456   3.950   5.731  0.3109 -2.6430 -1.8634
 5955SOL    HW229328   3.332   3.954   5.805  0.7884  2.2519 -0.6499
 5956SOL     OW29329   0.676   3.165   2.157  0.1165 -0.2622  0.5418
 5956SOL    HW129330   0.580   3.164   2.158  0.1475 -1.7726  2.2234
 5956SOL    HW229331   0.686   3.230   2.088  2.2646  2.0434  3.0848
 5957SOL     OW29332   4.403   3.322   4.332  0.2775  0.6173 -0.1623
 5957SOL    HW129333   4.322   3.347   4.377 -0.5743 -0.9642 -0.8126
 5957SOL    HW229334   4.385   3.351   4.243 -0.9302 -0.3886 -0.2482
 5958SOL     OW29335   4.691   3.267   9.096 -0.2401 -0.0885 -0.1536
 5958SOL    HW129336   4.620   3.204   9.108 -1.0538  1.2363  2.1563
 5958SOL    HW229337   4.711   3.265   9.002 -1.0065  0.6698 -0.3384
 5959SOL     OW29338   1.257   3.506  11.355  0.4973  0.1260 -0.4530
 5959SOL    HW129339   1.353   3.515  11.352  0.6876 -0.7305  2.8433
 5959SOL    HW229340   1.237   3.417  11.327  0.9149 -0.2915  0.5527
 5960SOL     OW29341   4.295   1.160  13.882  0.5995  0.6691 -0.1201
 5960SOL    HW129342   4.358   1.224  13.848  0.5804  0.3403 -0.7814
 5960SOL    HW229343   4.292   1.182  13.975  0.3465 -0.8667  0.2461
 5961SOL     OW29344   0.523   4.019  12.910 -0.9376  0.5043 -0.6443
 5961SOL    HW129345   0.479   4.102  12.931 -1.1520  0.6473 -1.6533
 5961SOL    HW229346   0.613   4.042  12.887  0.3768 -1.9233  2.1418
 5962SOL     OW29347   3.054   1.872   0.188 -0.6753  0.3053 -0.3932
 5962SOL    HW129348   3.118   1.910   0.247 -2.1568  0.3240  1.2025
 5962SOL    HW229349   3.084   1.782   0.172 -0.3829  0.3251  0.0563
 5963SOL     OW29350   0.008   4.268   4.474  0.3681 -0.1578 -0.3361
 5963SOL    HW129351   4.671   4.216   4.523 -0.3200  1.3743  0.4049
 5963SOL    HW229352   0.083   4.208   4.479  1.1295  0.4942 -3.6641
 5964SOL     OW29353   2.382   2.213   6.322 -0.7490  0.1621  1.2643
 5964SOL    HW129354   2.289   2.216   6.299 -0.3513  0.9127 -0.2412
 5964SOL    HW229355   2.389   2.119   6.339 -0.6308 -0.2061 -0.7723
 5965SOL     OW29356   3.644   1.347  11.951 -0.1097 -0.1361 -0.4116
 5965SOL    HW129357   3.608   1.275  11.899  0.4645  0.0324 -1.0317
 5965SOL    HW229358   3.691   1.299  12.019 -1.7239 -0.8659  0.1977
 5966SOL     OW29359   3.574   3.552   4.397  0.0099 -0.2731  0.3395
 5966SOL    HW129360   3.496   3.573   4.448 -0.7196 -0.3540 -0.7690
 5966SOL    HW229361   3.602   3.643   4.386 -0.8812 -0.0277  0.1789
 5967SOL     OW29362   1.871   3.276  10.312  0.3737 -0.4197  0.3002
 5967SOL    HW129363   1.782   3.260  10.281  1.0730  0.9702 -2.3913
 5967SOL    HW229364   1.920   3.255  10.232  2.1476 -0.2068  1.3265
 5968SOL     OW29365   3.031   4.242   2.585  0.1690 -0.1141  0.4775
 5968SOL    HW129366   3.085   4.226   2.662  0.4806  2.5063  0.7890
 5968SOL    HW229367   3.015   4.151   2.558 -1.0137  0.1231  0.3540
 5969SOL     OW29368   0.316   2.145   3.123 -0.0301  0.2874  0.4143
 5969SOL    HW129369   0.231   2.170   3.086 -0.1316 -1.9112 -0.8281
 5969SOL    HW229370   0.362   2.147   3.040  0.2036  1.8388  0.5865
 5970SOL     OW29371   3.732   2.185   0.444 -0.4721 -0.0100 -0.2531
 5970SOL    HW129372   3.811   2.133   0.426 -0.1526  0.1517  0.6952
 5970SOL    HW229373   3.671   2.125   0.487  0.7119 -0.5531  0.6555
 5971SOL     OW29374   0.967   2.981   9.670 -0.2685 -0.5871 -0.6408
 5971SOL    HW129375   0.954   3.076   9.675  1.3199 -0.2884 -1.9228
 5971SOL    HW229376   0.875   2.955   9.670 -0.5130  0.2392  0.5433
 5972SOL     OW29377   3.225   0.509   7.046  0.1885 -0.2859  0.0094
 5972SOL    HW129378   3.171   0.491   7.123 -0.4683  2.5920  0.2099
 5972SOL    HW229379   3.219   0.603   7.029  2.4526  0.2983  2.4132
 5973SOL     OW29380   3.694   4.236   4.447 -0.3486 -0.0992 -0.6136
 5973SOL    HW129381   3.779   4.199   4.422 -0.1792 -1.6989  2.2948
 5973SOL    HW229382   3.675   4.300   4.378  0.1974  2.7494  1.8891
 5974SOL     OW29383   2.268   0.213   2.280  0.9411  0.1679  0.3137
 5974SOL    HW129384   2.289   0.258   2.198  1.9794  0.7546  0.8976
 5974SOL    HW229385   2.201   0.266   2.323  2.1181  0.4409  1.8036
 5975SOL     OW29386   1.804   1.342  12.082 -0.2519 -0.0184 -0.4615
 5975SOL    HW129387   1.824   1.325  12.174 -1.6743  1.2729  0.0843
 5975SOL    HW229388   1.888   1.316  12.046  0.1411  1.9869 -0.9705
 5976SOL     OW29389   3.026   1.973   8.039 -0.0095  0.3216 -0.2945
 5976SOL    HW129390   2.979   2.055   8.056  1.6742  1.4190 -0.8256
 5976SOL    HW229391   2.959   1.922   7.995 -0.9638  1.3230  0.0060
 5977SOL     OW29392   0.970   4.721   6.595  0.8418  0.0556  0.0401
 5977SOL    HW129393   1.008   4.635   6.613  0.3801 -0.1835 -0.1213
 5977SOL    HW229394   0.888   4.704   6.549  1.0833  0.0741 -0.4100
 5978SOL     OW29395   3.949   4.292   2.923  0.3877  0.1209 -0.0509
 5978SOL    HW129396   3.873   4.238   2.944 -0.3024  0.4432 -1.7080
 5978SOL    HW229397   4.015   4.244   2.974 -1.5049 -1.4685  0.9360
 5979SOL     OW29398   2.482   1.202   3.688  0.5466 -0.4839  0.0174
 5979SOL    HW129399   2.401   1.159   3.716  1.1834  1.3991  4.8003
 5979SOL    HW229400   2.486   1.185   3.594  0.1796 -1.3078  0.1471
 5980SOL     OW29401   0.199   4.215   2.266 -0.1826 -0.1130  0.1642
 5980SOL    HW129402   0.269   4.204   2.330  1.1453 -0.2296 -1.3030
 5980SOL    HW229403   0.233   4.159   2.196 -1.4640 -0.5344 -0.1189
 5981SOL     OW29404   2.442   1.896  17.198 -0.6817 -0.3475  0.5009
 5981SOL    HW129405   2.416   1.918  17.287  1.1157  3.3642  0.1071
 5981SOL    HW229406   2.365   1.921  17.146 -0.0446 -0.0624 -0.3087
 5982SOL     OW29407   0.357   1.967   6.026  0.0428 -0.4970 -0.1494
 5982SOL    HW129408   0.415   1.981   6.101 -2.9594 -0.7519  2.2518
 5982SOL    HW229409   0.363   2.057   5.993 -2.7566  0.0997  0.9494
 5983SOL     OW29410   2.350   0.068   8.775  0.4908 -0.1963  0.4908
 5983SOL    HW129411   2.445   0.058   8.790  0.6779  2.0410  0.7207
 5983SOL    HW229412   2.336   0.131   8.846  0.4944 -1.3335  1.5189
 5984SOL     OW29413   2.618   0.590   5.745 -0.2274 -0.2826  0.6770
 5984SOL    HW129414   2.555   0.662   5.743 -2.0360 -1.8293  2.1432
 5984SOL    HW229415   2.671   0.595   5.666  2.1222  1.1312  2.3394
 5985SOL     OW29416   1.927   3.576   7.693  0.0190 -0.3426  0.0068
 5985SOL    HW129417   1.905   3.541   7.607  0.6761 -2.7359  0.8056
 5985SOL    HW229418   1.965   3.498   7.734  0.2011 -0.5570 -0.5828
 5986SOL     OW29419   3.467   4.674   4.385 -0.2019 -0.5963 -0.2070
 5986SOL    HW129420   3.544   4.663   4.441 -0.7151 -0.9784  0.4209
 5986SOL    HW229421   3.500   0.008   4.318  1.1748  0.8589  1.7743
 5987SOL     OW29422   0.615   4.409   6.550 -0.0272  1.0030  0.8589
 5987SOL    HW129423   0.590   4.501   6.545 -0.7385  0.7439 -0.2963
 5987SOL    HW229424   0.664   4.404   6.632 -1.7583 -2.5144  1.6901
 5988SOL     OW29425   3.284   2.710   4.187  0.1805 -0.2066 -0.1586
 5988SOL    HW129426   3.249   2.632   4.144 -0.4306 -0.7570  1.3376
 5988SOL    HW229427   3.350   2.667   4.241 -1.6462 -0.8425  1.5607
 5989SOL     OW29428   3.571   3.517   1.908 -0.0364  0.4306 -0.6442
 5989SOL    HW129429   3.628   3.447   1.941 -0.9904 -0.0399 -0.0120
 5989SOL    HW229430   3.592   3.515   1.814 -0.7349 -1.2863 -0.7585
 5990SOL     OW29431   2.362   2.513   7.767  0.5558 -0.6641 -0.2109
 5990SOL    HW129432   2.438   2.525   7.825 -1.9336  0.3506  2.8889
 5990SOL    HW229433   2.321   2.600   7.772 -1.1340 -1.3771 -1.7618
 5991SOL     OW29434   3.311   0.983  13.058  0.6528  0.0260 -0.0214
 5991SOL    HW129435   3.384   1.022  13.010  1.2306 -2.1737 -0.9283
 5991SOL    HW229436   3.360   0.906  13.088 -0.2738  0.2664  2.0990
 5992SOL     OW29437   0.171   3.892  10.223 -0.2689 -0.3305 -0.5574
 5992SOL    HW129438   0.252   3.876  10.271  0.2799  0.3819 -1.2411
 5992SOL    HW229439   0.193   3.855  10.138  0.4137 -0.5640 -0.2752
 5993SOL     OW29440   2.204   1.286   6.862 -0.3196  0.2046 -0.0616
 5993SOL    HW129441   2.264   1.279   6.937 -0.5764 -0.8689  0.0396
 5993SOL    HW229442   2.159   1.371   6.866  0.6545  0.7286 -0.0789
 5994SOL     OW29443   2.961   2.215   9.356  0.6040  0.2583  1.0548
 5994SOL    HW129444   2.914   2.151   9.409  0.5725  0.3610  1.1509
 5994SOL    HW229445   2.887   2.245   9.303 -1.3817 -3.9873  1.4306
 5995SOL     OW29446   0.945   1.763   4.522  0.6358  0.3974  0.1641
 5995SOL    HW129447   0.906   1.802   4.444 -0.3524 -1.6206 -0.3446
 5995SOL    HW229448   0.966   1.674   4.496  0.4631  0.4331 -0.0976
 5996SOL     OW29449   3.389   4.218  11.379 -0.1663 -0.0761  0.7356
 5996SOL    HW129450   3.471   4.265  11.368  0.1242 -0.1746  2.5905
 5996SOL    HW229451   3.385   4.179  11.292  0.3785  0.1553  0.6076
 5997SOL     OW29452   0.127   4.588   1.449 -0.0254  0.3018 -0.6065
 5997SOL    HW129453   0.101   4.552   1.533  1.5418  2.9358  1.0114
 5997SOL    HW229454   0.061   4.657   1.441 -0.6348 -0.3020 -0.8049
 5998SOL     OW29455   0.296   3.489  10.221  0.0423 -0.5940  0.4332
 5998SOL    HW129456   0.261   3.553  10.283  0.4421 -1.1348  1.2182
 5998SOL    HW229457   0.342   3.541  10.154 -1.0094 -1.4738 -0.9752
 5999SOL     OW29458   1.112   4.148  12.005  0.2303 -0.0747 -0.0292
 5999SOL    HW129459   1.158   4.151  12.089 -0.7130 -0.8706  0.5119
 5999SOL    HW229460   1.130   4.237  11.975 -5.0036  1.5493  1.5334
 6000SOL     OW29461   4.440   2.444   2.394  0.1409 -0.7909  0.7686
 6000SOL    HW129462   4.498   2.475   2.324  0.2533 -0.6460  0.9251
 6000SOL    HW229463   4.505   2.411   2.456  1.6400  2.1186  0.7667
 6001SOL     OW29464   4.429   3.409   3.497  0.1904  0.3574 -0.3737
 6001SOL    HW129465   4.439   3.381   3.407 -3.0482  1.3083 -1.0455
 6001SOL    HW229466   4.335   3.422   3.484 -0.2326 -1.6939  0.6168
 6002SOL     OW29467   2.845   3.494   4.968  0.4906  0.4187 -0.1951
 6002SOL    HW129468   2.778   3.515   4.903 -0.8683  2.1488  1.7400
 6002SOL    HW229469   2.870   3.409   4.932 -3.0278 -0.1666 -1.3125
 6003SOL     OW29470   0.152   1.649   7.785 -0.7089 -0.1767 -0.0246
 6003SOL    HW129471   0.121   1.605   7.864 -2.0794  0.2627 -0.3327
 6003SOL    HW229472   0.112   1.598   7.715 -0.9570  2.2632 -1.6816
 6004SOL     OW29473   1.923   3.374   5.142  0.2830  0.4039 -0.1887
 6004SOL    HW129474   1.847   3.414   5.184  1.3866  0.3702  1.8166
 6004SOL    HW229475   1.998   3.419   5.181  0.6706 -1.4321  1.1894
 6005SOL     OW29476   1.233   4.101  12.285  0.1299  0.0397 -0.4169
 6005SOL    HW129477   1.295   4.152  12.338  0.4660  0.6704 -1.4243
 6005SOL    HW229478   1.158   4.097  12.344 -0.8882  2.2257 -1.5538
 6006SOL     OW29479   0.974   3.952   8.546  0.0960  1.0937 -0.2712
 6006SOL    HW129480   0.908   3.978   8.481  0.5053  0.8572 -0.7831
 6006SOL    HW229481   0.906   3.931   8.610 -1.0704 -1.4445 -2.3631
 6007SOL     OW29482   3.458   1.185   8.869 -0.1069 -0.2649 -0.0338
 6007SOL    HW129483   3.371   1.191   8.908 -0.3554 -0.3485 -0.5702
 6007SOL    HW229484   3.443   1.165   8.777  0.5525 -1.7656  0.1796
 6008SOL     OW29485   0.411   1.762   7.035  0.2730 -0.2615  0.3440
 6008SOL    HW129486   0.317   1.778   7.026  0.7594  3.1547  1.4131
 6008SOL    HW229487   0.445   1.760   6.946  0.1029 -0.9170  0.2942
 6009SOL     OW29488   1.733   4.274  12.544  0.6044  0.6167  0.3606
 6009SOL    HW129489   1.761   4.300  12.456 -0.5568 -0.2495 -0.2689
 6009SOL    HW229490   1.688   4.352  12.576  0.1071  0.6833 -0.4980
 6010SOL     OW29491   0.428   0.707   0.894 -0.2037 -0.4177  0.1787
 6010SOL    HW129492   0.363   0.641   0.871 -0.9773 -0.2864  2.0255
 6010SOL    HW229493   0.373   0.781   0.869 -2.4030 -2.0234  0.3404
 6011SOL     OW29494   0.847   2.389   9.030 -0.1182 -0.2187 -0.1070
 6011SOL    HW129495   0.927   2.439   9.048  0.2692 -1.7885  2.4411
 6011SOL    HW229496   0.836   2.396   8.935 -1.4619 -2.0550 -0.0790
 6012SOL     OW29497   1.170   3.341   1.727 -0.4771  0.3067 -0.5656
 6012SOL    HW129498   1.174   3.321   1.633 -2.9774  1.7394 -1.0017
 6012SOL    HW229499   1.247   3.398   1.726 -0.8627  0.9006  2.8724
 6013SOL     OW29500   1.855   1.697   0.366 -0.0055  0.0475 -0.3887
 6013SOL    HW129501   1.790   1.629   0.385 -1.7549  1.5752 -1.0078
 6013SOL    HW229502   1.843   1.759   0.438  0.5682 -2.2913  1.7395
 6014SOL     OW29503   0.054   0.750   9.590  0.2016 -0.0885  0.7318
 6014SOL    HW129504   0.098   0.716   9.668  0.7016 -0.9564  0.0728
 6014SOL    HW229505   0.134   0.785   9.551 -1.3008  1.6796 -0.7713
 6015SOL     OW29506   2.057   0.560  12.922  0.6497  0.3589 -0.6631
 6015SOL    HW129507   2.021   0.548  13.010  3.2411 -0.0633  0.3370
 6015SOL    HW229508   2.110   0.481  12.911  0.1134  0.1413 -1.6618
 6016SOL     OW29509   0.709   3.875   5.690 -0.1865  0.1504  0.7449
 6016SOL    HW129510   0.691   3.945   5.752 -0.1289  0.6748  0.1665
 6016SOL    HW229511   0.631   3.819   5.692  0.1791 -0.3716  0.5462
 6017SOL     OW29512   3.614   1.181   8.416 -0.3497 -0.2075  0.0871
 6017SOL    HW129513   3.661   1.264   8.413 -0.1727 -0.2662  0.9585
 6017SOL    HW229514   3.582   1.166   8.327 -0.5271  0.7817 -0.0087
 6018SOL     OW29515   3.672   3.603   4.075 -0.2367 -0.1993 -0.0545
 6018SOL    HW129516   3.651   3.511   4.060  1.2134 -0.9115  2.2849
 6018SOL    HW229517   3.699   3.593   4.166  0.4690  0.9560 -0.1306
 6019SOL     OW29518   3.253   4.047   2.050  0.1320  0.3643 -0.0463
 6019SOL    HW129519   3.277   3.967   2.003 -0.6025  0.1952 -0.1426
 6019SOL    HW229520   3.258   4.018   2.141  1.6013 -2.0330 -0.8818
 6020SOL     OW29521   1.747   3.176  13.215 -0.2438 -0.1543 -0.0880
 6020SOL    HW129522   1.669   3.135  13.177 -1.5198  0.6084  1.6988
 6020SOL    HW229523   1.740   3.257  13.165  3.0828 -0.9758 -1.8840
 6021SOL     OW29524   1.849   3.509   6.587  0.3450 -0.0702 -0.4634
 6021SOL    HW129525   1.762   3.481   6.614 -0.5777  1.9421 -1.3804
 6021SOL    HW229526   1.862   3.478   6.498 -1.8373 -0.9431 -0.4697
 6022SOL     OW29527   3.894   0.888   3.898 -0.0416  0.1947  0.1886
 6022SOL    HW129528   3.860   0.922   3.981 -0.9962 -0.7341  0.1761
 6022SOL    HW229529   3.823   0.920   3.842 -2.2418  0.0969  2.9017
 6023SOL     OW29530   3.593   1.370   2.937  0.3544  0.0942 -0.4377
 6023SOL    HW129531   3.584   1.275   2.948 -1.5120  0.0674 -2.1594
 6023SOL    HW229532   3.607   1.401   3.027  0.1094  2.9591 -1.4027
 6024SOL     OW29533   3.207   0.760   4.687 -0.4291 -0.3858 -0.5512
 6024SOL    HW129534   3.225   0.850   4.659 -1.2534 -0.1376 -0.2835
 6024SOL    HW229535   3.238   0.761   4.778  0.0678  0.6593 -0.7407
 6025SOL     OW29536   1.662   2.296  12.716 -0.2563 -0.3337 -0.0248
 6025SOL    HW129537   1.716   2.243  12.774 -0.1022  0.6363  0.7154
 6025SOL    HW229538   1.672   2.379  12.764  0.6563  1.2504 -2.9327
 6026SOL     OW29539   0.237   1.878  11.239  0.5114 -0.4457 -0.5405
 6026SOL    HW129540   0.329   1.859  11.256  0.0712 -1.5408  0.6270
 6026SOL    HW229541   0.187   1.815  11.291  0.2418  0.0756 -0.1728
 6027SOL     OW29542   1.602   2.973   3.186  0.4497 -0.4496 -0.1769
 6027SOL    HW129543   1.610   2.884   3.220 -0.6534  0.1064  1.5254
 6027SOL    HW229544   1.658   2.974   3.108  0.6890  0.9064  0.0132
 6028SOL     OW29545   4.018   1.476   2.443  0.2913  0.3027  0.1010
 6028SOL    HW129546   4.101   1.433   2.465  1.0327  1.2640 -0.7828
 6028SOL    HW229547   4.003   1.437   2.356  0.6473  0.0323  0.1621
 6029SOL     OW29548   4.236   1.975   9.812  0.1312  0.2835  0.5041
 6029SOL    HW129549   4.312   1.988   9.869  1.3506 -1.5991 -0.6955
 6029SOL    HW229550   4.201   1.896   9.855  1.8683  0.2909  1.9518
 6030SOL     OW29551   0.836   3.251   6.084 -0.1564  0.4575  0.6917
 6030SOL    HW129552   0.862   3.339   6.058 -1.6409  1.1727  1.6413
 6030SOL    HW229553   0.894   3.233   6.158 -0.0798  3.2333  1.3062
 6031SOL     OW29554   1.640   4.445   4.000  0.3520 -0.2985 -0.2332
 6031SOL    HW129555   1.574   4.385   4.035  0.4901  0.2830  1.0219
 6031SOL    HW229556   1.653   4.416   3.910 -1.8550  0.3581 -0.7746
 6032SOL     OW29557   1.355   1.899   0.692 -0.2597  0.0255 -0.1119
 6032SOL    HW129558   1.300   1.824   0.716 -0.5853  0.5531  0.7483
 6032SOL    HW229559   1.293   1.960   0.653  0.3232 -0.2842 -1.5337
 6033SOL     OW29560   3.518   2.250   6.858 -0.3771 -0.3272  0.1417
 6033SOL    HW129561   3.525   2.326   6.916  1.9462 -1.3167  1.1301
 6033SOL    HW229562   3.592   2.253   6.798  0.0041 -0.0589  0.6257
 6034SOL     OW29563   1.938   1.173  14.233 -0.3314 -0.2485 -0.1005
 6034SOL    HW129564   1.881   1.164  14.157  0.0375 -1.1555 -0.2653
 6034SOL    HW229565   2.006   1.235  14.207 -1.2168 -0.0018 -1.8148
 6035SOL     OW29566   3.537   3.121   8.018  0.7040  0.8379 -0.1644
 6035SOL    HW129567   3.482   3.192   8.053 -1.2038 -0.0682 -1.3238
 6035SOL    HW229568   3.599   3.162   7.958  0.3368  1.4099 -0.1631
 6036SOL     OW29569   4.169   3.522   7.030 -0.4826  0.3754  0.3142
 6036SOL    HW129570   4.120   3.568   7.098 -1.9650  0.2211 -0.6643
 6036SOL    HW229571   4.213   3.597   6.990  0.6579 -0.3412  0.2074
 6037SOL     OW29572   0.692   0.655   4.527  0.1427 -0.4453  1.0020
 6037SOL    HW129573   0.684   0.590   4.597 -1.7204 -1.1156  0.1806
 6037SOL    HW229574   0.786   0.662   4.511 -0.0012  2.3104  1.4225
 6038SOL     OW29575   4.346   2.334   3.506 -0.8101 -0.1910  0.0143
 6038SOL    HW129576   4.329   2.277   3.431  0.5991 -0.9259  0.2387
 6038SOL    HW229577   4.350   2.415   3.456 -1.4799 -0.6858 -0.8382
 6039SOL     OW29578   4.011   4.513   4.964  0.3343 -0.0584 -0.3231
 6039SOL    HW129579   3.948   4.442   4.959 -0.4468  0.7225 -1.5914
 6039SOL    HW229580   4.058   4.488   5.044  0.7738 -0.2837 -0.6526
 6040SOL     OW29581   1.666   2.260  10.433  0.0174  0.6011  0.0829
 6040SOL    HW129582   1.674   2.355  10.427 -1.7576  0.7045 -0.6215
 6040SOL    HW229583   1.673   2.235  10.341  2.9626 -1.1579  0.7705
 6041SOL     OW29584   2.356   3.324   2.204 -0.1004 -0.5614 -0.7575
 6041SOL    HW129585   2.451   3.336   2.197 -0.1371 -0.2873 -0.7897
 6041SOL    HW229586   2.345   3.398   2.265  0.9903  1.0023 -2.4597
 6042SOL     OW29587   3.778   2.608  15.358  0.5371  0.2496  0.0941
 6042SOL    HW129588   3.866   2.637  15.380  0.9156 -1.4374  0.7423
 6042SOL    HW229589   3.746   2.613  15.448  3.2302  3.7920  0.8768
 6043SOL     OW29590   2.628   3.025   8.656  0.0917 -0.4849  0.2964
 6043SOL    HW129591   2.596   3.063   8.574  0.4310 -0.3239  0.2348
 6043SOL    HW229592   2.691   2.961   8.622 -1.4818 -2.4500  1.0998
 6044SOL     OW29593   1.633   0.270  15.383  0.1476 -0.2714 -0.2490
 6044SOL    HW129594   1.717   0.245  15.422  0.7937 -0.9216 -2.0536
 6044SOL    HW229595   1.611   0.190  15.337  1.4264 -0.4850 -0.4997
 6045SOL     OW29596   3.534   1.129   0.557  0.9467 -0.5005  0.5060
 6045SOL    HW129597   3.580   1.212   0.544 -0.5311  0.4539  1.3722
 6045SOL    HW229598   3.554   1.110   0.648 -1.6039  0.6024  1.2941
 6046SOL     OW29599   0.822   4.656  10.740  0.4007 -0.3664  0.2666
 6046SOL    HW129600   0.810   4.705  10.658  0.8222  1.5214  1.3359
 6046SOL    HW229601   0.745   4.672  10.795 -1.4310 -2.1974 -1.7481
 6047SOL     OW29602   3.687   3.276  12.275  0.1777  0.2092 -0.3736
 6047SOL    HW129603   3.746   3.272  12.200  0.9617 -0.2175  0.2792
 6047SOL    HW229604   3.606   3.247  12.232 -0.2598 -0.2313  0.7606
 6048SOL     OW29605   4.707   0.468  13.056  0.4522  0.0887 -0.3537
 6048SOL    HW129606   0.010   0.452  13.146  2.1354  2.4598 -0.4867
 6048SOL    HW229607   0.056   0.521  13.030  0.0915 -0.3371 -2.2896
 6049SOL     OW29608   4.180   4.683   2.813  0.0106  0.2267 -0.1551
 6049SOL    HW129609   4.203   0.039   2.770  1.2020 -0.4000 -0.7373
 6049SOL    HW229610   4.266   4.641   2.817 -0.3014 -0.3649  0.1736
 6050SOL     OW29611   4.515   0.697  13.401  0.0264 -0.0525  0.2707
 6050SOL    HW129612   4.511   0.622  13.460  3.3509  1.4062  2.4107
 6050SOL    HW229613   4.518   0.769  13.464  1.4749  2.6083 -2.8284
 6051SOL     OW29614   2.681   4.618   7.685 -0.0196  0.4953  0.0250
 6051SOL    HW129615   2.665   4.596   7.777 -3.5625  1.1662 -0.4374
 6051SOL    HW229616   2.776   4.627   7.684  0.1872 -1.7770  1.2604
 6052SOL     OW29617   3.700   3.040   5.455 -0.0594 -0.1020  0.4544
 6052SOL    HW129618   3.647   3.119   5.463 -0.3332 -0.0663 -1.6801
 6052SOL    HW229619   3.765   3.062   5.388  0.2194 -0.3440  0.6441
 6053SOL     OW29620   1.431   1.237   4.163  0.2811 -0.4546  0.2612
 6053SOL    HW129621   1.340   1.211   4.151  0.2288 -0.4965  0.7445
 6053SOL    HW229622   1.424   1.323   4.121 -1.3480 -0.9952 -0.5686
 6054SOL     OW29623   1.568   1.009   7.591 -0.0003 -0.2819 -0.0653
 6054SOL    HW129624   1.475   0.992   7.601  0.1776 -0.2304  1.6604
 6054SOL    HW229625   1.561   1.095   7.551  3.7405  0.4124  0.7671
 6055SOL     OW29626   0.692   4.638   1.873  0.0413  0.4677 -0.1115
 6055SOL    HW129627   0.742   4.657   1.952 -1.3025  0.8813  0.6321
 6055SOL    HW229628   0.761   4.609   1.812 -0.4635 -0.7354 -0.1059
 6056SOL     OW29629   1.220   2.228   7.257  0.8328  0.2318 -0.1153
 6056SOL    HW129630   1.190   2.259   7.171  0.4483  2.5742  0.8475
 6056SOL    HW229631   1.142   2.179   7.284  0.9708  0.6369  1.0154
 6057SOL     OW29632   3.968   1.660   0.795  0.4339 -0.3809  0.4981
 6057SOL    HW129633   3.929   1.738   0.835  0.6461  1.1929 -2.4050
 6057SOL    HW229634   4.041   1.703   0.750 -0.8624  1.3695  0.0748
 6058SOL     OW29635   1.499   1.364   5.039 -0.2999 -0.0850  0.2600
 6058SOL    HW129636   1.469   1.305   5.108 -1.0199  0.0847  0.0883
 6058SOL    HW229637   1.424   1.407   4.998  0.7571  1.4924 -0.0233
 6059SOL     OW29638   0.146   1.439  11.547 -0.1375 -0.1017 -0.1286
 6059SOL    HW129639   0.169   1.368  11.606  1.8918 -0.2094 -1.0598
 6059SOL    HW229640   0.181   1.511  11.599  1.8466 -0.2317 -1.2719
 6060SOL     OW29641   0.432   3.962   9.104 -0.3610  0.3851  0.0432
 6060SOL    HW129642   0.523   3.938   9.122 -0.1590  1.2835  0.2068
 6060SOL    HW229643   0.435   4.051   9.068  0.1426  0.6981  0.8763
 6061SOL     OW29644   3.598   0.974   3.443 -0.0096 -0.7242  0.0911
 6061SOL    HW129645   3.580   0.988   3.536 -0.8210 -1.5409  0.0613
 6061SOL    HW229646   3.579   0.880   3.451  0.1473 -0.5759  2.2876
 6062SOL     OW29647   4.543   0.118   5.322  0.1635  0.4573  0.0647
 6062SOL    HW129648   4.511   0.028   5.322  0.7700  0.2412  0.2472
 6062SOL    HW229649   4.506   0.145   5.238  1.3551 -1.6341 -1.1303
 6063SOL     OW29650   0.588   4.494   2.423 -0.4891  0.2275 -0.2183
 6063SOL    HW129651   0.602   4.528   2.511 -1.4644  1.4870 -0.5380
 6063SOL    HW229652   0.678   4.470   2.402 -0.5247 -0.1975  0.1257
 6064SOL     OW29653   0.665   0.166  14.060 -0.3731  0.3693 -0.0679
 6064SOL    HW129654   0.618   0.242  14.094 -0.1588  0.2253  0.5546
 6064SOL    HW229655   0.754   0.202  14.055 -1.3179  2.9282  1.3171
 6065SOL     OW29656   3.581   1.897   0.414  0.5100 -0.7047  0.6517
 6065SOL    HW129657   3.666   1.915   0.373 -0.1554 -1.1840 -0.9560
 6065SOL    HW229658   3.581   1.801   0.414  0.7925 -0.7052  0.4850
 6066SOL     OW29659   0.590   3.995   2.971 -0.1470  0.1904  0.7218
 6066SOL    HW129660   0.584   3.963   2.881 -1.5455  1.0745  0.4904
 6066SOL    HW229661   0.671   3.957   3.006  1.3003  0.7811 -2.0639
 6067SOL     OW29662   1.488   0.038   4.283 -0.6696 -0.5512  0.2316
 6067SOL    HW129663   1.467   0.088   4.362  0.2104 -0.1543  0.2065
 6067SOL    HW229664   1.415   4.702   4.282 -0.1969 -1.0817 -1.0086
 6068SOL     OW29665   4.490   4.090   7.238  0.1594 -0.4102  0.1136
 6068SOL    HW129666   4.544   4.159   7.277  0.0247 -0.6892  0.8054
 6068SOL    HW229667   4.542   4.075   7.159  2.5948 -1.4463  1.8989
 6069SOL     OW29668   3.856   2.434   1.727 -0.5129  0.0998  0.6154
 6069SOL    HW129669   3.867   2.411   1.635 -0.1223  2.7586 -0.0103
 6069SOL    HW229670   3.835   2.526   1.711  0.5405  0.0302 -1.1246
 6070SOL     OW29671   3.749   4.671   6.951 -0.1198  0.4204  1.0284
 6070SOL    HW129672   3.779   0.031   6.926  0.4207 -0.3497 -0.9418
 6070SOL    HW229673   3.701   4.684   7.033  0.2861  1.4779  1.0935
 6071SOL     OW29674   1.514   4.685   8.592  0.2097 -0.0562  0.4732
 6071SOL    HW129675   1.589   4.655   8.643  0.9170  1.9887  0.6246
 6071SOL    HW229676   1.459   4.606   8.594 -0.7423  0.5522 -1.3616
 6072SOL     OW29677   1.558   2.037   0.452 -0.6281 -0.4955 -0.3279
 6072SOL    HW129678   1.597   2.094   0.518 -0.1525 -0.9395 -0.2230
 6072SOL    HW229679   1.511   2.100   0.398  0.3765 -0.3121 -0.9980
 6073SOL     OW29680   2.359   3.136   7.741  0.2791 -0.8836 -0.0486
 6073SOL    HW129681   2.400   3.114   7.657 -0.6756 -0.3162 -0.6635
 6073SOL    HW229682   2.378   3.229   7.746 -3.1187 -0.0413 -2.5669
 6074SOL     OW29683   0.313   4.005   7.285  0.1437 -0.3912  0.0188
 6074SOL    HW129684   0.402   4.039   7.281  0.3903 -1.2343 -1.5806
 6074SOL    HW229685   0.318   3.940   7.356 -1.5190 -0.9544 -0.3714
 6075SOL     OW29686   3.259   1.445   3.830  0.2587 -0.6885 -0.5168
 6075SOL    HW129687   3.264   1.505   3.755  1.5715 -1.3009 -0.9247
 6075SOL    HW229688   3.180   1.473   3.877 -0.0581 -3.4920  0.6020
 6076SOL     OW29689   3.652   1.951  14.343 -0.1196  0.6251 -0.0789
 6076SOL    HW129690   3.559   1.957  14.362  0.0684  0.5759  0.8326
 6076SOL    HW229691   3.666   2.008  14.267  1.6445  0.1289 -0.1253
 6077SOL     OW29692   1.220   1.832   7.782  0.7335  0.4566 -0.1558
 6077SOL    HW129693   1.268   1.750   7.769 -1.2299 -1.0329  2.0542
 6077SOL    HW229694   1.168   1.810   7.859 -2.6203  1.2214 -2.2011
 6078SOL     OW29695   2.490   2.445   6.290  0.1266  0.1814 -0.0566
 6078SOL    HW129696   2.441   2.372   6.327  0.8489 -0.2289  0.0924
 6078SOL    HW229697   2.421   2.511   6.280 -0.1642  0.1003  1.3653
 6079SOL     OW29698   1.574   1.680   1.209 -0.1501  0.2713  0.0726
 6079SOL    HW129699   1.537   1.596   1.180 -0.1805  0.4917 -0.5287
 6079SOL    HW229700   1.489   1.723   1.221  0.0308  0.4966  0.5269
 6080SOL     OW29701   1.887   4.475  16.705  0.5084 -0.0739 -1.3394
 6080SOL    HW129702   1.865   4.412  16.774  1.9320  1.5373  0.5889
 6080SOL    HW229703   1.814   4.471  16.643  1.0802 -0.5431 -1.9886
 6081SOL     OW29704   4.659   1.493  11.413 -0.3960  0.9264  0.2645
 6081SOL    HW129705   0.007   1.485  11.473 -2.0317 -3.0734  1.7171
 6081SOL    HW229706   4.608   1.418  11.440  2.1850 -0.7332  0.5281
 6082SOL     OW29707   4.427   0.880  13.639  0.6378  0.3252  0.1006
 6082SOL    HW129708   4.405   0.973  13.635 -0.9971 -0.0985 -0.8085
 6082SOL    HW229709   4.386   0.858  13.723 -2.4165  0.0147 -1.4744
 6083SOL     OW29710   2.801   0.936  10.823 -0.2616  0.0775 -0.2447
 6083SOL    HW129711   2.821   1.001  10.756  2.0236 -1.6533 -1.2431
 6083SOL    HW229712   2.713   0.907  10.798 -2.2723  3.2858  3.1348
 6084SOL     OW29713   0.233   2.506  16.447  0.2088  0.2133  0.4770
 6084SOL    HW129714   0.329   2.501  16.455  0.0648 -1.6634  1.0546
 6084SOL    HW229715   0.211   2.418  16.417 -1.0085  0.3466  0.9942
 6085SOL     OW29716   1.784   0.760   3.298  0.0311  0.1704 -0.1277
 6085SOL    HW129717   1.732   0.779   3.220 -2.0728 -0.3760  1.1336
 6085SOL    HW229718   1.718   0.752   3.367  0.4632 -0.0227  0.2671
 6086SOL     OW29719   2.812   3.663  14.727  0.1553 -0.0650  0.1419
 6086SOL    HW129720   2.838   3.575  14.755  2.4254  1.3256  2.3147
 6086SOL    HW229721   2.804   3.700  14.814  1.3790 -0.0157  0.2407
 6087SOL     OW29722   1.224   0.654   7.866  1.0656 -0.1756  0.2315
 6087SOL    HW129723   1.269   0.725   7.912 -0.4024  0.3970  0.7916
 6087SOL    HW229724   1.174   0.611   7.936 -1.0104  0.4422 -0.8987
 6088SOL     OW29725   1.000   2.171   7.889 -0.2382 -0.2285  0.4804
 6088SOL    HW129726   1.048   2.203   7.965 -2.8750 -0.4562  2.2511
 6088SOL    HW229727   0.941   2.115   7.939  0.5666  0.2164  1.9260
 6089SOL     OW29728   0.265   4.103   9.512 -0.7220 -0.2659  0.0291
 6089SOL    HW129729   0.219   4.025   9.543 -0.9845  0.2473  0.9334
 6089SOL    HW229730   0.227   4.174   9.562  0.7507 -0.5258  1.5358
 6090SOL     OW29731   1.958   2.503   4.739  0.2922  0.0482 -0.0447
 6090SOL    HW129732   1.984   2.583   4.692  2.0087  0.0227  0.8721
 6090SOL    HW229733   1.941   2.550   4.820  1.5067  0.0630  0.2014
 6091SOL     OW29734   0.521   4.423   5.818  0.2974  0.2340  0.3120
 6091SOL    HW129735   0.562   4.507   5.836  0.8160  0.0776 -0.1475
 6091SOL    HW229736   0.446   4.426   5.878  1.7158  1.1906  2.0199
 6092SOL     OW29737   2.609   3.969  10.805  0.3282  0.0448  0.6294
 6092SOL    HW129738   2.515   3.962  10.793  0.6058  1.2908 -2.3157
 6092SOL    HW229739   2.610   4.001  10.895 -0.6755  0.6789  0.4085
 6093SOL     OW29740   1.660   1.472   4.822  0.1655  0.1886  0.2518
 6093SOL    HW129741   1.648   1.415   4.898 -0.4085  2.1832  1.6343
 6093SOL    HW229742   1.580   1.460   4.772  1.6317 -0.6791 -1.9048
 6094SOL     OW29743   3.197   2.203   2.108 -0.2986 -0.6736  0.7414
 6094SOL    HW129744   3.178   2.250   2.026  0.0970 -0.2424  0.8953
 6094SOL    HW229745   3.292   2.215   2.117 -0.0698 -1.9096 -0.0282
 6095SOL     OW29746   4.416   1.931   3.184  0.1677 -0.2161  0.1434
 6095SOL    HW129747   4.455   1.845   3.200  0.8306  0.3860  1.7843
 6095SOL    HW229748   4.328   1.919   3.219  0.1091  0.5394  0.2675
 6096SOL     OW29749   3.468   0.414   8.594 -0.2939  0.0996  0.0668
 6096SOL    HW129750   3.516   0.488   8.630  2.3558 -0.7207 -1.7529
 6096SOL    HW229751   3.381   0.451   8.583 -0.1011  0.6675  0.4281
 6097SOL     OW29752   4.014   3.637   4.934  0.3747  0.6931  0.1904
 6097SOL    HW129753   4.037   3.545   4.944  0.4117  0.6575 -0.2483
 6097SOL    HW229754   3.930   3.639   4.979  1.2208  0.3707  1.7893
 6098SOL     OW29755   3.328   1.982  11.469  0.0046 -0.3604  0.0403
 6098SOL    HW129756   3.378   1.902  11.456 -1.0671 -0.9365 -0.6300
 6098SOL    HW229757   3.298   1.998  11.379 -0.1842 -0.4023  0.0952
 6099SOL     OW29758   3.524   3.899   6.137  0.7464  0.0066 -0.1333
 6099SOL    HW129759   3.525   3.804   6.126 -2.2850  0.2175 -2.1892
 6099SOL    HW229760   3.477   3.918   6.218 -1.4904 -0.2382 -1.3836
 6100SOL     OW29761   0.840   3.964   3.876  0.1811 -0.1906 -0.8210
 6100SOL    HW129762   0.788   3.996   3.803 -0.0584 -0.1713 -0.6417
 6100SOL    HW229763   0.814   3.872   3.882 -2.2518  0.5147 -0.7632
 6101SOL     OW29764   4.285   2.242   1.032 -0.7363  0.5795 -0.2469
 6101SOL    HW129765   4.232   2.198   1.099 -3.9352  2.7145 -1.3564
 6101SOL    HW229766   4.214   2.297   0.998 -2.0470  0.0330  1.6307
 6102SOL     OW29767   2.551   1.313  11.943  0.1068 -0.5463  0.3218
 6102SOL    HW129768   2.561   1.388  11.885 -0.9062  1.5891  2.8821
 6102SOL    HW229769   2.561   1.244  11.878 -1.1557  2.6635 -3.2916
 6103SOL     OW29770   1.225   0.027   1.758  0.4234  0.1020 -0.0242
 6103SOL    HW129771   1.271   0.091   1.812  1.5748 -1.2925  0.6505
 6103SOL    HW229772   1.133   0.042   1.777  0.7868  0.6491  1.2633
 6104SOL     OW29773   2.693   1.648  10.512 -0.3407  1.3789 -0.0587
 6104SOL    HW129774   2.787   1.628  10.515 -0.9079 -0.8507  3.0270
 6104SOL    HW229775   2.677   1.619  10.422  0.9363 -1.2310  0.5343
 6105SOL     OW29776   2.511   2.439   2.015 -0.9475 -0.1064  0.1396
 6105SOL    HW129777   2.555   2.393   2.087 -0.6279  1.4736  0.9738
 6105SOL    HW229778   2.556   2.415   1.934 -0.5789 -0.9511  0.5993
 6106SOL     OW29779   3.580   2.541   6.963 -0.3960 -0.3282 -0.1132
 6106SOL    HW129780   3.640   2.573   7.030  0.4800 -3.8791  0.8050
 6106SOL    HW229781   3.500   2.549   7.016 -0.3121 -4.2594  0.6213
 6107SOL     OW29782   0.315   0.288   6.135  0.3079 -0.5249  0.4322
 6107SOL    HW129783   0.366   0.285   6.215 -1.0307  0.2369  1.2996
 6107SOL    HW229784   0.226   0.275   6.167  0.8160 -1.2899  1.5330
 6108SOL     OW29785   2.256   0.686  13.165  0.3532 -0.5425 -0.1852
 6108SOL    HW129786   2.346   0.670  13.138  0.2866 -0.4867 -0.4423
 6108SOL    HW229787   2.206   0.604  13.165 -0.7443  0.1152  1.2361
 6109SOL     OW29788   0.855   0.360   9.581 -0.2619 -0.1410 -0.5000
 6109SOL    HW129789   0.916   0.309   9.633 -1.8446 -1.4251  0.1063
 6109SOL    HW229790   0.819   0.295   9.521  0.2982  0.5135 -1.5425
 6110SOL     OW29791   2.757   3.499   5.636 -0.3327  0.6065 -0.3201
 6110SOL    HW129792   2.801   3.546   5.706 -1.4673  0.3648  0.5592
 6110SOL    HW229793   2.731   3.410   5.662 -0.0765  0.7496  0.4236
 6111SOL     OW29794   3.235   2.901   6.232  0.3057 -0.6713  0.1163
 6111SOL    HW129795   3.231   2.867   6.143  1.5448  0.6395 -0.4412
 6111SOL    HW229796   3.220   2.826   6.289  2.1028  0.8121  2.5823
 6112SOL     OW29797   3.608   1.561   7.633  0.0565  0.1362  0.2194
 6112SOL    HW129798   3.528   1.561   7.581 -1.2740 -3.8516  2.2740
 6112SOL    HW229799   3.609   1.653   7.659  2.4013  0.0342  0.4679
 6113SOL     OW29800   0.975   0.417   3.353  0.3184 -0.4556  0.2168
 6113SOL    HW129801   0.911   0.347   3.367  0.6582 -0.6935  0.5903
 6113SOL    HW229802   1.056   0.367   3.360  1.6233  1.2442 -2.7356
 6114SOL     OW29803   2.093   2.461   0.660 -0.0256 -0.2396  0.0227
 6114SOL    HW129804   2.092   2.444   0.755  2.1555  4.3020  0.8918
 6114SOL    HW229805   2.118   2.375   0.626 -0.5145 -0.1517 -0.5460
 6115SOL     OW29806   4.327   1.356   0.300 -0.4254 -0.0898 -0.4981
 6115SOL    HW129807   4.388   1.394   0.237 -0.1097 -0.2232 -0.2754
 6115SOL    HW229808   4.303   1.439   0.342  1.1278  0.7657 -1.3249
 6116SOL     OW29809   1.146   0.121   5.118 -0.2581  0.1546  0.2707
 6116SOL    HW129810   1.224   0.066   5.125 -0.6093 -0.2042  1.3318
 6116SOL    HW229811   1.099   0.079   5.189  1.7998 -1.7203  0.5367
 6117SOL     OW29812   4.283   3.276   7.862 -0.1499  0.1419  0.3208
 6117SOL    HW129813   4.194   3.270   7.827  0.3024 -1.2085 -0.5756
 6117SOL    HW229814   4.263   3.359   7.905 -0.5181  0.0335  0.3620
 6118SOL     OW29815   1.940   2.009   4.931  1.2243  0.1603  0.2396
 6118SOL    HW129816   1.989   1.950   4.987 -0.1708  0.6890  2.0412
 6118SOL    HW229817   1.883   2.062   4.986  3.9120 -0.8942  3.9879
 6119SOL     OW29818   4.055   0.031   7.627  0.1876 -0.2966  0.1574
 6119SOL    HW129819   4.035   4.672   7.665 -3.1181  0.4139 -0.0617
 6119SOL    HW229820   3.977   0.049   7.575  0.8280  0.7140 -0.4715
 6120SOL     OW29821   2.094   0.911   7.198 -0.0881  0.3432  0.0803
 6120SOL    HW129822   2.085   0.984   7.136  1.2535  1.5485  1.3250
 6120SOL    HW229823   2.135   0.958   7.270  0.0981 -0.8218  0.7400
 6121SOL     OW29824   0.985   2.916   1.977 -0.2817  0.5971  0.2237
 6121SOL    HW129825   0.934   2.885   1.902  0.8552 -2.5387  0.7517
 6121SOL    HW229826   0.926   2.886   2.046 -0.3120 -0.9523 -0.4864
 6122SOL     OW29827   4.377   1.841  17.221 -0.0667 -0.0406  0.0084
 6122SOL    HW129828   4.292   1.817  17.258  0.4490 -1.2437  0.4053
 6122SOL    HW229829   4.352   1.838  17.129 -1.8443  1.8353  0.4182
 6123SOL     OW29830   2.387   1.487   5.848 -0.4510 -0.3021  0.7879
 6123SOL    HW129831   2.342   1.512   5.929 -4.4983  1.6444 -2.0374
 6123SOL    HW229832   2.476   1.477   5.880 -0.1022 -1.6657 -0.5825
 6124SOL     OW29833   2.437   2.303  12.013  0.3357  0.0501  0.0699
 6124SOL    HW129834   2.516   2.249  12.016  0.3191  0.0213 -0.0084
 6124SOL    HW229835   2.371   2.238  11.991 -0.8177  1.3551 -0.3265
 6125SOL     OW29836   1.586   0.293   4.218 -0.5743  0.1266  0.3613
 6125SOL    HW129837   1.528   0.333   4.153 -2.4188 -1.2573  1.1502
 6125SOL    HW229838   1.570   0.199   4.206 -0.3884  0.0486  0.7417
 6126SOL     OW29839   1.840   2.371   0.745  0.1869  0.2914 -0.0039
 6126SOL    HW129840   1.792   2.450   0.771  2.2563  1.5277  0.1026
 6126SOL    HW229841   1.918   2.415   0.711  0.4614 -0.9624 -0.9841
 6127SOL     OW29842   4.578   0.772   2.932  0.0872 -0.1031  0.0606
 6127SOL    HW129843   4.505   0.733   2.980 -1.1291  0.4500 -1.3409
 6127SOL    HW229844   4.659   0.724   2.952  0.1250 -0.3757 -0.7648
 6128SOL     OW29845   4.557   2.656   6.450  0.0645  0.2769 -0.2034
 6128SOL    HW129846   4.467   2.623   6.451  0.7967 -1.6453  1.9450
 6128SOL    HW229847   4.541   2.750   6.439 -0.3906 -0.1379 -3.0871
 6129SOL     OW29848   4.004   4.039   0.904 -0.3588 -0.1751 -0.0011
 6129SOL    HW129849   4.096   4.063   0.898  0.1466 -0.8428  4.6671
 6129SOL    HW229850   4.002   3.947   0.878  0.0767  0.2333 -1.4843
 6130SOL     OW29851   3.733   3.545   0.946 -0.0129  0.5138  0.2425
 6130SOL    HW129852   3.678   3.623   0.931  1.0450  1.0464 -0.8717
 6130SOL    HW229853   3.687   3.473   0.903  0.7462 -0.4690  1.1027
 6131SOL     OW29854   1.131   0.148  15.159  0.3870  0.5637  0.9051
 6131SOL    HW129855   1.054   0.183  15.203 -0.6992 -0.4625 -0.2213
 6131SOL    HW229856   1.169   0.234  15.139 -1.2127  0.6193 -1.8529
 6132SOL     OW29857   3.921   0.668   8.143  0.0671  0.2167 -0.4717
 6132SOL    HW129858   3.841   0.630   8.107 -0.5785  0.4723  0.7192
 6132SOL    HW229859   3.893   0.760   8.149  1.5043  0.6109  0.1568
 6133SOL     OW29860   3.667   2.638  12.059  0.1928 -0.6272 -0.3348
 6133SOL    HW129861   3.575   2.622  12.080 -0.2651  2.8812  0.3024
 6133SOL    HW229862   3.706   2.675  12.137  1.3705 -1.1483 -0.6723
 6134SOL     OW29863   2.849   2.865   8.205  0.2393  0.2618  0.4215
 6134SOL    HW129864   2.775   2.823   8.249  0.9390 -0.3577  1.0098
 6134SOL    HW229865   2.838   2.824   8.120 -0.5146  1.4178 -0.0471
 6135SOL     OW29866   4.487   2.373   9.560  0.0089  0.1399 -0.4798
 6135SOL    HW129867   4.475   2.280   9.542  0.0128 -0.2432  1.4073
 6135SOL    HW229868   4.438   2.392   9.640 -0.3522  0.2487 -0.7297
 6136SOL     OW29869   4.722   4.348   1.591 -0.2563  0.5260 -0.3391
 6136SOL    HW129870   4.641   4.309   1.623 -0.4770  1.6736  0.5266
 6136SOL    HW229871   0.055   4.330   1.664  2.3625  0.6267 -2.4278
 6137SOL     OW29872   4.581   3.396  17.628  0.6967  0.0045 -0.4903
 6137SOL    HW129873   4.556   3.483  17.657  1.1733 -1.0491  3.0774
 6137SOL    HW229874   4.657   3.433  17.582 -0.2715  0.2611 -1.8679
 6138SOL     OW29875   3.606   4.554  11.871 -0.0779  0.0880 -0.0780
 6138SOL    HW129876   3.609   4.631  11.927  0.5387  1.4818 -2.0195
 6138SOL    HW229877   3.692   4.516  11.893  0.6442  1.2541 -0.8989
 6139SOL     OW29878   1.289   1.838   7.473 -0.7386  0.3390  0.5996
 6139SOL    HW129879   1.223   1.810   7.536 -1.4237 -0.9455 -0.6883
 6139SOL    HW229880   1.242   1.839   7.390 -1.8227  1.5285  1.2344
 6140SOL     OW29881   3.006   3.085   8.952 -0.5315 -0.3103 -0.0604
 6140SOL    HW129882   3.088   3.112   8.911  0.3266 -1.2695  1.0167
 6140SOL    HW229883   2.941   3.133   8.901 -0.2903  1.2950  1.1547
 6141SOL     OW29884   4.156   1.841   6.587  0.3690  0.4027 -1.0369
 6141SOL    HW129885   4.179   1.761   6.540 -3.4056 -0.6029 -1.1522
 6141SOL    HW229886   4.202   1.823   6.670  0.1796  1.4209 -0.7172
 6142SOL     OW29887   3.752   4.141   0.988 -0.2510 -0.2313 -0.5552
 6142SOL    HW129888   3.845   4.122   0.974 -0.8414 -2.5315 -1.4246
 6142SOL    HW229889   3.704   4.062   0.964 -1.6626  1.2319 -2.4989
 6143SOL     OW29890   2.468   2.184   8.022 -0.4459  0.3568 -0.5271
 6143SOL    HW129891   2.407   2.233   7.968 -2.2195 -1.5444 -0.2499
 6143SOL    HW229892   2.486   2.114   7.959 -0.6410 -0.4816  0.3410
 6144SOL     OW29893   2.616   0.691   7.051  0.7481 -0.0715 -0.4233
 6144SOL    HW129894   2.614   0.621   7.117  1.3425 -0.1091 -0.4438
 6144SOL    HW229895   2.564   0.757   7.097  0.8942 -0.3837  0.2063
 6145SOL     OW29896   2.186   1.598   1.576  0.2186 -0.0330 -0.4043
 6145SOL    HW129897   2.122   1.607   1.647  0.5077 -0.0512 -0.1419
 6145SOL    HW229898   2.260   1.633   1.625 -0.7160 -1.6631  2.1701
 6146SOL     OW29899   2.350   0.486  14.788 -0.2209  0.2492  0.0905
 6146SOL    HW129900   2.376   0.444  14.706 -1.0245  2.4312 -1.2747
 6146SOL    HW229901   2.413   0.437  14.841  1.0688  2.3548  0.5316
 6147SOL     OW29902   3.998   0.486   2.633 -0.0663  0.6175 -0.4828
 6147SOL    HW129903   4.072   0.435   2.600 -0.5475 -0.4244  0.0582
 6147SOL    HW229904   3.943   0.490   2.555  0.2149  0.9714 -0.6598
 6148SOL     OW29905   2.234   1.066   9.287  0.8940  0.2591 -0.0214
 6148SOL    HW129906   2.155   1.078   9.234 -0.2741 -1.3075  1.3612
 6148SOL    HW229907   2.207   1.108   9.368  0.6539 -0.1369  0.1072
 6149SOL     OW29908   1.729   2.889   6.776 -0.2780  0.4451 -0.2979
 6149SOL    HW129909   1.700   2.798   6.767 -0.0435  0.4895 -1.4529
 6149SOL    HW229910   1.823   2.894   6.759 -0.5693 -0.2627 -2.0445
 6150SOL     OW29911   0.329   3.396  13.370 -0.3858 -0.2199  0.0374
 6150SOL    HW129912   0.408   3.366  13.413 -0.6114  0.3602  0.8708
 6150SOL    HW229913   0.264   3.393  13.440 -1.9043  1.2672 -1.3012
 6151SOL     OW29914   1.401   2.333   0.764 -0.1092 -0.1528 -0.3034
 6151SOL    HW129915   1.393   2.410   0.709  0.5880 -0.0985 -0.3226
 6151SOL    HW229916   1.473   2.291   0.717 -1.1363  0.9080 -2.8206
 6152SOL     OW29917   2.314   1.729   6.451 -0.1858 -0.2138  0.1009
 6152SOL    HW129918   2.263   1.681   6.516 -1.5920  0.9384 -0.1387
 6152SOL    HW229919   2.350   1.798   6.505  1.5053 -0.2997 -0.9275
 6153SOL     OW29920   2.767   0.300   6.156  0.4911  0.3436  0.2345
 6153SOL    HW129921   2.764   0.372   6.093  0.6561 -0.0501 -0.2334
 6153SOL    HW229922   2.856   0.319   6.182  0.7900 -0.2244 -0.3553
 6154SOL     OW29923   0.819   0.299   2.838 -0.3045 -0.2835 -0.1418
 6154SOL    HW129924   0.842   0.370   2.898  0.9106 -0.1746 -0.7467
 6154SOL    HW229925   0.746   0.259   2.886 -2.0047  2.5211 -0.3750
 6155SOL     OW29926   3.332   4.127  11.834 -0.3273  0.2049 -0.1921
 6155SOL    HW129927   3.285   4.149  11.754 -0.1988  0.6349 -0.1483
 6155SOL    HW229928   3.291   4.176  11.906 -0.8052  2.1604 -1.8115
 6156SOL     OW29929   0.132   1.692   6.559 -0.6195  0.3328  0.2700
 6156SOL    HW129930   0.128   1.780   6.596  0.0278 -0.2263  1.6727
 6156SOL    HW229931   0.225   1.676   6.576 -0.7946 -1.0558 -0.0801
 6157SOL     OW29932   0.081   2.453  13.504  0.0798 -0.8923  0.0314
 6157SOL    HW129933   0.141   2.517  13.542 -0.7721  0.0112 -0.1604
 6157SOL    HW229934   0.027   2.441  13.582 -0.4250  1.7906  0.0900
 6158SOL     OW29935   1.620   0.817   5.991  0.2016  0.3995  0.0652
 6158SOL    HW129936   1.658   0.735   5.959 -0.7649 -0.2750  0.6574
 6158SOL    HW229937   1.638   0.811   6.085 -2.6466  0.5046  0.6169
 6159SOL     OW29938   0.586   3.970   6.028  0.3585 -0.7380 -0.4555
 6159SOL    HW129939   0.596   4.032   5.955  1.2390 -0.5254 -0.1512
 6159SOL    HW229940   0.539   3.896   5.991  0.2870 -1.4513  1.0872
 6160SOL     OW29941   0.257   2.043   5.408  0.8107 -0.0275  0.2003
 6160SOL    HW129942   0.186   2.018   5.349 -0.4869 -1.5716  2.3961
 6160SOL    HW229943   0.213   2.103   5.469  1.0790 -0.0135  0.3821
 6161SOL     OW29944   2.331   3.386   7.057 -0.1859  0.0152 -0.1227
 6161SOL    HW129945   2.409   3.378   7.001 -2.1441 -1.7018 -2.6211
 6161SOL    HW229946   2.273   3.434   6.997  0.1785  0.6924  0.0704
 6162SOL     OW29947   1.829   2.349   7.961 -0.4293 -0.6523  0.3543
 6162SOL    HW129948   1.774   2.380   8.033  1.2325  1.4461  0.7334
 6162SOL    HW229949   1.763   2.301   7.911 -1.3875  1.4975 -0.4733
 6163SOL     OW29950   2.732   3.343   7.611  0.4208 -0.0865  0.3597
 6163SOL    HW129951   2.742   3.280   7.539 -0.2258  0.9408 -0.6352
 6163SOL    HW229952   2.767   3.291   7.683 -1.1681 -0.2652  0.9973
 6164SOL     OW29953   2.769   2.064  16.869  0.1328 -0.5759  0.2005
 6164SOL    HW129954   2.848   2.065  16.924 -0.2975 -0.2104  0.8204
 6164SOL    HW229955   2.702   2.073  16.937 -0.2040  1.7565 -0.4449
 6165SOL     OW29956   2.552   3.951   4.199  0.5679 -0.1818 -0.4613
 6165SOL    HW129957   2.534   3.902   4.280 -0.7460  0.0758 -0.6000
 6165SOL    HW229958   2.589   4.034   4.227  0.5520  0.4145 -2.2760
 6166SOL     OW29959   1.654   0.330  13.182  0.5587 -0.1154  0.0971
 6166SOL    HW129960   1.703   0.290  13.111 -0.6003 -2.4885  0.6452
 6166SOL    HW229961   1.609   0.254  13.218 -0.2671  1.3501  2.1895
 6167SOL     OW29962   4.035   0.883   3.489  0.2929  0.4319  0.3998
 6167SOL    HW129963   4.019   0.790   3.471 -2.3029  0.4972  2.2840
 6167SOL    HW229964   4.085   0.875   3.570  1.1252  1.0553 -0.0577
 6168SOL     OW29965   2.624   3.924  15.635 -0.0673 -0.5853  0.0237
 6168SOL    HW129966   2.536   3.946  15.664  0.9484  0.6331  2.1652
 6168SOL    HW229967   2.639   3.840  15.677  0.9251  0.3850  1.6043
 6169SOL     OW29968   3.077   3.645  11.994  0.2217 -0.0932 -0.0246
 6169SOL    HW129969   3.030   3.707  12.051  1.7715 -0.8662  2.1133
 6169SOL    HW229970   3.006   3.623  11.933  1.3592  0.7159 -1.6146
 6170SOL     OW29971   0.237   2.236   8.076  0.0028 -0.1499  0.0335
 6170SOL    HW129972   0.189   2.178   8.135 -1.0832  1.1175  0.3916
 6170SOL    HW229973   0.287   2.282   8.144 -0.6485  1.7021 -0.7775
 6171SOL     OW29974   2.671   2.025  11.157  0.1803  0.2779  0.7383
 6171SOL    HW129975   2.596   1.966  11.164  1.1294 -1.1024 -0.5219
 6171SOL    HW229976   2.686   2.036  11.251  2.3466  0.3329  0.3895
 6172SOL     OW29977   2.977   4.419   6.649  0.3113 -0.1406 -0.9121
 6172SOL    HW129978   2.943   4.508   6.652 -1.3735 -0.8860  2.1008
 6172SOL    HW229979   2.910   4.390   6.587 -0.5180 -1.8278  0.7685
 6173SOL     OW29980   0.432   0.417   6.790  1.1051 -0.3767  0.4233
 6173SOL    HW129981   0.523   0.390   6.776  1.1895 -0.1176  0.4776
 6173SOL    HW229982   0.427   0.439   6.883  0.8367  1.8498 -0.1280
 6174SOL     OW29983   2.958   4.257   3.479  0.5386 -0.0335 -0.2473
 6174SOL    HW129984   3.036   4.287   3.432  1.1484 -0.6843  0.3542
 6174SOL    HW229985   2.998   4.213   3.554  1.5968 -0.3184 -0.9874
 6175SOL     OW29986   0.282   0.581   4.704 -0.1439  0.3132 -0.5191
 6175SOL    HW129987   0.199   0.612   4.666 -2.1550 -0.7026  3.0803
 6175SOL    HW229988   0.290   0.492   4.669  2.8452  0.1653  0.5871
 6176SOL     OW29989   3.567   2.952   6.102  0.5458 -0.0347  0.2331
 6176SOL    HW129990   3.642   2.905   6.065  0.9695  1.3778 -0.6997
 6176SOL    HW229991   3.588   2.952   6.195  0.6890  0.4515  0.1961
 6177SOL     OW29992   1.868   2.340   5.122  0.0367  0.0961  0.3293
 6177SOL    HW129993   1.868   2.281   5.197 -0.5594  1.2701  1.2571
 6177SOL    HW229994   1.945   2.382   5.160  0.9956 -0.0027 -1.5307
 6178SOL     OW29995   3.846   1.873   6.595 -0.6963 -0.2623 -0.1790
 6178SOL    HW129996   3.925   1.821   6.579 -0.6940  0.5597 -2.7255
 6178SOL    HW229997   3.832   1.908   6.507  4.4072  2.7979  0.1688
 6179SOL     OW29998   2.019   1.133  11.364  0.1448 -0.0624 -0.2245
 6179SOL    HW129999   2.098   1.171  11.326  1.6575 -2.2889  0.6939
 6179SOL    HW230000   2.022   1.043  11.331 -0.2606 -0.7522  1.6170
 6180SOL     OW30001   2.400   4.018   7.368  0.2988 -0.3965 -0.4103
 6180SOL    HW130002   2.463   4.067   7.422 -0.5215  0.8018 -0.5444
 6180SOL    HW230003   2.341   3.986   7.436 -0.2500  2.1357  0.2834
 6181SOL     OW30004   2.499   3.256   0.268  0.5213  0.0464 -0.4282
 6181SOL    HW130005   2.567   3.322   0.281 -2.8723  3.1950  1.1138
 6181SOL    HW230006   2.520   3.232   0.178 -1.1363 -0.1008 -0.7721
 6182SOL     OW30007   4.144   1.936   7.686 -0.9305  0.3502  0.3569
 6182SOL    HW130008   4.111   1.847   7.677 -1.0929  0.4215  0.2492
 6182SOL    HW230009   4.239   1.923   7.689 -0.4195  4.2188  1.3360
 6183SOL     OW30010   3.131   3.077  15.690 -0.3355  0.7956 -0.0590
 6183SOL    HW130011   3.044   3.087  15.730  0.5839  3.1145  1.3752
 6183SOL    HW230012   3.144   3.158  15.641  1.9462  0.0443 -0.6926
 6184SOL     OW30013   0.508   1.722   8.973  0.5979  0.5458  0.2656
 6184SOL    HW130014   0.491   1.642   8.925 -2.0897  0.3830  1.4868
 6184SOL    HW230015   0.482   1.785   8.906  0.5108  0.5057  0.2620
 6185SOL     OW30016   3.000   0.545   3.344 -0.6725 -0.4819 -0.4132
 6185SOL    HW130017   2.965   0.594   3.270 -0.7137 -3.0723 -2.0895
 6185SOL    HW230018   3.062   0.483   3.305  1.0360  1.2531 -0.4200
 6186SOL     OW30019   3.108   3.743   2.356 -0.4774 -0.3053 -0.1238
 6186SOL    HW130020   3.085   3.762   2.265  0.7425  1.4448 -0.0532
 6186SOL    HW230021   3.016   3.729   2.380  0.0462 -3.3935  0.1780
 6187SOL     OW30022   3.474   3.726   0.486 -0.0265  0.3131 -0.1106
 6187SOL    HW130023   3.551   3.745   0.431  0.5467 -0.5851  0.3765
 6187SOL    HW230024   3.499   3.770   0.568 -2.2282  1.1748  0.0809
 6188SOL     OW30025   0.310   3.877   5.344 -0.1304  0.3128 -0.3571
 6188SOL    HW130026   0.370   3.863   5.271  1.1737 -0.4101  0.8569
 6188SOL    HW230027   0.319   3.970   5.366 -0.2503  0.3010 -0.2563
 6189SOL     OW30028   3.860   2.071   6.339  0.5186  1.4355 -0.2215
 6189SOL    HW130029   3.918   2.004   6.303 -0.9062  0.4438 -0.6873
 6189SOL    HW230030   3.856   2.131   6.264  0.6945  1.4034 -0.2549
 6190SOL     OW30031   2.370   1.052   5.725 -0.1962 -0.1843  0.0651
 6190SOL    HW130032   2.329   1.064   5.811  1.2878  1.9145  0.4717
 6190SOL    HW230033   2.462   1.059   5.752  0.4227 -1.5323 -1.6950
 6191SOL     OW30034   3.167   3.409   6.164 -0.4436  0.4867 -0.6880
 6191SOL    HW130035   3.232   3.458   6.114 -1.0553  2.8958  0.8403
 6191SOL    HW230036   3.152   3.329   6.115  2.4820 -0.1432 -0.5415
 6192SOL     OW30037   0.338   4.272   4.397 -0.3751  0.0045  0.0337
 6192SOL    HW130038   0.331   4.186   4.437  2.1168  0.3247  1.1414
 6192SOL    HW230039   0.318   4.252   4.306  1.1018 -2.7469  0.3190
 6193SOL     OW30040   3.588   3.722  10.487  0.1202  0.3341  0.0827
 6193SOL    HW130041   3.650   3.768  10.431 -0.6762 -1.0702 -1.9912
 6193SOL    HW230042   3.514   3.720  10.426 -1.4348  0.4647  1.9419
 6194SOL     OW30043   4.018   2.424   7.998 -0.4788 -0.4029  0.0802
 6194SOL    HW130044   3.967   2.495   8.038 -0.6491 -0.7445  0.4696
 6194SOL    HW230045   4.077   2.412   8.072 -0.7108 -0.2508  0.2906
 6195SOL     OW30046   1.066   3.697  15.878  0.5055  0.1095  0.0204
 6195SOL    HW130047   1.009   3.773  15.863 -0.4919 -0.2240  2.1667
 6195SOL    HW230048   1.150   3.742  15.887 -0.1039  1.5916 -1.5742
 6196SOL     OW30049   1.718   3.232   6.991  0.0477 -0.0369 -0.1593
 6196SOL    HW130050   1.752   3.269   6.909 -2.1697  0.7397 -0.7499
 6196SOL    HW230051   1.801   3.221   7.037  0.3929 -3.5630 -1.7032
 6197SOL     OW30052   4.253   2.722   7.862  0.2913  0.2933 -0.1882
 6197SOL    HW130053   4.208   2.773   7.795 -0.9420 -0.3544  0.1381
 6197SOL    HW230054   4.202   2.641   7.860  1.8573 -0.7210  0.5188
 6198SOL     OW30055   3.225   1.784  11.698 -0.0015  0.6617 -0.2180
 6198SOL    HW130056   3.243   1.850  11.630 -0.6677  0.4303 -0.6129
 6198SOL    HW230057   3.184   1.711  11.653  1.2397  0.2179 -0.6140
 6199SOL     OW30058   1.257   2.477   8.368  0.0748 -0.2062 -0.0938
 6199SOL    HW130059   1.351   2.474   8.384  0.4875 -0.6340 -2.6337
 6199SOL    HW230060   1.262   2.469   8.273  1.3119 -0.3031 -0.0149
 6200SOL     OW30061   2.690   1.901  17.519 -0.2686 -0.3252  0.2530
 6200SOL    HW130062   2.721   1.990  17.499  2.9037 -1.5642 -0.3300
 6200SOL    HW230063   2.668   1.915  17.611 -2.0279  0.4405 -0.2751
 6201SOL     OW30064   0.205   4.516   7.992  0.2895 -0.4308  0.4835
 6201SOL    HW130065   0.191   4.518   7.897 -1.4270  0.6704  0.7509
 6201SOL    HW230066   0.204   4.422   8.010 -0.4153 -0.7452 -1.1378
 6202SOL     OW30067   0.207   4.614  14.807 -0.1131  0.7218 -0.6022
 6202SOL    HW130068   0.246   4.532  14.777 -0.0151 -0.1405  1.8191
 6202SOL    HW230069   0.278   4.673  14.783  0.5236  0.6488  1.0547
 6203SOL     OW30070   3.931   3.665   3.049 -0.1574 -0.4475  0.2754
 6203SOL    HW130071   4.003   3.638   3.106 -1.9703  0.1879  2.8760
 6203SOL    HW230072   3.966   3.640   2.963 -0.0912 -2.0267  0.7624
 6204SOL     OW30073   3.591   3.448  16.009  0.4470  0.1096 -0.0392
 6204SOL    HW130074   3.498   3.437  15.989  0.3312  0.0305  0.5680
 6204SOL    HW230075   3.627   3.384  15.947 -0.8810 -2.4439  1.8564
 6205SOL     OW30076   2.362   1.885   8.697  0.2806  0.2077  0.2502
 6205SOL    HW130077   2.369   1.969   8.743 -0.3192 -0.3196  1.2833
 6205SOL    HW230078   2.406   1.897   8.612  0.9838 -0.0819  0.5726
 6206SOL     OW30079   1.785   0.178  15.784  0.2292 -0.0235  1.0716
 6206SOL    HW130080   1.878   0.170  15.807  0.7243  1.4783 -0.4687
 6206SOL    HW230081   1.759   0.249  15.842  0.3043 -1.0246  2.3383
 6207SOL     OW30082   3.201   2.930  17.477 -0.0514  0.1575  0.6227
 6207SOL    HW130083   3.290   2.945  17.444  0.1134 -0.1105  0.9389
 6207SOL    HW230084   3.192   2.989  17.551 -0.3824  0.7288  0.1190
 6208SOL     OW30085   0.495   1.130  11.073  0.2116 -0.2644  0.0880
 6208SOL    HW130086   0.550   1.132  11.151  2.7419  1.9682 -1.7626
 6208SOL    HW230087   0.415   1.175  11.100  1.9381  1.1117  2.9119
 6209SOL     OW30088   0.617   0.666   4.210 -0.1137 -0.3830  0.2214
 6209SOL    HW130089   0.671   0.587   4.210 -2.0263 -1.6686 -1.9117
 6209SOL    HW230090   0.610   0.685   4.304 -0.3445  0.0590  0.1160
 6210SOL     OW30091   2.652   3.303   4.642  0.1274  0.4797  0.1199
 6210SOL    HW130092   2.628   3.211   4.633  0.5048  0.1209  2.6499
 6210SOL    HW230093   2.565   3.341   4.629  0.4320  0.5201 -1.8127
 6211SOL     OW30094   4.342   1.890   7.352 -0.1397  0.1474 -0.1658
 6211SOL    HW130095   4.253   1.922   7.362 -0.7545 -1.3089 -1.0316
 6211SOL    HW230096   4.355   1.929   7.266  2.0865  1.3105  0.6746
 6212SOL     OW30097   1.094   4.667   2.331  0.1786  0.1206 -0.6565
 6212SOL    HW130098   1.097   4.640   2.423 -1.3293 -0.1156 -0.6749
 6212SOL    HW230099   1.045   0.023   2.338  0.4755  0.2670 -0.3364
 6213SOL     OW30100   4.286   0.989   6.949  0.3158 -0.4827 -0.3101
 6213SOL    HW130101   4.212   0.929   6.960 -1.0826  1.7931  2.9777
 6213SOL    HW230102   4.324   0.944   6.874  2.0011  1.5573 -0.6824
 6214SOL     OW30103   1.743   1.537   6.952 -0.0583  0.3823 -0.1525
 6214SOL    HW130104   1.692   1.615   6.934 -0.2296  0.5456  1.0437
 6214SOL    HW230105   1.739   1.522   7.047  1.1598  1.7580  0.1148
 6215SOL     OW30106   2.041   2.177   8.680 -0.2431 -0.0896  0.1523
 6215SOL    HW130107   2.100   2.102   8.687 -1.8666 -1.3473  0.1633
 6215SOL    HW230108   2.101   2.242   8.643  0.7127 -1.6647 -1.0602
 6216SOL     OW30109   3.878   4.681   2.487  0.0869 -0.2878 -0.2628
 6216SOL    HW130110   3.838   0.041   2.493  1.8660  0.5375 -0.3335
 6216SOL    HW230111   3.901   4.659   2.578  2.6171 -0.1945 -0.8568
 6217SOL     OW30112   1.091   0.166  10.567 -0.1966  0.1128  0.7488
 6217SOL    HW130113   1.058   0.078  10.583  0.5917 -0.3969 -0.4512
 6217SOL    HW230114   1.141   0.150  10.487 -1.0228 -1.0571  0.4645
 6218SOL     OW30115   2.084   3.046   3.996  0.2792  0.7227 -0.0844
 6218SOL    HW130116   2.072   2.973   3.935 -1.7014 -0.5079  1.7452
 6218SOL    HW230117   2.105   3.111   3.929  1.0876  1.4621  0.8933
 6219SOL     OW30118   4.693   0.715   3.819 -0.2423  0.1822  0.5852
 6219SOL    HW130119   4.719   0.634   3.775 -1.7587 -0.7270  1.3468
 6219SOL    HW230120   4.667   0.672   3.901  1.3055  1.2750  1.6546
 6220SOL     OW30121   2.152   4.726   4.719  0.2963 -0.0856 -0.0679
 6220SOL    HW130122   2.227   0.001   4.779  0.2230 -0.2781  0.0307
 6220SOL    HW230123   2.196   4.669   4.656  0.8366  0.9500 -0.6196
 6221SOL     OW30124   4.597   4.320   3.123  0.0652 -0.2895  0.6052
 6221SOL    HW130125   4.684   4.343   3.156  0.3700 -1.8718  0.9226
 6221SOL    HW230126   4.560   4.408   3.117 -1.0228 -0.7162  1.0322
 6222SOL     OW30127   3.296   2.054   1.281  0.6093 -0.5266 -0.1852
 6222SOL    HW130128   3.344   2.102   1.213  1.0356 -0.2941  0.2847
 6222SOL    HW230129   3.311   1.962   1.259 -1.8554 -1.1365  0.7048
 6223SOL     OW30130   1.073   1.439   3.969  0.5450  0.3174  0.0701
 6223SOL    HW130131   1.154   1.392   3.989 -0.3811 -0.8262  1.1792
 6223SOL    HW230132   1.057   1.417   3.878  1.1398 -1.2939  0.3576
 6224SOL     OW30133   4.365   3.068  11.541  0.3093 -0.1210  0.5427
 6224SOL    HW130134   4.324   2.999  11.489  1.4249 -0.2848 -0.1106
 6224SOL    HW230135   4.311   3.057  11.619  1.0123 -1.1204  0.8971
 6225SOL     OW30136   2.952   1.776   8.731 -0.1665 -0.1023 -0.0811
 6225SOL    HW130137   3.002   1.804   8.808  0.2820  0.3160 -0.5349
 6225SOL    HW230138   2.908   1.859   8.714  0.3064  0.0221 -0.6545
 6226SOL     OW30139   1.330   2.116   9.660  0.3888  0.0619  0.1452
 6226SOL    HW130140   1.403   2.175   9.679  0.8680 -0.3071 -0.5644
 6226SOL    HW230141   1.319   2.130   9.566 -0.6516  1.7053  0.5115
 6227SOL     OW30142   2.308   4.303   3.544 -0.4899 -0.1042  0.0170
 6227SOL    HW130143   2.294   4.251   3.465 -2.5330 -0.0728  0.3562
 6227SOL    HW230144   2.270   4.385   3.513 -0.3097  0.4725  1.3188
 6228SOL     OW30145   3.579   1.749  12.536  0.5191  0.2862 -0.5679
 6228SOL    HW130146   3.608   1.702  12.614 -0.7540 -0.3464 -0.4771
 6228SOL    HW230147   3.654   1.737  12.478  1.2768 -0.8372  0.6363
 6229SOL     OW30148   2.369   0.595   8.093  0.3151 -0.2477  0.7844
 6229SOL    HW130149   2.442   0.652   8.073 -1.2049  0.5814 -2.4253
 6229SOL    HW230150   2.343   0.565   8.006 -1.4039 -1.0498  1.5698
 6230SOL     OW30151   3.396   0.304  17.040  0.9452  0.4619  0.0677
 6230SOL    HW130152   3.358   0.350  17.115 -0.6938 -1.3229  0.3392
 6230SOL    HW230153   3.316   0.281  16.993  1.7484  1.2922 -1.6731
 6231SOL     OW30154   0.834   1.968   6.041 -0.1129  0.2669 -0.4075
 6231SOL    HW130155   0.876   1.894   5.998 -0.9070 -0.5508  0.2135
 6231SOL    HW230156   0.891   1.993   6.114  1.8331 -1.7271 -1.2827
 6232SOL     OW30157   3.548   4.488   5.013  0.2935  0.3356 -0.0668
 6232SOL    HW130158   3.563   4.557   5.078 -2.5581  0.9278 -0.0017
 6232SOL    HW230159   3.527   4.548   4.941 -0.5473 -1.5210 -1.3724
 6233SOL     OW30160   0.372   3.536   4.300 -0.2007 -0.5862 -0.0737
 6233SOL    HW130161   0.383   3.447   4.334  0.1136 -0.1524  0.9747
 6233SOL    HW230162   0.446   3.580   4.341  0.3798 -1.3334 -0.3260
 6234SOL     OW30163   1.945   0.361  16.345  0.3565 -0.1330  0.1060
 6234SOL    HW130164   2.038   0.344  16.359  0.6923 -0.3806 -2.5733
 6234SOL    HW230165   1.905   0.294  16.401  0.5072  0.2345  0.6606
 6235SOL     OW30166   3.549   2.113   8.717 -0.4151  0.4669 -0.5636
 6235SOL    HW130167   3.585   2.030   8.685  1.1854  0.7720  0.4376
 6235SOL    HW230168   3.466   2.074   8.743 -0.7632  1.5776 -0.0457
 6236SOL     OW30169   2.420   2.984   8.817 -0.7148  0.1877  0.9082
 6236SOL    HW130170   2.504   2.982   8.771 -0.9348  0.2636  0.5034
 6236SOL    HW230171   2.431   3.058   8.876 -1.8378  0.8592  0.2934
 6237SOL     OW30172   0.561   0.687   2.448 -0.6483  0.2397  0.1043
 6237SOL    HW130173   0.622   0.760   2.442 -1.0788  0.6550  0.8328
 6237SOL    HW230174   0.512   0.706   2.368  0.6780 -0.5951 -0.9036
 6238SOL     OW30175   1.457   4.102  12.006  0.0539 -0.3279 -0.4864
 6238SOL    HW130176   1.452   4.166  12.077  0.7766 -1.2305  0.3616
 6238SOL    HW230177   1.533   4.052  12.035 -0.2077 -0.4293  0.0168
 6239SOL     OW30178   0.229   3.191   7.950 -0.1215 -0.3993 -0.0036
 6239SOL    HW130179   0.188   3.122   8.002  0.2778  0.1246  1.0161
 6239SOL    HW230180   0.225   3.263   8.013  1.5521 -0.2339 -0.0867
 6240SOL     OW30181   1.279   2.821   3.326 -0.1242 -0.5939 -0.2490
 6240SOL    HW130182   1.313   2.896   3.279 -0.1201 -1.7317 -2.0642
 6240SOL    HW230183   1.223   2.777   3.262 -0.3327 -2.1842  1.0102
 6241SOL     OW30184   1.833   0.120   1.169  0.4883 -0.3025  0.0452
 6241SOL    HW130185   1.908   0.065   1.190  1.4272  2.4239  3.7278
 6241SOL    HW230186   1.820   0.102   1.076  1.3556 -2.3816  0.3234
 6242SOL     OW30187   1.241   1.835   0.264 -0.0498  0.7521 -0.1503
 6242SOL    HW130188   1.248   1.791   0.179 -0.2929 -0.1701  0.3057
 6242SOL    HW230189   1.204   1.759   0.310 -0.0832  0.2732 -0.9549
 6243SOL     OW30190   1.579   2.399   3.378  0.0650 -0.2422  0.1402
 6243SOL    HW130191   1.550   2.490   3.381  0.4592 -0.1031 -0.3672
 6243SOL    HW230192   1.586   2.395   3.283 -1.4564 -1.2061  0.0623
 6244SOL     OW30193   2.744   0.925  17.561 -0.2817  0.2152  0.0777
 6244SOL    HW130194   2.718   0.887  17.645  0.3230  0.5541  0.4236
 6244SOL    HW230195   2.708   0.867  17.494  0.4455  0.0104 -0.1321
 6245SOL     OW30196   2.146   1.023  14.125 -0.8969  0.4211 -0.6770
 6245SOL    HW130197   2.181   1.107  14.096  1.6997 -0.9216 -1.4091
 6245SOL    HW230198   2.074   1.051  14.180 -0.1128 -0.0757  0.6035
 6246SOL     OW30199   4.252   4.030   6.638  0.2497  0.1302 -0.4682
 6246SOL    HW130200   4.261   3.984   6.554 -1.5207  0.4844 -0.8436
 6246SOL    HW230201   4.164   3.996   6.653  0.6897 -0.9368 -0.3080
 6247SOL     OW30202   1.060   3.359   0.602 -0.6183 -0.3006  0.6209
 6247SOL    HW130203   1.126   3.363   0.672  0.0924 -0.2256 -0.0461
 6247SOL    HW230204   1.075   3.444   0.561 -2.3002  0.0864  0.8355
 6248SOL     OW30205   2.088   2.282   2.665  0.3129  0.8176 -0.5352
 6248SOL    HW130206   1.997   2.303   2.644 -0.1105  0.3516  0.8388
 6248SOL    HW230207   2.142   2.340   2.611 -0.6067  1.1787 -1.0704
 6249SOL     OW30208   0.019   0.666  12.422  0.4000  0.0487  0.2419
 6249SOL    HW130209   0.004   0.751  12.381  2.5024 -0.4178 -1.4762
 6249SOL    HW230210   0.103   0.688  12.462  0.3342  2.0870 -0.7482
 6250SOL     OW30211   0.993   0.906   5.101 -0.0705  0.0002 -0.2345
 6250SOL    HW130212   0.987   0.851   5.023  0.9625 -1.0898  0.4558
 6250SOL    HW230213   1.055   0.971   5.065 -0.7496  0.6421 -0.2464
 6251SOL     OW30214   4.000   0.811  15.010  0.1627 -0.1866  0.1323
 6251SOL    HW130215   4.083   0.798  15.056 -1.5772  0.7041  3.5898
 6251SOL    HW230216   4.022   0.881  14.949  0.7265  0.6427  1.2675
 6252SOL     OW30217   3.295   4.371   2.347 -0.5329  0.2967 -0.8989
 6252SOL    HW130218   3.320   4.284   2.376 -2.8848 -0.4087 -0.9371
 6252SOL    HW230219   3.230   4.344   2.281 -0.1946 -1.5824 -0.4624
 6253SOL     OW30220   3.998   3.961   6.665 -0.0545 -0.3143  0.0415
 6253SOL    HW130221   3.954   4.033   6.711  1.0677 -1.5240  3.0405
 6253SOL    HW230222   3.934   3.917   6.610 -0.3628 -0.3373  0.4168
 6254SOL     OW30223   1.391   1.159  10.605  0.1864  0.0047  0.0842
 6254SOL    HW130224   1.411   1.251  10.623 -0.0165  0.0652  0.0027
 6254SOL    HW230225   1.460   1.113  10.653  2.0237  0.4511 -2.1865
 6255SOL     OW30226   1.625   1.429   1.387 -0.3168  0.3198 -0.2805
 6255SOL    HW130227   1.665   1.497   1.442  1.2406 -1.2059  0.4890
 6255SOL    HW230228   1.700   1.399   1.336  1.0489  2.1672  0.6202
 6256SOL     OW30229   3.446   3.042   8.365 -0.1668 -0.1609 -0.2788
 6256SOL    HW130230   3.362   3.075   8.332  0.7854  0.8011 -1.7863
 6256SOL    HW230231   3.487   3.044   8.278  1.2652  3.9363  0.4707
 6257SOL     OW30232   2.534   4.049  15.049 -0.2569 -0.2404  0.0376
 6257SOL    HW130233   2.572   4.072  15.134  0.8581 -0.4051 -0.4313
 6257SOL    HW230234   2.489   4.131  15.025  1.5529  0.0634 -2.2939
 6258SOL     OW30235   0.408   2.136   9.151 -0.1959 -0.2756  0.1582
 6258SOL    HW130236   0.444   2.184   9.076  0.6003  0.7114  1.1648
 6258SOL    HW230237   0.490   2.130   9.201  0.5381  1.3692 -0.8489
 6259SOL     OW30238   2.824   0.201   1.949 -0.2124  0.3706 -0.6185
 6259SOL    HW130239   2.873   0.123   1.921  1.7670  1.6192 -0.6326
 6259SOL    HW230240   2.840   0.251   1.869 -1.2855  1.7873  0.0648
 6260SOL     OW30241   2.790   0.214   7.666  0.2683 -0.0374  0.5509
 6260SOL    HW130242   2.727   0.190   7.734 -1.0977  0.2252 -0.6023
 6260SOL    HW230243   2.871   0.205   7.715  1.3806  1.2151 -1.0649
 6261SOL     OW30244   4.057   2.937   6.149 -0.1952 -0.8086  0.3718
 6261SOL    HW130245   4.108   2.885   6.211  1.9662  1.4033  0.4274
 6261SOL    HW230246   4.130   2.972   6.098 -0.2507  0.5171  1.2172
 6262SOL     OW30247   0.196   4.208   5.054 -0.1354 -0.6775  0.5342
 6262SOL    HW130248   0.287   4.198   5.080  0.1130 -2.8268 -1.1496
 6262SOL    HW230249   0.191   4.120   5.015  2.2312 -0.3822 -0.4007
 6263SOL     OW30250   1.299   3.465  10.501  0.0502 -0.1388  0.5405
 6263SOL    HW130251   1.316   3.553  10.536  1.0966  0.3351 -1.1730
 6263SOL    HW230252   1.349   3.468  10.420 -3.2445 -0.0193 -1.4981
 6264SOL     OW30253   4.682   0.570   3.336 -0.1557  0.0101 -0.1105
 6264SOL    HW130254   0.009   0.647   3.316  0.3698 -1.0951 -2.8855
 6264SOL    HW230255   4.609   0.591   3.279 -0.9024  0.2398  0.9245
 6265SOL     OW30256   0.306   4.376  14.728  0.2824  0.0220  0.3898
 6265SOL    HW130257   0.351   4.398  14.647  0.1066  1.0296  0.5666
 6265SOL    HW230258   0.248   4.309  14.693  1.3756 -0.4416 -0.5230
 6266SOL     OW30259   0.483   3.747   2.727 -0.3928 -0.0683  0.0596
 6266SOL    HW130260   0.546   3.819   2.719  0.5125 -0.9885 -1.1100
 6266SOL    HW230261   0.490   3.697   2.645 -0.4240 -1.9382  1.1999
 6267SOL     OW30262   0.522   3.548   2.525  0.1942  0.3256  0.3385
 6267SOL    HW130263   0.534   3.457   2.552 -1.4597  0.5713  1.8783
 6267SOL    HW230264   0.612   3.564   2.494 -0.6759 -1.0605 -2.9369
 6268SOL     OW30265   4.287   3.520   8.007  0.2815 -0.0304  0.0087
 6268SOL    HW130266   4.318   3.605   7.976  2.3355 -1.4077 -1.7418
 6268SOL    HW230267   4.239   3.548   8.084  1.5513  1.1557  0.3817
 6269SOL     OW30268   1.207   4.304   7.189  0.7264  0.4023  0.3085
 6269SOL    HW130269   1.281   4.364   7.181  2.1332 -1.4725 -0.5474
 6269SOL    HW230270   1.243   4.216   7.194 -1.4033 -0.5690 -1.2437
 6270SOL     OW30271   2.759   3.967   1.249 -0.3449  0.1949 -0.3985
 6270SOL    HW130272   2.697   4.034   1.221 -0.2128 -0.0463 -1.2667
 6270SOL    HW230273   2.766   3.903   1.178  2.6336 -0.4038  0.4373
 6271SOL     OW30274   2.865   2.193   7.962 -0.9697  0.3307 -0.3810
 6271SOL    HW130275   2.884   2.268   8.018 -1.3657  0.9400 -1.0621
 6271SOL    HW230276   2.908   2.223   7.882 -0.2773 -0.3293 -0.2643
 6272SOL     OW30277   0.806   2.792   8.081  0.1977 -0.4185 -0.0099
 6272SOL    HW130278   0.784   2.803   8.174 -0.5661  1.1452 -0.3728
 6272SOL    HW230279   0.753   2.712   8.075  0.0091 -0.1683 -1.7199
 6273SOL     OW30280   3.199   0.381  16.843  0.6204 -0.2187 -0.7400
 6273SOL    HW130281   3.152   0.303  16.873 -0.1900  0.5512 -0.0461
 6273SOL    HW230282   3.203   0.364  16.748 -1.1864 -3.3456 -0.2588
 6274SOL     OW30283   3.665   4.115   8.822  0.7130 -0.1016  0.1368
 6274SOL    HW130284   3.649   4.157   8.738 -2.3471 -1.2158  0.1850
 6274SOL    HW230285   3.648   4.191   8.877 -1.1679 -0.7559  0.4481
 6275SOL     OW30286   2.605   0.402   7.859  0.4033 -0.0259 -0.4492
 6275SOL    HW130287   2.632   0.315   7.886  0.9987 -0.3365 -2.0315
 6275SOL    HW230288   2.542   0.377   7.791 -0.6554  1.8186 -0.1540
 6276SOL     OW30289   3.878   3.203   4.782 -0.2445  0.1639  0.2430
 6276SOL    HW130290   3.930   3.197   4.701 -0.1276  0.2241  0.3136
 6276SOL    HW230291   3.839   3.290   4.774 -1.6418 -0.3761  1.1780
 6277SOL     OW30292   2.670   3.845   2.128  0.0093  0.5175 -0.9188
 6277SOL    HW130293   2.590   3.899   2.133 -1.0580 -1.2145  0.5793
 6277SOL    HW230294   2.641   3.754   2.131  0.6857  0.2828 -1.5093
 6278SOL     OW30295   2.010   1.251   1.502 -0.8207  0.0997 -0.2217
 6278SOL    HW130296   1.960   1.281   1.426 -1.5549 -1.3113 -0.3029
 6278SOL    HW230297   2.050   1.170   1.470 -2.7578 -0.6717 -0.6799
 6279SOL     OW30298   2.332   2.901  13.078  0.4099 -0.7908  0.3960
 6279SOL    HW130299   2.268   2.866  13.016  1.8210  2.3245 -2.7890
 6279SOL    HW230300   2.298   2.989  13.096  2.9823  0.1866  0.4047
 6280SOL     OW30301   2.487   3.079   8.147 -0.5394  0.6125 -0.1353
 6280SOL    HW130302   2.458   3.048   8.061  1.8879  0.7475 -1.0098
 6280SOL    HW230303   2.420   3.142   8.173 -2.7681 -0.3025 -3.6708
 6281SOL     OW30304   4.303   1.417   9.750  0.4301  0.0710  0.1849
 6281SOL    HW130305   4.270   1.370   9.827  1.5112  1.9634  1.8002
 6281SOL    HW230306   4.272   1.356   9.683 -3.1355  0.5272  1.3683
 6282SOL     OW30307   2.949   4.169   1.346  0.4039 -0.3705 -0.3263
 6282SOL    HW130308   2.898   4.090   1.332  0.8683 -0.6700 -0.3200
 6282SOL    HW230309   2.887   4.237   1.374  0.6353  0.1130 -0.9926
 6283SOL     OW30310   0.085   2.740   4.723 -0.4222  0.6082  0.1644
 6283SOL    HW130311   0.059   2.648   4.717  0.2456  0.5696 -1.9326
 6283SOL    HW230312   0.067   2.763   4.632 -1.7477  1.0699  0.5365
 6284SOL     OW30313   3.711   4.204   4.857  0.0139  0.3708  0.1501
 6284SOL    HW130314   3.702   4.111   4.878 -2.7627  0.7748  0.7174
 6284SOL    HW230315   3.791   4.199   4.805  0.1311  2.1202  0.1669
 6285SOL     OW30316   2.983   3.988   4.303  0.1798  0.0654  0.2385
 6285SOL    HW130317   2.992   4.028   4.389 -1.5307 -0.2087  0.5286
 6285SOL    HW230318   3.048   4.045   4.260  0.8491  0.0888  1.2830
 6286SOL     OW30319   4.551   2.561   8.306 -0.0002  0.4083  0.6757
 6286SOL    HW130320   4.512   2.480   8.274 -1.2391  1.0469  0.5665
 6286SOL    HW230321   4.472   2.614   8.318  1.3134  2.5365  0.0354
 6287SOL     OW30322   4.360   3.370  11.119 -0.4447 -0.2729  0.0708
 6287SOL    HW130323   4.321   3.384  11.033 -1.2620 -3.4228 -0.0576
 6287SOL    HW230324   4.412   3.450  11.133  1.0696 -1.3030  0.3782
 6288SOL     OW30325   1.019   2.896   5.701  0.7904  0.2391  0.3782
 6288SOL    HW130326   0.964   2.825   5.667  2.8719 -0.3945 -1.6281
 6288SOL    HW230327   0.981   2.974   5.660  0.1218 -1.2636 -1.8560
 6289SOL     OW30328   0.725   4.429   5.616  0.1016  0.6570  0.1369
 6289SOL    HW130329   0.671   4.444   5.693 -1.0846  2.2689 -1.0222
 6289SOL    HW230330   0.807   4.433   5.666  0.3711  2.1387 -0.4108
 6290SOL     OW30331   4.007   2.602   7.042 -1.1448  0.1214  0.1606
 6290SOL    HW130332   3.914   2.604   7.065 -1.1354 -0.1144  0.2228
 6290SOL    HW230333   4.050   2.621   7.125  0.3071  0.8061 -0.7432
 6291SOL     OW30334   3.971   2.752   3.165  0.1450 -0.0244 -0.0688
 6291SOL    HW130335   3.916   2.675   3.180  0.7700 -0.7389 -1.4643
 6291SOL    HW230336   3.991   2.770   3.257 -2.1575 -0.2288  0.4496
 6292SOL     OW30337   2.151   0.205   1.125 -0.3876  0.6239 -0.0513
 6292SOL    HW130338   2.132   0.112   1.113 -1.0910  0.4587  2.1878
 6292SOL    HW230339   2.243   0.214   1.101 -0.3164  0.8600  0.3079
 6293SOL     OW30340   3.035   1.036   0.418 -0.4920 -0.1930 -0.3695
 6293SOL    HW130341   3.020   1.080   0.334 -1.3788  2.9351  1.4256
 6293SOL    HW230342   2.964   1.062   0.476 -0.5367 -1.4461  0.1255
 6294SOL     OW30343   1.318   3.609   2.048 -0.3299 -0.4088  0.0506
 6294SOL    HW130344   1.385   3.551   2.082  0.7214  1.7469  1.7142
 6294SOL    HW230345   1.252   3.549   2.014  0.4658 -0.8078 -0.7925
 6295SOL     OW30346   1.682   0.232   4.991 -1.0366  0.4027 -0.3380
 6295SOL    HW130347   1.672   0.139   4.972 -0.1622  0.1159  0.6284
 6295SOL    HW230348   1.762   0.246   5.041 -1.2610 -1.4095  0.4972
 6296SOL     OW30349   3.377   1.535   5.132  0.3551  0.0514  0.4376
 6296SOL    HW130350   3.331   1.503   5.210  0.3662  0.3930  0.5865
 6296SOL    HW230351   3.453   1.480   5.113  0.5427 -0.1643  1.8145
 6297SOL     OW30352   2.783   4.598   8.464 -0.0206 -0.2251  0.3525
 6297SOL    HW130353   2.741   4.512   8.464 -1.8442  0.6722  1.5238
 6297SOL    HW230354   2.849   4.582   8.396 -0.5904 -1.0830 -0.0132
 6298SOL     OW30355   1.802   1.954   5.588  0.1317 -0.0328 -0.7447
 6298SOL    HW130356   1.827   1.878   5.536 -0.0503 -0.5095 -0.1378
 6298SOL    HW230357   1.756   1.911   5.660  0.9083 -2.4281 -1.6667
 6299SOL     OW30358   0.444   0.779   4.583 -0.4571 -0.0248 -0.1393
 6299SOL    HW130359   0.387   0.708   4.614  0.2003  1.0566  3.6368
 6299SOL    HW230360   0.520   0.727   4.555  0.4624  2.4315 -2.1598
 6300SOL     OW30361   0.497   1.971  13.921  0.2019  0.1380 -0.2295
 6300SOL    HW130362   0.578   2.012  13.890  1.2747 -1.4848  0.4426
 6300SOL    HW230363   0.468   1.923  13.843 -0.8102 -0.4026  0.4832
 6301SOL     OW30364   0.742   1.493  13.536 -0.3856  0.0804  0.3922
 6301SOL    HW130365   0.653   1.526  13.536 -0.2264  0.5304 -1.2459
 6301SOL    HW230366   0.731   1.436  13.460 -0.3139  0.8089 -0.1610
 6302SOL     OW30367   3.327   4.127   2.948 -0.1435  0.2392  0.2865
 6302SOL    HW130368   3.402   4.082   2.985 -0.6206 -1.3510 -0.6870
 6302SOL    HW230369   3.259   4.060   2.955 -0.2459  0.3041 -0.0401
 6303SOL     OW30370   4.347   1.222  12.780 -0.2052  0.1521  0.1080
 6303SOL    HW130371   4.415   1.242  12.844  1.5359  2.5028 -2.5205
 6303SOL    HW230372   4.330   1.131  12.807 -1.6539 -0.0838 -1.5842
 6304SOL     OW30373   3.728   3.213   7.641  0.2726  0.5136 -0.5368
 6304SOL    HW130374   3.800   3.274   7.623  0.9150 -0.4513 -1.2179
 6304SOL    HW230375   3.680   3.264   7.706  0.1410 -0.7342  0.3380
 6305SOL     OW30376   4.395   4.050   5.417  0.0630  0.0923 -0.1531
 6305SOL    HW130377   4.479   4.028   5.374  0.2670 -1.2996  0.9490
 6305SOL    HW230378   4.339   4.002   5.356  0.3739 -0.2643 -0.1576
 6306SOL     OW30379   1.386   1.604   7.792 -0.5990  0.4913  0.0025
 6306SOL    HW130380   1.400   1.536   7.858 -1.5628 -0.6722 -1.0168
 6306SOL    HW230381   1.466   1.657   7.793  0.5956 -1.3146 -0.6217
 6307SOL     OW30382   2.252   0.654   4.493  0.4794  0.0412 -0.1437
 6307SOL    HW130383   2.169   0.688   4.459 -0.5157 -1.5270  0.7017
 6307SOL    HW230384   2.310   0.721   4.458  0.5174  0.6836  1.1537
 6308SOL     OW30385   3.118   3.095  16.994 -0.0654 -0.1121  0.6709
 6308SOL    HW130386   3.153   3.167  17.047 -3.0273  1.8698 -0.0687
 6308SOL    HW230387   3.040   3.129  16.949  1.0466 -0.5120 -1.5527
 6309SOL     OW30388   0.736   2.954   2.907 -0.2760  0.3860  0.0357
 6309SOL    HW130389   0.768   2.996   2.987 -1.7933 -0.3587  1.0315
 6309SOL    HW230390   0.743   2.860   2.925 -1.6415  0.5936  1.6801
 6310SOL     OW30391   1.976   3.140   8.200 -0.5103 -0.0969 -0.7905
 6310SOL    HW130392   1.905   3.167   8.142  1.9001  0.5928 -3.4072
 6310SOL    HW230393   2.026   3.069   8.160 -3.8783 -2.3693 -0.9854
 6311SOL     OW30394   0.633   1.029   4.194 -0.2088  0.0666 -0.0136
 6311SOL    HW130395   0.552   1.071   4.222 -1.1847 -1.6515 -0.2940
 6311SOL    HW230396   0.603   0.983   4.116  2.6304  0.9661 -1.6271
 6312SOL     OW30397   2.758   3.175   2.423  0.2437 -0.3252  0.3371
 6312SOL    HW130398   2.765   3.084   2.394  2.9657  0.1707 -0.5143
 6312SOL    HW230399   2.805   3.213   2.349  0.6657 -0.5015  0.5153
 6313SOL     OW30400   0.241   1.625   5.662 -0.1376  0.7186 -0.3004
 6313SOL    HW130401   0.157   1.597   5.700 -0.3275  0.0483 -1.1945
 6313SOL    HW230402   0.258   1.700   5.719 -3.5263  1.4746 -0.2945
 6314SOL     OW30403   0.418   3.691  10.066  0.3193 -0.2385 -0.0058
 6314SOL    HW130404   0.359   3.747  10.016 -0.2439 -0.8867 -0.0728
 6314SOL    HW230405   0.439   3.753  10.136  1.3763 -1.0568  0.4188
 6315SOL     OW30406   3.020   0.889  14.078  0.4934  0.2218 -0.2314
 6315SOL    HW130407   3.066   0.951  14.021 -2.6736 -0.2951 -3.3317
 6315SOL    HW230408   3.059   0.920  14.160  1.0071  0.9655 -0.7506
 6316SOL     OW30409   1.114   0.460   9.163  0.2547  0.0930  0.4210
 6316SOL    HW130410   1.062   0.511   9.101  0.6084 -1.1977 -0.9484
 6316SOL    HW230411   1.185   0.522   9.176  0.4445 -0.3226  1.4067
 6317SOL     OW30412   2.553   2.323  14.133  0.2727  0.8340 -0.0207
 6317SOL    HW130413   2.524   2.335  14.042 -2.0148 -1.5654  0.4083
 6317SOL    HW230414   2.530   2.233  14.153 -0.9698  1.1200 -0.1960
 6318SOL     OW30415   0.527   4.173  17.311  0.0922  0.4211 -0.2556
 6318SOL    HW130416   0.483   4.242  17.362  0.7285  1.6013 -1.3298
 6318SOL    HW230417   0.482   4.181  17.227  1.4775 -0.0463 -1.0401
 6319SOL     OW30418   1.217   4.180  12.607 -0.0764 -0.2111  0.4868
 6319SOL    HW130419   1.296   4.231  12.624 -0.8385  1.1966 -0.1897
 6319SOL    HW230420   1.245   4.096  12.572  1.1360  0.2901  0.2756
 6320SOL     OW30421   3.985   4.284   5.550  0.1102  0.4110  0.1096
 6320SOL    HW130422   3.944   4.311   5.468  0.5914  0.9199  0.0402
 6320SOL    HW230423   4.021   4.198   5.528  0.4349  1.0641 -1.9105
 6321SOL     OW30424   0.036   3.701   2.984  0.5340 -0.1630  0.0232
 6321SOL    HW130425   0.105   3.718   2.920  0.4154 -0.7140 -0.2582
 6321SOL    HW230426   4.693   3.686   2.920  1.3156  4.4561 -1.8908
 6322SOL     OW30427   2.659   1.909   8.067  0.2697 -0.1880 -0.4629
 6322SOL    HW130428   2.662   1.974   7.997 -2.0699  0.0084 -0.3839
 6322SOL    HW230429   2.577   1.917   8.115  0.0638 -0.2633 -0.7974
 6323SOL     OW30430   4.194   0.294   2.528 -0.6715  0.5278  0.2026
 6323SOL    HW130431   4.274   0.345   2.540  0.1332 -0.5648 -0.4970
 6323SOL    HW230432   4.230   0.215   2.569  0.5581  0.1973 -1.4597
 6324SOL     OW30433   4.315   4.628  13.407  0.1066  0.5181  0.1987
 6324SOL    HW130434   4.221   4.639  13.422 -0.0389  1.2331 -1.2476
 6324SOL    HW230435   4.321   4.533  13.412  3.1115  0.7457  0.7995
 6325SOL     OW30436   1.691   3.347   8.307  0.0343  0.0468  0.2213
 6325SOL    HW130437   1.668   3.313   8.394  2.2391  1.0430  1.2025
 6325SOL    HW230438   1.642   3.298   8.241  1.7411 -0.8232 -0.3958
 6326SOL     OW30439   2.202   0.271   5.334 -0.2928  0.3729  0.7586
 6326SOL    HW130440   2.219   0.308   5.420 -0.0017  0.9207  0.4708
 6326SOL    HW230441   2.179   0.180   5.350 -3.7965  1.5295  2.4796
 6327SOL     OW30442   0.115   4.043   8.162 -0.4705 -0.1121  0.1400
 6327SOL    HW130443   0.186   4.034   8.225 -0.0830  0.0758 -0.2762
 6327SOL    HW230444   0.089   4.131   8.189  0.5335  0.4092 -0.6206
 6328SOL     OW30445   4.029   0.792   8.614  0.6116  0.1730 -0.1292
 6328SOL    HW130446   3.997   0.797   8.525  0.4143  2.4317  0.0534
 6328SOL    HW230447   4.082   0.871   8.622  1.1596 -0.0451 -1.6190
 6329SOL     OW30448   3.610   3.736   9.743 -0.4701 -0.1427 -0.1730
 6329SOL    HW130449   3.701   3.754   9.721 -0.0011 -1.5060  0.6046
 6329SOL    HW230450   3.606   3.767   9.834 -0.5822 -0.0873 -0.1974
 6330SOL     OW30451   0.069   0.001   2.150  0.0600 -0.0565  0.3006
 6330SOL    HW130452   0.151   4.688   2.122  0.0780  0.8403 -0.8969
 6330SOL    HW230453   0.092   0.090   2.125  0.7108 -0.1940  0.4083
 6331SOL     OW30454   4.415   1.868   2.561 -0.2716 -0.2582 -0.1606
 6331SOL    HW130455   4.432   1.801   2.627 -0.9932  0.9285  1.2374
 6331SOL    HW230456   4.471   1.849   2.485 -0.6650 -0.3640 -0.4265
 6332SOL     OW30457   4.349   3.617  14.198 -0.6354 -0.2345  0.1547
 6332SOL    HW130458   4.440   3.620  14.228  0.3121 -0.4388 -2.6230
 6332SOL    HW230459   4.356   3.548  14.132 -1.7009  0.6959 -0.9376
 6333SOL     OW30460   4.677   0.954   4.210  0.2185  0.6445 -0.3822
 6333SOL    HW130461   4.636   0.871   4.187  0.8609  0.4077 -0.6659
 6333SOL    HW230462   0.028   0.952   4.155 -0.2462  0.8270 -1.0393
 6334SOL     OW30463   3.825   0.815   4.258 -0.4675  0.3838 -0.5894
 6334SOL    HW130464   3.891   0.768   4.208  0.9886 -0.0687  1.7309
 6334SOL    HW230465   3.814   0.893   4.204 -1.8218  0.2651 -0.5050
 6335SOL     OW30466   1.862   1.512  14.501 -0.1881 -0.1857  0.2399
 6335SOL    HW130467   1.864   1.475  14.589 -1.9785 -1.3764 -0.2082
 6335SOL    HW230468   1.829   1.601  14.516  0.4702  0.1664 -0.4322
 6336SOL     OW30469   2.774   1.913  14.549  0.1123 -0.0585  0.5052
 6336SOL    HW130470   2.836   1.840  14.549  1.0493  0.7401 -0.9069
 6336SOL    HW230471   2.836   1.983  14.567  0.8587 -0.8227  0.9344
 6337SOL     OW30472   0.417   3.548  13.111 -0.2910 -0.9013  0.1320
 6337SOL    HW130473   0.416   3.476  13.174  0.1842 -1.3154 -0.3328
 6337SOL    HW230474   0.446   3.628  13.156  0.8289 -0.6564 -1.0023
 6338SOL     OW30475   2.508   1.636  11.975 -0.2147 -0.2849  0.4524
 6338SOL    HW130476   2.454   1.694  12.028  1.0236  0.5428  0.8038
 6338SOL    HW230477   2.445   1.564  11.984 -0.9542  0.1352 -1.4185
 6339SOL     OW30478   0.072   0.725   5.998  0.7428  0.1000 -0.4543
 6339SOL    HW130479   0.065   0.718   6.093  1.4461 -2.1975 -0.5815
 6339SOL    HW230480   0.075   0.633   5.972  1.4022 -0.3863  1.4099
 6340SOL     OW30481   0.530   1.519   9.239  0.0637 -0.0159 -0.1254
 6340SOL    HW130482   0.577   1.602   9.246 -1.7068  1.0249 -0.5581
 6340SOL    HW230483   0.555   1.466   9.315  1.0408  0.3994 -0.1532
 6341SOL     OW30484   4.387   1.416   8.681 -0.3081 -0.1638  0.2116
 6341SOL    HW130485   4.470   1.393   8.641  0.1674  0.8775  0.6179
 6341SOL    HW230486   4.404   1.508   8.702 -0.3797  0.2486 -1.5199
 6342SOL     OW30487   1.572   1.849   4.723 -0.4573 -0.2334 -0.1933
 6342SOL    HW130488   1.492   1.806   4.693 -0.9564 -1.5013  3.0527
 6342SOL    HW230489   1.564   1.842   4.818 -1.6289  2.7106 -0.0613
 6343SOL     OW30490   2.798   0.170  10.231  0.0750 -0.3358 -0.2106
 6343SOL    HW130491   2.860   0.234  10.197 -1.3699  1.3070  0.2108
 6343SOL    HW230492   2.838   0.099  10.181  1.0613  0.0272  0.0739
 6344SOL     OW30493   1.907   4.468   7.286 -0.3015 -0.0524  0.5363
 6344SOL    HW130494   1.854   4.538   7.249 -0.1444 -0.3813 -0.2964
 6344SOL    HW230495   1.840   4.399   7.292 -0.3467 -0.1690 -1.3810
 6345SOL     OW30496   2.266   2.503  12.936  0.4442 -0.2708 -0.1643
 6345SOL    HW130497   2.182   2.481  12.895  0.1666  0.3114  0.0934
 6345SOL    HW230498   2.292   2.426  12.987 -0.4904 -1.5437 -1.5799
 6346SOL     OW30499   1.349   3.590   8.889 -0.4790  0.1554  0.0117
 6346SOL    HW130500   1.272   3.533   8.888 -1.0976  1.0238 -1.9403
 6346SOL    HW230501   1.410   3.516   8.889  0.5080  0.9519 -2.3494
 6347SOL     OW30502   3.815   0.698   5.568 -0.2473  0.2477  0.1824
 6347SOL    HW130503   3.756   0.749   5.625  1.0362  0.0002  1.7315
 6347SOL    HW230504   3.840   0.761   5.501 -1.7198  0.9090  0.2551
 6348SOL     OW30505   1.311   2.285   7.495  0.1734 -0.3696  0.8193
 6348SOL    HW130506   1.336   2.196   7.473  0.3599  0.6458 -3.1223
 6348SOL    HW230507   1.263   2.309   7.415  2.8605 -1.8367 -1.2163
 6349SOL     OW30508   0.861   0.841  14.041  0.5152 -0.0191 -0.5754
 6349SOL    HW130509   0.891   0.751  14.031 -2.1770 -0.6808 -2.8388
 6349SOL    HW230510   0.937   0.873  14.089  1.8190 -2.0712 -1.2799
 6350SOL     OW30511   4.701   4.250   7.302 -0.2448 -0.0504 -0.2330
 6350SOL    HW130512   4.667   4.335   7.274  2.1841  1.9240  2.7109
 6350SOL    HW230513   0.063   4.242   7.267  0.1545 -0.8711  0.9625
 6351SOL     OW30514   1.656   1.297   3.011 -0.1571  0.1619  0.3290
 6351SOL    HW130515   1.725   1.249   3.057  0.3641 -1.2181 -1.8926
 6351SOL    HW230516   1.706   1.318   2.931  0.3399  2.4980  1.2589
 6352SOL     OW30517   2.984   0.333  10.148  0.0995  0.1881  0.1330
 6352SOL    HW130518   3.003   0.399  10.215 -1.0833  0.1608  0.4984
 6352SOL    HW230519   3.064   0.337  10.096  0.9216  0.4083  1.4086
 6353SOL     OW30520   1.384   0.827   5.482  0.5093  0.1035  0.9313
 6353SOL    HW130521   1.349   0.786   5.403  0.4168  0.8337  0.5948
 6353SOL    HW230522   1.443   0.893   5.446  0.0046  0.8732  1.5310
 6354SOL     OW30523   0.213   0.319  12.842 -0.1479 -0.1725  0.4576
 6354SOL    HW130524   0.147   0.299  12.775  0.1060  0.1345  0.1236
 6354SOL    HW230525   0.176   0.262  12.910  0.4532 -0.8240  0.2426
 6355SOL     OW30526   4.135   3.770   2.226  0.1068  0.0663 -0.4289
 6355SOL    HW130527   4.152   3.803   2.138  0.1452 -0.9356 -0.7948
 6355SOL    HW230528   4.174   3.846   2.269 -2.9643  0.3406  1.8730
 6356SOL     OW30529   3.789   3.785   9.440 -0.2828 -0.2334  0.2967
 6356SOL    HW130530   3.721   3.822   9.384  0.9410 -0.1202 -1.1051
 6356SOL    HW230531   3.759   3.695   9.453 -0.2734  0.1296  2.8422
 6357SOL     OW30532   1.823   2.037   7.548 -0.5325  0.3720  0.1713
 6357SOL    HW130533   1.797   1.961   7.497  0.9340 -0.1414  0.1957
 6357SOL    HW230534   1.893   2.076   7.495 -0.5103  0.0772 -0.0143
 6358SOL     OW30535   3.033   1.538  14.005 -0.6685  0.0021  0.2607
 6358SOL    HW130536   2.941   1.514  13.995 -0.8947  2.4603 -3.2388
 6358SOL    HW230537   3.028   1.633  13.993 -1.4406 -0.3640 -2.1476
 6359SOL     OW30538   4.111   4.482  10.712  0.5028  0.0560 -0.2321
 6359SOL    HW130539   4.043   4.539  10.676  0.3602  1.8995  2.9698
 6359SOL    HW230540   4.187   4.541  10.718  1.2599 -0.9899  0.4404
 6360SOL     OW30541   0.273   4.514   3.345  0.2714 -0.1078  0.2088
 6360SOL    HW130542   0.240   4.487   3.430 -1.5695 -1.8851 -1.0772
 6360SOL    HW230543   0.313   4.430   3.321  0.7947  0.1336  0.2157
 6361SOL     OW30544   3.473   0.436   9.972 -0.3549 -0.1504  0.4737
 6361SOL    HW130545   3.535   0.451   9.900 -0.7706 -1.6074 -0.1948
 6361SOL    HW230546   3.520   0.368  10.019 -1.6488 -1.3031  0.0877
 6362SOL     OW30547   3.652   0.416   7.582 -0.5843  0.0836  0.3259
 6362SOL    HW130548   3.738   0.416   7.541 -1.0313  0.6601 -0.6118
 6362SOL    HW230549   3.605   0.460   7.512 -1.5775 -0.8702  0.3803
 6363SOL     OW30550   2.849   0.749   6.578  0.3035 -0.2483 -0.2304
 6363SOL    HW130551   2.910   0.676   6.588  1.6983  0.6212 -2.1907
 6363SOL    HW230552   2.912   0.820   6.595 -0.7694  0.7282 -0.3403
 6364SOL     OW30553   2.169   3.304   3.239  0.5365  0.2086  0.0356
 6364SOL    HW130554   2.254   3.334   3.206  0.8036  2.4461  2.7962
 6364SOL    HW230555   2.126   3.269   3.161  0.3393  1.0759 -0.2379
 6365SOL     OW30556   0.458   2.486   6.225 -1.0275  0.5203 -0.4848
 6365SOL    HW130557   0.425   2.554   6.284 -0.6210  0.3459 -0.0577
 6365SOL    HW230558   0.490   2.538   6.151 -1.2791 -1.6581 -2.1230
 6366SOL     OW30559   3.934   1.187   8.043  0.4829  0.0272  0.0675
 6366SOL    HW130560   3.978   1.217   7.964 -0.1397 -0.7863 -0.5778
 6366SOL    HW230561   3.864   1.252   8.053  1.8249  1.1468  2.3051
 6367SOL     OW30562   0.751   2.705   4.456 -0.0334 -0.4422 -0.1767
 6367SOL    HW130563   0.717   2.770   4.394 -0.3259 -0.1952  0.2374
 6367SOL    HW230564   0.787   2.768   4.519 -0.5749  0.7134 -1.0186
 6368SOL     OW30565   2.230   2.479  12.636 -0.1662  0.1588  0.3723
 6368SOL    HW130566   2.242   2.384  12.640 -2.3516 -0.1698 -0.8186
 6368SOL    HW230567   2.138   2.477  12.659 -0.2613  0.3403  0.0077
 6369SOL     OW30568   1.674   4.594   8.792 -0.2238 -0.4830  0.1766
 6369SOL    HW130569   1.639   4.586   8.880  2.7539 -1.8891  1.2350
 6369SOL    HW230570   1.752   4.649   8.803 -1.8993  2.0590 -0.5301
 6370SOL     OW30571   2.008   4.551   7.705 -0.3803  0.3766 -0.8897
 6370SOL    HW130572   1.986   4.521   7.793 -0.7117 -1.0981 -1.4686
 6370SOL    HW230573   2.037   4.464   7.678  1.6224  0.9350 -0.4808
 6371SOL     OW30574   3.462   1.005   6.988 -0.2293 -0.4941 -0.0218
 6371SOL    HW130575   3.368   1.012   7.005 -0.1224  0.0895  0.3285
 6371SOL    HW230576   3.495   1.067   7.053 -3.4110  2.4359 -1.1855
 6372SOL     OW30577   0.148   2.498   7.294 -0.1963 -0.3111 -0.7747
 6372SOL    HW130578   0.175   2.407   7.311  0.7530 -0.2131 -1.7375
 6372SOL    HW230579   0.080   2.505   7.361 -1.3178 -1.0947 -1.8323
 6373SOL     OW30580   0.228   2.533   2.148 -0.1565  0.3046  0.6320
 6373SOL    HW130581   0.292   2.587   2.102 -0.3571 -0.5201 -0.6120
 6373SOL    HW230582   0.231   2.564   2.239  0.4252  0.4817  0.5541
 6374SOL     OW30583   0.266   4.609   6.983 -0.2257  0.6529 -0.6850
 6374SOL    HW130584   0.190   4.593   6.928  2.3927 -0.5848 -3.9097
 6374SOL    HW230585   0.316   4.528   6.972  0.4505  0.7677  1.4625
 6375SOL     OW30586   1.936   0.709  10.132  0.2230 -0.6725 -0.1343
 6375SOL    HW130587   1.932   0.777  10.064  1.9667 -0.1966  0.2317
 6375SOL    HW230588   1.882   0.651  10.079  0.7447 -0.0008 -1.4052
 6376SOL     OW30589   2.346   1.233   2.850  0.1107 -0.0665  0.9241
 6376SOL    HW130590   2.419   1.264   2.904  0.7457 -0.4483  0.2728
 6376SOL    HW230591   2.396   1.210   2.772 -1.3875 -0.1709 -0.0085
 6377SOL     OW30592   1.490   0.184   3.332  0.0116  0.0574 -0.3070
 6377SOL    HW130593   1.531   0.097   3.337  2.6096  1.2877 -0.7448
 6377SOL    HW230594   1.450   0.184   3.419 -0.7245 -1.5214 -0.6469
 6378SOL     OW30595   1.356   2.172   8.309  0.0771  0.1733 -0.6842
 6378SOL    HW130596   1.376   2.202   8.398 -0.4558  1.6951 -1.0786
 6378SOL    HW230597   1.293   2.108   8.344 -0.4537  0.8330 -0.4218
 6379SOL     OW30598   1.400   2.872   2.677 -0.0815  0.2571  0.5653
 6379SOL    HW130599   1.364   2.893   2.763 -0.4341 -2.4767  1.0869
 6379SOL    HW230600   1.372   2.780   2.687 -0.0046  0.3042  1.2187
 6380SOL     OW30601   0.600   0.487  14.034  0.3212  0.4333 -0.1061
 6380SOL    HW130602   0.554   0.570  14.046 -1.5452 -0.4465 -1.1419
 6380SOL    HW230603   0.528   0.423  14.044  1.1512 -0.2028  1.7440
 6381SOL     OW30604   2.770   4.701   5.086 -0.1843  0.3277 -0.3847
 6381SOL    HW130605   2.705   0.012   5.146  1.8074  0.5650  1.6271
 6381SOL    HW230606   2.828   4.642   5.135  0.0912  0.6865 -0.2811
 6382SOL     OW30607   4.019   3.374  17.649  0.5146  0.0520 -0.1379
 6382SOL    HW130608   3.976   3.319   0.006  0.9969  2.3131  2.1238
 6382SOL    HW230609   4.105   3.380  17.692  0.5479 -1.0408 -0.0474
 6383SOL     OW30610   0.817   3.781   8.945 -0.3123  0.0317 -0.2843
 6383SOL    HW130611   0.890   3.730   8.909  0.6774  1.1905  0.0947
 6383SOL    HW230612   0.884   3.838   8.984  0.7199 -1.1590 -0.2995
 6384SOL     OW30613   3.833   2.914  16.512  0.1064  0.1469 -0.2694
 6384SOL    HW130614   3.860   2.868  16.433  1.3633  1.1750 -0.4333
 6384SOL    HW230615   3.740   2.933  16.494  0.7896  3.4031 -0.3826
 6385SOL     OW30616   4.198   3.930   2.663  0.1005  0.1222  0.0387
 6385SOL    HW130617   4.248   3.914   2.583  0.4203  0.3153  0.1989
 6385SOL    HW230618   4.148   4.008   2.639  1.2072  0.6835 -0.4328
 6386SOL     OW30619   3.732   1.966   2.509 -0.1243 -0.1667  0.8224
 6386SOL    HW130620   3.825   1.946   2.501  0.2274  2.4527 -1.7333
 6386SOL    HW230621   3.714   2.038   2.449 -2.2547 -2.2002 -0.9917
 6387SOL     OW30622   1.876   0.394   3.196 -0.6625  0.2527 -0.4552
 6387SOL    HW130623   1.940   0.426   3.132 -0.6922 -1.9384 -1.5583
 6387SOL    HW230624   1.924   0.423   3.273 -2.1597  2.1970 -0.2479
 6388SOL     OW30625   2.587   0.911   2.935 -0.5194  0.2437 -0.0674
 6388SOL    HW130626   2.578   0.830   2.985  0.7339 -0.1921 -0.5573
 6388SOL    HW230627   2.606   0.883   2.846  3.0638 -0.4575  0.9265
 6389SOL     OW30628   2.947   2.757   3.155 -0.3053  0.6469 -0.9192
 6389SOL    HW130629   2.863   2.794   3.181  0.1852  2.1984 -1.5522
 6389SOL    HW230630   3.004   2.834   3.157  1.6834 -0.8185 -0.9064
 6390SOL     OW30631   2.187   4.641   5.981 -0.4118 -0.4291 -0.1082
 6390SOL    HW130632   2.102   4.617   5.945  0.4680 -2.4340 -0.8405
 6390SOL    HW230633   2.166   4.658   6.073  1.2193 -1.5785  0.4673
 6391SOL     OW30634   1.313   0.781   4.954  0.1030 -0.1559 -0.2507
 6391SOL    HW130635   1.273   0.863   4.923 -1.6274 -1.3379 -1.1497
 6391SOL    HW230636   1.333   0.740   4.870 -0.7064 -0.7365 -0.1688
 6392SOL     OW30637   0.451   4.428  17.465 -0.1420  0.3101 -0.8139
 6392SOL    HW130638   0.516   4.415  17.534  2.4896  1.2051 -3.1362
 6392SOL    HW230639   0.500   4.477  17.400  1.3882  0.6749  0.5927
 6393SOL     OW30640   2.304   4.557   7.751  0.0480 -0.1102 -0.5729
 6393SOL    HW130641   2.220   4.517   7.730 -0.9190  1.3274  0.5012
 6393SOL    HW230642   2.323   4.527   7.840  0.4297 -0.2376 -0.6974
 6394SOL     OW30643   1.032   1.652  10.122 -0.4421  0.1393  0.4060
 6394SOL    HW130644   1.074   1.668  10.037 -1.0695 -0.0756  0.0560
 6394SOL    HW230645   0.988   1.570  10.099 -0.8230  0.2311  0.8024
 6395SOL     OW30646   2.461   2.315   4.341  0.2439 -0.2005 -0.1968
 6395SOL    HW130647   2.467   2.250   4.411  0.0869  0.2260  0.2071
 6395SOL    HW230648   2.553   2.340   4.349  0.5852 -1.9249  1.2678
 6396SOL     OW30649   3.368   0.866   4.060 -0.1538  0.4810  0.3996
 6396SOL    HW130650   3.385   0.882   4.152 -2.9994  0.8887  0.8572
 6396SOL    HW230651   3.273   0.857   4.050  0.3163 -1.6411 -2.2532
 6397SOL     OW30652   1.673   1.771   4.290  0.1757  0.2841 -0.1269
 6397SOL    HW130653   1.634   1.858   4.299  1.3117  0.6726  1.0261
 6397SOL    HW230654   1.751   1.783   4.345  0.7462  0.6726 -1.0266
 6398SOL     OW30655   1.649   1.944  15.231  0.2818  0.3391 -0.1084
 6398SOL    HW130656   1.562   1.941  15.191  0.4994  0.1548 -0.5744
 6398SOL    HW230657   1.701   1.953  15.151 -0.2214  2.0766 -0.2495
 6399SOL     OW30658   3.006   2.651   7.055 -0.2403  0.0368  0.1693
 6399SOL    HW130659   3.036   2.720   6.996 -1.9098  0.5950 -0.0438
 6399SOL    HW230660   3.035   2.685   7.140 -1.0805  1.4233 -0.0949
 6400SOL     OW30661   3.150   2.892   5.559 -0.5513  0.2802  0.1195
 6400SOL    HW130662   3.162   2.976   5.603 -0.0412 -0.1124  0.7301
 6400SOL    HW230663   3.225   2.844   5.595  0.1982  0.4656 -1.1993
 6401SOL     OW30664   3.664   2.196   9.274 -0.3396 -0.3056  0.0378
 6401SOL    HW130665   3.592   2.228   9.219 -0.3922 -0.2818  0.1202
 6401SOL    HW230666   3.628   2.200   9.363  3.1380 -3.2483  1.5920
 6402SOL     OW30667   1.773   4.212  15.623 -0.0843 -0.1582 -0.0392
 6402SOL    HW130668   1.724   4.167  15.691 -0.1333 -0.7996 -0.5065
 6402SOL    HW230669   1.708   4.282  15.620 -2.1578 -1.9891  2.5205
 6403SOL     OW30670   4.626   2.468   2.192  0.5340 -0.2739  0.1896
 6403SOL    HW130671   4.719   2.491   2.198  0.7299 -1.3048  0.9939
 6403SOL    HW230672   4.620   2.373   2.181  0.0039 -0.3184  0.8704
 6404SOL     OW30673   1.441   0.717   3.210  0.1407 -0.9781  0.5979
 6404SOL    HW130674   1.512   0.716   3.146  0.8301 -0.3700  1.3392
 6404SOL    HW230675   1.375   0.772   3.169  0.0659 -1.8683 -0.4751
 6405SOL     OW30676   3.792   1.601  11.828 -0.0499  0.0061  0.2137
 6405SOL    HW130677   3.866   1.549  11.796 -1.1146 -0.8196 -0.9600
 6405SOL    HW230678   3.736   1.530  11.862 -0.3783  0.7800  1.2752
 6406SOL     OW30679   4.497   4.446   5.905 -0.2166 -0.0431 -0.0347
 6406SOL    HW130680   4.493   4.523   5.848  1.7354  0.3148  0.3132
 6406SOL    HW230681   4.446   4.483   5.977 -1.3426 -1.0167 -0.3314
 6407SOL     OW30682   0.411   0.983  10.874  0.0305  0.0605  0.2294
 6407SOL    HW130683   0.335   0.962  10.928  0.8225 -3.6397 -0.1064
 6407SOL    HW230684   0.461   1.041  10.932  1.0948  1.4537 -2.0851
 6408SOL     OW30685   1.773   4.637   7.882 -0.1068  0.4750 -0.6279
 6408SOL    HW130686   1.680   4.619   7.872  0.2243 -1.0631 -0.8648
 6408SOL    HW230687   1.809   4.551   7.906  1.3732  1.2527 -0.0307
 6409SOL     OW30688   3.452   3.176   5.926 -0.1579 -0.9469 -0.6536
 6409SOL    HW130689   3.545   3.190   5.909 -0.0527 -1.4981 -0.5095
 6409SOL    HW230690   3.456   3.100   5.983 -0.3189  0.4245  1.1958
 6410SOL     OW30691   1.216   1.256   0.351  0.4339  0.7674  0.0641
 6410SOL    HW130692   1.238   1.250   0.444  1.3720  0.4717 -0.1722
 6410SOL    HW230693   1.166   1.337   0.345 -1.3576 -0.4360 -1.3526
 6411SOL     OW30694   0.384   3.897   5.846 -0.2394  0.4192 -0.5510
 6411SOL    HW130695   0.437   3.830   5.804 -0.1525 -0.4027  0.8776
 6411SOL    HW230696   0.298   3.891   5.805 -0.8486 -0.5671  0.8560
 6412SOL     OW30697   4.525   4.562   4.413 -0.6259  0.8648  0.8347
 6412SOL    HW130698   4.531   4.558   4.509  2.8107 -0.5770  0.5707
 6412SOL    HW230699   4.590   4.507   4.369 -0.7772  1.1465  0.2648
 6413SOL     OW30700   2.239   4.429   2.429  0.6493  0.3512  0.5720
 6413SOL    HW130701   2.282   4.514   2.420  2.1802 -0.4945 -0.0586
 6413SOL    HW230702   2.160   4.436   2.375  0.7609  2.3877  0.6694
 6414SOL     OW30703   2.176   0.749   2.655  0.4808  0.6065 -0.3256
 6414SOL    HW130704   2.268   0.769   2.668  0.6767  0.2862 -1.2310
 6414SOL    HW230705   2.168   0.656   2.676 -0.1428  1.2096  2.1232
 6415SOL     OW30706   1.047   3.687   9.665 -0.1221 -0.2522  0.0432
 6415SOL    HW130707   1.130   3.643   9.685  1.2578  1.0605 -2.6329
 6415SOL    HW230708   1.011   3.711   9.750  0.4722  0.5674  0.0673
 6416SOL     OW30709   0.825   4.529   8.871  0.3216  0.2957 -0.1357
 6416SOL    HW130710   0.811   4.562   8.959 -2.4729 -0.6403 -0.2354
 6416SOL    HW230711   0.887   4.458   8.891 -1.6082 -0.5632  2.6851
 6417SOL     OW30712   3.186   3.144   8.318  0.5924 -0.0264  0.3634
 6417SOL    HW130713   3.220   3.197   8.246  0.5650  1.9549  1.8403
 6417SOL    HW230714   3.167   3.207   8.387 -0.5157  0.5081 -0.4338
 6418SOL     OW30715   3.652   3.687   7.180 -0.0933  0.6196 -0.3095
 6418SOL    HW130716   3.678   3.779   7.174 -0.5270  0.8016  0.6513
 6418SOL    HW230717   3.715   3.636   7.129 -1.2930  0.5521 -1.7279
 6419SOL     OW30718   0.863   3.340   7.169  0.3261 -0.4198 -0.5301
 6419SOL    HW130719   0.819   3.267   7.214 -0.3459 -0.3949 -1.1519
 6419SOL    HW230720   0.833   3.319   7.081 -0.8648 -0.1499 -0.1882
 6420SOL     OW30721   0.612   0.967  16.663  0.6473  0.0803 -0.0130
 6420SOL    HW130722   0.596   0.881  16.702 -2.2338  0.0420 -1.3347
 6420SOL    HW230723   0.698   0.961  16.621  0.4316 -2.1592 -0.1613
 6421SOL     OW30724   1.140   0.061   2.600  0.4364  0.3803 -0.1654
 6421SOL    HW130725   1.048   0.038   2.612  0.2424  0.8289 -0.7852
 6421SOL    HW230726   1.154   0.095   2.689 -0.6043 -0.3537  0.2809
 6422SOL     OW30727   3.597   4.384   0.973  0.0297  0.3024  0.3765
 6422SOL    HW130728   3.674   4.329   0.965 -0.9921 -0.8345 -1.6995
 6422SOL    HW230729   3.610   4.436   1.053  1.5974  0.1403  0.2325
 6423SOL     OW30730   2.709   1.685   4.592  0.2400 -0.6005  0.1331
 6423SOL    HW130731   2.620   1.649   4.584  0.6827 -1.2008 -2.0761
 6423SOL    HW230732   2.695   1.760   4.648 -2.3008 -0.8623 -0.1390
 6424SOL     OW30733   1.688   2.127  13.081  0.3456 -0.0445  0.0803
 6424SOL    HW130734   1.661   2.169  13.163  1.0803  1.4189 -0.4355
 6424SOL    HW230735   1.714   2.200  13.026  0.7686  0.0380  0.3937
 6425SOL     OW30736   0.696   4.291   5.332  0.4546  0.2052  0.3819
 6425SOL    HW130737   0.667   4.297   5.423 -0.9218  1.8172 -0.1625
 6425SOL    HW230738   0.740   4.373   5.312 -0.6734  0.6105 -0.4667
 6426SOL     OW30739   3.013   0.627  12.537  0.0418  0.0200 -0.2252
 6426SOL    HW130740   3.082   0.692  12.521 -0.1758  0.3619  0.2169
 6426SOL    HW230741   3.059   0.568  12.596 -2.2793  0.6653  2.2077
 6427SOL     OW30742   1.837   2.520   7.041 -0.3367  0.5516  0.1204
 6427SOL    HW130743   1.741   2.524   7.040 -0.2340  2.9334  0.9652
 6427SOL    HW230744   1.847   2.442   7.096 -0.9452  0.2045 -0.2582
 6428SOL     OW30745   4.709   3.775   2.288 -0.3811  0.5020 -0.4814
 6428SOL    HW130746   4.673   3.812   2.208  1.4024  1.3963 -0.8823
 6428SOL    HW230747   0.069   3.745   2.260  0.5444  0.7666  2.0784
 6429SOL     OW30748   3.659   2.262   6.545  0.2176  0.2847  0.4644
 6429SOL    HW130749   3.741   2.309   6.535 -1.5261  2.9225 -1.5308
 6429SOL    HW230750   3.680   2.176   6.507  2.4259  0.6090  0.9829
 6430SOL     OW30751   2.626   2.639   8.651 -0.7768  0.8643  0.0525
 6430SOL    HW130752   2.636   2.545   8.667  1.1602  1.2183  0.9338
 6430SOL    HW230753   2.648   2.678   8.736  0.3939  0.3558 -0.0281
 6431SOL     OW30754   3.907   4.063  15.540 -0.4940 -0.1483  0.6013
 6431SOL    HW130755   3.989   4.105  15.566 -1.9422  1.6367  2.2277
 6431SOL    HW230756   3.931   3.973  15.515  1.0305  0.1601  0.9372
 6432SOL     OW30757   0.474   0.803   2.920 -0.1863 -0.4790  0.4326
 6432SOL    HW130758   0.419   0.865   2.872  0.8608 -0.1669 -0.3573
 6432SOL    HW230759   0.427   0.803   3.003 -1.5702 -0.1924 -0.3538
 6433SOL     OW30760   1.138   0.535  11.222 -0.3693 -0.1604 -0.1957
 6433SOL    HW130761   1.182   0.506  11.143 -1.3762  0.8990 -1.1390
 6433SOL    HW230762   1.064   0.587  11.191  0.4001  1.0122 -0.0669
 6434SOL     OW30763   4.210   1.764   4.881 -0.1372  0.5535 -0.4281
 6434SOL    HW130764   4.254   1.807   4.954 -1.5577  0.2663  0.5920
 6434SOL    HW230765   4.277   1.697   4.867  0.4299  0.7985  1.1421
 6435SOL     OW30766   2.276   4.033   8.353  0.5043  0.6151 -0.2948
 6435SOL    HW130767   2.299   4.014   8.444 -0.4820 -1.9186 -0.5811
 6435SOL    HW230768   2.186   4.065   8.355 -0.3093 -1.6159 -1.4911
 6436SOL     OW30769   0.528   2.957  10.670  0.1807  0.2286  0.4851
 6436SOL    HW130770   0.472   2.904  10.728 -1.3217  0.6431 -0.5785
 6436SOL    HW230771   0.492   2.933  10.585 -1.6496 -0.4566  1.4336
 6437SOL     OW30772   2.073   4.617   7.437  0.4538  0.3446 -0.3641
 6437SOL    HW130773   2.014   4.553   7.396  0.6354  0.3946 -0.7011
 6437SOL    HW230774   2.043   4.620   7.527 -1.1331  2.2334 -0.9710
 6438SOL     OW30775   1.783   2.099  12.220  0.0211 -0.8801 -0.4583
 6438SOL    HW130776   1.810   2.027  12.162  0.5222  0.7418 -2.2557
 6438SOL    HW230777   1.754   2.052  12.298  0.3025  0.4937  0.4683
 6439SOL     OW30778   3.071   2.567   0.161  0.1624  0.5374 -0.3171
 6439SOL    HW130779   3.000   2.580   0.224  2.2753  0.2258  2.1218
 6439SOL    HW230780   3.131   2.638   0.182  1.5036 -0.5213 -0.5914
 6440SOL     OW30781   2.087   0.452   7.997  0.0491 -0.8102  0.3053
 6440SOL    HW130782   2.092   0.532   8.050 -0.5380 -0.8882  0.4845
 6440SOL    HW230783   2.173   0.416   8.015 -0.2851 -1.6842  0.1378
 6441SOL     OW30784   0.470   4.366  13.445 -0.5415  0.1321 -0.7162
 6441SOL    HW130785   0.481   4.338  13.354  0.6065  0.1207 -0.5797
 6441SOL    HW230786   0.491   4.459  13.433 -1.5990  0.3110 -1.1523
 6442SOL     OW30787   2.501   1.953   2.882  0.1249  0.1542  0.3255
 6442SOL    HW130788   2.514   2.024   2.944  1.6146  1.1287 -1.1314
 6442SOL    HW230789   2.588   1.946   2.843  0.1264 -1.5379  0.6212
 6443SOL     OW30790   2.357   3.700  16.905  0.7298 -0.1161 -0.1873
 6443SOL    HW130791   2.357   3.621  16.851 -0.5463 -0.2666  0.0333
 6443SOL    HW230792   2.450   3.720  16.903  0.6438  0.3118  0.0880
 6444SOL     OW30793   2.517   1.582  11.383 -0.4203  0.4954  0.0097
 6444SOL    HW130794   2.570   1.643  11.332 -1.0926  2.7791  2.0068
 6444SOL    HW230795   2.578   1.508  11.377 -0.3008  0.6906 -1.1545
 6445SOL     OW30796   0.234   0.042   1.221  0.0515 -0.5761  0.2466
 6445SOL    HW130797   0.249   0.115   1.280  3.3094 -0.3396 -0.8446
 6445SOL    HW230798   0.177   4.717   1.278 -0.2625  0.6157  1.0014
 6446SOL     OW30799   4.601   3.795   8.996 -0.3236  0.5728 -0.5285
 6446SOL    HW130800   4.635   3.708   9.018  0.1630  0.8519 -0.2018
 6446SOL    HW230801   4.614   3.842   9.078 -0.5753  0.2424 -0.2965
 6447SOL     OW30802   0.268   2.799   8.728  0.1750 -0.2798  0.7479
 6447SOL    HW130803   0.327   2.841   8.790  2.4745 -0.5915 -1.2653
 6447SOL    HW230804   0.245   2.718   8.772  0.1307  0.1739  1.5546
 6448SOL     OW30805   1.573   4.576   1.784  0.2732 -0.3632 -0.0189
 6448SOL    HW130806   1.503   4.591   1.721  1.5253  0.7738 -1.1587
 6448SOL    HW230807   1.648   4.592   1.726 -0.0491  0.5061 -0.1920
 6449SOL     OW30808   1.186   2.700   5.420  0.1485 -0.9148  0.5902
 6449SOL    HW130809   1.112   2.642   5.440 -1.8044  2.0428  1.8657
 6449SOL    HW230810   1.244   2.664   5.486  0.5967  1.2708  1.3639
 6450SOL     OW30811   0.971   1.402   3.454  0.1450 -0.1317 -0.7509
 6450SOL    HW130812   0.949   1.309   3.458 -0.7403  0.0864 -0.4367
 6450SOL    HW230813   0.949   1.427   3.364  1.7732  2.0817 -0.5192
 6451SOL     OW30814   1.606   3.623   5.132 -0.7621  0.3257  0.0754
 6451SOL    HW130815   1.548   3.663   5.068 -0.1698  0.6587 -0.2434
 6451SOL    HW230816   1.547   3.568   5.184  0.6593 -1.7606 -0.5191
 6452SOL     OW30817   0.178   4.425  17.434 -0.2548 -0.5073  0.3768
 6452SOL    HW130818   0.259   4.414  17.482 -0.2796 -1.3666  0.2146
 6452SOL    HW230819   0.147   4.338  17.409 -1.5670  0.3280 -0.9565
 6453SOL     OW30820   2.579   1.061  10.588 -0.2286  0.1535  0.6113
 6453SOL    HW130821   2.556   0.990  10.528 -3.8342  3.5233 -1.9341
 6453SOL    HW230822   2.500   1.114  10.580 -0.7580 -1.1337 -2.7285
 6454SOL     OW30823   1.603   3.259   5.919  0.1847  0.1610  0.1067
 6454SOL    HW130824   1.667   3.306   5.865 -0.7854  0.2010 -1.0025
 6454SOL    HW230825   1.571   3.189   5.863 -1.1042 -0.4548  1.6247
 6455SOL     OW30826   4.289   0.974   1.299  0.0664 -0.0737 -0.1259
 6455SOL    HW130827   4.269   1.023   1.219 -2.7989  0.1776  0.7524
 6455SOL    HW230828   4.201   0.972   1.336  0.2451  0.7005  0.3439
 6456SOL     OW30829   3.782   4.024   1.980 -0.1153 -0.5623 -0.7508
 6456SOL    HW130830   3.809   3.937   2.007 -1.4695 -0.4989  0.8197
 6456SOL    HW230831   3.733   4.014   1.898  0.6832  1.0072 -1.4280
 6457SOL     OW30832   1.332   1.625  17.510 -0.0453  0.3249  0.4059
 6457SOL    HW130833   1.325   1.703  17.456  2.1594  0.0314 -0.2945
 6457SOL    HW230834   1.293   1.653  17.593 -0.7774 -1.7260  0.7554
 6458SOL     OW30835   3.371   2.206  17.335 -0.4144  0.4200 -0.0476
 6458SOL    HW130836   3.412   2.142  17.392 -0.4626  1.1423  0.7951
 6458SOL    HW230837   3.300   2.215  17.398 -1.1366 -0.6821 -0.6946
 6459SOL     OW30838   3.239   1.743  16.784 -0.3435  0.2709 -0.4300
 6459SOL    HW130839   3.233   1.747  16.880  0.4052  0.2442 -0.3754
 6459SOL    HW230840   3.164   1.688  16.762  0.2501 -0.0011 -1.7342
 6460SOL     OW30841   2.543   3.451   8.940 -0.3232 -0.4211  0.0340
 6460SOL    HW130842   2.530   3.492   8.855  0.0143 -0.9411 -0.2675
 6460SOL    HW230843   2.630   3.470   8.974 -0.2874  0.1152 -0.3629
 6461SOL     OW30844   1.342   0.586   8.214 -0.3366 -0.6184 -0.2181
 6461SOL    HW130845   1.419   0.556   8.166  0.2036  2.0928 -1.0448
 6461SOL    HW230846   1.340   0.534   8.294 -2.7342  0.8795  0.6866
 6462SOL     OW30847   0.221   1.714   6.098 -0.1222  0.6004  0.5617
 6462SOL    HW130848   0.281   1.639   6.102 -2.8880 -1.5200  1.8026
 6462SOL    HW230849   0.274   1.785   6.061  0.6611 -0.9024 -1.2573
 6463SOL     OW30850   1.447   2.829   4.599  0.8325  0.0754  0.2901
 6463SOL    HW130851   1.523   2.796   4.551 -0.7621 -2.5242 -0.4558
 6463SOL    HW230852   1.464   2.923   4.604  0.9804  0.0553  0.1649
 6464SOL     OW30853   2.111   4.448  13.797  0.1160 -0.2421  0.5238
 6464SOL    HW130854   2.149   4.449  13.884  2.1735 -0.9333 -0.3715
 6464SOL    HW230855   2.039   4.384  13.794  0.4452 -0.4838 -2.5001
 6465SOL     OW30856   0.246   1.345   5.230  0.2512 -0.3656  0.2449
 6465SOL    HW130857   0.293   1.402   5.291 -0.2529 -2.1550  2.3268
 6465SOL    HW230858   0.231   1.403   5.155 -0.5502  0.3612  0.9777
 6466SOL     OW30859   3.491   2.791   1.874  0.7747 -0.0866 -0.2646
 6466SOL    HW130860   3.503   2.783   1.968 -0.3788 -0.7507 -0.1792
 6466SOL    HW230861   3.513   2.882   1.858 -2.5804  0.3909 -2.1303
 6467SOL     OW30862   2.844   4.476  15.968 -0.1243 -0.1759 -0.0964
 6467SOL    HW130863   2.765   4.461  15.915  0.5332 -0.9913 -0.8547
 6467SOL    HW230864   2.808   4.533  16.036  2.1473  0.8401  0.2254
 6468SOL     OW30865   2.020   3.930   5.460  0.0543  0.0452 -0.2872
 6468SOL    HW130866   2.057   3.847   5.488 -0.0820 -0.1649 -0.7302
 6468SOL    HW230867   2.053   3.945   5.371  1.5985  2.7717  0.7590
 6469SOL     OW30868   4.027   1.579  15.637 -0.3589  0.0711 -0.0030
 6469SOL    HW130869   3.957   1.554  15.576 -1.0479  0.5708  0.5964
 6469SOL    HW230870   4.084   1.503  15.627 -1.3819 -0.6663 -0.2167
 6470SOL     OW30871   0.154   4.223   7.927 -0.9113 -0.5692 -0.4053
 6470SOL    HW130872   0.162   4.156   7.996  1.8017  0.5579  0.3637
 6470SOL    HW230873   0.100   4.180   7.861 -3.4463  0.3327  1.0522
 6471SOL     OW30874   3.056   3.366   5.805 -0.5763  0.0268  0.0864
 6471SOL    HW130875   3.042   3.329   5.717  1.6256 -0.3455 -0.1213
 6471SOL    HW230876   2.967   3.354   5.838  0.4629 -2.6751  1.9073
 6472SOL     OW30877   1.711   1.647   0.790 -0.0808 -0.7462  0.0926
 6472SOL    HW130878   1.783   1.585   0.779 -0.6247 -1.2875 -0.4561
 6472SOL    HW230879   1.632   1.599   0.765 -0.0569  0.1069 -1.6587
 6473SOL     OW30880   1.795   3.937   2.369  0.3597 -0.0795 -0.4499
 6473SOL    HW130881   1.872   3.944   2.313  0.1593 -1.0494 -0.8488
 6473SOL    HW230882   1.739   4.005   2.331  1.1101 -0.2769 -1.9013
 6474SOL     OW30883   3.217   1.668   6.467 -0.2539 -0.0293  0.0668
 6474SOL    HW130884   3.219   1.728   6.392 -0.2634 -0.1518 -0.0306
 6474SOL    HW230885   3.145   1.705   6.518  0.0339 -0.1446  0.5552
 6475SOL     OW30886   1.110   1.118  17.308  0.2039  1.2049  0.2875
 6475SOL    HW130887   1.074   1.207  17.311 -0.5989  0.8869  0.0778
 6475SOL    HW230888   1.067   1.076  17.382  1.5297  1.6060  1.2793
 6476SOL     OW30889   3.267   1.855   2.458  0.2578 -1.2464  0.4615
 6476SOL    HW130890   3.307   1.768   2.448 -1.4585 -2.3408  3.4315
 6476SOL    HW230891   3.190   1.845   2.403 -0.0969  3.6116  0.0837
 6477SOL     OW30892   3.639   0.560   3.227  0.1288  0.2068 -0.4897
 6477SOL    HW130893   3.655   0.642   3.181 -0.7699  1.7891  1.9802
 6477SOL    HW230894   3.728   0.529   3.240 -0.5666 -2.0823 -1.0697
 6478SOL     OW30895   4.712   1.684   6.297  0.8793 -0.1333 -1.1349
 6478SOL    HW130896   0.009   1.771   6.266  0.3908 -0.0993 -1.4168
 6478SOL    HW230897   0.026   1.682   6.383  0.6968 -0.5515 -1.0570
 6479SOL     OW30898   0.328   0.836   8.174 -0.2779  0.1684  0.6886
 6479SOL    HW130899   0.287   0.750   8.182 -0.2832 -0.0688 -1.7445
 6479SOL    HW230900   0.291   0.858   8.089 -1.0059  2.9018  1.7074
 6480SOL     OW30901   0.013   3.812  17.544  0.5252 -0.7826 -0.2163
 6480SOL    HW130902   4.690   3.894  17.540  3.6512  0.9940 -2.8161
 6480SOL    HW230903   0.101   3.847  17.531 -0.4655  1.5993 -0.4453
 6481SOL     OW30904   0.004   2.232   5.889  0.5837  0.1978 -0.3205
 6481SOL    HW130905   4.642   2.266   5.884  0.3690 -0.4348 -0.9510
 6481SOL    HW230906   0.063   2.298   5.853  0.2887 -0.5647 -2.2130
 6482SOL     OW30907   4.695   1.278   3.739 -0.0699 -0.2971  0.1521
 6482SOL    HW130908   4.649   1.236   3.811 -0.4133 -0.8451 -0.3866
 6482SOL    HW230909   0.049   1.226   3.738  1.0441  1.4629 -2.0801
 6483SOL     OW30910   1.222   0.035   4.829 -0.1174 -0.5022  0.3052
 6483SOL    HW130911   1.303   0.002   4.869 -0.1934 -1.3476 -0.2219
 6483SOL    HW230912   1.226   4.708   4.749  1.5354  0.7123 -0.4180
 6484SOL     OW30913   4.075   3.730   7.906 -0.3926 -0.5720 -0.9921
 6484SOL    HW130914   4.065   3.791   7.833  0.8128  0.5542 -0.2121
 6484SOL    HW230915   4.145   3.769   7.958 -1.5883  0.3767 -0.1026
 6485SOL     OW30916   3.801   1.668   8.227  0.0803 -0.4860  0.1256
 6485SOL    HW130917   3.757   1.708   8.301 -0.3396  1.4494 -1.1731
 6485SOL    HW230918   3.741   1.595   8.209 -2.1032  1.5392 -0.8757
 6486SOL     OW30919   1.807   1.266   4.528 -0.1439 -0.1425 -0.2361
 6486SOL    HW130920   1.808   1.340   4.590 -1.8004  0.4722 -0.9398
 6486SOL    HW230921   1.730   1.275   4.472 -0.0183 -3.5122 -0.9177
 6487SOL     OW30922   2.022   1.875   2.113  0.4409  0.5431 -0.0779
 6487SOL    HW130923   2.056   1.942   2.053 -1.8360  1.5438 -0.2763
 6487SOL    HW230924   2.054   1.797   2.068 -0.2211 -0.8227  1.8428
 6488SOL     OW30925   4.498   0.525   2.085  0.3943  0.0629 -0.2393
 6488SOL    HW130926   4.507   0.559   1.996  1.7947 -1.5704 -0.7250
 6488SOL    HW230927   4.414   0.480   2.096  0.6824 -0.3165  0.4254
 6489SOL     OW30928   4.138   2.148   1.226 -0.4773 -0.1066 -0.7756
 6489SOL    HW130929   4.183   2.107   1.300  1.0199  3.6194  0.3944
 6489SOL    HW230930   4.117   2.228   1.275  0.0727 -0.6051  0.2805
 6490SOL     OW30931   4.700   2.054   7.374 -0.0377  0.2709 -1.0923
 6490SOL    HW130932   4.625   2.060   7.434  0.0022  1.7807 -1.1758
 6490SOL    HW230933   0.036   2.018   7.436 -1.1857 -0.3619 -0.3014
 6491SOL     OW30934   0.442   4.692   3.088 -0.0988  0.3654  0.1761
 6491SOL    HW130935   0.491   4.707   3.169 -1.5544  0.9014  0.9509
 6491SOL    HW230936   0.378   0.035   3.092  0.2772  0.6855  0.6493
 6492SOL     OW30937   1.058   0.260   7.049  0.4422  0.2928 -0.9581
 6492SOL    HW130938   1.135   0.318   7.046  0.2726  0.4868 -1.6068
 6492SOL    HW230939   1.043   0.253   7.143 -1.4934 -0.9512 -1.3716
 6493SOL     OW30940   2.039   4.007   2.708  0.0941 -0.1996 -0.0322
 6493SOL    HW130941   2.124   4.004   2.752 -0.7534  0.0333  1.5895
 6493SOL    HW230942   2.066   4.070   2.641 -1.8308 -0.7748 -1.3513
 6494SOL     OW30943   2.919   2.540  16.633 -0.1020 -0.6354  0.3205
 6494SOL    HW130944   2.921   2.461  16.687 -4.3119 -1.2090 -0.3289
 6494SOL    HW230945   2.896   2.611  16.693 -4.1179 -0.6020 -1.2250
 6495SOL     OW30946   4.700   1.879  15.717 -0.0310 -0.0970 -0.6527
 6495SOL    HW130947   4.697   1.959  15.768 -1.7102 -0.1234 -0.7259
 6495SOL    HW230948   0.068   1.864  15.714 -0.0175 -0.0719 -0.3413
 6496SOL     OW30949   4.400   4.713   4.716 -0.0858  0.8884 -0.1862
 6496SOL    HW130950   4.469   0.030   4.766 -0.2422  0.6280  0.2494
 6496SOL    HW230951   4.340   4.673   4.779 -0.7146  2.9282  0.5005
 6497SOL     OW30952   1.774   4.448   3.408  0.6964 -0.4354  0.2397
 6497SOL    HW130953   1.807   4.399   3.483  1.8436  1.1545  0.7803
 6497SOL    HW230954   1.786   4.386   3.335  0.2800  0.5668 -0.6861
 6498SOL     OW30955   2.404   4.604   1.837 -0.2715  0.0189 -0.1941
 6498SOL    HW130956   2.378   4.662   1.909  1.6886  0.7838 -0.0848
 6498SOL    HW230957   2.491   4.570   1.858  0.3653  1.6723 -0.1337
 6499SOL     OW30958   3.849   3.722   8.951 -0.1514 -0.2278  0.4786
 6499SOL    HW130959   3.869   3.729   8.857 -1.4918  2.6942  0.4054
 6499SOL    HW230960   3.838   3.814   8.975  3.9090  0.5166 -0.6220
 6500SOL     OW30961   0.416   1.478   8.850  0.0862 -0.0853  0.0594
 6500SOL    HW130962   0.373   1.427   8.781 -1.4187  0.4630  0.5970
 6500SOL    HW230963   0.430   1.403   8.908  0.4387 -0.0686 -0.0034
 6501SOL     OW30964   2.873   2.002   0.537  0.3399  0.1085 -0.9892
 6501SOL    HW130965   2.953   2.025   0.490  0.3945 -0.4162 -1.1524
 6501SOL    HW230966   2.864   2.086   0.582 -2.2989 -0.8342  0.2914
 6502SOL     OW30967   1.135   0.479  11.874  0.0041 -0.0864 -0.1839
 6502SOL    HW130968   1.054   0.531  11.871  0.0807 -0.0160 -1.0712
 6502SOL    HW230969   1.125   0.420  11.800 -1.5544 -3.2217  2.5180
 6503SOL     OW30970   2.617   1.788  16.919  0.2942  0.0227  0.3387
 6503SOL    HW130971   2.611   1.884  16.913  0.0426  0.0296  0.6889
 6503SOL    HW230972   2.596   1.772  16.827 -0.3399 -1.4866  0.7392
 6504SOL     OW30973   3.160   0.814   7.030  0.0856  0.8830 -0.0620
 6504SOL    HW130974   3.209   0.852   7.103  0.3454 -0.3506  0.4028
 6504SOL    HW230975   3.101   0.889   7.027  0.5320  1.2111 -0.5673
 6505SOL     OW30976   2.122   1.504   4.889 -0.0549 -0.6061  0.2216
 6505SOL    HW130977   2.113   1.599   4.880  1.2021 -0.5824 -0.7688
 6505SOL    HW230978   2.162   1.503   4.976  0.5999 -3.0766 -0.1332
 6506SOL     OW30979   3.962   3.299   9.038 -0.3527 -0.0825  0.1902
 6506SOL    HW130980   3.904   3.322   8.965 -0.4897  2.3798  1.0843
 6506SOL    HW230981   3.932   3.209   9.053 -1.4685  0.3450  0.5106
 6507SOL     OW30982   0.973   2.070   6.263  0.9506 -0.5537 -0.1029
 6507SOL    HW130983   1.067   2.082   6.256  0.8557 -1.2719 -2.5364
 6507SOL    HW230984   0.961   2.061   6.358 -1.7414  2.1347 -0.1917
 6508SOL     OW30985   3.582   1.917  15.536  0.1792  0.1034  0.5267
 6508SOL    HW130986   3.618   1.878  15.457  0.7600  1.1309  0.2888
 6508SOL    HW230987   3.546   1.842  15.584 -2.5813 -0.8465 -3.0590
 6509SOL     OW30988   0.806   0.968   2.736 -0.1427  0.4998 -0.0092
 6509SOL    HW130989   0.804   0.922   2.820  0.3602 -0.8790 -0.7445
 6509SOL    HW230990   0.882   0.925   2.699  0.9619  2.2001  0.2726
 6510SOL     OW30991   2.634   2.998  13.504 -0.0300 -0.1797  0.1444
 6510SOL    HW130992   2.651   2.906  13.485  1.9151 -0.1322  1.6663
 6510SOL    HW230993   2.641   3.004  13.599  0.1544 -0.4610  0.1476
 6511SOL     OW30994   3.839   1.092   6.570  0.2698  0.2030  0.1534
 6511SOL    HW130995   3.897   1.163   6.596  1.7796 -0.5134 -1.2320
 6511SOL    HW230996   3.809   1.058   6.654  1.3651 -0.1122  0.4289
 6512SOL     OW30997   4.342   1.570   9.525 -0.2793 -0.3966 -0.5579
 6512SOL    HW130998   4.287   1.648   9.524  0.9025  0.4175 -3.0306
 6512SOL    HW230999   4.351   1.538   9.614  0.6818 -2.3703 -1.3454
 6513SOL     OW31000   1.429   3.724   9.612 -0.0544 -0.5716 -0.0732
 6513SOL    HW131001   1.437   3.810   9.570  0.0485 -0.5432  0.0073
 6513SOL    HW231002   1.520   3.708   9.634 -0.3281 -1.4025  0.4746
 6514SOL     OW31003   1.764   2.497  16.657  0.4447 -0.1686  0.1443
 6514SOL    HW131004   1.676   2.461  16.643 -0.3233  1.8435 -0.3060
 6514SOL    HW231005   1.741   2.589  16.671 -1.9526 -1.2483  3.1435
 6515SOL     OW31006   1.247   1.287   3.130 -0.2351 -0.4496  0.2705
 6515SOL    HW131007   1.159   1.250   3.122 -0.9507  1.4797 -0.7365
 6515SOL    HW231008   1.235   1.376   3.165  0.4243 -0.5812  0.8252
 6516SOL     OW31009   1.812   1.475   9.018  0.3555  0.0295 -0.3420
 6516SOL    HW131010   1.877   1.437   9.077  0.5011  3.3775  1.6404
 6516SOL    HW231011   1.814   1.567   9.045 -0.1328  0.3321 -1.3261
 6517SOL     OW31012   2.735   1.032  16.522  0.0386  0.1763  0.1221
 6517SOL    HW131013   2.650   1.068  16.498 -0.9546 -0.6659  2.4086
 6517SOL    HW231014   2.732   0.951  16.471 -0.6868 -0.6179  1.4179
 6518SOL     OW31015   1.591   1.703   7.588  0.1057 -0.1564  0.5576
 6518SOL    HW131016   1.682   1.694   7.615 -0.0721 -0.8864  0.9037
 6518SOL    HW231017   1.555   1.757   7.658  0.9487  1.1247  0.0061
 6519SOL     OW31018   0.120   2.871  16.594 -0.4128  0.1583 -0.5992
 6519SOL    HW131019   0.111   2.779  16.620  2.7841  0.0219  0.0295
 6519SOL    HW231020   0.064   2.879  16.517 -0.7165  2.0224 -0.1802
 6520SOL     OW31021   4.247   2.072   5.459  0.4979 -0.1280  0.1622
 6520SOL    HW131022   4.206   2.159   5.460 -1.5235 -1.1262  4.6613
 6520SOL    HW231023   4.219   2.031   5.378  0.0883 -0.3666  0.4256
 6521SOL     OW31024   1.144   3.187   1.486 -0.3338 -0.0061  0.0632
 6521SOL    HW131025   1.099   3.104   1.503  0.4234 -0.4823 -0.2492
 6521SOL    HW231026   1.083   3.218   1.420 -0.8520  1.9755  1.4648
 6522SOL     OW31027   2.177   4.155   9.623 -0.3868 -0.1117  0.0127
 6522SOL    HW131028   2.188   4.144   9.717 -1.1683 -2.6849 -0.1869
 6522SOL    HW231029   2.266   4.159   9.590 -0.7913  0.6389 -0.9909
 6523SOL     OW31030   0.469   0.507   8.378 -0.0816  0.5014 -0.6342
 6523SOL    HW131031   0.494   0.597   8.398 -1.5568  1.0112 -1.0931
 6523SOL    HW231032   0.553   0.466   8.398 -0.8526 -1.1109 -0.6362
 6524SOL     OW31033   0.120   2.216   8.909 -0.4012 -0.5479  0.0914
 6524SOL    HW131034   0.100   2.309   8.907  0.7870 -0.2961  0.1332
 6524SOL    HW231035   0.053   2.192   8.974  1.3957  0.2992  2.2652
 6525SOL     OW31036   2.801   1.138   6.237 -0.1661 -0.6036 -0.5897
 6525SOL    HW131037   2.889   1.111   6.262 -0.2971  0.7299  1.3357
 6525SOL    HW231038   2.743   1.088   6.295 -1.5394 -0.4805 -1.8648
 6526SOL     OW31039   1.624   1.842  17.056  0.6300 -0.0661 -0.3267
 6526SOL    HW131040   1.575   1.897  16.995  1.3061  2.8639  1.8008
 6526SOL    HW231041   1.559   1.776  17.078  0.5952  1.0132  2.6829
 6527SOL     OW31042   4.595   1.511  10.176  0.5651 -0.0823 -0.2902
 6527SOL    HW131043   4.578   1.605  10.172  0.6654 -0.1151 -1.4973
 6527SOL    HW231044   4.675   1.515  10.228 -0.9721  0.9648  1.9739
 6528SOL     OW31045   1.064   1.367  14.726  0.2447 -0.6166  0.7127
 6528SOL    HW131046   1.000   1.422  14.772 -1.4902  0.1401 -2.6363
 6528SOL    HW231047   1.020   1.286  14.701 -1.3553  0.9270 -1.4329
 6529SOL     OW31048   2.621   0.090  13.531  0.9853 -0.8031 -0.0537
 6529SOL    HW131049   2.625   0.016  13.592 -1.8815 -0.9881 -0.0874
 6529SOL    HW231050   2.529   0.094  13.506  1.0861  0.7350 -0.1707
 6530SOL     OW31051   3.658   1.508   4.309  0.3594 -0.0959  0.1609
 6530SOL    HW131052   3.609   1.531   4.388  0.7121 -2.6144  1.0987
 6530SOL    HW231053   3.692   1.420   4.327  0.1310 -0.8411 -3.1171
 6531SOL     OW31054   0.085   3.335  10.262 -0.0951 -0.1178  1.0762
 6531SOL    HW131055   0.170   3.368  10.233 -0.4567 -0.1771 -0.0708
 6531SOL    HW231056   0.028   3.404  10.229  0.2416 -0.1196  0.4870
 6532SOL     OW31057   2.534   0.234   8.565  0.0555 -0.0437  0.0454
 6532SOL    HW131058   2.613   0.194   8.531 -2.2812 -0.8968 -4.4167
 6532SOL    HW231059   2.490   0.155   8.595  1.4432 -0.2046  1.6249
 6533SOL     OW31060   4.110   3.122   5.331  0.0817 -0.3633  0.0527
 6533SOL    HW131061   4.119   3.179   5.407 -1.1448 -1.5509  1.0916
 6533SOL    HW231062   4.173   3.156   5.268  0.6040 -1.9900 -0.3041
 6534SOL     OW31063   1.200   0.986  10.520  0.5359 -0.5083 -0.6655
 6534SOL    HW131064   1.125   1.046  10.525 -0.8892 -2.3752  0.4045
 6534SOL    HW231065   1.268   1.051  10.537  0.1528 -0.4873  0.7958
 6535SOL     OW31066   0.562   4.613   7.500  0.0511  0.1491 -0.1202
 6535SOL    HW131067   0.619   4.686   7.527 -0.2865  0.6389 -0.7410
 6535SOL    HW231068   0.527   4.580   7.583 -0.8498  0.5227 -0.3598
 6536SOL     OW31069   2.837   2.616   5.200  0.7034  0.8989 -0.0252
 6536SOL    HW131070   2.750   2.645   5.174 -0.2204 -0.4384  1.5811
 6536SOL    HW231071   2.848   2.668   5.280  0.0846  3.3363 -1.5207
 6537SOL     OW31072   3.923   2.416   9.314  0.5251 -0.0083 -0.4201
 6537SOL    HW131073   3.866   2.363   9.258  2.4379 -1.8586 -0.6137
 6537SOL    HW231074   3.882   2.502   9.317  0.1071 -0.2763  1.2828
 6538SOL     OW31075   2.737   1.797   1.440  0.5366  0.4411 -0.3698
 6538SOL    HW131076   2.777   1.819   1.356  0.1934 -0.2903 -0.7205
 6538SOL    HW231077   2.795   1.838   1.504  0.2285  0.7993 -0.3181
 6539SOL     OW31078   4.428   3.504   0.359 -0.0841 -0.1975  0.0386
 6539SOL    HW131079   4.400   3.442   0.291  3.3784 -0.9331 -0.6935
 6539SOL    HW231080   4.349   3.511   0.413 -0.4406 -0.3458 -0.4568
 6540SOL     OW31081   1.843   4.544   2.566 -0.0331  0.2126 -0.2352
 6540SOL    HW131082   1.783   4.503   2.627  0.8595 -1.5877 -0.5802
 6540SOL    HW231083   1.768   4.570   2.512  0.3843  0.2999 -0.7824
 6541SOL     OW31084   1.543   3.270   4.084 -0.3528  0.8080 -0.0969
 6541SOL    HW131085   1.569   3.244   4.172 -0.7395  0.1353 -0.1846
 6541SOL    HW231086   1.494   3.348   4.112 -3.7861 -0.4857 -2.4112
 6542SOL     OW31087   0.189   4.673  11.566  0.2581  0.1996  0.5740
 6542SOL    HW131088   0.192   4.677  11.471 -1.7717  1.0155  0.5594
 6542SOL    HW231089   0.203   4.581  11.591  2.4655  0.2411 -0.4633
 6543SOL     OW31090   1.716   2.057   8.181 -0.1788 -0.4306  0.0828
 6543SOL    HW131091   1.682   1.996   8.247  1.5289 -2.6560 -1.1022
 6543SOL    HW231092   1.640   2.057   8.123  0.2930  4.0635 -0.5531
 6544SOL     OW31093   4.333   2.221   6.552 -0.2630  0.3513  0.1394
 6544SOL    HW131094   4.340   2.281   6.626 -1.9681  0.2463  0.3845
 6544SOL    HW231095   4.410   2.164   6.560 -0.5506 -0.1754 -0.8473
 6545SOL     OW31096   1.514   2.237   1.091  0.0350 -0.1177 -0.4847
 6545SOL    HW131097   1.431   2.225   1.044  0.1247 -3.6260  0.2402
 6545SOL    HW231098   1.575   2.169   1.060  0.3440  0.7107 -1.7037
 6546SOL     OW31099   4.026   0.356   5.825 -0.8067 -0.1007  0.7230
 6546SOL    HW131100   4.041   0.448   5.807 -0.3560  0.0275  1.7439
 6546SOL    HW231101   4.063   0.351   5.913 -4.4139 -1.7461  2.1716
 6547SOL     OW31102   0.944   2.181  10.492 -0.3843  0.3348  0.2853
 6547SOL    HW131103   1.032   2.220  10.494 -1.1273  2.1366 -1.7881
 6547SOL    HW231104   0.882   2.253  10.510  0.2040  1.0450 -0.5031
 6548SOL     OW31105   2.052   1.118   8.582 -0.1499 -0.2339 -0.0783
 6548SOL    HW131106   2.080   1.068   8.505 -2.9491 -0.7365 -0.7621
 6548SOL    HW231107   2.123   1.114   8.646 -0.1916  1.1786  0.0389
 6549SOL     OW31108   0.672   4.447   6.143 -0.4833  0.0365  0.5591
 6549SOL    HW131109   0.606   4.378   6.141 -1.1640  0.7434 -0.8411
 6549SOL    HW231110   0.711   4.452   6.056  2.6083 -0.1331  1.9172
 6550SOL     OW31111   0.435   1.956   8.218 -0.1473  0.2150 -0.3726
 6550SOL    HW131112   0.364   1.976   8.278  0.1747  3.0232 -0.9012
 6550SOL    HW231113   0.507   1.936   8.278 -1.0986 -1.8858  0.0554
 6551SOL     OW31114   3.980   2.687  16.691  0.5432  0.0100 -0.3307
 6551SOL    HW131115   3.912   2.702  16.757  1.1310 -0.9193  0.5088
 6551SOL    HW231116   3.957   2.744  16.619  1.7308  0.4860 -0.3374
 6552SOL     OW31117   3.803   3.460   4.319 -0.0134 -0.0553  0.0180
 6552SOL    HW131118   3.882   3.489   4.363  0.9037  1.3000 -2.5317
 6552SOL    HW231119   3.726   3.494   4.365  0.9170  1.7274  0.2279
 6553SOL     OW31120   1.207   3.178   5.913  0.5216  0.1361 -0.2933
 6553SOL    HW131121   1.219   3.127   5.834 -0.4676 -0.5356 -0.0027
 6553SOL    HW231122   1.137   3.238   5.888  0.6879 -0.0784 -1.2661
 6554SOL     OW31123   1.528   2.788   8.531 -0.8985 -1.1514  0.1501
 6554SOL    HW131124   1.593   2.857   8.545 -1.2536 -0.6134 -0.8914
 6554SOL    HW231125   1.533   2.728   8.606  1.3984 -0.9799  0.1269
 6555SOL     OW31126   4.025   4.581   3.023  0.8584  1.0164 -0.1111
 6555SOL    HW131127   3.946   4.635   3.016 -0.8439 -1.2445  1.4693
 6555SOL    HW231128   4.071   4.607   2.943 -0.7611  1.6558 -0.8320
 6556SOL     OW31129   3.289   4.504  16.003  0.3885 -0.2525  0.6215
 6556SOL    HW131130   3.227   4.434  16.020 -1.4041  0.5293 -2.5805
 6556SOL    HW231131   3.276   4.526  15.910  1.0128 -1.1861  0.3129
 6557SOL     OW31132   0.006   4.627   2.894 -0.0840  0.0389  0.3358
 6557SOL    HW131133   0.018   4.559   2.828  2.0912  0.8934 -0.1396
 6557SOL    HW231134   0.004   4.572   2.972  1.2427 -1.3604 -0.6284
 6558SOL     OW31135   0.262   2.880   4.043  0.0584 -0.0809  0.4047
 6558SOL    HW131136   0.290   2.939   4.113 -1.5331  3.1757 -1.7435
 6558SOL    HW231137   0.290   2.924   3.963  1.6376  2.4678  2.3423
 6559SOL     OW31138   1.602   0.067   1.352  0.2930  0.5355  0.0937
 6559SOL    HW131139   1.622   0.031   1.439  1.7098 -1.1390 -0.9375
 6559SOL    HW231140   1.683   0.082   1.303  0.0827  1.6279  0.0658
 6560SOL     OW31141   3.379   1.863   9.295 -0.7165  0.1883 -0.0878
 6560SOL    HW131142   3.338   1.948   9.306  1.1745  1.0493  0.3265
 6560SOL    HW231143   3.324   1.819   9.230 -1.0175  2.1951 -1.1643
 6561SOL     OW31144   2.978   1.546   3.520 -0.2025 -0.0211  0.5363
 6561SOL    HW131145   2.937   1.480   3.575 -1.0845  0.7008  0.7362
 6561SOL    HW231146   2.975   1.498   3.437  1.4282  0.4089  0.2178
 6562SOL     OW31147   0.144   1.602   3.091  0.5000 -0.1131 -0.0176
 6562SOL    HW131148   0.160   1.517   3.132  2.7734  0.0791 -0.5033
 6562SOL    HW231149   0.235   1.614   3.064  0.1988  0.3812 -0.8098
 6563SOL     OW31150   1.614   0.731  15.723 -0.4403 -0.0102  0.1976
 6563SOL    HW131151   1.631   0.760  15.812 -3.2709  0.2330  0.6665
 6563SOL    HW231152   1.550   0.660  15.736 -0.3816  0.1578  1.4123
 6564SOL     OW31153   4.400   4.609  15.731 -0.2055 -0.3699  0.4286
 6564SOL    HW131154   4.348   4.638  15.806  2.7943  2.3373  1.4421
 6564SOL    HW231155   4.472   4.671  15.725 -1.3161  0.8057 -0.9071
 6565SOL     OW31156   1.383   3.640   5.863 -0.1328  0.4972  0.1377
 6565SOL    HW131157   1.288   3.633   5.870  0.0609  0.1026  2.3431
 6565SOL    HW231158   1.409   3.562   5.913  0.2603 -0.6354 -1.8273
 6566SOL     OW31159   1.748   1.565   7.214  0.3648  0.1750 -0.0169
 6566SOL    HW131160   1.653   1.551   7.208  0.7650 -1.6301 -2.0293
 6566SOL    HW231161   1.758   1.574   7.309  1.1869 -1.3340  0.0420
 6567SOL     OW31162   2.004   0.145   3.588 -0.5509 -0.0009  0.2888
 6567SOL    HW131163   2.040   0.150   3.676  0.2710  1.3179 -0.1267
 6567SOL    HW231164   2.048   0.222   3.554 -0.6055 -0.2342 -0.3189
 6568SOL     OW31165   2.725   2.436   3.438 -0.6976  0.5052 -0.2022
 6568SOL    HW131166   2.652   2.497   3.428 -2.8736 -1.9491  0.7017
 6568SOL    HW231167   2.690   2.360   3.486 -0.8873  1.6996  1.5666
 6569SOL     OW31168   3.083   4.677   7.531  0.1212  0.2424 -0.2091
 6569SOL    HW131169   3.148   4.650   7.466  1.4119  2.3370  0.2305
 6569SOL    HW231170   3.126   0.025   7.571 -2.8789  0.7905  2.0160
 6570SOL     OW31171   3.801   0.376  13.435 -0.4116  0.0170  0.5917
 6570SOL    HW131172   3.879   0.380  13.489 -0.7241  1.0988  0.9553
 6570SOL    HW231173   3.729   0.372  13.499  1.6680 -2.9131  2.7295
 6571SOL     OW31174   1.590   0.925   0.898 -0.0092 -0.1327  0.1328
 6571SOL    HW131175   1.637   0.971   0.968  1.9474 -0.7106 -0.7818
 6571SOL    HW231176   1.582   0.844   0.947  2.5775 -1.4562 -1.6086
 6572SOL     OW31177   1.213   1.315   4.670 -0.0373  0.4203 -0.4613
 6572SOL    HW131178   1.156   1.390   4.686 -0.3364 -0.2262  1.4861
 6572SOL    HW231179   1.164   1.263   4.607 -1.2142 -1.5275  2.0628
 6573SOL     OW31180   1.307   1.110   5.410 -0.1494 -0.3638 -0.2612
 6573SOL    HW131181   1.284   1.147   5.495 -0.9432 -0.9933 -0.2093
 6573SOL    HW231182   1.227   1.140   5.367 -0.6647  0.2745  1.1451
 6574SOL     OW31183   2.106   3.159   3.718 -0.0409 -0.5307 -0.4559
 6574SOL    HW131184   2.049   3.226   3.755  0.6771 -0.5539  0.6797
 6574SOL    HW231185   2.119   3.215   3.641 -1.0261  0.1569 -0.1342
 6575SOL     OW31186   0.921   3.048   9.183  0.4849  0.5070 -0.1075
 6575SOL    HW131187   0.965   3.105   9.246  1.2233 -2.3157  1.9384
 6575SOL    HW231188   0.986   3.021   9.118 -0.8931 -1.5650 -0.5879
 6576SOL     OW31189   0.996   2.695   8.457 -0.1321 -0.0313 -0.7888
 6576SOL    HW131190   1.046   2.692   8.376 -2.6398 -1.1039 -2.2900
 6576SOL    HW231191   0.987   2.600   8.471 -0.1586  0.2780  1.3191
 6577SOL     OW31192   2.630   2.677  11.749 -0.2614 -0.2352 -0.1837
 6577SOL    HW131193   2.706   2.719  11.790 -1.2199  0.0323  1.3232
 6577SOL    HW231194   2.681   2.634  11.681  0.0044  1.2955 -0.9674
 6578SOL     OW31195   2.263   2.942   4.437 -0.6488 -0.1001 -0.0623
 6578SOL    HW131196   2.269   2.909   4.527 -0.1896 -2.2140 -0.8718
 6578SOL    HW231197   2.226   2.869   4.389 -2.1780 -0.0517  1.0356
 6579SOL     OW31198   3.691   3.339   5.341 -0.1296 -0.2881 -0.6557
 6579SOL    HW131199   3.732   3.361   5.257  0.0958  2.8164  0.2344
 6579SOL    HW231200   3.597   3.356   5.337 -0.0973 -0.1666 -0.9162
 6580SOL     OW31201   4.555   4.176   6.205 -0.5923 -0.0278  0.1894
 6580SOL    HW131202   4.647   4.163   6.185 -1.1027 -1.6598 -1.0434
 6580SOL    HW231203   4.514   4.190   6.120 -1.3127 -2.0452  0.2097
 6581SOL     OW31204   2.433   2.262  13.459 -0.3201 -0.5512  0.5445
 6581SOL    HW131205   2.525   2.266  13.487 -0.7106  0.1961  1.6902
 6581SOL    HW231206   2.392   2.254  13.545 -0.9543 -0.1524  0.2763
 6582SOL     OW31207   0.515   1.702  13.706  0.4142  0.4529  0.1490
 6582SOL    HW131208   0.525   1.772  13.641 -0.1238  0.9789  0.6285
 6582SOL    HW231209   0.599   1.712  13.751  1.5146  0.5485 -1.9498
 6583SOL     OW31210   4.432   2.695   4.922 -0.3706 -0.1319 -0.3629
 6583SOL    HW131211   4.441   2.663   5.012  1.1280  1.0333 -0.1153
 6583SOL    HW231212   4.400   2.613   4.883  0.4984 -0.8710  0.4916
 6584SOL     OW31213   3.782   2.965   4.072 -0.1256  0.0025 -0.4184
 6584SOL    HW131214   3.814   2.889   4.023 -0.6410 -0.4708 -0.0227
 6584SOL    HW231215   3.835   3.029   4.024 -1.7134  0.2469 -1.8525
 6585SOL     OW31216   2.562   4.312   1.924  0.1559  0.1995 -0.2278
 6585SOL    HW131217   2.525   4.259   1.853 -0.1330 -0.7102  0.6061
 6585SOL    HW231218   2.653   4.284   1.913  0.0993  0.1121 -0.4965
 6586SOL     OW31219   0.030   3.023   9.584  0.5619 -0.5356 -0.6573
 6586SOL    HW131220   4.710   3.016   9.668  0.5735 -0.7853 -0.6707
 6586SOL    HW231221   4.693   3.070   9.531 -1.9730 -1.1816  1.8039
 6587SOL     OW31222   4.474   3.352   6.344  0.8575  0.5634  0.5939
 6587SOL    HW131223   4.527   3.377   6.268  0.6743  0.3762  0.4062
 6587SOL    HW231224   4.457   3.442   6.372  2.1357  0.7775  0.7223
 6588SOL     OW31225   0.563   4.576  12.796 -0.6577  0.3279  0.6819
 6588SOL    HW131226   0.608   4.515  12.855  0.1708  1.8081  1.5691
 6588SOL    HW231227   0.602   4.547  12.713 -0.8100  1.3297  0.2613
 6589SOL     OW31228   0.706   3.829  15.344 -0.1839 -0.7259 -0.1544
 6589SOL    HW131229   0.671   3.848  15.431  0.4457  0.2975 -0.1192
 6589SOL    HW231230   0.759   3.909  15.341  0.2013 -1.0222 -0.9742
 6590SOL     OW31231   1.868   4.420   5.140  0.2755  0.3803 -0.3290
 6590SOL    HW131232   1.884   4.453   5.228 -0.2290 -0.0065 -0.0945
 6590SOL    HW231233   1.826   4.494   5.095  0.4681  0.0030 -1.1339
 6591SOL     OW31234   1.942   2.539  15.416  0.0697 -0.9099  0.0707
 6591SOL    HW131235   1.903   2.510  15.334 -0.0469 -0.8753  0.1142
 6591SOL    HW231236   1.979   2.626  15.398 -0.4571 -0.7148 -0.0756
 6592SOL     OW31237   3.911   1.373   8.295 -0.4861  0.5713  0.4522
 6592SOL    HW131238   3.973   1.310   8.259 -0.1716  0.8312  0.5391
 6592SOL    HW231239   3.904   1.435   8.223 -0.3838 -0.6668 -0.6180
 6593SOL     OW31240   4.325   3.003  13.394  0.1413 -0.1060  0.5043
 6593SOL    HW131241   4.301   2.916  13.361 -3.4181  1.5026 -1.1022
 6593SOL    HW231242   4.375   2.991  13.475 -0.1877  1.6343  0.9576
 6594SOL     OW31243   0.022   0.878  14.770  0.1142  0.1710 -0.5175
 6594SOL    HW131244   0.051   0.894  14.860 -0.0315 -0.0566 -0.4303
 6594SOL    HW231245   0.064   0.793  14.765 -1.1000 -0.3697 -1.5635
 6595SOL     OW31246   3.725   0.436   5.539  0.8680  0.3789 -0.0365
 6595SOL    HW131247   3.638   0.468   5.565  0.9819  0.7737 -0.1488
 6595SOL    HW231248   3.772   0.508   5.499 -0.4154  1.0822 -0.2995
 6596SOL     OW31249   2.593   2.752  14.144  0.5192  0.2009 -0.0120
 6596SOL    HW131250   2.571   2.843  14.127 -1.8795 -0.6759 -1.5015
 6596SOL    HW231251   2.514   2.701  14.162  0.8405 -0.1364  0.4530
 6597SOL     OW31252   4.456   2.420   4.797  0.2650 -0.3554 -0.5765
 6597SOL    HW131253   4.414   2.368   4.865 -0.2274  0.9763  0.1483
 6597SOL    HW231254   4.422   2.375   4.719  1.0308 -1.5727 -0.2079
 6598SOL     OW31255   2.207   4.615   2.865  0.4566  0.1295 -0.2411
 6598SOL    HW131256   2.179   4.553   2.798 -1.1751  1.2300 -0.5571
 6598SOL    HW231257   2.124   4.657   2.888  1.1890  1.4425  0.0131
 6599SOL     OW31258   2.343   3.920   4.000  0.2548  0.2525 -0.6183
 6599SOL    HW131259   2.414   3.937   4.062  0.5345  1.4146 -1.2634
 6599SOL    HW231260   2.274   3.980   4.028  1.6034  1.6818 -0.4130
 6600SOL     OW31261   2.997   3.546   9.517 -0.1302  0.0258  0.2533
 6600SOL    HW131262   2.918   3.570   9.565 -0.5114  1.0701 -0.9163
 6600SOL    HW231263   3.031   3.476   9.573  3.3722  0.5899 -1.2016
 6601SOL     OW31264   0.524   3.934  17.461  0.3406 -0.1750  0.2552
 6601SOL    HW131265   0.541   4.020  17.423 -2.2241  0.8724  1.5306
 6601SOL    HW231266   0.556   3.949  17.551 -3.9887 -0.7963  1.8730
 6602SOL     OW31267   4.455   2.789  16.791  0.4501 -0.3428  0.2067
 6602SOL    HW131268   4.441   2.875  16.752  0.9693 -0.4372 -0.1895
 6602SOL    HW231269   4.365   2.769  16.817  0.0013 -0.9307 -1.7918
 6603SOL     OW31270   1.595   1.772   7.859  0.6027 -0.1168 -0.0758
 6603SOL    HW131271   1.583   1.857   7.901  1.1855 -0.3596  0.5934
 6603SOL    HW231272   1.661   1.730   7.915 -1.4803 -1.7065  1.1627
 6604SOL     OW31273   0.072   3.441   4.827  0.1561 -0.0394 -0.7404
 6604SOL    HW131274   0.153   3.433   4.778 -0.2818  0.1772 -1.4913
 6604SOL    HW231275   0.092   3.507   4.893  1.1236  1.4000 -2.4705
 6605SOL     OW31276   1.333   2.640   4.280  0.4265  0.1781 -0.2686
 6605SOL    HW131277   1.280   2.719   4.291  1.2494  0.6765  0.1099
 6605SOL    HW231278   1.322   2.602   4.367  0.5325  0.3000 -0.2021
 6606SOL     OW31279   3.516   3.459  10.168 -0.1833  0.4330  0.1084
 6606SOL    HW131280   3.444   3.507  10.127 -1.3362 -1.0629  0.3662
 6606SOL    HW231281   3.595   3.496  10.129  0.3806 -2.2536 -1.3195
 6607SOL     OW31282   3.585   2.280   7.938  0.3663  0.3733 -0.2694
 6607SOL    HW131283   3.542   2.355   7.899 -1.0408 -0.4059 -0.2181
 6607SOL    HW231284   3.668   2.286   7.891 -1.0699 -1.9239 -3.1430
 6608SOL     OW31285   0.946   2.539   3.149  0.0565  0.2063  0.0674
 6608SOL    HW131286   0.989   2.475   3.206  0.3294 -0.6643 -1.1091
 6608SOL    HW231287   0.854   2.515   3.155 -0.3973  1.6577 -1.0826
 6609SOL     OW31288   2.628   3.935   4.874 -0.1121  0.0075  0.2796
 6609SOL    HW131289   2.619   4.030   4.863  1.1837  0.0407 -0.5023
 6609SOL    HW231290   2.594   3.925   4.785  1.2871 -1.4462 -0.0829
 6610SOL     OW31291   1.424   4.357  12.204 -0.6465  0.9500  0.5114
 6610SOL    HW131292   1.411   4.435  12.150 -2.0370  1.0038  0.9283
 6610SOL    HW231293   1.362   4.382  12.272 -0.3143 -0.6442  1.4058
 6611SOL     OW31294   1.141   0.629   1.733  0.8915  0.0710  0.1695
 6611SOL    HW131295   1.060   0.593   1.697  0.8418  1.0948 -0.7309
 6611SOL    HW231296   1.211   0.598   1.675 -0.0913 -1.4085 -0.2047
 6612SOL     OW31297   3.802   1.354   7.678  0.4447  0.0135  0.4435
 6612SOL    HW131298   3.780   1.294   7.606 -0.3589  0.1628  0.5673
 6612SOL    HW231299   3.734   1.421   7.670  2.4795  1.9596 -0.5100
 6613SOL     OW31300   3.979   3.752   1.381 -0.1833 -0.0961  0.0276
 6613SOL    HW131301   4.041   3.679   1.376 -3.2318 -2.8144  1.9319
 6613SOL    HW231302   3.910   3.719   1.324  0.8802  0.1627 -1.4143
 6614SOL     OW31303   3.110   1.099   5.192 -0.0309 -0.2389  0.5152
 6614SOL    HW131304   3.181   1.084   5.129 -3.7683  0.0145 -3.6904
 6614SOL    HW231305   3.135   1.040   5.264 -0.3136 -0.0100  0.8021
 6615SOL     OW31306   1.326   2.208   4.686 -0.1387 -0.0602 -0.8655
 6615SOL    HW131307   1.386   2.144   4.646  1.0287  1.6423 -1.8380
 6615SOL    HW231308   1.251   2.148   4.677 -0.3941  0.1221  0.1323
 6616SOL     OW31309   2.466   0.646  16.609 -0.0513 -0.2039 -0.2093
 6616SOL    HW131310   2.392   0.704  16.629  0.6532 -0.3698  2.9178
 6616SOL    HW231311   2.464   0.567  16.663  2.5826 -0.1223 -0.0104
 6617SOL     OW31312   3.467   2.937   5.271 -0.2568  0.1575 -0.6779
 6617SOL    HW131313   3.531   2.884   5.319 -1.1216  0.5315  0.8829
 6617SOL    HW231314   3.505   2.926   5.184  0.5616 -1.0937 -0.1682
 6618SOL     OW31315   2.137   0.990   4.375  0.0725 -0.1559  0.8223
 6618SOL    HW131316   2.150   1.061   4.312 -0.0407 -0.0801  0.8836
 6618SOL    HW231317   2.231   0.976   4.388  0.6556  2.3729 -0.5943
 6619SOL     OW31318   0.169   0.564   2.742  0.2271 -0.5117 -0.3233
 6619SOL    HW131319   0.201   0.474   2.755  0.8041 -0.4362 -1.2668
 6619SOL    HW231320   0.246   0.613   2.713  1.0193 -0.7675  1.3028
 6620SOL     OW31321   0.189   0.340   0.667  0.5803  0.1006 -0.5304
 6620SOL    HW131322   0.142   0.369   0.589  0.7603  1.4173 -0.1509
 6620SOL    HW231323   0.253   0.280   0.628 -0.2424 -1.2891  0.2971
 6621SOL     OW31324   3.570   0.022  13.003 -0.1841  0.1276 -0.5059
 6621SOL    HW131325   3.537   0.112  13.000  3.9535  1.5923 -1.7909
 6621SOL    HW231326   3.583   0.008  13.097 -0.4505 -0.4534 -0.5526
 6622SOL     OW31327   1.635   1.201  13.091  0.5026  0.2921 -0.3539
 6622SOL    HW131328   1.693   1.128  13.066 -1.2913 -1.1473 -0.3198
 6622SOL    HW231329   1.590   1.162  13.166  1.6042  1.6035  0.9735
 6623SOL     OW31330   0.698   3.118   9.471 -0.3016 -0.1021 -0.1532
 6623SOL    HW131331   0.772   3.140   9.527 -1.3405 -0.6443  1.4260
 6623SOL    HW231332   0.732   3.097   9.384  0.7369 -1.6843  0.6409
 6624SOL     OW31333   4.523   0.666   4.823  0.0904  0.0940 -0.1900
 6624SOL    HW131334   4.499   0.692   4.912 -0.3520 -0.1277 -0.2426
 6624SOL    HW231335   4.616   0.687   4.832  0.2552 -1.3166  1.3405
 6625SOL     OW31336   1.661   4.552  12.541  0.1153 -0.0319 -0.5812
 6625SOL    HW131337   1.690   4.565  12.450 -2.4514 -1.0943 -1.5370
 6625SOL    HW231338   1.575   4.593  12.545 -0.8608 -2.2294  0.6882
 6626SOL     OW31339   4.189   4.726   2.157 -0.0506  0.0575  0.2896
 6626SOL    HW131340   4.249   4.651   2.165  0.7617  0.8401  1.5357
 6626SOL    HW231341   4.109   4.675   2.172 -2.1682  3.3230  0.1427
 6627SOL     OW31342   3.542   3.960  11.870  0.5980  0.0175 -0.1743
 6627SOL    HW131343   3.495   3.877  11.875  0.5428  0.1369  1.4963
 6627SOL    HW231344   3.466   4.015  11.854 -0.5777 -1.7261 -0.5197
 6628SOL     OW31345   4.120   0.161   7.885 -0.0086 -0.4135 -0.1017
 6628SOL    HW131346   4.088   0.098   7.820 -1.3718  0.6368 -0.4624
 6628SOL    HW231347   4.204   0.136   7.922 -0.0552  0.3181  0.4989
 6629SOL     OW31348   2.800   2.737   5.485 -0.3100  0.1630  0.0932
 6629SOL    HW131349   2.729   2.800   5.497 -1.8161 -1.3661 -0.8000
 6629SOL    HW231350   2.771   2.669   5.545 -0.8720  0.4785  0.1798
 6630SOL     OW31351   2.384   0.431  12.787  0.3523 -0.0461 -0.1884
 6630SOL    HW131352   2.423   0.428  12.700 -1.3930 -1.4750 -0.9062
 6630SOL    HW231353   2.403   0.524  12.802 -0.9397  0.2093 -0.1882
 6631SOL     OW31354   4.335   2.488   4.216 -0.0265  0.1977  0.5127
 6631SOL    HW131355   4.296   2.575   4.212 -0.1049  0.1111 -0.5159
 6631SOL    HW231356   4.419   2.512   4.177 -1.2737  2.7239 -0.6267
 6632SOL     OW31357   3.115   4.332   2.138  0.5881 -0.8149 -0.5596
 6632SOL    HW131358   3.064   4.254   2.159  1.3648 -0.4735  2.6315
 6632SOL    HW231359   3.173   4.293   2.073  0.5598 -0.9307 -0.5151
 6633SOL     OW31360   0.845   2.688   5.657 -0.6286  0.1062 -0.0006
 6633SOL    HW131361   0.888   2.635   5.590 -2.1171 -0.5373 -0.4491
 6633SOL    HW231362   0.761   2.706   5.615  0.3500 -0.9721 -2.4182
 6634SOL     OW31363   2.349   2.427   8.479 -0.0502 -0.0326 -0.0436
 6634SOL    HW131364   2.255   2.436   8.491 -0.4335 -0.8987 -2.3482
 6634SOL    HW231365   2.351   2.350   8.536 -0.3610  0.5981  0.8149
 6635SOL     OW31366   3.969   1.693   8.750  0.1874  0.2796  0.1358
 6635SOL    HW131367   3.878   1.679   8.725 -0.1023  0.4046  1.1219
 6635SOL    HW231368   3.989   1.602   8.768  0.8381  0.2946 -0.5086
 6636SOL     OW31369   3.076   1.842   8.330 -0.0466 -0.3943 -0.3643
 6636SOL    HW131370   3.009   1.775   8.319  0.7581 -1.0116 -1.4740
 6636SOL    HW231371   3.021   1.910   8.291 -1.0154 -1.0640 -0.1556
 6637SOL     OW31372   0.778   0.196   4.704  0.2819 -0.7080  0.1229
 6637SOL    HW131373   0.825   0.148   4.636  1.0042 -0.4572  0.4440
 6637SOL    HW231374   0.819   0.158   4.781 -1.2464 -1.3200  0.6402
 6638SOL     OW31375   0.738   1.849   5.760 -0.4162 -0.2211 -0.1381
 6638SOL    HW131376   0.673   1.781   5.745  0.5965 -1.2896  0.3653
 6638SOL    HW231377   0.749   1.826   5.853  2.7695  0.4881 -0.3400
 6639SOL     OW31378   1.890   3.786   5.927 -0.0426  0.0286  0.1246
 6639SOL    HW131379   1.920   3.736   6.003 -0.1214 -2.6596 -1.6028
 6639SOL    HW231380   1.877   3.871   5.969  0.0217  0.1057 -0.0102
 6640SOL     OW31381   1.309   3.940  12.523  0.0482 -0.0843 -0.2416
 6640SOL    HW131382   1.255   3.874  12.480 -1.2114  1.1159 -0.5328
 6640SOL    HW231383   1.391   3.943  12.473  0.9799 -1.4576  1.1925
 6641SOL     OW31384   2.023   2.164   2.341 -0.4323  0.1788 -0.0291
 6641SOL    HW131385   1.956   2.106   2.303 -0.9119  0.4193  0.4469
 6641SOL    HW231386   2.073   2.186   2.262 -1.8192  0.5741 -0.7982
 6642SOL     OW31387   4.341   3.366   7.561  0.0512  0.1111  0.3307
 6642SOL    HW131388   4.407   3.298   7.564 -0.1799 -0.1604 -0.7239
 6642SOL    HW231389   4.311   3.357   7.652  1.2067  1.3104  0.8323
 6643SOL     OW31390   1.250   3.305   8.083  0.3269 -0.3910 -0.5102
 6643SOL    HW131391   1.188   3.273   8.018  0.8655  0.8675 -1.6382
 6643SOL    HW231392   1.196   3.267   8.152 -0.8624  1.6892 -0.3033
 6644SOL     OW31393   0.661   1.900  12.403 -0.4245  0.4113 -0.0576
 6644SOL    HW131394   0.641   1.958  12.330 -0.0476 -0.4485 -0.8363
 6644SOL    HW231395   0.574   1.864  12.421 -0.8326  1.5450  0.2293
 6645SOL     OW31396   0.933   4.443  12.722 -0.4679  0.3142  0.3461
 6645SOL    HW131397   0.922   4.536  12.703 -1.8607  0.4539  1.8009
 6645SOL    HW231398   0.846   4.429  12.760 -0.7939 -3.4399 -1.7389
 6646SOL     OW31399   0.827   0.399   7.775  0.1292  0.1421  0.2801
 6646SOL    HW131400   0.856   0.490   7.789 -0.0424  0.5640 -2.0290
 6646SOL    HW231401   0.759   0.405   7.708  2.5007 -1.5364 -2.2814
 6647SOL     OW31402   1.769   3.771  17.059  0.6949  0.2530 -0.3391
 6647SOL    HW131403   1.701   3.709  17.084  1.7265  0.0403  1.9442
 6647SOL    HW231404   1.818   3.782  17.140 -0.9368 -1.3272  0.8483
 6648SOL     OW31405   4.201   2.870  14.679 -0.1133 -0.1014 -0.1923
 6648SOL    HW131406   4.162   2.818  14.748  1.4905  2.0473  2.3624
 6648SOL    HW231407   4.265   2.922  14.729 -1.2162  0.9590  0.1078
 6649SOL     OW31408   1.323   2.570   4.540  0.4152  0.4047  0.4021
 6649SOL    HW131409   1.394   2.634   4.544 -0.1983  0.9644  2.2874
 6649SOL    HW231410   1.333   2.542   4.631 -0.4017  0.8570  0.6277
 6650SOL     OW31411   1.430   2.723  15.230 -0.2320  0.0461 -0.4985
 6650SOL    HW131412   1.462   2.811  15.210  0.0175  0.4376  1.6094
 6650SOL    HW231413   1.336   2.738  15.222 -0.1330  0.5900 -0.6741
 6651SOL     OW31414   1.163   4.115   9.276  0.1206 -0.0407 -0.5694
 6651SOL    HW131415   1.067   4.114   9.271  0.1018  1.5370 -0.5285
 6651SOL    HW231416   1.176   4.154   9.362 -0.3477  0.7337 -0.8475
 6652SOL     OW31417   2.096   1.439   0.152  0.1699  0.2023 -0.4875
 6652SOL    HW131418   2.035   1.365   0.152 -1.8986  1.8849  1.3114
 6652SOL    HW231419   2.149   1.421   0.230  0.0669 -0.6082 -0.6029
 6653SOL     OW31420   1.769   2.011   6.413  0.3501  0.3900  0.3182
 6653SOL    HW131421   1.690   2.056   6.384  1.0508  0.0471 -2.1213
 6653SOL    HW231422   1.817   2.083   6.454 -0.3845  1.2827 -0.3958
 6654SOL     OW31423   4.173   2.596   2.112 -0.0375 -0.2258 -0.2978
 6654SOL    HW131424   4.252   2.545   2.094  0.5178 -0.1712  1.9370
 6654SOL    HW231425   4.113   2.530   2.076 -0.8821  0.0190  0.6633
 6655SOL     OW31426   2.773   0.040   6.192 -0.5426  0.7044 -0.2261
 6655SOL    HW131427   2.753   0.133   6.185 -1.7562  0.3670 -1.1982
 6655SOL    HW231428   2.688   0.012   6.225  1.4373 -3.8089  1.0911
 6656SOL     OW31429   4.030   0.516  11.036 -0.1369 -0.5654  0.2448
 6656SOL    HW131430   3.957   0.576  11.045 -0.2182 -0.7616  0.8252
 6656SOL    HW231431   4.080   0.545  11.112  0.9365  2.6668 -1.6807
 6657SOL     OW31432   4.212   0.461   2.107  0.0088  0.7526  0.0912
 6657SOL    HW131433   4.157   0.526   2.063 -0.6391  0.1580  0.0383
 6657SOL    HW231434   4.182   0.382   2.063  1.0801  1.1958 -1.4298
 6658SOL     OW31435   3.856   0.702   9.985 -0.2215  0.1036  0.1454
 6658SOL    HW131436   3.833   0.655  10.065 -1.8814  1.6659  0.5990
 6658SOL    HW231437   3.951   0.690   9.984 -0.1711  0.5063 -0.4028
 6659SOL     OW31438   4.477   0.512   0.566  0.2796  0.1267  0.2867
 6659SOL    HW131439   4.485   0.478   0.477 -1.7909  2.3326 -0.7373
 6659SOL    HW231440   4.484   0.428   0.612 -2.8167 -0.2352  0.1039
 6660SOL     OW31441   3.331   1.778   4.642 -0.1171  0.6135  0.2182
 6660SOL    HW131442   3.400   1.841   4.619 -0.0022  0.7243  0.8715
 6660SOL    HW231443   3.290   1.816   4.719 -1.8585 -1.3736  0.2744
 6661SOL     OW31444   1.829   1.436   8.289 -0.0777 -0.2787  0.0505
 6661SOL    HW131445   1.867   1.399   8.368  0.3977 -0.2164 -0.1485
 6661SOL    HW231446   1.856   1.528   8.291  0.1076 -0.2857 -1.6375
 6662SOL     OW31447   0.434   0.470   5.983 -0.4432  0.0478  0.5200
 6662SOL    HW131448   0.377   0.411   6.031  0.1052 -0.4165  0.6011
 6662SOL    HW231449   0.393   0.457   5.898 -0.7718 -1.0938  0.8648
 6663SOL     OW31450   3.137   2.387  10.740  0.6511 -0.5807 -0.6141
 6663SOL    HW131451   3.221   2.425  10.766  0.0355  0.0268  0.4723
 6663SOL    HW231452   3.152   2.390  10.645  0.8417  1.1640 -0.5325
 6664SOL     OW31453   4.665   1.071  13.586 -0.0127  0.2265 -0.0284
 6664SOL    HW131454   4.608   1.118  13.647 -0.4765  1.6458 -1.5729
 6664SOL    HW231455   0.013   1.131  13.579  1.2640 -1.4716 -0.9951
 6665SOL     OW31456   3.327   0.429  13.678  1.0292 -0.0412  0.4076
 6665SOL    HW131457   3.294   0.389  13.759 -2.2730  1.6802 -0.0670
 6665SOL    HW231458   3.273   0.508  13.671  0.2958 -0.6511 -0.8161
 6666SOL     OW31459   1.814   3.454  17.107  0.3816 -0.4063 -0.4420
 6666SOL    HW131460   1.752   3.526  17.097 -1.3071 -1.9243 -0.9336
 6666SOL    HW231461   1.873   3.462  17.032 -0.7282  1.1768 -1.1246
 6667SOL     OW31462   0.846   0.493  11.813 -0.6641  0.7482  0.4359
 6667SOL    HW131463   0.831   0.537  11.897 -0.2595 -1.8447  1.8714
 6667SOL    HW231464   0.829   0.400  11.829 -2.4875  1.2581  1.3655
 6668SOL     OW31465   1.118   3.656   5.949 -0.5934 -0.0493  0.5045
 6668SOL    HW131466   1.027   3.682   5.936 -1.2805 -3.4362 -1.4725
 6668SOL    HW231467   1.172   3.734   5.960 -1.2257  0.2323  1.5825
 6669SOL     OW31468   2.184   4.226   8.888 -0.2266  0.2815 -0.1534
 6669SOL    HW131469   2.248   4.297   8.881 -2.6617  2.5785  0.9905
 6669SOL    HW231470   2.236   4.168   8.944 -1.3197  0.1061  0.6622
 6670SOL     OW31471   2.821   4.109   3.113 -0.1900 -0.4617  0.3743
 6670SOL    HW131472   2.834   4.199   3.142 -1.4299  0.6390 -2.4934
 6670SOL    HW231473   2.727   4.099   3.133 -0.6436  2.5010 -0.1774
 6671SOL     OW31474   2.757   0.953  13.853  0.1460  0.6533  0.4912
 6671SOL    HW131475   2.670   0.918  13.834  1.6115 -2.0890 -1.1963
 6671SOL    HW231476   2.765   0.909  13.938 -1.9940  1.7509  1.2431
 6672SOL     OW31477   1.825   0.173   9.548 -0.4193  0.6272  0.5277
 6672SOL    HW131478   1.895   0.129   9.596  0.5311  0.1747 -1.2761
 6672SOL    HW231479   1.822   0.257   9.593  1.6244  1.6146 -1.1756
 6673SOL     OW31480   0.201   1.361  13.789 -0.1589 -0.8199 -0.0385
 6673SOL    HW131481   0.231   1.451  13.776  0.7841 -1.0997  0.1754
 6673SOL    HW231482   0.157   1.339  13.707 -0.9969 -0.8969  0.4381
 6674SOL     OW31483   0.768   4.147   1.688 -0.6427  0.7053 -0.2517
 6674SOL    HW131484   0.796   4.205   1.618  0.9834  1.6323  1.1532
 6674SOL    HW231485   0.852   4.116   1.724 -0.5759 -0.9049 -1.7792
 6675SOL     OW31486   0.551   2.054   6.216 -0.0136 -0.4970 -0.4437
 6675SOL    HW131487   0.565   2.118   6.287  0.8473 -1.1605 -0.0057
 6675SOL    HW231488   0.594   2.106   6.148 -0.4637  0.0583 -0.3048
 6676SOL     OW31489   0.647   1.398   5.836 -0.2748 -0.4102  0.3288
 6676SOL    HW131490   0.590   1.321   5.836 -0.2843 -0.4125  3.5964
 6676SOL    HW231491   0.699   1.384   5.916 -0.6976 -1.6411  0.3947
 6677SOL     OW31492   0.143   2.337  13.268 -0.5019 -0.3780  0.0100
 6677SOL    HW131493   0.112   2.383  13.346  2.1046  0.3635  0.5965
 6677SOL    HW231494   0.060   2.307  13.230 -0.9073  2.2043 -1.0992
 6678SOL     OW31495   2.558   1.704   4.898  0.3225 -0.7157  0.5506
 6678SOL    HW131496   2.609   1.774   4.857  1.0371 -1.3746  0.3089
 6678SOL    HW231497   2.530   1.745   4.980 -3.0035 -0.7224 -0.5926
 6679SOL     OW31498   3.266   2.103   5.150 -0.4165 -0.2639  0.6827
 6679SOL    HW131499   3.231   2.018   5.176  1.0148 -0.9846  0.2306
 6679SOL    HW231500   3.359   2.085   5.165 -0.6256 -1.7726  0.1195
 6680SOL     OW31501   0.065   3.366   2.122 -0.0120 -0.2604 -0.1681
 6680SOL    HW131502   0.053   3.443   2.178  0.6688  1.7226 -2.7422
 6680SOL    HW231503   0.052   3.290   2.178 -1.3829 -0.7384 -1.1216
 6681SOL     OW31504   1.340   4.577   0.737  0.2611 -0.5723 -0.2950
 6681SOL    HW131505   1.353   4.499   0.790  1.9864 -0.6230 -0.8095
 6681SOL    HW231506   1.314   4.539   0.653  1.9457 -2.0600 -0.1246
 6682SOL     OW31507   4.246   1.644   8.362  0.1282  0.1417 -0.1649
 6682SOL    HW131508   4.235   1.722   8.416 -1.6955  0.9342 -1.6754
 6682SOL    HW231509   4.236   1.573   8.425 -0.6884 -0.0706 -0.5405
 6683SOL     OW31510   4.250   1.463  17.552 -0.1573  0.1234  0.4614
 6683SOL    HW131511   4.170   1.443  17.601  1.3337  0.5640  3.0902
 6683SOL    HW231512   4.207   1.471  17.467 -1.0831  5.6558  1.5122
 6684SOL     OW31513   3.863   1.634   6.878  0.0158  0.0659  0.2656
 6684SOL    HW131514   3.861   1.723   6.912 -0.0729  0.2962 -0.3382
 6684SOL    HW231515   3.951   1.627   6.841 -0.0031  0.8749  0.0769
 6685SOL     OW31516   0.251   0.645   3.563 -0.2142  0.0565  0.4494
 6685SOL    HW131517   0.259   0.592   3.483 -2.3711  1.4232 -0.6326
 6685SOL    HW231518   0.267   0.732   3.526  1.0362 -0.4358 -0.1881
 6686SOL     OW31519   0.823   4.182  14.753  0.3875 -0.3245  0.6249
 6686SOL    HW131520   0.806   4.187  14.847  3.3078  2.3148  1.0017
 6686SOL    HW231521   0.786   4.263  14.718  1.9070 -0.4414 -1.2741
 6687SOL     OW31522   2.715   4.468   8.160 -0.2440  0.4566 -0.1869
 6687SOL    HW131523   2.731   4.382   8.121  0.7629  0.9626 -0.8749
 6687SOL    HW231524   2.802   4.488   8.194  0.7410  0.0880 -2.5083
 6688SOL     OW31525   1.086   0.601   5.922  0.2250 -0.0520  0.1069
 6688SOL    HW131526   1.110   0.533   5.985  0.0689  0.7644  1.0501
 6688SOL    HW231527   1.143   0.670   5.957 -2.4745  2.0552  0.3500
 6689SOL     OW31528   0.220   3.115   4.264 -0.1200 -1.2023 -0.0555
 6689SOL    HW131529   0.290   3.174   4.292 -1.0395 -0.1643  0.0640
 6689SOL    HW231530   0.175   3.176   4.207 -1.5685 -1.5756  0.6862
 6690SOL     OW31531   0.573   3.804  14.042 -0.1079  0.3549 -0.2309
 6690SOL    HW131532   0.640   3.774  14.103  0.3942  0.9012 -0.5163
 6690SOL    HW231533   0.563   3.897  14.066  0.1097  0.4243 -0.4120
 6691SOL     OW31534   2.947   0.302  14.238  0.4338 -0.0989  0.7513
 6691SOL    HW131535   2.923   0.271  14.151 -1.8382  0.1832  1.2699
 6691SOL    HW231536   2.968   0.394  14.225 -1.4026  0.3532  1.0376
 6692SOL     OW31537   2.031   4.721   0.859 -0.0098  0.4743  0.0985
 6692SOL    HW131538   1.950   0.005   0.908 -0.8075  1.6388 -1.4991
 6692SOL    HW231539   2.086   4.689   0.931  0.6327  2.1577  0.3658
 6693SOL     OW31540   3.929   3.479  13.914  0.1560 -0.3127  0.7390
 6693SOL    HW131541   3.863   3.541  13.884  0.2297  0.0013  1.2138
 6693SOL    HW231542   3.953   3.542  13.982 -1.5322  2.3572 -1.1697
 6694SOL     OW31543   3.456   4.529   2.556  0.2062  0.4859  0.3441
 6694SOL    HW131544   3.533   4.510   2.503  0.2067  0.1947  0.4521
 6694SOL    HW231545   3.395   4.466   2.518 -0.2794  2.2332 -1.7792
 6695SOL     OW31546   3.882   1.038   8.369  0.2229 -0.0898  0.4378
 6695SOL    HW131547   3.949   1.084   8.418  2.8853 -0.8829 -2.4526
 6695SOL    HW231548   3.833   1.113   8.337 -1.1644 -1.2700 -0.2310
 6696SOL     OW31549   0.347   0.170   8.175  0.1003  0.0917 -0.1909
 6696SOL    HW131550   0.344   0.266   8.167  0.1455 -0.0023 -1.2905
 6696SOL    HW231551   0.390   0.134   8.098 -0.0807 -1.0456  0.2480
 6697SOL     OW31552   4.595   0.387   0.060  0.0120  0.0937 -0.6319
 6697SOL    HW131553   4.625   0.449  17.702  0.8868  1.2502  0.8576
 6697SOL    HW231554   4.665   0.323   0.046  0.3237  0.5909 -1.3241
 6698SOL     OW31555   1.974   3.245   3.035  0.1352 -0.8451  0.0825
 6698SOL    HW131556   1.882   3.233   3.011 -0.3407  1.3537  0.7493
 6698SOL    HW231557   1.988   3.330   2.993 -0.4655 -2.4088 -3.2585
 6699SOL     OW31558   1.235   2.423   6.094 -0.1212  0.2231 -0.0968
 6699SOL    HW131559   1.252   2.459   6.008 -1.0949  3.2519  0.9836
 6699SOL    HW231560   1.141   2.404   6.091 -0.7138  2.9145  1.0500
 6700SOL     OW31561   2.098   0.510   4.206 -0.0042  0.2227 -0.5284
 6700SOL    HW131562   2.062   0.460   4.279  0.9082  0.9434  0.4094
 6700SOL    HW231563   2.075   0.600   4.228  1.1406  0.0572  1.3072
 6701SOL     OW31564   0.062   4.626  17.270  0.5064 -0.7396  0.1187
 6701SOL    HW131565   0.118   4.565  17.318 -0.5269  0.4644  2.8612
 6701SOL    HW231566   0.074   4.703  17.326 -0.4624 -0.6541  0.1995
 6702SOL     OW31567   2.373   1.464   2.167  0.2917  0.5378 -0.0252
 6702SOL    HW131568   2.457   1.503   2.143  1.1057  0.1537  2.2780
 6702SOL    HW231569   2.346   1.429   2.082  1.4169  1.5909 -0.8121
 6703SOL     OW31570   2.690   1.242   6.856  0.9323  0.0667 -0.2722
 6703SOL    HW131571   2.716   1.310   6.919 -3.0454 -1.0487  2.6161
 6703SOL    HW231572   2.748   1.248   6.781  0.9917  3.5386  0.0541
 6704SOL     OW31573   1.475   3.403  15.915  0.3080  0.2740 -0.0689
 6704SOL    HW131574   1.469   3.478  15.974 -1.3235  0.4333 -0.4320
 6704SOL    HW231575   1.433   3.441  15.837  0.6657  2.7116  0.9364
 6705SOL     OW31576   0.893   3.046  14.421  0.6628 -0.5607  0.6082
 6705SOL    HW131577   0.847   3.130  14.417  1.9233  0.0717 -0.6248
 6705SOL    HW231578   0.922   3.025  14.332  3.1756 -0.1822  1.3570
 6706SOL     OW31579   1.457   3.677   2.472  0.0679  0.5395 -0.1780
 6706SOL    HW131580   1.401   3.749   2.444 -1.0299 -0.7429 -1.3123
 6706SOL    HW231581   1.393   3.634   2.530 -0.0236  0.1383 -0.5700
 6707SOL     OW31582   4.053   3.512  14.924 -0.3738 -0.4393 -0.0679
 6707SOL    HW131583   4.113   3.587  14.932 -3.0657  1.9375 -2.1435
 6707SOL    HW231584   4.052   3.492  15.018 -0.9546 -1.5055 -0.3007
 6708SOL     OW31585   1.499   0.690   5.681  0.6896 -0.3916  0.4783
 6708SOL    HW131586   1.432   0.708   5.615 -0.4592  0.4043  1.8468
 6708SOL    HW231587   1.561   0.763   5.672  1.4147 -1.1200 -0.4209
 6709SOL     OW31588   0.309   3.927  10.738 -0.1947 -0.5992 -0.1190
 6709SOL    HW131589   0.376   3.875  10.782 -0.7511 -2.3768 -1.3682
 6709SOL    HW231590   0.290   3.880  10.656  0.3001 -1.7228  0.4003
 6710SOL     OW31591   0.895   3.191   1.839 -0.3125  0.1470 -0.3367
 6710SOL    HW131592   0.919   3.124   1.902  0.5095  1.1868  0.4611
 6710SOL    HW231593   0.980   3.214   1.800  1.1739 -0.6372  2.4105
 6711SOL     OW31594   2.845   0.972  14.315  0.0367  0.8574 -0.2058
 6711SOL    HW131595   2.766   0.968  14.262  1.4138 -3.8104 -1.8929
 6711SOL    HW231596   2.876   1.061  14.300 -0.1840  1.5530  3.5287
 6712SOL     OW31597   1.691   1.787   8.790 -0.1010 -0.0445 -0.4550
 6712SOL    HW131598   1.742   1.867   8.804  0.0266 -0.7303  3.1868
 6712SOL    HW231599   1.604   1.819   8.766  0.9951  2.1188 -1.5725
 6713SOL     OW31600   2.291   3.597   2.925 -0.1969 -0.8616 -0.1645
 6713SOL    HW131601   2.310   3.666   2.988 -0.5752 -0.9346  0.0284
 6713SOL    HW231602   2.369   3.541   2.929  0.4482  0.3391  3.5760
 6714SOL     OW31603   1.722   4.430   6.015 -0.0985  0.4782 -0.2771
 6714SOL    HW131604   1.629   4.419   6.034  0.0652  1.5606  1.1247
 6714SOL    HW231605   1.752   4.339   6.009 -0.7745 -0.0395  3.6706
 6715SOL     OW31606   4.520   4.069  12.629  0.2513  0.0761 -0.1195
 6715SOL    HW131607   4.580   4.110  12.567  1.4138 -0.7943  0.4367
 6715SOL    HW231608   4.561   4.082  12.715 -1.4941  0.0579  0.7169
 6716SOL     OW31609   3.679   3.606   5.979 -0.6523 -0.3700  0.1024
 6716SOL    HW131610   3.638   3.603   6.066 -0.0330 -1.3736  0.3584
 6716SOL    HW231611   3.692   3.513   5.962 -0.2903 -0.5452  1.3090
 6717SOL     OW31612   0.100   3.524   1.001 -0.4141  0.3250  0.2240
 6717SOL    HW131613   0.184   3.492   1.034 -0.1154 -0.2171 -1.0763
 6717SOL    HW231614   0.049   3.445   1.013 -0.6572  0.3705 -0.5379
 6718SOL     OW31615   1.225   3.254   5.022  0.4049 -0.4265 -0.6212
 6718SOL    HW131616   1.232   3.235   5.115  4.1043  0.5343 -0.6856
 6718SOL    HW231617   1.226   3.350   5.022 -1.7601 -0.4244  0.6238
 6719SOL     OW31618   2.098   3.863   0.169  0.6167 -0.0585  0.8710
 6719SOL    HW131619   2.174   3.865   0.228  0.3335 -0.0809  1.2345
 6719SOL    HW231620   2.149   3.897   0.096 -2.8022  2.1690 -0.4782
 6720SOL     OW31621   2.238   2.357   4.757 -0.1870  0.5674  0.6927
 6720SOL    HW131622   2.235   2.351   4.852 -1.2704  0.5746  0.6593
 6720SOL    HW231623   2.159   2.308   4.737 -0.4319  1.1698  0.1650
 6721SOL     OW31624   2.603   2.538   8.210 -0.2800  0.0445  0.0475
 6721SOL    HW131625   2.577   2.630   8.215  1.8678  0.5607  2.2686
 6721SOL    HW231626   2.671   2.533   8.278 -2.3288 -2.6186  1.9110
 6722SOL     OW31627   0.555   2.767   7.751 -0.4810 -0.2376 -0.2369
 6722SOL    HW131628   0.581   2.800   7.666  2.0767 -1.7621 -0.0238
 6722SOL    HW231629   0.501   2.841   7.780  2.9198  2.0161  0.4159
 6723SOL     OW31630   0.568   1.101   3.869  0.3141 -0.1274  0.0836
 6723SOL    HW131631   0.596   1.011   3.890  1.0729  0.0194 -0.2911
 6723SOL    HW231632   0.480   1.087   3.835  1.0112 -1.4931 -1.1596
 6724SOL     OW31633   3.730   2.062   1.280 -0.3655  0.3022  0.1517
 6724SOL    HW131634   3.709   1.979   1.322  5.0045 -0.3397  1.5217
 6724SOL    HW231635   3.690   2.126   1.339  0.9481  0.3790  0.9681
 6725SOL     OW31636   3.667   1.382   1.723 -0.3662 -0.0896 -0.4793
 6725SOL    HW131637   3.682   1.469   1.686 -0.4315  0.0113 -0.2686
 6725SOL    HW231638   3.618   1.331   1.659 -2.6579  1.8490 -0.2895
 6726SOL     OW31639   2.986   0.948  13.689 -0.0445 -0.8883  1.1165
 6726SOL    HW131640   2.905   0.949  13.739 -0.0424 -0.4594  1.1134
 6726SOL    HW231641   3.033   1.011  13.744  2.7751 -0.8265 -1.3117
 6727SOL     OW31642   4.456   2.905   6.495 -0.0005 -0.0576 -0.1929
 6727SOL    HW131643   4.457   2.883   6.588  1.6298 -0.1840 -0.2420
 6727SOL    HW231644   4.521   2.975   6.492  0.9218 -0.9487 -1.0618
 6728SOL     OW31645   2.646   2.229   8.250  0.3197  0.4769 -0.2535
 6728SOL    HW131646   2.577   2.213   8.186  0.2758 -0.2871 -0.0130
 6728SOL    HW231647   2.666   2.320   8.227 -0.9146  0.5492 -1.0212
 6729SOL     OW31648   4.186   2.022   6.892 -0.3497 -0.0190  0.3338
 6729SOL    HW131649   4.104   2.024   6.842 -1.2085  1.6353  1.8335
 6729SOL    HW231650   4.185   2.116   6.908  1.1685 -0.3188  2.1288
 6730SOL     OW31651   1.328   3.538   9.284  0.2689 -0.2552 -0.0619
 6730SOL    HW131652   1.358   3.514   9.372 -1.9902 -0.1456  0.7501
 6730SOL    HW231653   1.237   3.562   9.305  0.2609  1.8488 -2.4699
 6731SOL     OW31654   0.411   3.374   6.872  0.3015  0.3615  0.6676
 6731SOL    HW131655   0.321   3.395   6.848 -0.1370 -0.4954  1.5260
 6731SOL    HW231656   0.459   3.427   6.809 -0.2343 -0.8920 -0.7948
 6732SOL     OW31657   3.714   1.280  11.513 -0.3314  0.6861  0.2383
 6732SOL    HW131658   3.778   1.332  11.464 -2.8407  3.0629 -0.5865
 6732SOL    HW231659   3.772   1.222  11.562 -0.9615 -0.7911 -0.7663
 6733SOL     OW31660   2.232   4.431   6.730 -0.4315  0.2911 -0.0786
 6733SOL    HW131661   2.218   4.372   6.804 -2.8936  2.5983  1.2856
 6733SOL    HW231662   2.148   4.477   6.728 -0.2651  0.4826 -2.8720
 6734SOL     OW31663   3.040   0.110   6.526  0.4411 -0.0527  0.8440
 6734SOL    HW131664   3.013   0.019   6.534 -0.0951 -0.0549 -0.9100
 6734SOL    HW231665   2.979   0.157   6.584 -0.4787 -1.0303  0.6685
 6735SOL     OW31666   0.036   2.016  10.885  0.3886  1.1231 -0.9036
 6735SOL    HW131667   4.688   2.061  10.845 -3.2274 -0.3510  4.2728
 6735SOL    HW231668   0.045   2.060  10.969  1.8367 -0.6876 -0.1056
 6736SOL     OW31669   3.871   2.747  14.031 -0.4539 -0.2347 -0.1550
 6736SOL    HW131670   3.848   2.773  13.942  1.7582 -1.6811 -1.1353
 6736SOL    HW231671   3.881   2.834  14.070  1.5074 -1.3285  1.7631
 6737SOL     OW31672   3.911   3.770   8.684 -0.6252 -0.2516  0.3564
 6737SOL    HW131673   3.935   3.862   8.696 -0.4776 -0.2523  0.0795
 6737SOL    HW231674   3.916   3.763   8.588 -1.5781 -1.2768  0.3888
 6738SOL     OW31675   2.949   2.297   2.278  0.3081  0.3944 -0.0290
 6738SOL    HW131676   2.990   2.232   2.335 -0.6384  0.5874  0.8582
 6738SOL    HW231677   3.016   2.299   2.209  0.4938 -0.9907  0.1008
 6739SOL     OW31678   4.056   4.623  13.453  0.6947  0.3266  0.2075
 6739SOL    HW131679   4.019   4.651  13.370 -0.9643  0.3203  0.9415
 6739SOL    HW231680   4.036   4.698  13.509 -1.1903  0.1239 -0.2066
 6740SOL     OW31681   4.275   1.410   2.447  0.3585  0.4380  0.6575
 6740SOL    HW131682   4.295   1.359   2.525  0.6285 -1.8336 -0.8915
 6740SOL    HW231683   4.306   1.342   2.388 -0.6395  1.2307 -0.7809
 6741SOL     OW31684   1.465   4.160   4.871  0.0092  0.4305 -0.1988
 6741SOL    HW131685   1.549   4.140   4.913  0.0517  0.6464 -0.1798
 6741SOL    HW231686   1.493   4.206   4.792  1.8092 -1.1907 -0.4900
 6742SOL     OW31687   1.599   0.682  16.549  0.6830  0.6665 -0.3352
 6742SOL    HW131688   1.655   0.726  16.485  3.5094 -1.6519  0.5513
 6742SOL    HW231689   1.666   0.636  16.600  0.4466 -0.7499 -1.3174
 6743SOL     OW31690   1.501   0.456   0.570 -0.2485  0.2086 -0.3131
 6743SOL    HW131691   1.534   0.370   0.544  3.1942  1.0295  1.4209
 6743SOL    HW231692   1.409   0.431   0.583  0.6054 -1.0680  3.0855
 6744SOL     OW31693   3.132   0.999   4.507  0.8495 -0.1353 -0.0122
 6744SOL    HW131694   3.167   1.063   4.445 -1.6692  0.2375 -1.0384
 6744SOL    HW231695   3.096   1.062   4.570  3.4383  2.4791 -1.1347
 6745SOL     OW31696   4.087   2.175   0.076 -0.6183 -0.1604 -0.9154
 6745SOL    HW131697   4.146   2.131   0.138 -2.3776 -0.6420  0.3931
 6745SOL    HW231698   4.151   2.221   0.021  1.6035 -1.2370  0.8034
 6746SOL     OW31699   3.170   2.141  14.745  0.1033  0.1095 -0.4075
 6746SOL    HW131700   3.211   2.059  14.719 -0.5590 -0.7937  1.3920
 6746SOL    HW231701   3.243   2.202  14.730  1.5806 -1.8089 -0.9153
 6747SOL     OW31702   3.244   2.854   3.408  0.3258  0.5662  0.5357
 6747SOL    HW131703   3.237   2.858   3.503  1.2196  0.9265  0.5880
 6747SOL    HW231704   3.162   2.902   3.393 -0.6438 -1.6111 -1.0733
 6748SOL     OW31705   1.378   3.120  12.245  0.3244  0.8523 -0.2700
 6748SOL    HW131706   1.318   3.045  12.244  0.1273  1.0195 -1.6471
 6748SOL    HW231707   1.448   3.097  12.184 -0.1980  0.5295 -0.7508
 6749SOL     OW31708   2.245   2.505   7.295 -0.1943 -0.5002  0.3951
 6749SOL    HW131709   2.311   2.503   7.365  0.7534  1.4602 -0.4524
 6749SOL    HW231710   2.279   2.575   7.240 -1.2927  0.8680  1.4456
 6750SOL     OW31711   1.883   4.619  16.266 -0.2331  0.1485  0.4762
 6750SOL    HW131712   1.948   4.643  16.332  1.8243 -1.3226 -0.9871
 6750SOL    HW231713   1.865   4.702  16.221  1.2627 -0.3828 -1.1300
 6751SOL     OW31714   4.339   1.586   4.512  0.5263 -0.1614  0.3724
 6751SOL    HW131715   4.354   1.677   4.538 -3.6617  0.4196  0.7915
 6751SOL    HW231716   4.427   1.552   4.500 -0.0057 -1.2097 -0.6058
 6752SOL     OW31717   3.309   3.596   6.598 -0.0720 -0.1424  0.2441
 6752SOL    HW131718   3.291   3.505   6.575  2.0107 -0.3527 -0.5334
 6752SOL    HW231719   3.224   3.640   6.608  0.9450  1.6718  0.9521
 6753SOL     OW31720   0.927   1.500   3.175  0.0752 -0.2618 -0.3657
 6753SOL    HW131721   0.894   1.579   3.132 -2.5020 -1.3042 -0.3150
 6753SOL    HW231722   1.019   1.521   3.161  0.5462 -1.5411  0.8242
 6754SOL     OW31723   3.828   2.694   3.896  0.1312 -0.2400 -0.5378
 6754SOL    HW131724   3.908   2.737   3.925 -0.3208 -0.0464  0.4248
 6754SOL    HW231725   3.816   2.743   3.814  0.1938  0.4921 -0.1026
 6755SOL     OW31726   3.623   1.921   5.246  0.1390  0.0093 -0.2245
 6755SOL    HW131727   3.664   1.887   5.166  3.1871  0.6386  1.0833
 6755SOL    HW231728   3.541   1.873   5.259  1.1806 -1.5025  0.7888
 6756SOL     OW31729   0.026   1.867   8.596 -0.0454 -0.2731 -0.3353
 6756SOL    HW131730   0.046   1.774   8.607 -0.5557 -0.1572  1.5369
 6756SOL    HW231731   0.007   1.898   8.684  2.7828 -0.2789  0.2814
 6757SOL     OW31732   4.312   0.395   5.295  0.4388 -0.5035 -0.4242
 6757SOL    HW131733   4.231   0.369   5.339  0.3901  2.0640  1.0172
 6757SOL    HW231734   4.377   0.365   5.359 -0.2775 -1.1754 -0.0183
 6758SOL     OW31735   4.485   4.504   1.455  0.4432 -0.2862  0.5251
 6758SOL    HW131736   4.508   4.411   1.452  0.2073 -0.2965 -1.0244
 6758SOL    HW231737   4.439   4.512   1.371  1.6576  0.2203 -0.1001
 6759SOL     OW31738   3.433   1.194  13.669  0.2173  0.3774 -0.8379
 6759SOL    HW131739   3.377   1.186  13.747  2.5700  1.1059  0.9244
 6759SOL    HW231740   3.408   1.281  13.639  0.1021  0.3932 -0.6930
 6760SOL     OW31741   1.335   0.733   8.830  0.2936  0.0124 -0.3398
 6760SOL    HW131742   1.418   0.727   8.783  0.3741 -1.2312 -0.0279
 6760SOL    HW231743   1.347   0.806   8.891  1.2465 -0.0835 -0.4230
 6761SOL     OW31744   4.409   0.643  15.782 -0.4409 -1.0500  0.0823
 6761SOL    HW131745   4.378   0.554  15.765 -0.0117 -0.7600 -2.2343
 6761SOL    HW231746   4.342   0.674  15.843  0.4595  1.9491 -0.4449
 6762SOL     OW31747   0.034   0.106  14.794  0.0483 -0.3129 -0.6585
 6762SOL    HW131748   0.084   0.138  14.719  0.5093 -0.0116 -0.2215
 6762SOL    HW231749   0.082   0.025  14.808 -3.4272 -2.0334  1.3815
 6763SOL     OW31750   1.631   1.118   6.358 -0.4986 -0.1489 -0.2596
 6763SOL    HW131751   1.721   1.110   6.390 -0.7536  0.1114  0.5296
 6763SOL    HW231752   1.638   1.207   6.323 -1.6600  0.7485  1.7466
 6764SOL     OW31753   1.300   4.399  11.320  0.1050  0.1905 -0.1090
 6764SOL    HW131754   1.276   4.479  11.369 -0.0018  0.3219 -0.3735
 6764SOL    HW231755   1.394   4.392  11.333 -0.0544  0.3067  1.1253
 6765SOL     OW31756   3.165   1.793   2.734  0.5403  0.7062 -0.3898
 6765SOL    HW131757   3.241   1.841   2.700  1.5107  0.2122  1.0674
 6765SOL    HW231758   3.176   1.705   2.697  0.0696  0.7420 -0.6148
 6766SOL     OW31759   4.252   4.558   8.738 -0.0982 -0.3511  0.4177
 6766SOL    HW131760   4.342   4.531   8.760 -0.7226 -0.0663  3.3335
 6766SOL    HW231761   4.273   4.644   8.702  1.3722 -0.2229  1.5334
 6767SOL     OW31762   1.131   4.538  12.864  0.6471 -0.1663  0.6152
 6767SOL    HW131763   1.081   4.485  12.802  1.5820 -1.2276  0.7729
 6767SOL    HW231764   1.074   4.524  12.940  0.3093 -1.1992  0.1713
 6768SOL     OW31765   4.488   1.761  10.114  0.4474 -0.1666 -0.2061
 6768SOL    HW131766   4.502   1.698  10.043 -0.4872 -3.2668  2.3645
 6768SOL    HW231767   4.478   1.844  10.067  0.7158 -1.2087 -2.1324
 6769SOL     OW31768   2.200   1.101   8.318  0.7764  0.4696 -0.1848
 6769SOL    HW131769   2.189   1.025   8.260  1.8047 -0.8804  1.3912
 6769SOL    HW231770   2.129   1.154   8.282 -0.1909 -0.7016  0.0091
 6770SOL     OW31771   0.370   2.758   2.783  0.2373 -1.0750 -0.2129
 6770SOL    HW131772   0.339   2.796   2.865  0.3178  1.2589 -1.2638
 6770SOL    HW231773   0.355   2.830   2.721  0.7136 -1.3473 -0.6472
 6771SOL     OW31774   3.582   0.599  10.209  0.2161  0.3650 -0.0572
 6771SOL    HW131775   3.557   0.507  10.200  0.1212  0.4050 -0.1998
 6771SOL    HW231776   3.677   0.599  10.218  0.1409 -2.0393  0.5493
 6772SOL     OW31777   0.332   0.327   1.724 -0.3741  0.4684  0.4813
 6772SOL    HW131778   0.383   0.267   1.669  0.8150  2.6380 -0.8123
 6772SOL    HW231779   0.294   0.380   1.654  2.5006 -0.5450 -1.9006
 6773SOL     OW31780   2.244   0.993   1.651 -0.6146 -0.0048 -0.6524
 6773SOL    HW131781   2.231   0.938   1.574  1.2238  1.0993 -1.7415
 6773SOL    HW231782   2.221   0.926   1.714 -0.4480  0.6583  0.1123
 6774SOL     OW31783   0.412   3.232   7.297 -0.2495 -0.2575  0.1430
 6774SOL    HW131784   0.349   3.167   7.330 -0.0138  0.0089  1.1016
 6774SOL    HW231785   0.349   3.264   7.232 -1.5400 -1.3847  0.8136
 6775SOL     OW31786   4.277   2.788   6.263 -0.2014 -0.0855 -0.3219
 6775SOL    HW131787   4.320   2.832   6.336  0.0616  0.2728 -0.6968
 6775SOL    HW231788   4.249   2.707   6.307  0.2933 -0.2694 -0.3457
 6776SOL     OW31789   3.784   0.522   4.910 -0.3194 -0.1509 -0.2504
 6776SOL    HW131790   3.847   0.500   4.979 -0.3336  0.6904  0.0235
 6776SOL    HW231791   3.720   0.569   4.963  0.9194  0.0590  1.0664
 6777SOL     OW31792   2.004   2.795   2.890 -0.0273 -0.0275 -0.3209
 6777SOL    HW131793   2.001   2.813   2.796  0.8415  0.2430 -0.3035
 6777SOL    HW231794   2.041   2.708   2.901 -0.7056  0.2687  4.1600
 6778SOL     OW31795   4.492   3.990   3.983  0.0352 -0.3738 -0.2029
 6778SOL    HW131796   4.505   3.895   3.982 -2.2930 -0.6901 -2.0598
 6778SOL    HW231797   4.398   4.002   3.968  0.0828  2.3447  1.7099
 6779SOL     OW31798   2.265   0.392   3.757 -0.6031 -0.3185 -0.0592
 6779SOL    HW131799   2.187   0.427   3.800 -1.4515 -0.8072 -1.2082
 6779SOL    HW231800   2.229   0.378   3.669 -1.1775 -0.7823  0.2482
 6780SOL     OW31801   2.261   2.274   1.109  0.1379  0.0398 -0.1964
 6780SOL    HW131802   2.305   2.343   1.157  1.4056 -0.1863 -1.0364
 6780SOL    HW231803   2.297   2.196   1.151 -0.9707  0.0963  0.8653
 6781SOL     OW31804   1.624   2.292   1.962 -0.3474 -0.2270  0.2135
 6781SOL    HW131805   1.719   2.305   1.966 -0.5875  1.8763 -0.5405
 6781SOL    HW231806   1.611   2.217   1.904  3.3902 -0.5637 -0.1880
 6782SOL     OW31807   3.488   1.390   3.929  0.2043  0.0288  0.1564
 6782SOL    HW131808   3.441   1.320   3.975  1.7613 -0.4898  0.9955
 6782SOL    HW231809   3.429   1.434   3.869  1.8237  1.2557 -0.5491
 6783SOL     OW31810   3.675   1.546   7.164  0.4450 -0.1322  0.5391
 6783SOL    HW131811   3.700   1.473   7.106  1.2896  2.3120 -2.2151
 6783SOL    HW231812   3.735   1.547   7.239 -0.6521  4.0368  1.3577
 6784SOL     OW31813   2.129   1.682   8.887 -0.5790 -0.6564 -0.3320
 6784SOL    HW131814   2.078   1.720   8.958  0.0440 -0.0098 -0.2279
 6784SOL    HW231815   2.059   1.643   8.836 -0.5152  0.2564 -1.1159
 6785SOL     OW31816   4.404   2.602   9.213  0.8771  0.1815  0.3865
 6785SOL    HW131817   4.331   2.556   9.172  1.9686 -0.1708 -1.1644
 6785SOL    HW231818   4.462   2.526   9.222  2.2635  1.2880  0.7772
 6786SOL     OW31819   0.950   3.552  11.431 -0.2075  0.0860  0.2499
 6786SOL    HW131820   0.889   3.500  11.483  1.3554 -1.7276  0.2562
 6786SOL    HW231821   0.932   3.510  11.346  0.2381  0.0503  0.1745
 6787SOL     OW31822   2.804   0.805   7.924 -1.0046  0.0361  0.8272
 6787SOL    HW131823   2.826   0.812   7.832 -2.3378  4.5595  0.8921
 6787SOL    HW231824   2.718   0.847   7.915  0.4426  2.4765 -1.4098
 6788SOL     OW31825   4.660   3.600   0.472 -0.0270  1.3704  0.0056
 6788SOL    HW131826   4.580   3.564   0.433  0.5899 -1.7885  1.6500
 6788SOL    HW231827   4.687   3.652   0.397  3.3361 -0.4806 -0.0691
 6789SOL     OW31828   1.557   4.496   2.365 -0.4276 -0.0548 -0.3319
 6789SOL    HW131829   1.465   4.519   2.352 -0.2003  0.0587 -1.7667
 6789SOL    HW231830   1.606   4.546   2.300  0.4247 -1.2144 -0.5906
 6790SOL     OW31831   4.177   1.228   9.592  0.0281 -0.4753  0.3516
 6790SOL    HW131832   4.128   1.164   9.643  1.2054 -2.5188 -1.1055
 6790SOL    HW231833   4.260   1.184   9.575  0.5430  1.2338 -1.5423
 6791SOL     OW31834   3.168   1.633   2.219 -0.3348  0.1588 -0.2177
 6791SOL    HW131835   3.151   1.539   2.211 -0.6040  0.2858 -1.2163
 6791SOL    HW231836   3.264   1.632   2.222 -0.3555 -0.2235  0.3055
 6792SOL     OW31837   2.582   0.932   8.671 -0.3885  0.4228 -0.2109
 6792SOL    HW131838   2.579   1.026   8.650 -1.3942  0.4640  0.1001
 6792SOL    HW231839   2.566   0.891   8.587  0.4272 -0.3279  0.0100
 6793SOL     OW31840   2.249   1.425  11.748  0.3651 -0.5820 -0.0833
 6793SOL    HW131841   2.202   1.429  11.832  1.0614 -1.4658  0.3425
 6793SOL    HW231842   2.340   1.415  11.775  0.4564  0.0969 -0.1536
 6794SOL     OW31843   2.961   3.049  13.965  0.3485 -0.2891  0.0278
 6794SOL    HW131844   3.021   3.100  14.019 -0.4853  1.2779 -0.4920
 6794SOL    HW231845   2.956   2.972  14.021  0.2689 -1.8648 -2.1231
 6795SOL     OW31846   3.726   0.441   1.014  0.1028 -0.1321  0.0188
 6795SOL    HW131847   3.643   0.468   0.974  0.0493 -1.0642 -0.5161
 6795SOL    HW231848   3.784   0.495   0.962  2.3479 -1.5062  1.0979
 6796SOL     OW31849   3.081   3.476  15.338  0.1059 -0.0773 -0.0260
 6796SOL    HW131850   3.132   3.556  15.353  1.9189 -0.9871 -1.3642
 6796SOL    HW231851   2.990   3.506  15.335  0.2102 -0.2473 -4.9433
 6797SOL     OW31852   0.168   2.616   3.481  0.6158 -0.0355 -0.6236
 6797SOL    HW131853   0.260   2.589   3.480  0.2779 -1.2375  1.9256
 6797SOL    HW231854   0.117   2.547   3.523  0.2798  0.9031  0.5205
 6798SOL     OW31855   2.085   2.920   8.046 -0.2337 -0.2972 -0.4144
 6798SOL    HW131856   2.058   2.885   7.961 -2.6221  0.2302  0.1251
 6798SOL    HW231857   2.133   2.850   8.091 -1.9578 -0.5612  1.0003
 6799SOL     OW31858   3.018   2.448   8.041 -0.3120  0.3391  0.7109
 6799SOL    HW131859   3.045   2.366   8.081  1.2671 -0.0113 -1.0847
 6799SOL    HW231860   3.040   2.504   8.116 -1.5177  0.3419  1.0711
 6800SOL     OW31861   2.661   3.630   7.626  0.0794  0.2572  0.2538
 6800SOL    HW131862   2.711   3.671   7.556 -0.2668 -0.7361 -0.5871
 6800SOL    HW231863   2.669   3.537   7.604  0.7774  0.5818 -0.8239
 6801SOL     OW31864   1.615   0.746   4.893 -0.3255  0.0349  0.4244
 6801SOL    HW131865   1.590   0.832   4.926  0.7669  0.4311  0.2109
 6801SOL    HW231866   1.594   0.747   4.799 -0.4484  0.8903  0.4579
 6802SOL     OW31867   4.655   2.047   7.107 -0.4224  0.4062  0.2961
 6802SOL    HW131868   4.672   2.044   7.201 -0.1980 -0.9751  0.2075
 6802SOL    HW231869   4.560   2.057   7.105 -0.3981  0.5157 -0.6775
 6803SOL     OW31870   3.525   4.458  10.234  0.0558 -1.0329  0.0907
 6803SOL    HW131871   3.505   4.521  10.164 -1.2787 -0.7009  0.7662
 6803SOL    HW231872   3.584   4.508  10.290 -1.8422  1.2400  0.0898
 6804SOL     OW31873   0.571   3.699   8.883  0.2767 -0.0622  0.9043
 6804SOL    HW131874   0.547   3.787   8.854  0.7834  0.8625  3.3138
 6804SOL    HW231875   0.666   3.705   8.889  0.2498  0.2271  1.0044
 6805SOL     OW31876   3.393   2.642  15.498 -0.3316  0.5825 -0.0558
 6805SOL    HW131877   3.355   2.626  15.585 -1.1123 -1.1551 -0.7115
 6805SOL    HW231878   3.337   2.712  15.464 -1.0496  1.3392  2.6415
 6806SOL     OW31879   1.415   4.493   7.571  0.0385  0.1211 -0.1359
 6806SOL    HW131880   1.373   4.408   7.577  2.7244 -1.1210  1.4125
 6806SOL    HW231881   1.335   4.544   7.558 -0.1822 -0.1380  0.2046
 6807SOL     OW31882   3.300   0.051   6.947 -0.1539  0.1007  0.7958
 6807SOL    HW131883   3.207   0.057   6.926  0.3254 -2.1976 -2.0733
 6807SOL    HW231884   3.333   4.717   6.880  2.6827  2.2122  0.2857
 6808SOL     OW31885   1.271   0.308  12.024 -0.2799 -0.3439 -0.3281
 6808SOL    HW131886   1.239   0.372  11.961  0.6463  0.4233 -0.0112
 6808SOL    HW231887   1.342   0.357  12.065 -0.1731 -0.4029 -0.4413
 6809SOL     OW31888   2.129   0.131   0.139 -0.0453 -0.2225  0.2880
 6809SOL    HW131889   2.044   0.127   0.095 -0.7030 -0.5908  1.5820
 6809SOL    HW231890   2.105   0.144   0.231 -0.5821  1.0718 -0.0372
 6810SOL     OW31891   4.620   4.005   9.217  0.4382  0.2474 -0.2324
 6810SOL    HW131892   4.581   3.996   9.304  0.0151 -2.8557 -0.7305
 6810SOL    HW231893   4.694   4.062   9.238  1.9099 -1.2751 -1.2191
 6811SOL     OW31894   2.273   2.659   6.568  0.1337  0.0910 -0.3268
 6811SOL    HW131895   2.333   2.725   6.533  0.5404 -0.3367 -0.4411
 6811SOL    HW231896   2.282   2.691   6.658  0.2062  0.4033 -0.4418
 6812SOL     OW31897   2.987   3.511   9.248  0.5386  0.2086  0.2936
 6812SOL    HW131898   3.016   3.498   9.338  1.3181 -0.1528 -0.0129
 6812SOL    HW231899   3.074   3.502   9.210 -0.4413 -1.5071 -1.5493
 6813SOL     OW31900   1.997   1.280  11.640  0.6635  0.1486 -0.4442
 6813SOL    HW131901   2.053   1.350  11.607  0.3512  0.4825 -0.2607
 6813SOL    HW231902   1.986   1.222  11.565 -3.3793  0.9305 -0.4517
 6814SOL     OW31903   1.779   2.178   7.043  0.2246  0.5294  0.2497
 6814SOL    HW131904   1.873   2.162   7.056  0.3739  0.3533 -0.9963
 6814SOL    HW231905   1.730   2.144   7.117  1.1817  0.6001  0.9200
 6815SOL     OW31906   1.228   0.348   0.606 -0.0683 -0.3267  0.4213
 6815SOL    HW131907   1.156   0.287   0.625 -0.1483  0.1177  1.5681
 6815SOL    HW231908   1.201   0.428   0.653  0.1653  1.0377 -1.7676
 6816SOL     OW31909   0.949   1.144   5.956  0.0034  0.2322 -0.5788
 6816SOL    HW131910   1.017   1.089   5.995  0.9381  1.2683 -0.7775
 6816SOL    HW231911   0.963   1.109   5.868  0.0789 -0.5278 -0.2686
 6817SOL     OW31912   1.526   1.648  15.293 -0.2858 -0.3904 -0.4892
 6817SOL    HW131913   1.582   1.725  15.304 -3.6491  2.0538 -0.7831
 6817SOL    HW231914   1.465   1.656  15.366 -1.0018  0.1120 -1.1503
 6818SOL     OW31915   0.502   1.144  12.986  0.7343 -0.1474 -0.0141
 6818SOL    HW131916   0.501   1.154  12.891  0.2685 -2.5110 -0.2589
 6818SOL    HW231917   0.451   1.065  13.006  1.1115 -0.5311 -0.5493
 6819SOL     OW31918   0.914   2.532   2.409  0.0205  0.1876  0.1421
 6819SOL    HW131919   0.829   2.567   2.436 -0.3512  0.1177 -0.9332
 6819SOL    HW231920   0.967   2.610   2.393  0.8640 -0.6104 -0.9454
 6820SOL     OW31921   1.203   0.135   9.609 -0.5000 -0.0857 -0.4760
 6820SOL    HW131922   1.124   0.146   9.661  0.1550  2.8696 -0.1127
 6820SOL    HW231923   1.197   0.221   9.567 -1.7767 -0.1965 -0.5136
 6821SOL     OW31924   3.728   1.248   3.993  0.7468 -0.2763 -0.2251
 6821SOL    HW131925   3.644   1.293   3.979  0.5278 -1.2691 -2.1061
 6821SOL    HW231926   3.773   1.325   4.027 -1.8863  0.7911  0.8791
 6822SOL     OW31927   3.420   2.500   0.274 -0.2284  0.0556 -0.0229
 6822SOL    HW131928   3.499   2.449   0.251 -0.0583  0.9600 -1.4522
 6822SOL    HW231929   3.380   2.495   0.187  1.3103  1.3613 -0.8160
 6823SOL     OW31930   2.655   1.420  16.716 -0.4791 -0.4366 -0.1609
 6823SOL    HW131931   2.624   1.387  16.800 -1.7115 -2.1962 -1.3112
 6823SOL    HW231932   2.583   1.483  16.706  2.1082  2.9550  2.8472
 6824SOL     OW31933   2.459   3.087   3.950  0.1110  0.4212  0.1095
 6824SOL    HW131934   2.488   3.005   3.911 -3.2969  0.1341 -1.8632
 6824SOL    HW231935   2.448   3.071   4.044  2.2017 -2.9277 -0.2322
 6825SOL     OW31936   2.835   4.578  15.454  0.0586 -0.0912  0.1034
 6825SOL    HW131937   2.841   4.597  15.548  0.1611 -2.0857  0.5022
 6825SOL    HW231938   2.877   4.657  15.419 -2.0507  1.6333  1.4975
 6826SOL     OW31939   4.098   1.898   4.339  0.0537 -0.4750 -0.0818
 6826SOL    HW131940   4.120   1.825   4.397  1.0974 -1.0352 -1.2050
 6826SOL    HW231941   4.185   1.933   4.322 -0.4335 -0.0560 -1.6646
 6827SOL     OW31942   0.978   0.728   2.221 -0.0100  0.2214 -0.0227
 6827SOL    HW131943   0.906   0.668   2.238  1.5039 -1.5229  0.1683
 6827SOL    HW231944   0.989   0.712   2.128  0.9987  0.9598 -0.0339
 6828SOL     OW31945   0.321   4.088   2.716 -0.3515  0.4030  0.6997
 6828SOL    HW131946   0.281   4.133   2.790  0.1115  1.8616  0.0666
 6828SOL    HW231947   0.395   4.142   2.687  0.8684 -0.1968  2.7681
 6829SOL     OW31948   3.175   0.144   2.863  0.2717  0.2608 -0.0181
 6829SOL    HW131949   3.252   0.116   2.814  1.0663 -0.1527  1.4968
 6829SOL    HW231950   3.110   0.127   2.794 -1.7390 -2.4869  2.5284
 6830SOL     OW31951   3.331   4.317   8.447  0.4150 -0.3850  0.0055
 6830SOL    HW131952   3.282   4.272   8.515  0.6050 -1.6331 -0.6736
 6830SOL    HW231953   3.290   4.296   8.363 -2.1309  1.8599  0.6858
 6831SOL     OW31954   4.232   1.639   3.720  0.0407 -0.1525 -0.4241
 6831SOL    HW131955   4.285   1.580   3.773 -1.3101  0.7014  1.8677
 6831SOL    HW231956   4.159   1.581   3.697 -1.1207  0.8715  0.7247
 6832SOL     OW31957   1.569   1.990   6.700 -0.1703 -0.1193  0.1121
 6832SOL    HW131958   1.664   1.996   6.711 -0.3766  1.2895  0.9835
 6832SOL    HW231959   1.547   2.079   6.725 -0.2850  0.0845 -0.7210
 6833SOL     OW31960   0.161   1.964   6.588 -0.0573  0.0571 -0.2968
 6833SOL    HW131961   0.166   1.984   6.495 -2.2785 -0.5180 -0.5458
 6833SOL    HW231962   0.165   2.051   6.628 -0.9900  0.2536 -0.6329
 6834SOL     OW31963   4.061   3.231   3.679  0.3720  0.0349  0.4823
 6834SOL    HW131964   4.064   3.326   3.667 -2.3529  0.2291  1.1641
 6834SOL    HW231965   4.011   3.219   3.760 -0.7328 -0.7123 -0.3035
 6835SOL     OW31966   4.357   3.828  14.046  0.4147  0.2074 -0.0319
 6835SOL    HW131967   4.411   3.788  13.977 -0.0694  1.3377 -1.0587
 6835SOL    HW231968   4.325   3.751  14.094  2.0404 -1.2302 -1.2086
 6836SOL     OW31969   0.855   3.072  17.528 -0.2235  0.2850 -0.3316
 6836SOL    HW131970   0.918   3.009  17.561 -0.1850  1.7591  2.4180
 6836SOL    HW231971   0.850   3.128  17.605 -0.2266 -0.7544  0.4243
 6837SOL     OW31972   1.525   0.646   6.644  0.3468 -0.0160  0.6526
 6837SOL    HW131973   1.478   0.721   6.609  0.5919  0.4172  1.2396
 6837SOL    HW231974   1.473   0.569   6.621  0.0924 -0.5597  3.0455
 6838SOL     OW31975   4.303   0.265  12.566  0.1502  0.5351 -0.7876
 6838SOL    HW131976   4.294   0.236  12.475 -0.6818  1.4936 -1.0132
 6838SOL    HW231977   4.217   0.237  12.597  1.5171  0.2560  2.6498
 6839SOL     OW31978   0.911   1.689   2.950  0.4891 -0.2413 -0.5945
 6839SOL    HW131979   0.866   1.769   2.924  1.8683  1.1697  1.2832
 6839SOL    HW231980   0.980   1.669   2.886  2.1982 -0.1856  1.2213
 6840SOL     OW31981   1.241   0.182   7.468 -0.1330 -0.8099 -0.4062
 6840SOL    HW131982   1.163   0.212   7.420 -0.4148  1.0634  1.2175
 6840SOL    HW231983   1.237   0.246   7.539  1.0933 -0.1383 -0.9228
 6841SOL     OW31984   3.118   4.318   6.897 -0.1563  0.5262 -0.0497
 6841SOL    HW131985   3.078   4.358   6.820 -2.0885  1.2124  1.3183
 6841SOL    HW231986   3.096   4.392   6.954 -1.0931 -0.1004  0.4217
 6842SOL     OW31987   0.247   3.731  12.986 -0.2096 -0.4421 -0.0447
 6842SOL    HW131988   0.159   3.716  12.950  0.5898  0.0364 -2.2167
 6842SOL    HW231989   0.267   3.648  13.029  0.1573  0.3761  1.3435
 6843SOL     OW31990   2.788   1.234   8.326 -0.3193 -0.4682  0.1015
 6843SOL    HW131991   2.874   1.219   8.287 -0.5414 -1.0046 -0.1827
 6843SOL    HW231992   2.812   1.307   8.383  0.9070  0.4611 -1.6369
 6844SOL     OW31993   3.610   1.171   7.852  0.3474  0.0220  0.1589
 6844SOL    HW131994   3.521   1.140   7.867  0.5680 -1.1710 -0.9012
 6844SOL    HW231995   3.650   1.094   7.811  1.9367  2.2386 -2.4837
 6845SOL     OW31996   1.989   2.142   9.720  0.5226  0.1076 -0.1387
 6845SOL    HW131997   1.921   2.101   9.667 -0.8500  2.8417 -0.4698
 6845SOL    HW231998   2.012   2.223   9.675  2.1154 -0.2323  0.0587
 6846SOL     OW31999   3.262   3.833   7.373 -0.1713  0.4577  0.6898
 6846SOL    HW132000   3.341   3.838   7.426  0.0968 -0.5148  0.3790
 6846SOL    HW232001   3.295   3.782   7.299 -0.7283  1.2280 -0.0978
 6847SOL     OW32002   0.064   3.920  10.903 -0.1411  0.0423  0.0405
 6847SOL    HW132003   0.015   3.934  10.822 -3.2779 -1.9854  1.5956
 6847SOL    HW232004   0.145   3.941  10.857  1.7400 -0.6679  3.0068
 6848SOL     OW32005   0.624   3.363   4.166 -0.1248 -0.3208  0.0683
 6848SOL    HW132006   0.621   3.391   4.258 -1.5612 -2.2260  0.6009
 6848SOL    HW232007   0.650   3.448   4.131 -0.1044 -0.6913 -0.8146
 6849SOL     OW32008   3.970   1.669   7.142  0.0479  0.2169 -0.0131
 6849SOL    HW132009   3.951   1.762   7.130 -1.2536 -0.1756 -1.0054
 6849SOL    HW232010   3.935   1.635   7.059  3.2758  2.0282 -2.0998
 6850SOL     OW32011   0.228   1.653   4.745 -0.4067  0.5696 -0.6712
 6850SOL    HW132012   0.191   1.654   4.657  0.7612  0.9542 -1.1621
 6850SOL    HW232013   0.310   1.699   4.728 -0.9989  2.1313  0.8162
 6851SOL     OW32014   4.257   2.982   1.996 -0.1611 -0.0707  0.6838
 6851SOL    HW132015   4.279   3.057   2.052  0.1320  0.7897 -0.5581
 6851SOL    HW232016   4.203   2.937   2.060  0.6034 -1.6086  0.2625
 6852SOL     OW32017   0.271   0.416   5.761  0.0451  0.2745  0.0481
 6852SOL    HW132018   0.308   0.361   5.693 -1.4404  0.9859 -1.3372
 6852SOL    HW232019   0.195   0.463   5.726 -1.7949 -2.1347  0.8444
 6853SOL     OW32020   2.493   2.235   4.076  0.2415  0.2133  0.3548
 6853SOL    HW132021   2.499   2.263   4.167 -3.1993  1.8235  0.1169
 6853SOL    HW232022   2.423   2.295   4.047 -0.2187  0.5681  2.2003
 6854SOL     OW32023   0.755   2.907   7.228  0.1037  0.1475 -0.0724
 6854SOL    HW132024   0.739   2.834   7.167 -0.9939  0.0917  0.2846
 6854SOL    HW232025   0.838   2.875   7.265 -0.4805  2.0986  2.8744
 6855SOL     OW32026   0.032   4.013   2.878 -0.1145  0.2375  0.2630
 6855SOL    HW132027   0.060   3.926   2.849  0.2707 -0.0797  1.5594
 6855SOL    HW232028   0.073   4.025   2.964  1.8450 -2.0962 -0.3370
 6856SOL     OW32029   3.422   1.625   7.444 -0.1459  0.2186  0.1485
 6856SOL    HW132030   3.470   1.707   7.456  1.9546 -1.0544  0.4378
 6856SOL    HW232031   3.333   1.657   7.459 -0.6945  0.0927 -2.8025
 6857SOL     OW32032   2.347   2.439   6.982  0.9227  0.0135  0.3049
 6857SOL    HW132033   2.269   2.492   6.999  0.1701 -1.5268  1.6489
 6857SOL    HW232034   2.339   2.367   7.045  1.2097 -0.1849  0.1189
 6858SOL     OW32035   0.426   0.569  10.714 -0.2587  0.0975  0.0959
 6858SOL    HW132036   0.434   0.623  10.635 -2.8508  0.2685 -0.0503
 6858SOL    HW232037   0.452   0.643  10.769 -0.8804  0.1940  0.2620
 6859SOL     OW32038   3.154   1.557   2.600 -0.6194 -0.0199 -0.5852
 6859SOL    HW132039   3.151   1.463   2.618 -1.2494  0.2608  0.7155
 6859SOL    HW232040   3.223   1.567   2.535 -0.3812  1.9075 -0.0324
 6860SOL     OW32041   3.156   1.555   0.318  0.3950  0.0554  0.4210
 6860SOL    HW132042   3.246   1.587   0.322  0.1071  0.7496  1.3854
 6860SOL    HW232043   3.137   1.539   0.410 -1.2024 -1.5361 -0.1829
 6861SOL     OW32044   4.453   0.608  14.711 -0.2126 -0.2718  0.1414
 6861SOL    HW132045   4.482   0.541  14.773  0.4166 -0.0103  0.1377
 6861SOL    HW232046   4.522   0.615  14.644  1.7550  0.0811  2.2172
 6862SOL     OW32047   2.216   3.195   2.812  0.1520  0.1396  0.2547
 6862SOL    HW132048   2.132   3.194   2.858  0.0656  1.0809  0.1187
 6862SOL    HW232049   2.273   3.130   2.852  0.9367  1.7603  1.7438
 6863SOL     OW32050   0.747   2.650   4.940  0.0747 -0.1475  0.2243
 6863SOL    HW132051   0.816   2.652   5.007  0.4665  3.9469 -0.3459
 6863SOL    HW232052   0.739   2.555   4.927 -1.4203  0.4952 -3.5430
 6864SOL     OW32053   1.376   1.757   3.619  0.8097 -0.5158  0.1765
 6864SOL    HW132054   1.424   1.713   3.550  0.1989  0.2669 -0.7436
 6864SOL    HW232055   1.423   1.840   3.622 -1.4396  0.7527  0.7150
 6865SOL     OW32056   3.361   4.502  14.915 -0.3572  0.5403 -0.2646
 6865SOL    HW132057   3.341   4.489  14.822  1.1769  2.4038 -0.8638
 6865SOL    HW232058   3.345   4.412  14.943 -0.1370  1.3848  2.6102
 6866SOL     OW32059   1.260   2.288  15.407  0.2020 -0.3907  0.1869
 6866SOL    HW132060   1.338   2.342  15.419  1.0709 -1.3803 -1.1643
 6866SOL    HW232061   1.282   2.222  15.472  0.1850 -1.5201 -0.9660
 6867SOL     OW32062   3.462   0.799  10.104 -0.5670 -0.2242 -0.2926
 6867SOL    HW132063   3.529   0.804  10.036  0.2578  1.8669  0.7128
 6867SOL    HW232064   3.494   0.731  10.164 -1.5628 -0.9601 -0.5932
 6868SOL     OW32065   2.015   4.137   3.169  0.1850 -0.2530 -0.1683
 6868SOL    HW132066   1.949   4.078   3.203  0.2633 -0.5338 -0.5006
 6868SOL    HW232067   1.964   4.216   3.147  0.2846 -0.2815 -0.5070
 6869SOL     OW32068   1.647   3.669   2.892  0.6433  0.0949  0.0362
 6869SOL    HW132069   1.674   3.691   2.803  0.8341  1.7686  0.5025
 6869SOL    HW232070   1.728   3.673   2.943  0.6326 -1.9508  0.1989
 6870SOL     OW32071   0.813   1.950  16.459 -0.0264  0.1287 -0.2641
 6870SOL    HW132072   0.737   1.978  16.409 -1.0920  0.3039  1.4458
 6870SOL    HW232073   0.796   2.005  16.536 -1.6485 -1.0639  0.2290
 6871SOL     OW32074   0.006   0.668   1.462 -0.4663  0.0082  0.5351
 6871SOL    HW132075   4.682   0.746   1.439  0.2909  0.1540 -0.6335
 6871SOL    HW232076   0.017   0.630   1.375 -2.9840  1.5255 -0.4182
 6872SOL     OW32077   2.480   1.238   0.209  0.1512  0.1144  0.0343
 6872SOL    HW132078   2.499   1.283   0.127  0.8887  0.2843  0.3005
 6872SOL    HW232079   2.542   1.167   0.196  0.3784  0.4819 -0.8571
 6873SOL     OW32080   4.615   1.820   4.803  0.4045 -0.1903  0.0763
 6873SOL    HW132081   4.557   1.893   4.827 -0.3169 -0.1094 -1.8594
 6873SOL    HW232082   4.658   1.867   4.731  0.7894  1.4036  1.3332
 6874SOL     OW32083   4.542   3.663   9.307  0.5749 -0.0156  0.0444
 6874SOL    HW132084   4.630   3.673   9.270  1.1136 -1.5902  0.9273
 6874SOL    HW232085   4.498   3.608   9.243  0.3967  0.1639  0.0122
 6875SOL     OW32086   3.840   0.519   2.381 -0.1982  0.0391 -0.2403
 6875SOL    HW132087   3.791   0.596   2.408  1.9645  2.2336 -2.5919
 6875SOL    HW232088   3.792   0.488   2.304 -1.0296  1.5186 -0.2966
 6876SOL     OW32089   0.116   2.112  11.127 -0.2832  0.0367 -0.0077
 6876SOL    HW132090   0.157   2.033  11.161 -1.0687  0.1262  1.1502
 6876SOL    HW232091   0.166   2.189  11.154 -1.4291  0.7539  0.1045
 6877SOL     OW32092   1.594   1.540   1.772 -0.4652 -0.0708  0.4777
 6877SOL    HW132093   1.655   1.567   1.840  0.4380 -1.6736  0.2925
 6877SOL    HW232094   1.510   1.550   1.819 -0.2073 -1.6689  1.2869
 6878SOL     OW32095   1.564   0.645   1.523  0.4045 -0.8013  0.0953
 6878SOL    HW132096   1.602   0.693   1.596  1.4429  0.5313 -1.3209
 6878SOL    HW232097   1.477   0.631   1.560  0.4840 -1.9414 -0.1429
 6879SOL     OW32098   0.022   1.855   3.039  0.8344  0.5266 -0.2028
 6879SOL    HW132099   4.718   1.857   2.948  0.7219  0.4579 -0.1666
 6879SOL    HW232100   0.076   1.776   3.042  1.6457  1.1188  1.0625
 6880SOL     OW32101   0.370   3.797   6.155 -0.0848  0.1803  0.3440
 6880SOL    HW132102   0.284   3.814   6.118  0.3508 -0.5616 -1.0059
 6880SOL    HW232103   0.376   3.702   6.144  2.1084  0.4569 -0.8934
 6881SOL     OW32104   2.787   1.406   6.198 -0.3840  0.2689 -0.1330
 6881SOL    HW132105   2.815   1.315   6.205  1.0269  0.8557  1.9392
 6881SOL    HW232106   2.779   1.428   6.105 -0.2576  1.2826  0.0987
 6882SOL     OW32107   0.890   3.414  11.184 -0.1743 -0.2233  0.3713
 6882SOL    HW132108   0.940   3.346  11.140 -1.5349  1.0162 -3.0791
 6882SOL    HW232109   0.840   3.448  11.110 -0.1459 -0.9684  0.0061
 6883SOL     OW32110   0.367   0.695   3.935 -0.2342 -0.0440  0.6765
 6883SOL    HW132111   0.336   0.613   3.897 -1.5247  1.8578 -2.3435
 6883SOL    HW232112   0.347   0.674   4.026 -1.6014  0.1530  0.4118
 6884SOL     OW32113   3.360   3.661   3.050 -0.1964  0.4889 -0.6569
 6884SOL    HW132114   3.436   3.604   3.049 -1.5159 -1.3321  1.9430
 6884SOL    HW232115   3.292   3.598   3.027  1.8917 -1.5631 -1.1296
 6885SOL     OW32116   3.912   3.864   0.298  0.7150  0.3207  0.2334
 6885SOL    HW132117   3.861   3.824   0.369 -0.3193  0.1575 -0.6075
 6885SOL    HW232118   3.927   3.953   0.328  0.3564 -0.0144  1.4063
 6886SOL     OW32119   2.729   3.856   2.646 -0.1472 -0.2200 -0.2174
 6886SOL    HW132120   2.748   3.852   2.740 -0.2901  0.8146 -0.1398
 6886SOL    HW232121   2.723   3.950   2.627  1.2760  0.3842  2.3237
 6887SOL     OW32122   0.675   1.245  13.645 -0.3461 -0.1150  0.1859
 6887SOL    HW132123   0.595   1.296  13.630 -0.0141 -0.2724 -2.1650
 6887SOL    HW232124   0.694   1.228  13.553  1.1531  0.1311  0.4652
 6888SOL     OW32125   0.971   4.396  13.068  0.2179 -0.2395 -0.9037
 6888SOL    HW132126   0.927   4.422  13.149 -0.7547 -2.1526 -0.8176
 6888SOL    HW232127   1.056   4.365  13.098  0.4358  1.6727  0.5007
 6889SOL     OW32128   4.047   3.257   6.604  0.3838 -0.2128  0.3816
 6889SOL    HW132129   4.114   3.193   6.628 -1.0735 -2.1411 -0.6812
 6889SOL    HW232130   4.019   3.238   6.515  1.5047 -0.7121  0.1335
 6890SOL     OW32131   2.248   1.394  17.628  0.4239 -0.4147  0.1623
 6890SOL    HW132132   2.177   1.397  17.693  1.4608 -2.0585  1.3544
 6890SOL    HW232133   2.307   1.460  17.663 -1.3829  2.4020 -2.0514
 6891SOL     OW32134   2.999   0.544   3.736  0.0528  0.3206 -0.2573
 6891SOL    HW132135   2.995   0.599   3.658  1.2871 -0.0112 -0.5658
 6891SOL    HW232136   2.996   0.612   3.804  1.0910 -0.3852  0.5065
 6892SOL     OW32137   2.609   2.216   3.598 -0.2387  0.2251  1.1011
 6892SOL    HW132138   2.638   2.205   3.689  0.5429 -0.2410  0.8005
 6892SOL    HW232139   2.547   2.142   3.599  2.4536 -2.0343  1.6132
 6893SOL     OW32140   4.465   4.461   2.480  0.2905  0.1122 -0.2362
 6893SOL    HW132141   4.381   4.453   2.526 -0.0054  0.0537 -0.7896
 6893SOL    HW232142   4.484   4.546   2.519 -1.6301  1.4571 -2.2516
 6894SOL     OW32143   3.863   3.759   6.520 -0.1804 -0.4555 -0.1166
 6894SOL    HW132144   3.850   3.664   6.514  2.1602 -0.7968  0.1621
 6894SOL    HW232145   3.883   3.777   6.428  2.6492 -0.0253  0.6017
 6895SOL     OW32146   2.625   3.607   7.212 -0.5985 -0.6409 -0.1575
 6895SOL    HW132147   2.640   3.552   7.135  1.5001 -0.1480 -0.1057
 6895SOL    HW232148   2.560   3.563   7.267 -1.6772 -0.0345 -0.9359
 6896SOL     OW32149   3.995   1.523   3.848  0.0923  0.0431 -0.2021
 6896SOL    HW132150   3.930   1.510   3.918  1.0841 -1.6248  0.4044
 6896SOL    HW232151   3.959   1.599   3.802  2.2161 -1.1904 -3.8377
 6897SOL     OW32152   2.491   3.337   6.369  0.2378 -0.1389  0.4438
 6897SOL    HW132153   2.521   3.426   6.349 -1.5198  0.2855 -0.2753
 6897SOL    HW232154   2.409   3.354   6.415 -0.1166  0.4152 -0.4023
 6898SOL     OW32155   3.153   4.037   4.932 -0.6617  0.2624  0.1174
 6898SOL    HW132156   3.080   3.980   4.908  0.1100 -0.9375  0.6586
 6898SOL    HW232157   3.165   4.088   4.851  2.3617 -2.6434 -1.2625
 6899SOL     OW32158   0.044   2.319   5.271  0.1836  0.3566 -0.0355
 6899SOL    HW132159   0.079   2.255   5.333  0.2938  0.0966 -0.3645
 6899SOL    HW232160   0.115   2.382   5.261 -0.6286  1.4286  1.0456
 6900SOL     OW32161   0.382   3.179   2.138 -0.6096 -0.4542  0.6538
 6900SOL    HW132162   0.311   3.120   2.163 -1.0379  0.2856  1.1911
 6900SOL    HW232163   0.375   3.238   2.213 -2.8414  1.1948 -0.8570
 6901SOL     OW32164   3.362   4.569   1.286 -0.1282  0.4539  0.2478
 6901SOL    HW132165   3.290   4.511   1.261 -0.1344 -0.3457  2.0649
 6901SOL    HW232166   3.315   4.645   1.320  0.5552  0.8293  0.3614
 6902SOL     OW32167   4.291   3.375   0.158 -0.5880 -0.0423 -0.3517
 6902SOL    HW132168   4.251   3.307   0.213 -0.4085  0.2105  0.0936
 6902SOL    HW232169   4.310   3.327   0.078 -0.3889  2.1480 -1.6302
 6903SOL     OW32170   3.694   4.686   5.992 -0.7521  0.0476  0.4704
 6903SOL    HW132171   3.784   4.699   5.961 -0.7911  1.2460  0.8631
 6903SOL    HW232172   3.704   4.624   6.064  2.4439  1.4018  1.1789
 6904SOL     OW32173   4.264   3.277   7.196 -0.0987  0.3157 -0.2237
 6904SOL    HW132174   4.244   3.364   7.231  0.6764  0.3256  0.1949
 6904SOL    HW232175   4.354   3.295   7.169 -0.3244  1.8399  0.0204
 6905SOL     OW32176   1.074   3.792  15.518  0.1732  0.1027  0.5208
 6905SOL    HW132177   0.991   3.803  15.564  0.4142  0.5536  0.8475
 6905SOL    HW232178   1.050   3.846  15.443 -1.3413 -0.1361  0.8354
 6906SOL     OW32179   2.859   1.592  13.612 -0.1583 -0.0961 -0.1593
 6906SOL    HW132180   2.848   1.500  13.635 -0.8184 -0.6992 -2.8256
 6906SOL    HW232181   2.828   1.591  13.521  2.5865  1.4717 -1.1242
 6907SOL     OW32182   0.744   2.415   3.967  0.3593  0.1371 -0.1858
 6907SOL    HW132183   0.825   2.419   3.915  0.2555 -0.3249 -0.3841
 6907SOL    HW232184   0.766   2.491   4.021  0.1723 -0.9653  1.4409
 6908SOL     OW32185   0.964   1.938   9.185  0.2243  0.0044 -0.0197
 6908SOL    HW132186   0.988   1.993   9.110 -0.7065  1.3107  0.6519
 6908SOL    HW232187   0.930   2.004   9.245 -0.6717 -0.6260  0.1727
 6909SOL     OW32188   2.608   2.139   7.125  0.0762 -0.2121  0.0904
 6909SOL    HW132189   2.614   2.104   7.036  0.6733 -0.9893  0.4288
 6909SOL    HW232190   2.697   2.170   7.139  0.1871 -1.2206  1.7080
 6910SOL     OW32191   0.621   2.151   3.112 -0.2031  0.8311  0.0070
 6910SOL    HW132192   0.563   2.143   3.036  1.2839 -1.5825 -0.9077
 6910SOL    HW232193   0.636   2.063   3.147  1.9655  1.1178 -0.1844
 6911SOL     OW32194   0.294   1.852   9.113 -0.4916 -0.1451  0.4557
 6911SOL    HW132195   0.386   1.829   9.100 -0.1751  1.5529 -0.3848
 6911SOL    HW232196   0.298   1.946   9.094  2.1826 -0.6520 -1.4838
 6912SOL     OW32197   1.852   3.684   6.178  0.1771 -0.2776  0.3882
 6912SOL    HW132198   1.767   3.639   6.182  1.1301 -2.0379  0.6825
 6912SOL    HW232199   1.827   3.766   6.220 -0.6548 -0.0967 -0.4492
 6913SOL     OW32200   4.549   4.181   3.411 -0.2709  0.1747  0.2535
 6913SOL    HW132201   4.577   4.273   3.407 -4.3472  1.3699 -0.9732
 6913SOL    HW232202   4.469   4.184   3.359  1.3341 -0.9256 -2.2801
 6914SOL     OW32203   0.077   2.666   4.176 -0.0290  0.5932 -0.8987
 6914SOL    HW132204   0.159   2.694   4.136 -2.0819  3.2761 -3.2160
 6914SOL    HW232205   0.074   2.727   4.251 -0.9867 -0.9672  0.3440
 6915SOL     OW32206   1.309   0.438  14.147  0.6562  0.5107 -0.5126
 6915SOL    HW132207   1.230   0.424  14.094  0.8813 -1.8034 -0.2365
 6915SOL    HW232208   1.267   0.464  14.230  0.1207  1.1617 -0.9908
 6916SOL     OW32209   4.363   1.862  16.606 -0.5514 -0.6436  0.8492
 6916SOL    HW132210   4.325   1.804  16.540 -1.1625  0.0271  0.6077
 6916SOL    HW232211   4.438   1.901  16.562 -0.5416 -1.4674  0.1346
 6917SOL     OW32212   4.418   0.246   9.177  0.2972 -0.1521  0.1774
 6917SOL    HW132213   4.363   0.184   9.224  1.4266 -0.5232  1.0132
 6917SOL    HW232214   4.389   0.333   9.205  0.5245  0.6553 -2.0701
 6918SOL     OW32215   0.966   0.067   5.885 -0.0670  0.4198  0.0420
 6918SOL    HW132216   0.934   0.107   5.966 -0.3365  0.4204 -0.0643
 6918SOL    HW232217   1.057   0.052   5.910 -0.0931  1.0849  0.5336
 6919SOL     OW32218   4.474   2.280   8.242  0.5076  0.3022  0.2642
 6919SOL    HW132219   4.463   2.188   8.220 -0.6584 -0.0850  2.4957
 6919SOL    HW232220   4.539   2.268   8.311 -0.2215 -2.0101  0.5390
 6920SOL     OW32221   1.592   4.490   6.293  0.3566 -0.2962  0.1042
 6920SOL    HW132222   1.636   4.540   6.362  0.3031  0.7321 -0.6169
 6920SOL    HW232223   1.576   4.405   6.335  0.9358 -1.2393 -1.6262
 6921SOL     OW32224   3.269   2.471   3.806  0.3146  0.1957 -0.0976
 6921SOL    HW132225   3.182   2.462   3.846  0.3542 -0.3719 -0.1411
 6921SOL    HW232226   3.250   2.453   3.714 -0.4531  0.7032 -0.0409
 6922SOL     OW32227   3.108   3.635   8.106 -0.1591 -0.2576  0.7207
 6922SOL    HW132228   3.103   3.540   8.121 -1.4201 -0.5127 -1.4128
 6922SOL    HW232229   3.196   3.661   8.133  0.5746 -1.9281 -0.0822
 6923SOL     OW32230   2.514   0.415   6.642  0.2218  0.8920 -0.0567
 6923SOL    HW132231   2.459   0.437   6.567 -1.0515  1.9970  1.1989
 6923SOL    HW232232   2.539   0.500   6.677  0.6837  0.3838  0.8589
 6924SOL     OW32233   4.697   0.706   7.263  0.0663 -0.4827 -0.2064
 6924SOL    HW132234   4.702   0.786   7.210 -0.9322 -0.2481  0.0513
 6924SOL    HW232235   4.712   0.737   7.353 -0.1313  2.7898 -1.2985
 6925SOL     OW32236   3.519   3.086   2.943  0.1241 -0.0700 -0.4964
 6925SOL    HW132237   3.459   3.157   2.964  1.8556  1.4062 -0.6046
 6925SOL    HW232238   3.515   3.031   3.021 -0.4685  0.6286 -0.0349
 6926SOL     OW32239   3.238   1.085   3.252  0.6594 -0.2683 -0.5370
 6926SOL    HW132240   3.289   1.004   3.258  0.7815 -0.1608 -0.0982
 6926SOL    HW232241   3.305   1.153   3.249 -0.7114  1.2667  3.4091
 6927SOL     OW32242   4.412   4.701  11.329 -0.6315  0.5750  0.6104
 6927SOL    HW132243   4.346   4.668  11.390 -1.1458  1.0454  0.3125
 6927SOL    HW232244   4.414   0.066  11.354 -0.2549 -0.2388  3.5476
 6928SOL     OW32245   1.025   4.243   3.480 -0.3937  0.2471  0.4735
 6928SOL    HW132246   1.097   4.193   3.518  0.6456  0.9297 -0.6169
 6928SOL    HW232247   0.978   4.174   3.433  2.0003 -1.2312  0.2824
 6929SOL     OW32248   1.381   3.904   4.841  0.6940 -0.3720 -0.4773
 6929SOL    HW132249   1.421   3.989   4.826 -1.3750  0.4547 -1.2169
 6929SOL    HW232250   1.291   3.932   4.850  0.4388 -1.2008 -0.4229
 6930SOL     OW32251   3.569   4.269   2.378 -0.1195  0.4829  0.1548
 6930SOL    HW132252   3.621   4.347   2.398 -0.2968  0.7667 -0.4689
 6930SOL    HW232253   3.491   4.312   2.341 -0.6796 -0.3750  0.3422
 6931SOL     OW32254   4.181   3.934   1.971  0.0052  0.4891  0.9241
 6931SOL    HW132255   4.272   3.908   1.954 -0.3283 -1.0866  1.5527
 6931SOL    HW232256   4.184   4.021   2.010  2.0457  1.4976 -1.4621
 6932SOL     OW32257   2.218   1.989  17.071 -0.5710 -0.1306 -0.8016
 6932SOL    HW132258   2.229   1.941  16.989  2.4003 -1.6614  0.5098
 6932SOL    HW232259   2.221   2.082  17.048  0.0046  0.1105  0.2875
 6933SOL     OW32260   2.751   1.242   1.385  0.2809 -0.3805  0.3962
 6933SOL    HW132261   2.766   1.172   1.449 -0.4964  0.4530  1.4899
 6933SOL    HW232262   2.829   1.287   1.417 -1.4180  2.2966  0.7412
 6934SOL     OW32263   1.665   3.118   9.282 -0.4686 -1.0948  0.0752
 6934SOL    HW132264   1.603   3.142   9.350  0.9575 -0.9082  1.3238
 6934SOL    HW232265   1.703   3.032   9.301  3.1159  0.4169 -0.0600
 6935SOL     OW32266   0.750   0.596   6.456  0.3604 -0.4787 -0.2457
 6935SOL    HW132267   0.801   0.598   6.375 -1.4452  1.4193 -1.3386
 6935SOL    HW232268   0.767   0.508   6.488  1.0953  0.1653  1.1163
 6936SOL     OW32269   1.524   0.991  13.613  0.2545 -0.0484  0.0492
 6936SOL    HW132270   1.607   1.038  13.611  0.7490 -0.9584 -1.2141
 6936SOL    HW232271   1.523   0.956  13.524  1.8196 -0.1284  0.0626
 6937SOL     OW32272   3.504   0.076   7.705  0.7417  0.0762  0.4680
 6937SOL    HW132273   3.489   0.058   7.612  2.4520  0.0138  0.1981
 6937SOL    HW232274   3.573   0.016   7.733  1.1268  0.1131 -0.4109
 6938SOL     OW32275   0.654   2.998   5.508  0.8032 -0.2075 -0.5456
 6938SOL    HW132276   0.692   2.961   5.428  0.4435 -0.1676 -0.7351
 6938SOL    HW232277   0.610   2.920   5.543  2.5842 -1.2503 -0.6075
 6939SOL     OW32278   2.816   0.587   0.360  0.4053  0.3224 -0.1563
 6939SOL    HW132279   2.811   0.615   0.268  1.0815  1.1310  0.0507
 6939SOL    HW232280   2.911   0.579   0.371  0.3387 -0.7741 -0.4289
 6940SOL     OW32281   0.228   0.456   9.083  0.2146 -0.1064 -0.1036
 6940SOL    HW132282   0.265   0.513   9.016 -1.9040  0.6962 -0.5917
 6940SOL    HW232283   0.176   0.395   9.031  0.1417 -1.7500  1.8718
 6941SOL     OW32284   1.540   1.327  11.994 -1.0191 -0.2389  0.2465
 6941SOL    HW132285   1.561   1.380  11.918 -2.9186  0.8635  0.4800
 6941SOL    HW232286   1.616   1.333  12.052 -1.2384 -0.2001  0.5337
 6942SOL     OW32287   0.021   3.138  10.421 -0.4075 -0.2663  0.4658
 6942SOL    HW132288   0.081   3.151  10.494  0.3886  1.2758 -0.4636
 6942SOL    HW232289   0.031   3.221  10.374 -1.3610 -0.8315 -0.7332
 6943SOL     OW32290   1.858   3.563   8.881 -0.0049  0.4216  0.1594
 6943SOL    HW132291   1.830   3.512   8.957  0.7650 -1.6020 -0.9366
 6943SOL    HW232292   1.916   3.627   8.922  1.6390 -0.4054 -0.8982
 6944SOL     OW32293   3.798   3.822   1.020  0.2360  0.8136 -0.1853
 6944SOL    HW132294   3.866   3.824   0.952  0.5508  0.0556  0.1014
 6944SOL    HW232295   3.833   3.761   1.086 -1.2433 -1.2086 -1.2548
 6945SOL     OW32296   4.096   4.466   3.664  0.3629  0.4290  0.1380
 6945SOL    HW132297   4.066   4.472   3.755  2.7311  0.2025  0.9348
 6945SOL    HW232298   4.047   4.389   3.634  0.3914  0.2959  0.4286
 6946SOL     OW32299   4.725   3.412   9.626  0.2379 -0.3938  0.2344
 6946SOL    HW132300   4.702   3.338   9.570  2.2918  1.0180 -2.4957
 6946SOL    HW232301   4.725   3.369   9.711  2.7245  0.2951  0.5670
 6947SOL     OW32302   2.450   3.726   2.508  0.1035  0.0699 -0.0465
 6947SOL    HW132303   2.440   3.744   2.602  1.9055  2.5697 -0.3479
 6947SOL    HW232304   2.521   3.786   2.486  0.2958 -0.7839 -1.7912
 6948SOL     OW32305   2.142   4.238   2.029 -0.0425  0.7657 -0.1366
 6948SOL    HW132306   2.225   4.279   2.054 -1.2466  2.8620  0.4266
 6948SOL    HW232307   2.157   4.199   1.943  1.4079  1.3365 -0.1384
 6949SOL     OW32308   1.124   4.238   2.428 -0.3983  0.0659 -0.3797
 6949SOL    HW132309   1.142   4.306   2.362 -1.1419  1.3719  0.7689
 6949SOL    HW232310   1.086   4.167   2.376  0.6636  0.2510 -1.4258
 6950SOL     OW32311   2.847   2.302  16.749  0.8617 -0.0165  0.0382
 6950SOL    HW132312   2.816   2.328  16.835 -2.8003 -3.5399 -0.2125
 6950SOL    HW232313   2.821   2.210  16.752  0.0371  0.1849 -0.8116
 6951SOL     OW32314   0.857   4.317   8.676  0.4791  0.2883  0.2112
 6951SOL    HW132315   0.866   4.224   8.656 -0.5413  0.2076  0.1400
 6951SOL    HW232316   0.925   4.362   8.625 -0.0657  1.0115  0.1137
 6952SOL     OW32317   2.776   3.164   8.842  0.5791 -1.0477  0.2512
 6952SOL    HW132318   2.693   3.155   8.888  0.2968  0.9520  0.0972
 6952SOL    HW232319   2.757   3.124   8.757 -0.0056  0.6770 -0.4301
 6953SOL     OW32320   1.722   0.297   8.783  0.6933  0.3857  0.7866
 6953SOL    HW132321   1.740   0.371   8.725  0.7853  0.4779  0.9347
 6953SOL    HW232322   1.807   0.252   8.778  0.3562 -0.1128 -0.5259
 6954SOL     OW32323   2.186   4.600  15.945 -0.1206  0.2583  0.2555
 6954SOL    HW132324   2.210   4.633  16.031 -0.2170  0.6497  0.1363
 6954SOL    HW232325   2.194   4.507  15.964  0.2581 -0.0310 -1.2647
 6955SOL     OW32326   3.256   4.594   5.171 -0.3928  0.0178 -0.4242
 6955SOL    HW132327   3.279   4.588   5.264 -1.0121 -0.0243 -0.2743
 6955SOL    HW232328   3.327   4.548   5.127 -0.0114  0.1285  0.0753
 6956SOL     OW32329   3.777   2.624   7.575 -0.1949 -0.1473 -0.1490
 6956SOL    HW132330   3.765   2.607   7.668 -1.6910 -1.8209 -0.6534
 6956SOL    HW232331   3.740   2.712   7.566  2.8564  1.2741  1.2851
 6957SOL     OW32332   3.575   2.486   8.250 -0.3545 -0.0250 -0.0609
 6957SOL    HW132333   3.595   2.395   8.271 -3.6122 -0.6934  0.1014
 6957SOL    HW232334   3.662   2.515   8.222 -0.5169 -0.4006 -0.9471
 6958SOL     OW32335   1.698   4.327   7.363  0.3888  0.1207  0.3030
 6958SOL    HW132336   1.697   4.396   7.429  1.0424 -2.7971  3.3743
 6958SOL    HW232337   1.636   4.264   7.400 -0.7752  2.2719  2.0410
 6959SOL     OW32338   1.468   2.015   7.568  0.1208  0.4908 -0.1067
 6959SOL    HW132339   1.453   2.036   7.661 -2.6361 -0.4927 -0.3351
 6959SOL    HW232340   1.413   1.939   7.551 -2.1502  2.3251 -1.0705
 6960SOL     OW32341   2.957   3.398  16.739  0.3049  0.1186 -0.1374
 6960SOL    HW132342   3.010   3.394  16.819 -1.5779 -2.2287  0.9624
 6960SOL    HW232343   2.930   3.490  16.737 -1.9562 -0.5884 -1.3492
 6961SOL     OW32344   2.794   4.624   6.981  0.3182 -0.5058  0.1036
 6961SOL    HW132345   2.806   4.630   6.886 -0.3322 -1.8061 -0.0590
 6961SOL    HW232346   2.809   4.714   7.012  1.4497 -0.7027  0.1443
 6962SOL     OW32347   1.403   4.362   6.656  0.2682  0.2999  0.0728
 6962SOL    HW132348   1.325   4.334   6.704  1.4010 -1.7102  0.7525
 6962SOL    HW232349   1.382   4.325   6.570 -0.7252 -0.7741  0.7802
 6963SOL     OW32350   1.702   3.831   3.855 -0.0034 -0.1185  0.0505
 6963SOL    HW132351   1.776   3.888   3.877 -0.5027 -0.6104  3.0018
 6963SOL    HW232352   1.660   3.831   3.941 -0.6349  0.8288 -0.2580
 6964SOL     OW32353   3.023   1.208   4.686 -0.5532  0.6361 -0.4964
 6964SOL    HW132354   2.984   1.225   4.772  0.0994  2.8313 -0.6171
 6964SOL    HW232355   3.047   1.300   4.670 -0.6427  0.6625 -0.4812
 6965SOL     OW32356   1.633   2.501   0.861 -0.0133  0.0869 -0.7105
 6965SOL    HW132357   1.550   2.476   0.820 -0.2946 -1.8643  1.0541
 6965SOL    HW232358   1.645   2.592   0.835 -0.1389  0.1850 -0.4226
 6966SOL     OW32359   1.036   0.369   2.578 -0.6461 -0.0501 -0.1951
 6966SOL    HW132360   1.043   0.301   2.512  1.1155  0.4117 -0.4874
 6966SOL    HW232361   0.968   0.423   2.538  0.0492  1.2649  0.3918
 6967SOL     OW32362   2.024   2.893   3.477  0.5993  0.7539  0.0122
 6967SOL    HW132363   1.930   2.877   3.471  0.9035 -0.6077 -1.2185
 6967SOL    HW232364   2.055   2.908   3.387 -0.6396  2.7294 -0.0955
 6968SOL     OW32365   3.038   3.530   4.322  0.1937  0.3011  0.2821
 6968SOL    HW132366   2.983   3.486   4.387 -2.9744  1.6478 -1.4812
 6968SOL    HW232367   3.027   3.621   4.352  2.3460  0.6383  0.0620
 6969SOL     OW32368   4.342   0.862  13.897 -0.0768  0.0353 -0.5718
 6969SOL    HW132369   4.365   0.955  13.905 -0.1997  0.1181 -1.2517
 6969SOL    HW232370   4.424   0.813  13.907  1.6014  2.5693 -1.7958
 6970SOL     OW32371   1.774   1.793  12.849 -0.2529 -0.2679  0.4543
 6970SOL    HW132372   1.810   1.837  12.927  1.3209  0.2780 -0.5834
 6970SOL    HW232373   1.855   1.757  12.813 -2.1187 -1.9448 -2.0385
 6971SOL     OW32374   0.528   0.698   6.787 -0.5283 -0.1821  0.2371
 6971SOL    HW132375   0.441   0.728   6.759 -0.0248 -1.0084 -2.2172
 6971SOL    HW232376   0.516   0.654   6.871  1.2723  2.2893  1.7835
 6972SOL     OW32377   1.398   2.696   6.789  0.4403 -0.2473 -0.1831
 6972SOL    HW132378   1.330   2.639   6.752 -0.0961 -0.5304  1.2511
 6972SOL    HW232379   1.481   2.654   6.764  1.2120  1.6156 -0.7489
 6973SOL     OW32380   0.477   0.893   6.450  0.4586 -0.6406 -0.6009
 6973SOL    HW132381   0.539   0.940   6.506 -0.5861 -0.5195  0.4671
 6973SOL    HW232382   0.465   0.808   6.492 -0.4952  0.4475  1.3261
 6974SOL     OW32383   2.132   4.525   5.283  0.3173  0.1240 -0.2707
 6974SOL    HW132384   2.211   4.476   5.308 -0.6000 -1.4079 -0.3281
 6974SOL    HW232385   2.133   4.507   5.189 -0.8948  1.6284 -0.5659
 6975SOL     OW32386   3.501   0.241  15.065 -0.3145  0.2982 -1.0292
 6975SOL    HW132387   3.499   0.294  15.144  0.7189 -2.7737  1.0660
 6975SOL    HW232388   3.591   0.212  15.050  0.1987  0.7644  1.2498
 6976SOL     OW32389   3.849   4.398   7.092  0.5385 -0.3905 -0.1727
 6976SOL    HW132390   3.851   4.476   7.036  0.8714 -0.9132 -0.8759
 6976SOL    HW232391   3.941   4.376   7.079  0.3979 -1.5304  0.8454
 6977SOL     OW32392   2.160   1.085   5.583  0.4842 -0.0194 -0.2426
 6977SOL    HW132393   2.167   1.173   5.619 -2.9248  0.4483 -0.6859
 6977SOL    HW232394   2.252   1.063   5.592  0.0043 -1.5433  0.9346
 6978SOL     OW32395   3.575   2.063   2.747  0.1938  0.0103  0.4231
 6978SOL    HW132396   3.482   2.060   2.724  0.8269 -0.4452 -2.1666
 6978SOL    HW232397   3.616   2.043   2.663 -1.1299 -1.9981  0.2427
 6979SOL     OW32398   0.622   0.590   5.724  0.4126 -0.9892 -0.5969
 6979SOL    HW132399   0.558   0.648   5.682  0.3129 -0.4337  0.3192
 6979SOL    HW232400   0.582   0.578   5.809  0.2552  0.3560 -0.4752
 6980SOL     OW32401   3.221   1.055  14.276 -0.3653 -0.3178 -0.0997
 6980SOL    HW132402   3.275   1.020  14.346  0.0140  1.5863  0.5630
 6980SOL    HW232403   3.271   1.136  14.270 -0.0733 -0.4707  0.2673
 6981SOL     OW32404   3.446   4.144  10.332 -0.0375  0.1339  0.1935
 6981SOL    HW132405   3.390   4.213  10.294  0.6507  0.9395  0.6428
 6981SOL    HW232406   3.391   4.066  10.325 -0.6015  0.5770 -0.3940
 6982SOL     OW32407   2.134   1.513   0.834  0.2246 -0.8741 -0.1892
 6982SOL    HW132408   2.040   1.503   0.815  0.2294  2.8506 -2.2209
 6982SOL    HW232409   2.180   1.456   0.773 -1.6010 -0.5466 -1.8847
 6983SOL     OW32410   1.894   1.190   5.274  0.4664  0.2299  0.5321
 6983SOL    HW132411   1.989   1.192   5.282  0.1880  2.6332  3.2367
 6983SOL    HW232412   1.884   1.151   5.187  0.9982  1.7292 -0.1852
 6984SOL     OW32413   4.379   0.621   1.774 -0.0848  0.2787  0.3130
 6984SOL    HW132414   4.365   0.616   1.679  0.1063 -2.5027  0.4181
 6984SOL    HW232415   4.297   0.574   1.792  0.1383 -0.5964 -0.9570
 6985SOL     OW32416   3.687   2.666   2.926 -0.5851 -0.0578  0.8000
 6985SOL    HW132417   3.749   2.631   2.862 -2.1475  1.8481 -1.7368
 6985SOL    HW232418   3.601   2.655   2.885  0.8885 -1.2160 -1.9623
 6986SOL     OW32419   2.421   1.588   3.369 -0.5547  0.5148  0.1489
 6986SOL    HW132420   2.356   1.579   3.300 -0.1140 -1.7194  0.0276
 6986SOL    HW232421   2.497   1.621   3.322 -0.7462  0.9405  0.1349
 6987SOL     OW32422   4.598   3.343   1.028  0.3096 -0.1919  0.6154
 6987SOL    HW132423   4.562   3.431   1.012 -0.3126 -0.3370  1.2294
 6987SOL    HW232424   4.539   3.314   1.098  0.1394  0.2828  0.6688
 6988SOL     OW32425   3.920   4.382   8.361 -0.8368 -0.0351 -0.5590
 6988SOL    HW132426   3.875   4.372   8.446 -0.4281  1.1214 -0.2070
 6988SOL    HW232427   3.997   4.431   8.391  0.8962 -2.5920 -0.8309
 6989SOL     OW32428   4.298   4.585   7.266  0.4503  0.2468  0.0499
 6989SOL    HW132429   4.337   4.672   7.278  1.4642  0.2939 -3.5454
 6989SOL    HW232430   4.266   4.573   7.355  0.5473  0.0241  0.0550
 6990SOL     OW32431   1.359   2.999   6.045 -0.3018  0.1854 -0.1247
 6990SOL    HW132432   1.299   3.062   6.005 -1.8614 -0.2619  1.5021
 6990SOL    HW232433   1.345   3.017   6.138  0.4197  1.5654 -0.2817
 6991SOL     OW32434   0.181   3.369  17.372 -0.2235  0.0268  0.4671
 6991SOL    HW132435   0.203   3.425  17.446  0.2559  1.8784 -1.0594
 6991SOL    HW232436   0.239   3.403  17.304  0.1682 -2.5732 -0.5142
 6992SOL     OW32437   1.025   1.290   6.186 -0.4363 -0.0035 -0.5019
 6992SOL    HW132438   0.980   1.367   6.151  0.5292  0.4588 -0.7271
 6992SOL    HW232439   0.990   1.228   6.122 -1.3289 -0.7441  0.7132
 6993SOL     OW32440   4.580   0.087  10.097 -0.0987  0.5940  0.1370
 6993SOL    HW132441   4.567   0.025  10.169  0.9688 -1.4708 -1.4429
 6993SOL    HW232442   4.491   0.088  10.062 -0.8678 -0.7128  2.1093
 6994SOL     OW32443   2.801   1.469   6.989  0.6464 -0.4030 -1.0127
 6994SOL    HW132444   2.844   1.514   6.916 -0.7301  0.1522 -1.4941
 6994SOL    HW232445   2.757   1.548   7.018 -0.4450 -2.5843  3.2485
 6995SOL     OW32446   2.979   0.804   4.276  0.6325  0.3176 -0.5018
 6995SOL    HW132447   3.010   0.834   4.361  0.4030 -0.0095 -0.2991
 6995SOL    HW232448   2.921   0.732   4.301  0.2192 -0.0066 -2.4148
 6996SOL     OW32449   0.296   0.601   3.303 -0.3572 -0.6081  0.4041
 6996SOL    HW132450   0.359   0.661   3.264 -2.8718  0.1714 -2.4705
 6996SOL    HW232451   0.230   0.670   3.304  0.2382 -0.0504  0.9630
 6997SOL     OW32452   3.163   0.325   6.805  0.1398 -0.4712 -0.3628
 6997SOL    HW132453   3.191   0.359   6.720  0.9163  1.2839  0.5957
 6997SOL    HW232454   3.168   0.405   6.858  1.7201  1.1656 -3.0174
 6998SOL     OW32455   4.562   3.406   7.931 -0.4185  0.1306  0.4176
 6998SOL    HW132456   4.470   3.398   7.953 -0.8190  0.4766 -1.1600
 6998SOL    HW232457   4.587   3.313   7.938 -1.2607 -0.3219 -2.6663
 6999SOL     OW32458   2.774   0.742  13.488  0.0332 -0.2170 -0.3616
 6999SOL    HW132459   2.797   0.680  13.557 -0.8991  0.6993  0.7705
 6999SOL    HW232460   2.681   0.727  13.473 -0.6447  4.1491 -0.5517
 7000SOL     OW32461   4.101   4.520   8.519 -0.1675  0.4003 -0.3290
 7000SOL    HW132462   4.167   4.579   8.481 -1.0914  0.7445 -1.4007
 7000SOL    HW232463   4.136   4.517   8.608  1.1372  0.6664 -0.8276
 7001SOL     OW32464   3.052   0.933   2.464  0.0082 -0.6956 -0.0585
 7001SOL    HW132465   3.139   0.895   2.474  0.6550  0.9478  0.4702
 7001SOL    HW232466   3.077   0.996   2.397 -0.2206  1.2499  1.6940
 7002SOL     OW32467   3.741   0.954  15.712 -0.0592  0.4826 -0.1972
 7002SOL    HW132468   3.707   0.951  15.802  1.7428 -1.5545  0.4013
 7002SOL    HW232469   3.661   0.938  15.661  1.2131 -0.2355 -1.9384
 7003SOL     OW32470   1.960   0.381   8.624  0.1459  0.0291 -0.1703
 7003SOL    HW132471   2.029   0.317   8.644  0.5438  0.5482  0.1114
 7003SOL    HW232472   1.996   0.461   8.664 -2.0679 -0.2186  2.3167
 7004SOL     OW32473   3.997   1.385   6.362  0.2016  0.7145 -0.4762
 7004SOL    HW132474   3.990   1.479   6.376  0.7551  0.7350 -0.3477
 7004SOL    HW232475   3.903   1.367   6.366  0.5881 -0.8117  1.4077
 7005SOL     OW32476   3.994   1.411  13.919 -0.2108  0.1666  0.1743
 7005SOL    HW132477   3.925   1.452  13.972 -0.1847 -0.2607  0.5357
 7005SOL    HW232478   4.064   1.395  13.982  1.3056 -0.5468 -1.7048
 7006SOL     OW32479   1.166   0.686   7.579  0.5464 -0.0433  0.0705
 7006SOL    HW132480   1.218   0.680   7.659  0.7413 -2.0039 -0.2014
 7006SOL    HW232481   1.230   0.641   7.523 -0.1706  0.4900 -1.1900
 7007SOL     OW32482   4.019   1.880   2.440 -0.1149 -0.2568  0.4118
 7007SOL    HW132483   4.018   1.803   2.496  1.0206 -0.4043  0.2422
 7007SOL    HW232484   4.092   1.927   2.481 -0.6482 -0.0133  1.0690
 7008SOL     OW32485   4.542   3.175  11.080 -0.2066 -0.3328  0.0960
 7008SOL    HW132486   4.460   3.224  11.085 -0.5159 -0.9587  1.1007
 7008SOL    HW232487   4.520   3.138  10.994 -0.7368  1.0574 -0.3698
 7009SOL     OW32488   2.907   0.531   7.721 -0.4314  0.4731 -0.0523
 7009SOL    HW132489   2.900   0.527   7.817 -1.0175 -0.3412 -0.1296
 7009SOL    HW232490   2.867   0.448   7.695  3.3122 -0.9718 -1.3071
 7010SOL     OW32491   0.014   2.382   3.860  0.1269 -0.1575 -0.2217
 7010SOL    HW132492   0.053   2.334   3.933  1.2404  2.3635  0.8239
 7010SOL    HW232493   4.652   2.374   3.895  0.1219  0.9716  0.0105
 7011SOL     OW32494   4.631   2.128   9.390 -0.6933 -0.1187  0.1360
 7011SOL    HW132495   4.570   2.065   9.429 -0.8995 -0.6459 -1.0356
 7011SOL    HW232496   4.666   2.074   9.319  0.1722  0.6644 -0.0284
 7012SOL     OW32497   3.193   3.210   2.797 -0.2983  0.3927 -0.2180
 7012SOL    HW132498   3.199   3.189   2.890 -1.7944  2.0360  0.2501
 7012SOL    HW232499   3.098   3.214   2.789 -0.2720  1.0869 -0.1902
 7013SOL     OW32500   2.699   4.354   8.514  0.5252  0.0350  1.1033
 7013SOL    HW132501   2.692   4.278   8.457  1.2179 -0.1097  1.2077
 7013SOL    HW232502   2.716   4.314   8.600 -1.4687 -1.4977  0.7665
 7014SOL     OW32503   1.579   1.844   2.911  0.0439 -0.0873  0.4312
 7014SOL    HW132504   1.649   1.796   2.955  2.2290  2.4468 -0.2920
 7014SOL    HW232505   1.618   1.836   2.824 -2.4311 -1.8679 -0.5339
 7015SOL     OW32506   1.523   3.887  16.163  0.1264  0.1482  0.4614
 7015SOL    HW132507   1.605   3.933  16.179 -1.4705  2.4932  1.9647
 7015SOL    HW232508   1.512   3.915  16.072  1.4298 -1.9999 -0.3413
 7016SOL     OW32509   0.740   3.957   9.859 -0.3442 -0.0698  0.3363
 7016SOL    HW132510   0.670   3.959   9.924 -1.5948 -2.6534 -0.8952
 7016SOL    HW232511   0.694   3.963   9.775  0.3099 -1.6266 -0.1384
 7017SOL     OW32512   3.853   4.658   4.279  0.4935 -0.3924  0.2217
 7017SOL    HW132513   3.826   0.015   4.243 -0.2084 -1.0080 -0.6492
 7017SOL    HW232514   3.848   4.678   4.373  0.1097 -0.8867  0.3099
 7018SOL     OW32515   1.762   3.908   5.658 -0.1153  0.2492  0.2274
 7018SOL    HW132516   1.824   3.874   5.722  0.0715  2.0938  1.0219
 7018SOL    HW232517   1.678   3.872   5.686  0.4827 -0.4532  1.1053
 7019SOL     OW32518   2.502   0.816   4.065  0.4031  0.2100 -0.0990
 7019SOL    HW132519   2.553   0.854   3.993  0.3617 -1.9852 -1.2910
 7019SOL    HW232520   2.478   0.732   4.026  0.1408  0.3989 -0.3414
 7020SOL     OW32521   1.240   1.638   7.112 -0.0255  0.1200 -0.6743
 7020SOL    HW132522   1.198   1.691   7.179  0.7761 -1.6300  1.2080
 7020SOL    HW232523   1.237   1.691   7.032 -3.0718  1.0952  0.0959
 7021SOL     OW32524   0.040   0.420  12.281  0.1046 -0.2053 -0.0777
 7021SOL    HW132525   0.135   0.411  12.274  0.0231 -0.4689 -0.8911
 7021SOL    HW232526   0.031   0.495  12.340 -2.3710 -0.7243  0.1921
 7022SOL     OW32527   0.571   4.245   7.857 -0.1366 -0.9754  0.7878
 7022SOL    HW132528   0.586   4.336   7.884  0.3998 -0.2284 -1.9957
 7022SOL    HW232529   0.495   4.252   7.800  0.9194 -1.0856 -0.6462
 7023SOL     OW32530   2.454   4.117   5.669 -0.4884 -0.4023  0.0923
 7023SOL    HW132531   2.535   4.095   5.716 -0.9485  0.9614  1.5300
 7023SOL    HW232532   2.390   4.117   5.740 -0.5733  1.0194  0.0187
 7024SOL     OW32533   0.794   1.186   5.277 -0.4527 -0.1602  0.0077
 7024SOL    HW132534   0.787   1.168   5.183  0.3462 -1.7338  0.2540
 7024SOL    HW232535   0.723   1.249   5.292 -0.0542  0.8712 -2.4694
 7025SOL     OW32536   0.464   1.527  13.430  0.4559  0.0021  0.2163
 7025SOL    HW132537   0.477   1.613  13.391  0.9827 -0.9231 -1.6194
 7025SOL    HW232538   0.455   1.467  13.356 -1.3576 -1.0238  1.2467
 7026SOL     OW32539   1.764   0.272   3.676  0.1824 -0.3828  0.0050
 7026SOL    HW132540   1.838   0.228   3.634  1.7054  1.1136  1.1083
 7026SOL    HW232541   1.803   0.349   3.717 -2.0723 -0.0679  1.5503
 7027SOL     OW32542   2.850   2.076   1.345  0.4557 -0.1486  0.2800
 7027SOL    HW132543   2.929   2.060   1.397 -0.6384  0.2960  2.0700
 7027SOL    HW232544   2.854   2.002   1.284  3.3390 -0.1118  0.4223
 7028SOL     OW32545   4.478   2.033   8.127  0.1782  0.1510 -0.1154
 7028SOL    HW132546   4.391   1.995   8.114  0.1110  0.2177  0.1457
 7028SOL    HW232547   4.516   1.949   8.153 -0.9438 -0.9872 -2.1147
 7029SOL     OW32548   3.672   3.150   9.878  0.7423  0.3368  0.1705
 7029SOL    HW132549   3.587   3.111   9.896 -0.3994  2.6687 -0.1574
 7029SOL    HW232550   3.654   3.244   9.880 -2.5251 -0.2770 -0.1753
 7030SOL     OW32551   0.075   3.038   8.122  0.4674  0.0398  0.6009
 7030SOL    HW132552   0.010   3.024   8.191  0.7445 -2.5241  0.3315
 7030SOL    HW232553   0.051   2.968   8.063  0.0252  0.4336  0.3191
 7031SOL     OW32554   4.330   1.597   2.252 -0.4698  0.0676  0.0469
 7031SOL    HW132555   4.254   1.583   2.196 -1.5810 -0.0167  1.5881
 7031SOL    HW232556   4.302   1.566   2.338  1.7917  0.7925  1.0623
 7032SOL     OW32557   4.697   2.793  16.930  0.2373 -0.0164 -0.1709
 7032SOL    HW132558   4.618   2.808  16.877  2.1912  2.0354 -2.4698
 7032SOL    HW232559   0.010   2.722  16.880 -1.5096 -0.3506 -1.1084
 7033SOL     OW32560   2.054   2.007   1.863  0.2113 -0.0589 -1.0236
 7033SOL    HW132561   2.113   1.998   1.788  2.0655 -1.4977  0.5769
 7033SOL    HW232562   1.972   1.970   1.833 -0.5194  0.5024  0.2812
 7034SOL     OW32563   4.169   0.557   6.982  0.5612  0.1347  0.4125
 7034SOL    HW132564   4.240   0.547   6.918 -0.2613  1.3393 -0.6927
 7034SOL    HW232565   4.216   0.565   7.065 -1.0602 -4.6610  1.7996
 7035SOL     OW32566   3.319   3.585   2.698 -0.5697 -0.3094  0.5453
 7035SOL    HW132567   3.383   3.515   2.713  0.3197  0.4126  0.1454
 7035SOL    HW232568   3.241   3.532   2.682 -0.7637  0.5126 -1.2213
 7036SOL     OW32569   4.604   2.741   7.309 -0.1210  0.2800  0.1029
 7036SOL    HW132570   4.605   2.645   7.307  0.5257  0.2945 -0.1945
 7036SOL    HW232571   4.527   2.762   7.362  0.9606 -1.7781  2.4382
 7037SOL     OW32572   2.646   0.075   6.745 -0.1172  0.1134 -0.7919
 7037SOL    HW132573   2.618   0.133   6.815  0.3493 -1.4032  0.6711
 7037SOL    HW232574   2.574   0.012   6.749  0.0332 -0.0117 -0.0269
 7038SOL     OW32575   4.244   1.519   5.552  0.3528  0.3489 -0.1622
 7038SOL    HW132576   4.285   1.466   5.483  1.5393  1.8658 -0.6100
 7038SOL    HW232577   4.314   1.573   5.586 -0.2369  0.8066  0.3290
 7039SOL     OW32578   1.803   1.887   2.752 -0.6916 -0.1867 -0.1072
 7039SOL    HW132579   1.879   1.849   2.708 -1.0356 -1.9292  0.7738
 7039SOL    HW232580   1.854   1.913   2.829  2.3318  0.1022 -2.2041
 7040SOL     OW32581   4.269   2.422  12.973 -0.5630  0.1385 -0.5586
 7040SOL    HW132582   4.363   2.416  12.960 -0.2981  1.4102  0.8604
 7040SOL    HW232583   4.262   2.516  12.957 -0.0717  0.5113  1.3798
 7041SOL     OW32584   1.423   2.055  14.426 -0.6957  0.0765 -0.1127
 7041SOL    HW132585   1.417   2.092  14.514  0.3513 -1.2946  0.5403
 7041SOL    HW232586   1.466   1.971  14.442  2.2208  1.8381  1.3355
 7042SOL     OW32587   3.142   3.792   3.946  0.2079 -0.0903 -0.6223
 7042SOL    HW132588   3.234   3.778   3.967 -0.5697 -2.3734  1.3610
 7042SOL    HW232589   3.145   3.872   3.894 -0.2516 -1.4935 -2.7906
 7043SOL     OW32590   1.395   3.172  15.587  0.6036  0.1818  0.3890
 7043SOL    HW132591   1.391   3.076  15.592  2.3226 -0.0722 -2.8630
 7043SOL    HW232592   1.421   3.176  15.494 -1.6356  1.3451 -0.1811
 7044SOL     OW32593   2.794   0.125   3.477  0.4364  0.0995  0.6648
 7044SOL    HW132594   2.723   0.128   3.541  0.4351  0.1942  0.6594
 7044SOL    HW232595   2.834   0.038   3.468  1.4496  0.4408  1.8130
 7045SOL     OW32596   0.913   1.958   8.235  0.4728 -0.4595  0.3144
 7045SOL    HW132597   0.999   1.920   8.251  0.7477  0.1120  0.2303
 7045SOL    HW232598   0.930   2.053   8.237 -2.0429 -0.0235  0.6295
 7046SOL     OW32599   1.385   3.366   3.098 -0.0795  0.4722 -0.5928
 7046SOL    HW132600   1.359   3.312   3.024 -2.0923 -0.5798  0.9021
 7046SOL    HW232601   1.475   3.337   3.117 -0.0361  1.4763  0.7648
 7047SOL     OW32602   3.150   1.566  12.559  0.2432 -0.6431  0.0105
 7047SOL    HW132603   3.109   1.581  12.473  0.8169  1.4996  0.1287
 7047SOL    HW232604   3.224   1.626  12.552  0.4702 -0.9726 -0.4715
 7048SOL     OW32605   3.627   2.460  14.878  0.1529 -0.0317  0.4002
 7048SOL    HW132606   3.570   2.438  14.952 -0.2467 -0.6871 -0.1001
 7048SOL    HW232607   3.596   2.547  14.854  2.0662 -0.6042 -4.2577
 7049SOL     OW32608   2.048   0.010  13.952 -0.3572 -0.2321 -0.0864
 7049SOL    HW132609   2.033   0.092  14.000  1.1387 -0.7241  1.2167
 7049SOL    HW232610   1.963   4.723  13.910 -1.8730  0.9554  2.5361
 7050SOL     OW32611   1.868   1.010   6.434  0.6312 -0.0289  0.2400
 7050SOL    HW132612   1.822   0.930   6.460 -1.1039  1.4271  1.6302
 7050SOL    HW232613   1.945   1.017   6.489  1.5611  1.6118 -1.2685
 7051SOL     OW32614   1.665   4.548   3.723  0.0570  0.1041 -0.4145
 7051SOL    HW132615   1.744   4.590   3.690 -0.5675  0.9612 -0.8220
 7051SOL    HW232616   1.597   4.609   3.694  0.2054 -0.6125 -2.2587
 7052SOL     OW32617   0.354   0.259  16.579 -0.0144 -0.1183  0.4729
 7052SOL    HW132618   0.274   0.218  16.544  2.2519 -4.3441  0.2287
 7052SOL    HW232619   0.403   0.177  16.585  2.7209  1.6976  2.6707
 7053SOL     OW32620   0.118   2.923   1.555 -0.0029 -0.1996  0.2178
 7053SOL    HW132621   0.032   2.965   1.564 -0.3269 -0.6219 -0.8506
 7053SOL    HW232622   0.160   2.999   1.594  2.9400 -0.9861 -1.4710
 7054SOL     OW32623   0.120   3.136  12.183 -0.5283  0.2764  0.3295
 7054SOL    HW132624   0.116   3.159  12.276  1.4986 -1.3483  0.8227
 7054SOL    HW232625   0.213   3.117  12.168 -0.3460  1.8243 -0.5677
 7055SOL     OW32626   4.002   2.669   9.864  0.3995 -0.3109 -0.0026
 7055SOL    HW132627   3.946   2.689   9.939  0.4539  3.1342 -0.8611
 7055SOL    HW232628   4.066   2.740   9.865 -0.2939  0.3281 -0.4721
 7056SOL     OW32629   4.039   4.581  17.610  0.0924  0.4002 -0.1523
 7056SOL    HW132630   3.963   4.635  17.586 -0.2161 -0.6395 -1.4896
 7056SOL    HW232631   4.069   4.626  17.689  0.7070 -0.9971  0.3899
 7057SOL     OW32632   3.703   2.414   6.168 -0.3995 -0.0612 -0.3537
 7057SOL    HW132633   3.789   2.374   6.150 -0.8891 -0.6369 -1.3868
 7057SOL    HW232634   3.642   2.341   6.167 -0.7318  0.2103  0.5502
 7058SOL     OW32635   3.134   1.017   1.717 -0.0974  0.4586 -0.2778
 7058SOL    HW132636   3.209   0.984   1.766  0.8887  0.0543 -2.0546
 7058SOL    HW232637   3.167   1.098   1.677  0.0745  0.1914 -0.6732
 7059SOL     OW32638   3.465   2.290   7.276  0.0606  0.4324  0.1954
 7059SOL    HW132639   3.377   2.318   7.252 -0.3143 -1.2320 -0.4038
 7059SOL    HW232640   3.512   2.370   7.297  0.4607  0.3027 -0.2167
 7060SOL     OW32641   0.677   4.400   5.044  0.4514  0.0887  0.4716
 7060SOL    HW132642   0.698   4.488   5.013  2.7342 -0.2155  1.1823
 7060SOL    HW232643   0.582   4.400   5.057  0.1742  0.1047 -1.5533
 7061SOL     OW32644   0.990   3.451  15.810 -0.6510  0.0913 -0.2915
 7061SOL    HW132645   1.077   3.423  15.782 -1.3911 -1.5822 -0.8851
 7061SOL    HW232646   1.017   3.541  15.827  0.8402 -0.6219  1.1611
 7062SOL     OW32647   1.443   0.522  15.814 -0.1444  0.1455 -0.2156
 7062SOL    HW132648   1.401   0.456  15.759 -0.2431 -0.0208  0.0557
 7062SOL    HW232649   1.500   0.469  15.871  1.1784  0.4318 -1.2607
 7063SOL     OW32650   4.384   0.929   6.706 -0.2519  0.4153 -0.6768
 7063SOL    HW132651   4.363   0.867   6.636 -0.2744  0.7756 -0.9891
 7063SOL    HW232652   4.421   0.999   6.652  0.4116  0.5547 -0.0435
 7064SOL     OW32653   0.416   2.103   7.461 -0.6479 -0.6000 -0.3049
 7064SOL    HW132654   0.485   2.107   7.527 -0.1709 -1.4751 -0.7460
 7064SOL    HW232655   0.434   2.018   7.420 -1.7599 -1.7339  1.5326
 7065SOL     OW32656   2.855   0.518   6.946 -0.0345 -0.0010 -0.0800
 7065SOL    HW132657   2.760   0.507   6.940 -0.0217  0.4841 -1.4307
 7065SOL    HW232658   2.888   0.429   6.937  3.4996  1.5014 -1.8681
 7066SOL     OW32659   4.273   0.489  15.323  0.1812  0.4876 -0.0822
 7066SOL    HW132660   4.212   0.518  15.390 -0.4546 -0.1310 -0.3843
 7066SOL    HW232661   4.349   0.545  15.340  0.2571  1.0763 -2.3743
 7067SOL     OW32662   0.489   3.372  12.014  0.1149 -0.0492  0.2884
 7067SOL    HW132663   0.433   3.309  11.968  0.6714 -1.0882  1.0424
 7067SOL    HW232664   0.537   3.306  12.064  2.2621  1.5360  0.3311
 7068SOL     OW32665   2.815   0.559  14.840  0.3352 -0.3723 -0.4223
 7068SOL    HW132666   2.781   0.520  14.759  1.4180  0.2229 -1.1590
 7068SOL    HW232667   2.733   0.587  14.881  1.9275  1.1155  1.7457
 7069SOL     OW32668   0.136   3.607   9.795 -0.2179 -0.8617 -0.9329
 7069SOL    HW132669   0.153   3.582   9.705 -2.8967  0.3871 -1.8027
 7069SOL    HW232670   0.064   3.547   9.816  0.3142 -0.9309  0.6703
 7070SOL     OW32671   4.379   0.513  12.396  0.5847 -0.9551 -0.6174
 7070SOL    HW132672   4.289   0.531  12.423  2.1402 -0.1097  3.9422
 7070SOL    HW232673   4.405   0.460  12.471  1.2623  1.0008  0.5311
 7071SOL     OW32674   0.928   4.027   5.605 -0.5354 -0.0481  0.2428
 7071SOL    HW132675   0.854   3.971   5.630 -0.2149 -0.2027  0.8221
 7071SOL    HW232676   0.982   4.019   5.683 -1.2043 -1.6579  0.5466
 7072SOL     OW32677   2.218   3.935  15.997 -0.2280 -0.1658 -0.0200
 7072SOL    HW132678   2.276   3.915  16.070 -0.8490  0.5416  0.6640
 7072SOL    HW232679   2.139   3.977  16.031  0.3536  2.0501 -1.3661
 7073SOL     OW32680   4.557   3.493  16.694 -0.8263 -0.2068  0.0851
 7073SOL    HW132681   4.612   3.490  16.773 -0.9081 -1.0022  0.1083
 7073SOL    HW232682   4.562   3.405  16.656 -1.7039  0.4775 -1.5983
 7074SOL     OW32683   0.231   3.895   3.371  0.4272 -0.2219  0.7541
 7074SOL    HW132684   0.158   3.956   3.353  1.0613  0.1493 -0.5823
 7074SOL    HW232685   0.254   3.871   3.281 -0.8545  2.0441 -0.1837
 7075SOL     OW32686   1.707   4.384  11.808  0.1593 -0.6395 -0.0078
 7075SOL    HW132687   1.715   4.346  11.721  2.6603 -1.5675  0.6442
 7075SOL    HW232688   1.624   4.432  11.803  1.2026  1.0957 -0.4395
 7076SOL     OW32689   4.587   0.709   8.453 -0.4446 -0.4696 -0.2613
 7076SOL    HW132690   4.576   0.720   8.358 -1.9417  0.2822  0.0183
 7076SOL    HW232691   4.499   0.679   8.473 -0.4593 -1.6677 -2.0548
 7077SOL     OW32692   2.071   0.363   7.734 -0.2933 -0.0662  0.2071
 7077SOL    HW132693   2.068   0.421   7.810 -1.5475  0.9739 -0.6315
 7077SOL    HW232694   2.042   0.275   7.757 -1.5348  0.5112  0.8625
 7078SOL     OW32695   4.459   2.057   4.566  0.0391  0.2257  0.2993
 7078SOL    HW132696   4.524   2.115   4.607  1.1948 -0.8246 -0.0428
 7078SOL    HW232697   4.383   2.112   4.586  0.6106  1.4998 -1.0417
 7079SOL     OW32698   1.575   3.629  15.135 -0.3675 -0.1144 -0.1401
 7079SOL    HW132699   1.517   3.569  15.087  0.4917  0.5033 -1.9557
 7079SOL    HW232700   1.640   3.570  15.173  0.5432  2.0026  1.5817
 7080SOL     OW32701   2.147   0.342   3.493  0.3070 -0.2566 -0.3329
 7080SOL    HW132702   2.088   0.416   3.479 -1.0451 -0.8127  2.3598
 7080SOL    HW232703   2.173   0.322   3.403 -2.3014  0.9038 -1.3448
 7081SOL     OW32704   1.744   1.181  11.404 -0.1892  0.1169  0.5227
 7081SOL    HW132705   1.721   1.090  11.384 -0.0954 -0.0396  1.1513
 7081SOL    HW232706   1.838   1.181  11.385 -0.3519  0.4908 -0.3203
 7082SOL     OW32707   3.727   1.704   5.895 -0.4951 -0.2080 -0.0299
 7082SOL    HW132708   3.819   1.682   5.909 -0.0072  1.6100 -0.3545
 7082SOL    HW232709   3.743   1.772   5.829  1.0745 -0.4462  0.1040
 7083SOL     OW32710   2.795   1.606   6.712 -0.2192  0.1389 -0.3833
 7083SOL    HW132711   2.710   1.587   6.672 -0.5024  1.9945 -0.6949
 7083SOL    HW232712   2.859   1.570   6.651  1.7681  0.9460  1.2250
 7084SOL     OW32713   4.174   0.557  12.002 -0.1331 -0.2875 -0.1278
 7084SOL    HW132714   4.267   0.538  12.006  0.2375  1.1311 -2.2477
 7084SOL    HW232715   4.171   0.636  12.057  1.0975 -0.6114  0.4102
 7085SOL     OW32716   2.820   0.021   1.661 -0.1696 -0.0158 -0.9694
 7085SOL    HW132717   2.884   4.685   1.694 -0.2508  0.6968  0.5871
 7085SOL    HW232718   2.864   0.102   1.687 -1.5357 -0.0975  1.5970
 7086SOL     OW32719   3.880   3.487   7.883  0.3008 -0.2595 -0.0696
 7086SOL    HW132720   3.948   3.548   7.854  0.5805  0.3173  1.7767
 7086SOL    HW232721   3.917   3.460   7.967 -1.2958 -0.1090  0.6799
 7087SOL     OW32722   3.328   2.476   0.007 -0.5631 -0.7690 -0.1145
 7087SOL    HW132723   3.265   2.546  17.699 -1.3812 -1.1827  1.3672
 7087SOL    HW232724   3.395   2.506  17.654  1.1256  1.4660  2.8663
 7088SOL     OW32725   1.865   0.609   6.326 -0.1572  0.2284  0.2248
 7088SOL    HW132726   1.894   0.674   6.390  0.1726  2.2493 -1.9554
 7088SOL    HW232727   1.951   0.596   6.285 -0.1119  0.6199  0.1978
 7089SOL     OW32728   2.626   2.140  13.786  0.4761 -0.0117 -0.0722
 7089SOL    HW132729   2.605   2.193  13.862  0.6320 -0.0288 -0.0163
 7089SOL    HW232730   2.534   2.138  13.760  0.1777 -3.0128  1.2190
 7090SOL     OW32731   0.395   0.132   0.163 -0.0351 -0.1722  0.0310
 7090SOL    HW132732   0.383   0.047   0.205 -0.8521  0.0630  0.2723
 7090SOL    HW232733   0.451   0.124   0.086  2.4752 -2.3482  2.0606
 7091SOL     OW32734   3.764   3.693   7.726 -0.2469 -0.5064  0.0490
 7091SOL    HW132735   3.680   3.647   7.725 -0.4871 -0.0700  1.3853
 7091SOL    HW232736   3.812   3.641   7.790 -0.3010 -0.0872  0.4263
 7092SOL     OW32737   3.628   0.662  13.775 -0.3960  0.3973  0.2612
 7092SOL    HW132738   3.705   0.682  13.829  0.4513 -0.0748 -0.7766
 7092SOL    HW232739   3.550   0.692  13.821  0.7749 -1.0177  3.1742
 7093SOL     OW32740   4.197   3.658   0.309 -0.2682 -0.7749 -0.3667
 7093SOL    HW132741   4.284   3.628   0.281  0.4742  0.8085  0.2151
 7093SOL    HW232742   4.133   3.629   0.245 -0.2619 -0.3297 -0.5712
 7094SOL     OW32743   3.671   4.595  12.208  0.0180 -0.4591  0.1375
 7094SOL    HW132744   3.681   4.680  12.164  3.0271 -0.2717  1.1182
 7094SOL    HW232745   3.763   4.570  12.195  0.1967  0.0873  0.3371
 7095SOL     OW32746   1.005   1.399  16.282  0.1533 -0.4877  0.0247
 7095SOL    HW132747   1.061   1.351  16.220 -1.0600 -1.4774 -0.3231
 7095SOL    HW232748   0.956   1.450  16.217 -2.3470 -1.2854  1.2659
 7096SOL     OW32749   0.859   3.696   5.528  0.1820 -0.2216  0.2269
 7096SOL    HW132750   0.823   3.766   5.582 -1.6123 -1.1371  0.2271
 7096SOL    HW232751   0.943   3.678   5.570 -0.2493  1.3978  1.7789
 7097SOL     OW32752   0.254   3.593  13.655  0.1632 -0.1573  0.5584
 7097SOL    HW132753   0.307   3.640  13.720  0.0267  2.5610 -1.2666
 7097SOL    HW232754   0.265   3.656  13.583 -1.0711  0.2776  0.7599
 7098SOL     OW32755   1.077   4.309   4.908  0.4923 -0.5428  0.0318
 7098SOL    HW132756   1.015   4.342   4.843 -1.1771 -1.2416  1.2852
 7098SOL    HW232757   1.013   4.268   4.965  0.3941 -3.6879 -2.3562
 7099SOL     OW32758   0.137   2.420   9.232 -0.0273  0.5071 -0.4306
 7099SOL    HW132759   0.138   2.511   9.261  0.8517  0.8379 -1.5190
 7099SOL    HW232760   0.224   2.409   9.194 -0.5183 -2.0769 -0.8295
 7100SOL     OW32761   3.456   0.648   1.041  0.0167 -0.0652  0.2828
 7100SOL    HW132762   3.441   0.639   0.947 -0.4594 -0.7570  0.4220
 7100SOL    HW232763   3.453   0.744   1.043  1.2714 -0.0322  0.6012
 7101SOL     OW32764   1.662   0.217   3.922  0.2336 -0.1111 -0.5666
 7101SOL    HW132765   1.673   0.208   3.827  1.7772  0.2748 -0.4364
 7101SOL    HW232766   1.659   0.126   3.951  1.9326  0.0950  0.2613
 7102SOL     OW32767   0.603   3.612   7.061  0.0823 -0.2183  0.1526
 7102SOL    HW132768   0.604   3.519   7.081  0.1322 -0.5769 -1.5067
 7102SOL    HW232769   0.690   3.642   7.086 -0.9680  2.3959  0.7151
 7103SOL     OW32770   2.066   0.689   2.369 -0.0406 -0.2960  0.5372
 7103SOL    HW132771   1.987   0.728   2.331  0.0794 -0.4039  0.1801
 7103SOL    HW232772   2.085   0.747   2.442 -0.5389  0.4849  0.0398
 7104SOL     OW32773   3.766   2.213   2.880 -0.4371  0.6490  0.1313
 7104SOL    HW132774   3.703   2.164   2.828  1.3653 -1.3888 -0.1247
 7104SOL    HW232775   3.741   2.303   2.858  0.9210  1.1258  0.5462
 7105SOL     OW32776   1.752   3.367   1.363  0.0065  0.2203 -0.4689
 7105SOL    HW132777   1.753   3.414   1.447  0.6258  1.5468 -1.2277
 7105SOL    HW232778   1.819   3.299   1.372  0.1189  0.2974 -0.7343
 7106SOL     OW32779   1.745   1.790   1.008  0.3239 -0.0120  0.1016
 7106SOL    HW132780   1.697   1.747   1.080  0.6657 -0.4778  0.0522
 7106SOL    HW232781   1.738   1.726   0.938  1.9334  0.7722 -0.7482
 7107SOL     OW32782   3.087   2.193   4.961  0.5222 -0.1777  0.3937
 7107SOL    HW132783   3.126   2.131   5.023 -0.2053 -0.9424  0.0733
 7107SOL    HW232784   3.161   2.255   4.960  1.3904 -1.2165  0.1123
 7108SOL     OW32785   3.636   3.335  15.378 -0.0558  0.1367  0.5073
 7108SOL    HW132786   3.547   3.371  15.378  0.5921  1.7390  1.3319
 7108SOL    HW232787   3.657   3.349  15.470  0.0201 -0.7999  0.6342
 7109SOL     OW32788   2.986   3.834  16.236 -0.3787 -0.5764 -0.4092
 7109SOL    HW132789   2.950   3.877  16.159  0.0578 -1.8078 -1.3013
 7109SOL    HW232790   3.079   3.827  16.218  0.3146 -1.7089  3.7067
 7110SOL     OW32791   0.314   3.096  17.341  0.1346  0.3405 -0.0882
 7110SOL    HW132792   0.247   3.163  17.350  0.4308  0.3770  1.7806
 7110SOL    HW232793   0.390   3.145  17.373  1.2355 -2.9317  2.3298
 7111SOL     OW32794   3.389   2.607  15.808 -0.1622  0.7653 -0.1485
 7111SOL    HW132795   3.379   2.686  15.861  0.6425  1.1773 -0.6152
 7111SOL    HW232796   3.389   2.538  15.875 -0.0755 -1.9592 -2.9795
 7112SOL     OW32797   1.471   2.863  14.045  0.0563 -0.8895 -0.3870
 7112SOL    HW132798   1.524   2.937  14.016 -1.0214 -0.1715 -0.5704
 7112SOL    HW232799   1.528   2.828  14.114 -0.2047  0.7964  0.6891
 7113SOL     OW32800   3.920   2.360   8.553  0.3341  0.6429 -0.4274
 7113SOL    HW132801   3.919   2.287   8.615  0.0600 -0.9663 -2.3323
 7113SOL    HW232802   3.882   2.437   8.597 -2.6732  0.5270 -2.8327
 7114SOL     OW32803   0.545   4.043   6.952  0.4948 -0.4009 -0.3189
 7114SOL    HW132804   0.533   4.085   6.867 -0.8226 -1.2255 -0.5336
 7114SOL    HW232805   0.489   3.967   6.936 -0.6878  0.0726  1.6581
 7115SOL     OW32806   1.100   1.743   6.298 -0.1617  0.2351  0.3948
 7115SOL    HW132807   1.085   1.666   6.243  0.5944  0.8413 -0.6574
 7115SOL    HW232808   1.157   1.801   6.247 -0.5501 -0.4170 -0.7897
 7116SOL     OW32809   1.542   2.859   4.216 -0.5744  0.3482 -0.2280
 7116SOL    HW132810   1.461   2.809   4.230 -0.6901  0.2601 -1.1597
 7116SOL    HW232811   1.509   2.914   4.144  1.0717 -0.5495 -1.6798
 7117SOL     OW32812   0.200   4.395   9.114 -0.1912 -0.1550  0.2342
 7117SOL    HW132813   0.148   4.433   9.043 -0.3948  0.0513  0.4946
 7117SOL    HW232814   0.260   4.348   9.057  2.7213  0.3388  2.9064
 7118SOL     OW32815   1.932   3.097   6.307  0.3094 -0.2260  0.3903
 7118SOL    HW132816   2.015   3.102   6.259 -1.2731 -2.3092 -2.5573
 7118SOL    HW232817   1.968   3.085   6.395  0.8370  3.3475  0.6741
 7119SOL     OW32818   2.870   2.877  17.063 -0.9568  0.4876 -0.5239
 7119SOL    HW132819   2.804   2.946  17.064 -1.5104 -0.0881  2.3359
 7119SOL    HW232820   2.934   2.909  17.127 -0.1558 -1.0911 -0.5459
 7120SOL     OW32821   4.437   0.728   7.800  0.4413  0.2261  0.3279
 7120SOL    HW132822   4.355   0.759   7.763  1.4564 -0.6769 -2.6339
 7120SOL    HW232823   4.416   0.634   7.792  2.1164  0.0373 -1.7974
 7121SOL     OW32824   2.442   3.210   8.944 -0.4969 -0.1236  0.0447
 7121SOL    HW132825   2.372   3.234   9.005  2.0733  2.4570  2.0094
 7121SOL    HW232826   2.479   3.299   8.941  1.7162 -1.1101 -1.6929
 7122SOL     OW32827   1.999   1.765   2.585  0.2568  0.0207 -0.2286
 7122SOL    HW132828   2.042   1.848   2.566 -1.5729  0.7127 -1.2669
 7122SOL    HW232829   1.956   1.755   2.500 -1.9613  0.3560  0.8728
 7123SOL     OW32830   1.101   2.016   3.614  0.3295  0.1774  0.5233
 7123SOL    HW132831   1.131   1.995   3.525  0.5909 -3.3007  1.4285
 7123SOL    HW232832   1.070   1.933   3.650  0.0268  0.6930  1.4583
 7124SOL     OW32833   1.415   0.870  14.840 -0.2618  0.0708 -0.2106
 7124SOL    HW132834   1.428   0.787  14.792  0.1588  0.3394 -0.5691
 7124SOL    HW232835   1.348   0.845  14.902  1.0449 -0.9899  0.7796
 7125SOL     OW32836   1.801   2.657  13.818  0.0452 -0.0144  0.4688
 7125SOL    HW132837   1.869   2.589  13.827 -1.2497 -1.3659  0.0778
 7125SOL    HW232838   1.851   2.737  13.831  0.9770 -0.3708 -0.9368
 7126SOL     OW32839   0.620   3.620   7.954  0.3737 -0.0354  0.1080
 7126SOL    HW132840   0.714   3.634   7.968  0.2095 -0.3421  1.5239
 7126SOL    HW232841   0.620   3.589   7.863 -1.6840  1.7256 -0.4789
 7127SOL     OW32842   4.343   1.317   9.222  0.3042  0.1497  0.4754
 7127SOL    HW132843   4.283   1.270   9.280 -1.0366 -2.0283 -2.7042
 7127SOL    HW232844   4.427   1.288   9.259  0.5986  0.2441 -0.1101
 7128SOL     OW32845   1.173   1.800   2.798  0.2246 -0.2877  0.1098
 7128SOL    HW132846   1.128   1.735   2.743 -0.4764 -0.0332  0.3794
 7128SOL    HW232847   1.262   1.766   2.811  0.3768  0.3332  0.6892
 7129SOL     OW32848   0.780   2.524   2.038  0.2135 -0.2380 -0.5153
 7129SOL    HW132849   0.785   2.570   1.955 -2.5772  1.4477  0.2529
 7129SOL    HW232850   0.717   2.455   2.019  0.2179 -0.4846  0.3548
 7130SOL     OW32851   1.291   3.991  15.145 -0.3327 -0.3479 -0.4727
 7130SOL    HW132852   1.220   4.037  15.102 -0.6323 -1.4341 -1.1263
 7130SOL    HW232853   1.360   3.995  15.078 -1.5047 -2.6807 -1.8156
 7131SOL     OW32854   0.865   3.505   6.015  0.2284 -0.0750 -0.1063
 7131SOL    HW132855   0.872   3.569   6.087  1.3473  0.0769 -0.3529
 7131SOL    HW232856   0.779   3.519   5.977  0.2535  0.2465 -0.0440
 7132SOL     OW32857   1.197   3.307  12.327 -0.3315  0.2164  0.1832
 7132SOL    HW132858   1.168   3.243  12.392 -0.2214 -0.7303 -0.7051
 7132SOL    HW232859   1.280   3.275  12.291 -0.6684  0.4515 -0.8053
 7133SOL     OW32860   1.236   2.178  11.391 -0.0751  0.1239  0.5813
 7133SOL    HW132861   1.177   2.182  11.316  1.4696 -2.1852 -0.7598
 7133SOL    HW232862   1.318   2.202  11.347 -0.3411  0.5866  0.3358
 7134SOL     OW32863   3.775   1.341  13.682  0.2351 -0.1565 -0.3043
 7134SOL    HW132864   3.697   1.354  13.628  0.8916 -0.0010 -1.2046
 7134SOL    HW232865   3.744   1.385  13.761 -0.9909 -0.9147 -0.3610
 7135SOL     OW32866   4.543   3.986   9.498 -0.4496 -0.3484  0.1112
 7135SOL    HW132867   4.465   4.029   9.534 -0.2710 -0.2089  0.3246
 7135SOL    HW232868   4.500   3.903   9.473  0.2177  0.0381 -2.3501
 7136SOL     OW32869   1.142   4.607  16.367 -0.0329 -0.2517  0.3942
 7136SOL    HW132870   1.139   4.606  16.463 -0.7215 -0.6792  0.3682
 7136SOL    HW232871   1.173   4.518  16.347 -0.3449 -0.2325 -0.1541
 7137SOL     OW32872   0.957   0.528   5.054 -0.4381  0.0926 -0.5004
 7137SOL    HW132873   1.029   0.472   5.027  0.5891  0.1767  2.0313
 7137SOL    HW232874   0.988   0.543   5.144 -2.1282  1.8743 -0.2013
 7138SOL     OW32875   0.533   3.341   1.997 -0.2246  0.3154  0.0364
 7138SOL    HW132876   0.472   3.276   2.033 -1.1810  1.0740 -0.2274
 7138SOL    HW232877   0.474   3.386   1.937  0.0434 -0.6921 -0.9763
 7139SOL     OW32878   0.433   3.387   3.557  0.0010 -0.4678  0.5452
 7139SOL    HW132879   0.367   3.319   3.565  1.6940 -2.1609  0.1132
 7139SOL    HW232880   0.416   3.426   3.471  0.4576  1.2129  1.2127
 7140SOL     OW32881   2.124   2.120   8.357 -0.2012  0.4319 -0.3434
 7140SOL    HW132882   2.047   2.125   8.414  0.2584  0.8436  0.2500
 7140SOL    HW232883   2.193   2.122   8.424 -0.5992 -1.8429  0.1575
 7141SOL     OW32884   3.478   0.749  13.146 -0.0382 -0.4219  0.2788
 7141SOL    HW132885   3.462   0.654  13.144 -0.3782 -0.3591 -0.2389
 7141SOL    HW232886   3.501   0.765  13.237  2.5283 -1.7029 -0.1380
 7142SOL     OW32887   1.431   0.119   0.645  0.2551  0.0629 -0.2877
 7142SOL    HW132888   1.475   0.133   0.562  0.4800 -2.2745 -0.5589
 7142SOL    HW232889   1.363   0.186   0.646  0.6400  0.4319  1.7421
 7143SOL     OW32890   0.015   4.019   3.273  0.0758  0.8284 -0.1438
 7143SOL    HW132891   4.675   4.025   3.205 -0.3625  0.3707  0.2359
 7143SOL    HW232892   4.686   4.027   3.351  0.3319 -0.9935  0.2173
 7144SOL     OW32893   1.186   0.767   4.666  0.6045  0.9786 -0.2702
 7144SOL    HW132894   1.110   0.760   4.723 -0.7997  2.9099 -1.8842
 7144SOL    HW232895   1.190   0.862   4.666 -0.5651  1.0144  1.1870
 7145SOL     OW32896   2.446   1.521   1.099  0.2922 -0.3033  0.1847
 7145SOL    HW132897   2.505   1.474   1.158 -0.3329 -0.9466  0.2960
 7145SOL    HW232898   2.419   1.598   1.150 -0.5136 -0.1260 -0.5050
 7146SOL     OW32899   3.783   3.742  11.915  0.6731  0.1472  0.5556
 7146SOL    HW132900   3.787   3.772  12.006  0.0125  2.2885 -0.1342
 7146SOL    HW232901   3.689   3.732  11.901  0.5344  0.0794  1.5195
 7147SOL     OW32902   3.509   1.228   7.169  0.2212  0.1698  0.2261
 7147SOL    HW132903   3.479   1.288   7.237  0.3735  0.0465  0.4021
 7147SOL    HW232904   3.582   1.269   7.122 -0.6325  1.3197 -0.1054
 7148SOL     OW32905   3.388   0.625   2.205 -0.0826 -0.0335 -0.5935
 7148SOL    HW132906   3.473   0.657   2.235 -0.2073  1.0019 -1.3752
 7148SOL    HW232907   3.407   0.593   2.117  0.6166  0.9012 -0.7719
 7149SOL     OW32908   1.377   0.434   8.438 -0.1784  0.2571  0.1564
 7149SOL    HW132909   1.355   0.454   8.529  0.5841 -0.0100  0.4001
 7149SOL    HW232910   1.408   0.344   8.444 -0.5106  0.2314  1.3904
 7150SOL     OW32911   4.721   4.458  16.539  0.4811  0.0859 -0.5383
 7150SOL    HW132912   4.711   4.364  16.526  2.6758 -0.2341  0.1701
 7150SOL    HW232913   0.002   4.477  16.446  0.0117  2.6153 -0.0712
 7151SOL     OW32914   3.471   1.286   5.249 -0.0764  0.0109  0.1507
 7151SOL    HW132915   3.402   1.255   5.308 -1.1799 -1.0180 -1.6824
 7151SOL    HW232916   3.508   1.360   5.297  0.6729  0.9611 -1.8738
 7152SOL     OW32917   1.637   0.092   9.242  0.1064 -0.0682 -0.7788
 7152SOL    HW132918   1.675   0.126   9.324  1.2362 -0.9688 -0.9315
 7152SOL    HW232919   1.576   0.163   9.222 -0.2690  0.2567  1.4806
 7153SOL     OW32920   3.430   3.509   9.688 -0.1775 -0.2907  0.4974
 7153SOL    HW132921   3.507   3.565   9.681  0.1323 -0.7975 -0.2281
 7153SOL    HW232922   3.390   3.547   9.609  1.0538  0.4100  0.2103
 7154SOL     OW32923   3.643   4.028  16.481 -0.1734 -0.2407 -0.4217
 7154SOL    HW132924   3.712   4.030  16.547 -1.6362  0.1437  1.0954
 7154SOL    HW232925   3.693   4.022  16.400 -0.2230  0.6885 -0.5198
 7155SOL     OW32926   1.655   3.052   0.851 -0.0226 -0.9517  0.2912
 7155SOL    HW132927   1.612   3.119   0.904 -1.1777 -2.2040  0.9342
 7155SOL    HW232928   1.748   3.066   0.864 -0.2428 -0.8165  1.6593
 7156SOL     OW32929   1.604   4.302   2.063 -0.8619 -0.2059  0.6277
 7156SOL    HW132930   1.693   4.338   2.061  0.0407 -2.6886 -3.6686
 7156SOL    HW232931   1.547   4.375   2.038  1.1584  0.5248 -1.8938
 7157SOL     OW32932   3.912   2.509   2.407  0.1243 -0.3972 -0.2414
 7157SOL    HW132933   3.998   2.469   2.417  0.0031 -0.6161 -0.0871
 7157SOL    HW232934   3.895   2.467   2.323  0.6574 -0.2047 -0.4442
 7158SOL     OW32935   4.719   4.650   5.614  0.1628  0.0642  0.5893
 7158SOL    HW132936   4.670   4.693   5.684 -2.0548  0.0583 -0.9589
 7158SOL    HW232937   0.064   4.602   5.657 -1.1164 -0.7223  1.8175
 7159SOL     OW32938   0.672   0.199   2.278  0.0398  0.6499 -0.0129
 7159SOL    HW132939   0.667   0.266   2.346 -0.1533 -0.6093  1.2191
 7159SOL    HW232940   0.606   0.134   2.303  1.2604 -1.6152 -2.6341
 7160SOL     OW32941   2.432   3.213   0.521 -0.7582 -0.3658  0.3896
 7160SOL    HW132942   2.361   3.156   0.494  0.1176  0.7053 -4.1898
 7160SOL    HW232943   2.463   3.244   0.436 -1.8859  0.4519  0.2826
 7161SOL     OW32944   0.808   2.036  15.218  0.0127  0.6563  0.2281
 7161SOL    HW132945   0.863   1.998  15.149 -0.4032 -0.0440  0.2892
 7161SOL    HW232946   0.724   1.995  15.197 -0.7106  1.3387  1.8052
 7162SOL     OW32947   0.025   0.395   0.431  0.2636 -0.1298  0.3987
 7162SOL    HW132948   4.679   0.453   0.405  0.8889  0.5749  0.2263
 7162SOL    HW232949   0.074   0.399   0.349 -1.3467  0.3626 -0.5430
 7163SOL     OW32950   2.571   2.317   7.718 -0.2331 -0.0421  0.0106
 7163SOL    HW132951   2.485   2.282   7.741 -2.2822  2.6714 -3.3529
 7163SOL    HW232952   2.579   2.378   7.791  1.6890 -0.0159 -0.2220
 7164SOL     OW32953   1.650   0.580   5.131 -0.5964  0.4450  0.1284
 7164SOL    HW132954   1.657   0.606   5.039 -1.3090 -0.1925 -0.1026
 7164SOL    HW232955   1.655   0.664   5.177 -0.8132  1.2998 -1.4045
 7165SOL     OW32956   4.444   4.661  15.323  0.1538 -0.4173  0.4065
 7165SOL    HW132957   4.414   4.648  15.232 -0.6826 -1.5075  0.8371
 7165SOL    HW232958   4.501   0.009  15.308  0.5746 -0.6834  0.6983
 7166SOL     OW32959   0.026   0.946  16.541  0.7827  0.0881  0.3725
 7166SOL    HW132960   0.119   0.966  16.551  0.9823 -0.2391 -0.9242
 7166SOL    HW232961   0.024   0.855  16.571 -1.5754  0.3625  1.0810
 7167SOL     OW32962   1.503   3.111  11.368  0.2897 -0.3171  0.4017
 7167SOL    HW132963   1.524   3.046  11.301  1.9742  0.3703  0.2921
 7167SOL    HW232964   1.549   3.080  11.446  1.3515 -1.9577 -0.8839
 7168SOL     OW32965   0.223   3.121   4.571  0.1037  0.6263 -0.0792
 7168SOL    HW132966   0.128   3.128   4.580  0.1703  0.4229  0.7309
 7168SOL    HW232967   0.244   3.064   4.645 -0.2962  2.2027  1.2447
 7169SOL     OW32968   3.108   4.698   7.949  0.2663 -0.5569 -0.6999
 7169SOL    HW132969   3.190   0.020   7.960  0.0315 -0.3321  0.0528
 7169SOL    HW232970   3.051   0.044   7.974 -0.7689 -1.8795  0.7389
 7170SOL     OW32971   1.170   3.545   5.415 -0.0101  0.3648 -0.5635
 7170SOL    HW132972   1.258   3.535   5.378  0.6392 -0.0961  1.0930
 7170SOL    HW232973   1.152   3.631   5.377  1.0141  0.8808  0.1469
 7171SOL     OW32974   2.642   2.951   4.329 -0.2678  1.3508 -0.2076
 7171SOL    HW132975   2.710   2.959   4.397  0.2634  1.3732 -0.7404
 7171SOL    HW232976   2.613   2.860   4.341  1.3428  1.0596  1.5274
 7172SOL     OW32977   1.713   2.189   6.118  0.4895 -0.1639  0.4269
 7172SOL    HW132978   1.751   2.113   6.074 -0.7785 -0.6686  0.2217
 7172SOL    HW232979   1.639   2.150   6.164  0.5885 -0.4779  0.3232
 7173SOL     OW32980   2.971   3.783   7.658  0.2948  0.1438  0.1984
 7173SOL    HW132981   2.889   3.800   7.705 -0.9881 -0.7973 -1.6881
 7173SOL    HW232982   3.041   3.799   7.722 -0.3922 -1.9398  1.4889
 7174SOL     OW32983   2.789   0.770   6.007  0.1480 -0.1031 -0.7333
 7174SOL    HW132984   2.883   0.774   6.025 -0.5035 -0.8556  2.9154
 7174SOL    HW232985   2.738   0.723   6.074  0.1213 -0.8563 -1.2792
 7175SOL     OW32986   3.278   3.782   1.600  0.4740 -0.0095  0.0880
 7175SOL    HW132987   3.359   3.825   1.627  1.0619 -0.4922 -0.9568
 7175SOL    HW232988   3.247   3.745   1.683 -2.2678  0.6731 -0.6143
 7176SOL     OW32989   0.255   0.829   2.478  0.1664  0.1310  0.5208
 7176SOL    HW132990   0.268   0.745   2.433  2.0745  0.8472 -0.2738
 7176SOL    HW232991   0.293   0.894   2.419  1.9039 -1.5040 -0.1644
 7177SOL     OW32992   1.367   3.316   2.580 -0.0667 -0.3564 -0.8202
 7177SOL    HW132993   1.443   3.371   2.563 -1.4524  1.5210 -0.9404
 7177SOL    HW232994   1.359   3.280   2.492 -0.9493 -0.6823 -0.6046
 7178SOL     OW32995   3.272   3.463   5.935 -0.0524  0.2538 -0.0889
 7178SOL    HW132996   3.192   3.435   5.892 -1.0490  2.4165  0.3711
 7178SOL    HW232997   3.334   3.395   5.909  1.0023  0.7793  1.0609
 7179SOL     OW32998   4.025   3.646   4.207 -0.2087 -0.2156  0.6713
 7179SOL    HW132999   4.036   3.636   4.112  0.2709  0.8321  0.6218
 7179SOL    HW233000   4.080   3.580   4.249 -1.4000 -1.1434  0.7711
 7180SOL     OW33001   2.178   1.235  12.909 -0.0319 -0.3823  0.6231
 7180SOL    HW133002   2.111   1.273  12.967 -0.1375  0.4314 -0.0300
 7180SOL    HW233003   2.235   1.307  12.883  0.5453 -0.8307  0.6357
 7181SOL     OW33004   0.572   1.838   3.068 -0.2488 -0.5945 -0.0611
 7181SOL    HW133005   0.493   1.841   3.014 -0.7995  1.0410  0.8228
 7181SOL    HW233006   0.545   1.792   3.147  1.9717  2.1162  2.2827
 7182SOL     OW33007   0.078   2.684   8.235  0.1669  0.7058  0.0185
 7182SOL    HW133008   0.023   2.759   8.256 -2.0309 -0.7746 -0.5007
 7182SOL    HW233009   0.020   2.608   8.235 -1.4772  1.9683  2.5098
 7183SOL     OW33010   1.410   1.698   6.022 -0.2185  0.2818 -0.2265
 7183SOL    HW133011   1.355   1.624   6.050  0.1542  0.8634  2.0329
 7183SOL    HW233012   1.495   1.654   6.015  0.2414  1.3211 -1.1751
 7184SOL     OW33013   1.889   3.676   3.010  0.5880 -0.0153  0.6792
 7184SOL    HW133014   1.882   3.598   3.064 -1.6292 -0.7469 -0.6637
 7184SOL    HW233015   1.905   3.742   3.077  0.9863  2.4432 -1.8491
 7185SOL     OW33016   3.502   2.042   3.035 -0.2244 -0.9918  0.5963
 7185SOL    HW133017   3.521   2.073   2.946 -2.9349 -1.8442 -0.2757
 7185SOL    HW233018   3.421   2.090   3.050  0.3315 -0.0106  0.4780
 7186SOL     OW33019   4.033   0.701   2.252  0.5271  0.2298  0.0519
 7186SOL    HW133020   4.003   0.785   2.286 -2.1014  0.2578 -2.3985
 7186SOL    HW233021   3.970   0.636   2.283  2.1632 -1.5377 -0.2619
 7187SOL     OW33022   1.166   4.044  16.922 -0.0907  0.3500 -0.3816
 7187SOL    HW133023   1.130   4.082  17.001  1.1629 -0.8088  0.7449
 7187SOL    HW233024   1.255   4.080  16.928 -0.0784  0.0576  0.9961
 7188SOL     OW33025   3.832   4.029   4.113  0.0566 -0.4409  0.4427
 7188SOL    HW133026   3.768   3.978   4.065 -1.3392  0.4847  1.3331
 7188SOL    HW233027   3.812   4.113   4.071  1.0710 -0.9115 -0.9817
 7189SOL     OW33028   2.020   4.211   2.524  0.0294 -0.1997 -0.5596
 7189SOL    HW133029   2.058   4.287   2.480  0.5824 -0.1609 -0.0243
 7189SOL    HW233030   1.928   4.235   2.530  0.0297 -0.9662  2.2391
 7190SOL     OW33031   3.717   1.974   4.113 -0.1544 -0.3671  0.1859
 7190SOL    HW133032   3.686   2.064   4.125  0.7645 -0.0682  0.2939
 7190SOL    HW233033   3.634   1.928   4.127 -0.6092  0.3697 -0.0155
 7191SOL     OW33034   0.278   1.288  16.666 -0.1585 -0.4086  0.1015
 7191SOL    HW133035   0.196   1.290  16.716 -0.1820 -2.2154  0.1512
 7191SOL    HW233036   0.322   1.363  16.706 -0.3274  0.1915 -0.8410
 7192SOL     OW33037   2.502   0.356   2.424 -0.7114  0.0370  0.0042
 7192SOL    HW133038   2.528   0.418   2.356  0.0079  1.3547  1.5192
 7192SOL    HW233039   2.430   0.316   2.375 -0.1491 -1.6612  0.5470
 7193SOL     OW33040   3.424   4.490   3.501 -0.3410 -0.3139 -0.7219
 7193SOL    HW133041   3.344   4.456   3.461 -0.4426  0.7447 -1.3928
 7193SOL    HW233042   3.398   4.579   3.522 -0.6229 -0.5708  0.0202
 7194SOL     OW33043   0.946   2.922   4.070  0.2317  0.2764  0.1382
 7194SOL    HW133044   0.911   2.964   3.992 -0.1978 -0.4825 -0.0764
 7194SOL    HW233045   1.039   2.923   4.048 -0.8313  0.1179 -4.3431
 7195SOL     OW33046   3.572   4.628   4.082  0.3571 -0.0362  0.3702
 7195SOL    HW133047   3.556   4.716   4.116 -1.5162  0.0654 -0.7938
 7195SOL    HW233048   3.576   4.643   3.988 -2.7379  0.0029  0.2386
 7196SOL     OW33049   0.720   0.555   7.558  0.4255 -0.1104 -0.3032
 7196SOL    HW133050   0.808   0.529   7.533  0.3975  0.0807 -0.6076
 7196SOL    HW233051   0.722   0.651   7.564  0.1124 -0.1484  0.3818
 7197SOL     OW33052   0.045   0.100  15.667  0.3452  0.2053  0.7303
 7197SOL    HW133053   0.057   0.007  15.685  0.6499 -0.6185 -3.6886
 7197SOL    HW233054   4.683   0.105  15.631  1.0858  0.5561 -1.0366
 7198SOL     OW33055   3.900   4.100   7.119  0.4649  0.8460 -0.3610
 7198SOL    HW133056   3.823   4.046   7.102 -0.1007  0.9591  1.8658
 7198SOL    HW233057   3.847   4.179   7.130 -0.1360  0.2847  0.7948
 7199SOL     OW33058   0.360   1.518   4.298 -0.1551  0.0275 -0.3224
 7199SOL    HW133059   0.297   1.482   4.236 -2.3692 -0.5089  2.2379
 7199SOL    HW233060   0.393   1.439   4.342 -0.8197  1.9831  3.7405
 7200SOL     OW33061   0.986   2.815   1.287 -0.5131 -0.1566  0.2804
 7200SOL    HW133062   0.980   2.723   1.262 -0.6882 -0.4626  1.4508
 7200SOL    HW233063   1.080   2.833   1.291 -0.4734 -0.6099  1.4505
 7201SOL     OW33064   1.557   3.959   6.362 -0.1343  0.5214  0.0846
 7201SOL    HW133065   1.477   3.911   6.384 -0.1034  0.5088  0.1679
 7201SOL    HW233066   1.584   3.908   6.285  0.5390  1.4117 -0.2654
 7202SOL     OW33067   3.358   4.180   5.620 -0.3340 -0.1872  0.0002
 7202SOL    HW133068   3.424   4.189   5.552  1.3394 -1.1482  1.4969
 7202SOL    HW233069   3.354   4.085   5.629  2.2838 -0.1705  1.4873
 7203SOL     OW33070   4.180   2.621   7.309 -0.3057  0.3163  0.2786
 7203SOL    HW133071   4.231   2.701   7.322  1.1399 -0.7190  0.9905
 7203SOL    HW233072   4.134   2.615   7.392  1.0012 -0.7425  0.9169
 7204SOL     OW33073   1.800   3.886   4.248  0.1776  0.0770  0.1592
 7204SOL    HW133074   1.866   3.945   4.286  2.1185 -1.2039 -1.2381
 7204SOL    HW233075   1.854   3.873   4.170 -0.6265 -1.9693 -0.0430
 7205SOL     OW33076   3.207   0.429  10.027  0.3678 -0.1155  0.1789
 7205SOL    HW133077   3.300   0.420  10.004  0.5159  1.7996  0.0048
 7205SOL    HW233078   3.200   0.518   9.992 -1.5424 -0.9334 -1.4938
 7206SOL     OW33079   2.628   2.760  15.282 -0.2344 -0.1568 -0.2968
 7206SOL    HW133080   2.599   2.851  15.273  0.1511  0.2365  2.2202
 7206SOL    HW233081   2.545   2.712  15.284 -1.2092  1.5764  0.5131
 7207SOL     OW33082   3.161   0.759  14.834  0.2563  0.1255  0.1654
 7207SOL    HW133083   3.157   0.666  14.857  1.1855 -0.3033 -1.4170
 7207SOL    HW233084   3.248   0.763  14.794  0.8865  0.5208  1.5663
 7208SOL     OW33085   3.064   4.335  16.057  0.5359 -0.4370  0.5366
 7208SOL    HW133086   2.982   4.376  16.031 -0.7837 -1.5405  2.8553
 7208SOL    HW233087   3.069   4.252  16.010 -1.2044 -0.7410  0.8755
 7209SOL     OW33088   1.702   1.319  14.353 -0.5294  0.0342  0.9872
 7209SOL    HW133089   1.728   1.410  14.363  0.3128 -0.0907 -0.0168
 7209SOL    HW233090   1.781   1.275  14.384 -0.3810 -0.9755 -0.8084
 7210SOL     OW33091   1.108   3.165  12.566 -0.3654 -0.2254 -0.4962
 7210SOL    HW133092   1.037   3.102  12.577  0.0964 -0.3235  2.0788
 7210SOL    HW233093   1.184   3.125  12.608 -1.3205 -0.2226  1.2453
 7211SOL     OW33094   3.800   2.175  12.157 -0.2310 -0.7465 -0.4664
 7211SOL    HW133095   3.891   2.180  12.128  0.1800  0.7458  1.0774
 7211SOL    HW233096   3.797   2.256  12.207  0.8645 -1.4283  0.7040
 7212SOL     OW33097   3.564   0.799   0.562 -0.6869  0.1216  0.0922
 7212SOL    HW133098   3.539   0.746   0.638  1.9092  0.8288  1.4248
 7212SOL    HW233099   3.653   0.773   0.538 -1.4974 -2.2271 -0.3576
 7213SOL     OW33100   0.872   1.177   5.559  0.2754  0.4783 -0.2642
 7213SOL    HW133101   0.838   1.104   5.610 -0.2822  0.0937 -1.1806
 7213SOL    HW233102   0.828   1.155   5.477  0.4025 -0.7125 -0.0024
 7214SOL     OW33103   0.848   0.022   8.712 -0.1678  0.2213  0.6819
 7214SOL    HW133104   0.872   4.666   8.755  0.4819  1.1797  2.1412
 7214SOL    HW233105   0.821   0.066   8.792 -1.9633  0.9813 -0.3303
 7215SOL     OW33106   2.496   4.033   3.131 -0.1314 -0.0176  0.0928
 7215SOL    HW133107   2.492   4.126   3.154  1.0391 -0.3067  1.4214
 7215SOL    HW233108   2.525   4.037   3.040 -0.3234 -1.6182 -0.0369
 7216SOL     OW33109   2.834   3.652   6.481 -0.0334 -0.0800  0.0256
 7216SOL    HW133110   2.766   3.695   6.534  2.2740  0.3381  2.6830
 7216SOL    HW233111   2.793   3.566   6.475 -1.9684  0.9012 -0.8481
 7217SOL     OW33112   2.093   3.640   4.370  0.1677 -0.0866 -0.1441
 7217SOL    HW133113   2.117   3.616   4.281 -0.9917  1.9402 -1.0109
 7217SOL    HW233114   2.140   3.723   4.379 -0.9285  0.5018  0.1212
 7218SOL     OW33115   3.170   2.344   5.377 -0.6088  0.4394  0.6649
 7218SOL    HW133116   3.260   2.376   5.377 -1.0611  1.6987 -1.1324
 7218SOL    HW233117   3.147   2.406   5.308  2.7149 -0.5934 -1.3557
 7219SOL     OW33118   1.022   3.019  14.174  0.3426 -0.5268 -0.3560
 7219SOL    HW133119   1.084   3.090  14.155  0.5431 -0.6036  0.0108
 7219SOL    HW233120   1.072   2.938  14.180  0.1943 -0.5795  0.2327
 7220SOL     OW33121   1.546   2.643   8.766 -0.0811  0.1013 -0.5216
 7220SOL    HW133122   1.628   2.593   8.762 -2.4182 -3.5131 -2.3367
 7220SOL    HW233123   1.493   2.573   8.803 -0.2117  0.5368  0.1244
 7221SOL     OW33124   4.221   4.675   5.558 -0.8946 -0.2008  0.6772
 7221SOL    HW133125   4.233   4.598   5.502 -2.9098  0.8621 -1.1776
 7221SOL    HW233126   4.158   4.725   5.506  2.1589  1.0287 -1.8898
 7222SOL     OW33127   1.561   3.934   7.346 -0.2187 -0.0817  0.2883
 7222SOL    HW133128   1.588   3.860   7.292 -2.3477  0.8403 -2.0641
 7222SOL    HW233129   1.637   3.991   7.351  0.3363 -0.6077 -2.1692
 7223SOL     OW33130   0.755   3.211   3.760  0.0791  0.3739  0.5888
 7223SOL    HW133131   0.769   3.125   3.799  0.8223 -0.1416 -0.8308
 7223SOL    HW233132   0.740   3.183   3.670  2.5565 -1.1037  0.6548
 7224SOL     OW33133   3.747   4.620   5.648  0.1854 -0.0726  0.0764
 7224SOL    HW133134   3.802   4.677   5.593 -0.3542  0.5138  0.1482
 7224SOL    HW233135   3.692   4.688   5.686 -0.5000 -2.0725  2.6853
 7225SOL     OW33136   4.599   3.719   7.220  0.3076 -0.0213 -0.2901
 7225SOL    HW133137   4.648   3.688   7.296  1.9520  0.9514 -0.9615
 7225SOL    HW233138   4.662   3.780   7.182 -2.2810  1.9551 -1.4278
 7226SOL     OW33139   3.491   0.259   0.892 -0.3064  0.0364 -1.0889
 7226SOL    HW133140   3.461   0.293   0.807 -0.8761  0.2201 -0.8149
 7226SOL    HW233141   3.579   0.242   0.860 -0.5673 -0.6316 -1.4505
 7227SOL     OW33142   0.798   3.145   7.338  0.4791 -0.3603 -0.6575
 7227SOL    HW133143   0.825   3.099   7.418  0.5167 -0.2214 -0.5892
 7227SOL    HW233144   0.763   3.071   7.290 -1.9594 -0.2500  0.9404
 7228SOL     OW33145   0.204   2.015   3.598  0.2162  0.0811 -0.1349
 7228SOL    HW133146   0.146   2.030   3.523  0.5577 -1.7198 -0.7637
 7228SOL    HW233147   0.156   2.061   3.667 -1.3743 -1.7880 -0.0155
 7229SOL     OW33148   2.116   0.383  17.664  0.1126 -0.2125 -0.2299
 7229SOL    HW133149   2.169   0.452  17.705  0.9446 -1.5726  0.9630
 7229SOL    HW233150   2.130   0.314   0.021  0.9396  1.7010  1.6299
 7230SOL     OW33151   0.120   0.701  13.035 -0.5295  0.1388 -0.2296
 7230SOL    HW133152   0.205   0.746  13.038 -0.3382 -0.3114  1.2378
 7230SOL    HW233153   0.080   0.755  13.103 -0.5857  0.1888 -0.3022
 7231SOL     OW33154   3.061   0.338  11.981 -0.1696  0.6294  0.4623
 7231SOL    HW133155   3.156   0.337  11.974 -0.2665 -1.5871 -0.4399
 7231SOL    HW233156   3.048   0.379  12.067 -0.4154  0.0387  0.7027
 7232SOL     OW33157   4.323   2.297   7.457 -0.4053  0.2954 -0.1519
 7232SOL    HW133158   4.332   2.353   7.534  1.0465 -2.1953  1.5194
 7232SOL    HW233159   4.363   2.219   7.496 -1.7536 -0.9774 -1.3031
 7233SOL     OW33160   3.529   3.531   7.674  0.6657 -0.2957 -0.3939
 7233SOL    HW133161   3.455   3.471   7.665 -0.2703  0.5675  1.5731
 7233SOL    HW233162   3.553   3.547   7.582 -1.5202  0.4430 -0.8316
 7234SOL     OW33163   1.763   4.026   0.475  0.2543  0.6318  0.6335
 7234SOL    HW133164   1.810   3.982   0.546 -0.8212  1.1893  1.7041
 7234SOL    HW233165   1.822   4.077   0.421  1.4422 -1.4856 -0.0527
 7235SOL     OW33166   2.556   2.132   4.920 -0.4271  0.2875 -0.1714
 7235SOL    HW133167   2.573   2.225   4.908  0.8072 -0.1138 -1.5179
 7235SOL    HW233168   2.558   2.144   5.015 -1.8414 -1.8889  0.1359
 7236SOL     OW33169   4.552   2.579   4.093 -0.0172  0.1402 -0.6513
 7236SOL    HW133170   4.504   2.661   4.089 -1.8747 -0.9328 -0.2404
 7236SOL    HW233171   4.638   2.613   4.117 -1.2153  2.0753  0.8871
 7237SOL     OW33172   0.285   2.333   8.363 -0.1431  0.2440  0.5186
 7237SOL    HW133173   0.313   2.259   8.417  0.6175  0.0097 -0.1946
 7237SOL    HW233174   0.242   2.385   8.430 -2.3404  0.5255 -1.1284
 7238SOL     OW33175   4.231   2.013   3.428 -0.7924  0.3211 -0.2121
 7238SOL    HW133176   4.320   2.036   3.454 -0.3302  0.1623 -1.6599
 7238SOL    HW233177   4.227   1.924   3.392 -1.6028  0.9936 -1.8215
 7239SOL     OW33178   0.916   1.195   4.622  0.1912  0.4027 -0.3239
 7239SOL    HW133179   0.854   1.128   4.593  0.0752  0.8095 -1.0184
 7239SOL    HW233180   0.862   1.253   4.675  0.6447  2.1155 -1.7056
 7240SOL     OW33181   1.362   2.252  11.658  0.2825  0.1963  0.2844
 7240SOL    HW133182   1.438   2.197  11.680 -0.8274 -1.1347  0.7651
 7240SOL    HW233183   1.394   2.307  11.586  1.2334  1.5552  1.7154
 7241SOL     OW33184   3.727   2.428   3.958 -0.3548  0.1344  0.0338
 7241SOL    HW133185   3.736   2.524   3.954  0.7856 -0.0232 -1.0880
 7241SOL    HW233186   3.814   2.393   3.942  0.1787  0.9333  1.2205
 7242SOL     OW33187   0.351   3.618   1.944 -0.1821  0.0931  0.7702
 7242SOL    HW133188   0.348   3.711   1.924  2.1925 -0.6160 -2.9032
 7242SOL    HW233189   0.336   3.595   1.853  3.6988 -3.2432  0.9427
 7243SOL     OW33190   3.790   0.097   7.866  0.5408 -0.0237 -0.2635
 7243SOL    HW133191   3.791   0.105   7.771 -0.1516  1.3860 -0.1627
 7243SOL    HW233192   3.856   0.160   7.894 -0.3757  0.5623  0.5719
 7244SOL     OW33193   1.809   3.059   6.042  0.2902 -0.4278 -0.2265
 7244SOL    HW133194   1.824   3.054   6.136 -0.1020  1.4540 -0.0527
 7244SOL    HW233195   1.890   3.023   6.007 -0.3472 -1.3787 -0.7319
 7245SOL     OW33196   4.585   0.822   5.855 -0.3114  0.2225  0.4728
 7245SOL    HW133197   4.663   0.801   5.907 -1.7466  0.4133  2.6648
 7245SOL    HW233198   4.577   0.912   5.887 -0.2545  0.9916 -1.6606
 7246SOL     OW33199   1.870   1.633   9.905  0.1693 -0.1888  0.1886
 7246SOL    HW133200   1.825   1.551   9.922  1.0142  0.4177  5.4760
 7246SOL    HW233201   1.836   1.682   9.980  1.4027 -1.5229  1.6099
 7247SOL     OW33202   3.037   2.253   7.741 -0.3541  0.0255 -0.2423
 7247SOL    HW133203   3.016   2.296   7.658 -1.1940  1.5832  0.7736
 7247SOL    HW233204   3.133   2.260   7.741 -0.3482  0.0211 -1.8811
 7248SOL     OW33205   4.357   1.927  11.249 -0.3347 -0.0222  0.1532
 7248SOL    HW133206   4.384   1.895  11.335 -1.0913  1.0953  0.7913
 7248SOL    HW233207   4.376   1.856  11.187 -2.0241 -0.8226  0.5403
 7249SOL     OW33208   3.427   0.867  17.691 -0.1824  0.2399  0.1829
 7249SOL    HW133209   3.413   0.938  17.628  1.5880 -0.4789 -1.0176
 7249SOL    HW233210   3.368   0.895   0.053  1.1327  2.5948  0.3750
 7250SOL     OW33211   0.569   2.727   5.839 -0.2295 -0.7228  0.0592
 7250SOL    HW133212   0.571   2.707   5.745 -2.7340  0.5459 -0.2778
 7250SOL    HW233213   0.618   2.808   5.831 -1.9318  0.2157 -0.7765
 7251SOL     OW33214   2.500   1.170  12.585  0.4515 -0.1282  0.5040
 7251SOL    HW133215   2.587   1.196  12.616  0.4547  0.9125 -0.3837
 7251SOL    HW233216   2.477   1.248  12.534  0.2259  0.6857  1.8408
 7252SOL     OW33217   1.622   0.892   2.532  0.2129  0.4261  0.4514
 7252SOL    HW133218   1.536   0.920   2.563 -0.9206  0.0904 -2.3923
 7252SOL    HW233219   1.596   0.828   2.465 -1.1367  0.2791  1.1233
 7253SOL     OW33220   0.597   2.297   9.025  0.3340  0.2775  0.5219
 7253SOL    HW133221   0.631   2.253   8.947  0.5681  0.3562  0.5770
 7253SOL    HW233222   0.678   2.346   9.044  0.1486  0.2907  1.2891
 7254SOL     OW33223   0.602   2.172   7.041 -0.0937 -0.2435  0.5699
 7254SOL    HW133224   0.695   2.162   7.064  1.1351  1.5769 -3.4862
 7254SOL    HW233225   0.571   2.198   7.127 -2.2281  2.0730 -0.8996
 7255SOL     OW33226   0.765   2.437   0.597  0.3748  0.1700  0.6084
 7255SOL    HW133227   0.799   2.497   0.530 -1.4310  0.8054  0.2481
 7255SOL    HW233228   0.729   2.500   0.660  0.5217 -0.8458  1.7014
 7256SOL     OW33229   4.132   4.350  13.504  0.3076 -0.2598 -0.2269
 7256SOL    HW133230   4.103   4.440  13.521  0.6060 -0.0707 -0.7106
 7256SOL    HW233231   4.175   4.371  13.421 -0.2975  0.9004 -0.2557
 7257SOL     OW33232   4.172   1.835   1.989  0.0229  0.0321  0.1959
 7257SOL    HW133233   4.136   1.758   2.033 -0.2392 -2.1133 -3.7374
 7257SOL    HW233234   4.194   1.901   2.055  0.4250  1.3986 -1.3090
 7258SOL     OW33235   3.027   3.172   7.188 -0.5492 -0.0091  0.0698
 7258SOL    HW133236   2.933   3.166   7.174 -0.4714 -1.4009  0.1032
 7258SOL    HW233237   3.051   3.238   7.123  1.1471 -1.7003 -1.0218
 7259SOL     OW33238   3.848   4.386   6.609  0.1440 -0.0607  0.1297
 7259SOL    HW133239   3.793   4.313   6.581 -1.6736  2.0764 -2.0154
 7259SOL    HW233240   3.934   4.373   6.569  0.2028  1.7994 -0.3926
 7260SOL     OW33241   3.360   3.110   4.492 -0.0054  0.6760  0.9087
 7260SOL    HW133242   3.275   3.074   4.518 -0.3008 -1.0035 -2.4473
 7260SOL    HW233243   3.363   3.192   4.540 -1.2578  0.5698  1.1857
 7261SOL     OW33244   0.962   2.520  11.011 -0.0926 -0.1552 -0.2094
 7261SOL    HW133245   0.904   2.595  11.026 -1.0916 -0.5324 -2.2074
 7261SOL    HW233246   0.934   2.469  11.086 -0.7058  2.9445  1.6820
 7262SOL     OW33247   4.081   2.015   9.478 -0.0345 -0.7453 -0.6938
 7262SOL    HW133248   4.006   2.011   9.418  0.3016 -2.4255 -0.9945
 7262SOL    HW233249   4.081   2.102   9.520  0.5260 -1.6510  1.1773
 7263SOL     OW33250   0.618   3.897   4.931 -0.3280 -0.9268  0.4269
 7263SOL    HW133251   0.555   3.888   4.860  1.8132 -0.2389 -1.5711
 7263SOL    HW233252   0.692   3.942   4.891 -2.9748  2.1791 -0.9914
 7264SOL     OW33253   3.917   2.342   6.533  0.3795  0.4290 -0.2837
 7264SOL    HW133254   3.963   2.258   6.532 -1.3847 -0.5557 -0.5757
 7264SOL    HW233255   3.957   2.379   6.612 -0.7974 -0.4659  0.7331
 7265SOL     OW33256   2.812   0.132   7.408 -0.5068  0.6408  0.3528
 7265SOL    HW133257   2.855   0.210   7.373  2.5385  0.2144  3.1621
 7265SOL    HW233258   2.806   0.158   7.500  0.3840  3.2871 -0.3279
 7266SOL     OW33259   1.341   1.636   2.662  0.0168 -0.3137 -0.5317
 7266SOL    HW133260   1.267   1.651   2.603 -1.1716  2.6643  1.7121
 7266SOL    HW233261   1.397   1.713   2.647  0.7984 -0.9006 -0.6274
 7267SOL     OW33262   0.540   1.941  13.600  0.2670 -0.0706  0.0155
 7267SOL    HW133263   0.614   2.000  13.586  0.4428 -0.4432 -0.6513
 7267SOL    HW233264   0.474   2.000  13.636 -1.0613 -1.1181 -0.6822
 7268SOL     OW33265   2.641   2.695   5.932 -0.4374 -0.0588 -0.2401
 7268SOL    HW133266   2.703   2.729   5.868  0.6615 -1.0948  0.2889
 7268SOL    HW233267   2.631   2.601   5.912  1.3170 -0.6282  1.6657
 7269SOL     OW33268   1.594   2.647   7.285  0.1727  0.0960  0.0601
 7269SOL    HW133269   1.601   2.553   7.268  0.0659 -0.0460  0.8258
 7269SOL    HW233270   1.661   2.688   7.230 -0.8021  1.8655  0.1818
 7270SOL     OW33271   1.307   2.243   6.333  0.0963 -0.6611  0.1653
 7270SOL    HW133272   1.271   2.309   6.273  0.8068  0.2187  0.7152
 7270SOL    HW233273   1.241   2.252   6.402  1.3327  1.8487  1.0147
 7271SOL     OW33274   0.146   3.339  13.571  0.7975 -0.6572 -0.3357
 7271SOL    HW133275   0.187   3.389  13.641 -1.1955 -0.3320  0.5962
 7271SOL    HW233276   0.056   3.363  13.591 -0.2790 -1.2920 -4.4054
 7272SOL     OW33277   0.778   3.913   1.541  0.4720 -0.2254 -0.2619
 7272SOL    HW133278   0.693   3.895   1.501 -0.2195  0.2777  0.9611
 7272SOL    HW233279   0.750   3.997   1.577  1.2122  0.6067 -1.6299
 7273SOL     OW33280   3.059   2.225  15.505 -0.6180 -0.4144 -0.1967
 7273SOL    HW133281   3.104   2.209  15.588 -0.7010  0.7460  0.0735
 7273SOL    HW233282   2.978   2.177  15.521  0.3813 -1.7216  1.0007
 7274SOL     OW33283   2.452   1.138   3.423  0.0627  0.0627 -0.4619
 7274SOL    HW133284   2.500   1.212   3.385 -0.1418  0.5107  0.1613
 7274SOL    HW233285   2.484   1.068   3.367  1.2780 -0.7291  1.2210
 7275SOL     OW33286   4.511   4.063   2.233 -0.2519  0.2305  0.0882
 7275SOL    HW133287   4.539   4.126   2.166 -0.7306  0.5478  0.1867
 7275SOL    HW233288   4.504   4.117   2.312  1.1434 -2.0860  1.7670
 7276SOL     OW33289   1.413   4.149   4.509  0.4971  0.2499 -0.0282
 7276SOL    HW133290   1.483   4.206   4.538  0.5606  1.0900 -1.8340
 7276SOL    HW233291   1.358   4.155   4.587  0.0022  0.0736 -0.3593
 7277SOL     OW33292   3.151   2.729   7.541 -0.7477 -0.0757 -0.3686
 7277SOL    HW133293   3.214   2.796   7.512  1.7204 -2.2981 -0.1549
 7277SOL    HW233294   3.124   2.780   7.617  2.3033 -0.8982  1.2456
 7278SOL     OW33295   2.818   3.017   6.954 -0.6910 -0.2559  0.0979
 7278SOL    HW133296   2.872   2.942   6.927  0.9830  0.3128  1.8263
 7278SOL    HW233297   2.848   3.075   6.884  0.3266  0.7765  1.3919
 7279SOL     OW33298   0.093   0.424   1.935 -0.1207  0.0032 -0.2814
 7279SOL    HW133299   0.066   0.511   1.964  1.2256  0.9632 -1.9047
 7279SOL    HW233300   0.131   0.455   1.853 -1.6138  1.5686 -0.3624
 7280SOL     OW33301   3.696   0.275  16.089 -0.5659 -0.0969  0.0223
 7280SOL    HW133302   3.667   0.185  16.072  3.5295 -1.6702  1.2590
 7280SOL    HW233303   3.657   0.291  16.175 -2.9754  0.0497 -1.0900
 7281SOL     OW33304   0.426   2.187   1.136 -0.0003 -0.0131 -0.4962
 7281SOL    HW133305   0.504   2.132   1.125  1.5930  1.9650  0.8837
 7281SOL    HW233306   0.454   2.232   1.216  0.8447  0.4651 -1.0719
 7282SOL     OW33307   3.113   4.183   3.727 -0.0675 -0.3912 -0.0119
 7282SOL    HW133308   3.206   4.195   3.709 -0.0913 -1.6069 -0.9388
 7282SOL    HW233309   3.121   4.089   3.718 -1.0154 -0.0848 -3.8669
 7283SOL     OW33310   2.269   0.191   3.272 -0.1597  0.1595 -0.5852
 7283SOL    HW133311   2.286   0.263   3.211  2.6731  0.0814  0.1444
 7283SOL    HW233312   2.358   0.169   3.299  0.0648 -0.4954 -1.8806
 7284SOL     OW33313   3.390   0.871   2.625  0.2866  0.2872 -0.4595
 7284SOL    HW133314   3.452   0.799   2.625  0.6367  0.5855  0.7499
 7284SOL    HW233315   3.345   0.866   2.540 -0.9079 -2.2548  0.3393
 7285SOL     OW33316   2.652   2.357   1.096  0.3349  0.4083 -0.5308
 7285SOL    HW133317   2.733   2.397   1.065  1.5099 -1.2874  0.3781
 7285SOL    HW233318   2.641   2.287   1.031  0.2224  0.1484 -0.2335
 7286SOL     OW33319   4.130   3.408   4.375  0.2427  0.1139  0.5168
 7286SOL    HW133320   4.094   3.326   4.407 -1.7769  0.1056 -1.7573
 7286SOL    HW233321   4.092   3.469   4.439 -0.5887  0.0424  0.0985
 7287SOL     OW33322   0.174   1.676   3.917 -0.3659 -0.2931  0.1248
 7287SOL    HW133323   0.197   1.727   3.840 -2.0320 -1.1713 -0.9423
 7287SOL    HW233324   0.084   1.703   3.935 -0.9879 -2.8234  0.8272
 7288SOL     OW33325   2.447   0.880   7.414 -0.1541 -0.8633 -0.0077
 7288SOL    HW133326   2.426   0.895   7.322 -2.3095  0.0147  0.6167
 7288SOL    HW233327   2.533   0.839   7.412  0.2208 -0.0896  0.0366
 7289SOL     OW33328   2.745   0.252   2.538 -0.5669 -0.0199 -0.3739
 7289SOL    HW133329   2.741   0.209   2.452  0.3505  0.7345 -0.7988
 7289SOL    HW233330   2.660   0.293   2.551 -0.2485  0.6325 -0.3686
 7290SOL     OW33331   0.771   0.206  11.819  0.6506  0.2588  0.0373
 7290SOL    HW133332   0.830   0.165  11.755 -0.4038 -0.8555 -0.2251
 7290SOL    HW233333   0.690   0.206  11.769  1.4774  0.6485 -1.2752
 7291SOL     OW33334   1.173   3.081   8.992 -0.5158  0.8769  0.5630
 7291SOL    HW133335   1.179   2.989   8.965  0.6049  1.0504  0.2392
 7291SOL    HW233336   1.260   3.089   9.030 -0.1830  0.7999 -0.1934
 7292SOL     OW33337   2.304   2.611   5.939  0.6292 -0.0984 -0.5282
 7292SOL    HW133338   2.271   2.528   5.973  0.0569  0.3878  0.1024
 7292SOL    HW233339   2.392   2.580   5.915  0.9398  0.4536 -0.1162
 7293SOL     OW33340   0.144   3.566   3.908  0.3455  0.1555  0.1632
 7293SOL    HW133341   0.145   3.496   3.843  0.7579  0.7211 -0.4478
 7293SOL    HW233342   0.096   3.637   3.864 -1.2653 -1.9453 -1.4795
 7294SOL     OW33343   1.196   2.052   5.803  0.2469  0.0301 -0.3041
 7294SOL    HW133344   1.186   1.958   5.789 -0.2724 -0.1649  1.4276
 7294SOL    HW233345   1.273   2.071   5.749 -0.6225  1.5111 -1.0436
 7295SOL     OW33346   0.743   3.261  14.328 -0.2686 -0.8356  0.4489
 7295SOL    HW133347   0.727   3.344  14.374  0.7634  0.0003 -0.7085
 7295SOL    HW233348   0.658   3.247  14.287 -0.6334 -1.3666  1.3827
 7296SOL     OW33349   2.195   2.840   3.088 -0.3302  0.5289  0.0735
 7296SOL    HW133350   2.145   2.916   3.117  2.1637  2.4273 -0.6691
 7296SOL    HW233351   2.136   2.805   3.020  0.0972 -0.2388  0.0967
 7297SOL     OW33352   3.753   1.593   2.883  0.1344 -0.7656 -0.6112
 7297SOL    HW133353   3.680   1.653   2.875  1.1079  0.0531 -3.6109
 7297SOL    HW233354   3.703   1.512   2.886 -0.0128 -0.7099 -1.6122
 7298SOL     OW33355   3.420   1.322   3.287  0.4804  0.2296 -0.0146
 7298SOL    HW133356   3.508   1.318   3.249 -0.3562 -0.8115 -1.7782
 7298SOL    HW233357   3.440   1.368   3.369 -1.6530  1.0462  0.0300
 7299SOL     OW33358   0.663   0.520   8.069 -0.1864  0.5147  0.3689
 7299SOL    HW133359   0.713   0.573   8.007  0.4205 -0.0274  0.3927
 7299SOL    HW233360   0.632   0.589   8.127  1.2856  0.1139  1.6452
 7300SOL     OW33361   3.421   4.025  15.599  0.0779  0.1260 -0.3863
 7300SOL    HW133362   3.344   4.062  15.555  0.1244 -0.3350 -0.8548
 7300SOL    HW233363   3.496   4.048  15.545 -1.2388  2.5796 -1.2031
 7301SOL     OW33364   2.784   3.325  17.509  0.1915  0.2687  0.5947
 7301SOL    HW133365   2.714   3.298  17.450  2.4956 -2.3299 -0.9734
 7301SOL    HW233366   2.741   3.407  17.534 -0.6948  0.8548 -2.8662
 7302SOL     OW33367   3.173   0.226   2.155  0.2842 -0.7394  0.0384
 7302SOL    HW133368   3.152   0.224   2.062  1.1993  1.3497 -0.2225
 7302SOL    HW233369   3.164   0.319   2.176 -1.2841 -0.9298  0.1895
 7303SOL     OW33370   2.697   2.088  15.353 -0.2068  0.0342  0.0460
 7303SOL    HW133371   2.777   2.084  15.300  0.9577  3.4329  1.5860
 7303SOL    HW233372   2.696   1.997  15.384  0.1936 -0.6400 -1.8989
 7304SOL     OW33373   2.260   1.139  12.044 -0.3701  0.3529  0.0703
 7304SOL    HW133374   2.236   1.046  12.051  0.0533  0.0510 -2.2754
 7304SOL    HW233375   2.194   1.172  11.983  0.1896  1.0554 -0.1541
 7305SOL     OW33376   0.183   4.540   5.272 -0.3542 -0.4704 -0.3719
 7305SOL    HW133377   0.255   4.533   5.335  0.3160  2.5838 -0.7987
 7305SOL    HW233378   0.169   4.634   5.275 -0.0422 -0.4722  1.3008
 7306SOL     OW33379   3.520   1.847   8.011 -0.4247 -0.2017 -0.1995
 7306SOL    HW133380   3.583   1.918   8.023 -2.3305  1.5900 -0.7808
 7306SOL    HW233381   3.458   1.846   8.083 -1.8419  3.1933 -1.3999
 7307SOL     OW33382   1.253   4.627   3.123  0.3070  0.4875  0.0390
 7307SOL    HW133383   1.334   4.677   3.129  0.0289  1.0364 -0.6957
 7307SOL    HW233384   1.256   4.603   3.031 -0.3233  2.1828 -0.4265
 7308SOL     OW33385   1.381   1.171   6.845 -0.6753 -0.3096  0.1151
 7308SOL    HW133386   1.433   1.206   6.772 -2.0327  2.0477  0.2543
 7308SOL    HW233387   1.302   1.150   6.796 -0.8744  0.4212  0.1111
 7309SOL     OW33388   0.840   0.764   3.564  0.7123  0.1886  0.2646
 7309SOL    HW133389   0.785   0.687   3.578  0.7042  0.5416  2.1774
 7309SOL    HW233390   0.895   0.733   3.492  2.3563  0.6499  1.2952
 7310SOL     OW33391   4.707   3.247  16.692  0.6548 -0.1855  0.3495
 7310SOL    HW133392   0.058   3.260  16.745 -0.6051  1.3927  1.8100
 7310SOL    HW233393   4.660   3.198  16.759  2.6601 -2.1353  0.3343
 7311SOL     OW33394   3.144   1.842  17.365  0.3310 -0.1456 -0.5115
 7311SOL    HW133395   3.221   1.791  17.391 -1.7295 -2.2831  1.5336
 7311SOL    HW233396   3.087   1.765  17.362  1.2186 -0.8569  0.9257
 7312SOL     OW33397   0.928   2.980   3.682  0.6966 -0.1258  0.4030
 7312SOL    HW133398   0.862   2.953   3.617  2.0266 -1.0817 -0.5373
 7312SOL    HW233399   0.921   2.909   3.745 -0.0289 -0.1639  0.2870
 7313SOL     OW33400   1.250   0.224   3.173  0.1867 -0.4855  0.1694
 7313SOL    HW133401   1.338   0.200   3.204  1.0178 -0.6617 -2.3571
 7313SOL    HW233402   1.210   0.249   3.256  1.9754  2.2363  0.2004
 7314SOL     OW33403   2.004   0.513   6.939 -0.2096 -0.5623 -0.0625
 7314SOL    HW133404   1.914   0.488   6.960  0.6511 -3.0046  0.6499
 7314SOL    HW233405   1.997   0.597   6.986  0.5914  0.1961 -1.3003
 7315SOL     OW33406   1.553   0.333   4.796  0.0242  0.3421  0.0445
 7315SOL    HW133407   1.627   0.378   4.754 -0.3160 -0.7888 -1.7536
 7315SOL    HW233408   1.592   0.307   4.880 -0.3831 -0.4746 -0.0227
 7316SOL     OW33409   1.006   1.468   0.632  0.2932  0.4337  0.0780
 7316SOL    HW133410   1.080   1.409   0.645  0.4903  0.2532 -1.8388
 7316SOL    HW233411   0.996   1.469   0.536 -0.1008  0.9088  0.1210
 7317SOL     OW33412   4.294   0.068   1.607  0.1911 -0.3360 -0.6977
 7317SOL    HW133413   4.220   0.006   1.613 -1.8009  1.7837 -3.8051
 7317SOL    HW233414   4.343   0.046   1.686  0.3381 -0.0971 -0.7248
 7318SOL     OW33415   1.854   3.034   1.116  0.1195  0.3212  0.1903
 7318SOL    HW133416   1.807   2.955   1.144  0.9989 -0.6231 -1.0134
 7318SOL    HW233417   1.944   3.007   1.097 -0.2988 -0.8022 -0.1657
 7319SOL     OW33418   0.207   1.232   6.577 -0.8151  0.2779  0.7386
 7319SOL    HW133419   0.124   1.270   6.605 -2.4152 -0.8594 -2.4021
 7319SOL    HW233420   0.223   1.301   6.513 -0.6615 -0.2093  0.2530
 7320SOL     OW33421   2.048   2.363   5.850 -0.4623  0.1605  0.4195
 7320SOL    HW133422   2.055   2.279   5.806 -0.3999  1.5733 -2.2779
 7320SOL    HW233423   2.114   2.355   5.919 -0.3084 -2.8627 -0.0795
 7321SOL     OW33424   1.688   3.891   2.632  0.2060  0.5564 -0.1243
 7321SOL    HW133425   1.742   3.914   2.707  0.9350 -0.0955 -0.4511
 7321SOL    HW233426   1.749   3.886   2.558 -0.2171  4.0117 -0.7266
 7322SOL     OW33427   3.287   1.321   8.347 -0.5681 -0.0022 -0.3990
 7322SOL    HW133428   3.327   1.405   8.370  2.8498 -2.1054  1.2657
 7322SOL    HW233429   3.329   1.300   8.263 -1.0888  2.2628 -1.2187
 7323SOL     OW33430   2.322   0.427   5.163 -0.0434 -0.0876 -0.0577
 7323SOL    HW133431   2.260   0.372   5.212 -3.1537  3.3322 -0.2011
 7323SOL    HW233432   2.378   0.452   5.237  0.5546 -1.1104 -0.1556
 7324SOL     OW33433   3.548   1.621   3.149 -0.0156  0.8919 -0.2418
 7324SOL    HW133434   3.576   1.622   3.240  3.2353  1.4174 -1.2339
 7324SOL    HW233435   3.613   1.681   3.110  1.0746 -0.8970 -1.1696
 7325SOL     OW33436   3.342   4.394   7.790 -0.5659  0.1755 -0.1083
 7325SOL    HW133437   3.261   4.421   7.833 -0.3361 -2.5277  1.9607
 7325SOL    HW233438   3.318   4.362   7.703  2.4089  0.8082 -1.1978
 7326SOL     OW33439   3.328   0.014   2.233  0.7235 -0.2451 -0.2768
 7326SOL    HW133440   3.280   4.709   2.309 -2.1331 -0.8019 -2.2853
 7326SOL    HW233441   3.274   0.093   2.220 -0.3776 -1.0393 -0.5446
 7327SOL     OW33442   2.450   3.413  10.918  0.3201 -0.0107 -0.6164
 7327SOL    HW133443   2.467   3.352  10.990  1.1747 -1.0856 -1.7281
 7327SOL    HW233444   2.457   3.491  10.973  0.2340 -0.7824  0.5004
 7328SOL     OW33445   2.605   2.635   4.992 -0.3594  0.0120 -0.4688
 7328SOL    HW133446   2.556   2.717   5.000 -1.4489 -0.9081  2.4594
 7328SOL    HW233447   2.643   2.632   4.905 -0.6186  0.7641 -0.6118
 7329SOL     OW33448   0.712   4.110   6.576 -0.0597  1.1238 -0.0993
 7329SOL    HW133449   0.744   4.120   6.666  0.0359  1.8068 -0.2092
 7329SOL    HW233450   0.713   4.200   6.544  2.0179  1.2483  0.3177
 7330SOL     OW33451   4.681   2.978  15.139  0.0443 -0.0178  0.2777
 7330SOL    HW133452   4.617   3.034  15.096 -0.3932 -0.4642  0.3518
 7330SOL    HW233453   0.027   3.041  15.140  0.1812 -0.1903  1.7516
 7331SOL     OW33454   3.510   3.868   1.709 -0.3010 -0.1140 -0.0776
 7331SOL    HW133455   3.535   3.959   1.722 -0.4863 -0.1278  0.3626
 7331SOL    HW233456   3.570   3.840   1.640 -0.7697 -1.3074  0.0050
 7332SOL     OW33457   0.597   0.832   4.000  0.0268  0.1275  0.2708
 7332SOL    HW133458   0.506   0.813   3.978 -0.5340  1.9607  1.0751
 7332SOL    HW233459   0.611   0.762   4.064  1.6318 -1.0981 -1.3945
 7333SOL     OW33460   0.231   0.144  11.756  0.5718  0.0222  0.9871
 7333SOL    HW133461   0.281   0.093  11.820  0.8694 -0.9271 -0.0112
 7333SOL    HW233462   0.212   0.075  11.693  1.9909  0.7402 -0.2083
 7334SOL     OW33463   2.937   3.135  11.001  0.1028 -0.1271 -0.2768
 7334SOL    HW133464   2.885   3.083  10.941  1.0118  0.6699 -1.7552
 7334SOL    HW233465   2.896   3.221  10.997 -1.8077 -1.0202 -0.0054
 7335SOL     OW33466   1.288   2.439  15.134  0.4807  0.0629 -0.0947
 7335SOL    HW133467   1.202   2.403  15.115 -0.0966  2.2567 -1.6544
 7335SOL    HW233468   1.301   2.412  15.225 -0.6450 -1.3548 -0.3554
 7336SOL     OW33469   1.864   1.967   6.757  0.3098  0.0843  0.3778
 7336SOL    HW133470   1.922   1.891   6.758  2.3425  1.6287 -2.9769
 7336SOL    HW233471   1.908   2.033   6.703 -1.2285  1.4285  0.7636
 7337SOL     OW33472   3.834   4.191   3.258 -0.0136  0.0146 -0.1059
 7337SOL    HW133473   3.890   4.141   3.198 -0.2188  0.1623 -0.4239
 7337SOL    HW233474   3.747   4.160   3.233  0.0726 -0.9708  0.8611
 7338SOL     OW33475   2.630   0.941  12.744 -0.1884  0.3676  0.0359
 7338SOL    HW133476   2.715   0.918  12.706  0.5964 -0.8941  2.5753
 7338SOL    HW233477   2.606   1.008  12.679 -0.5575 -0.9865 -1.2186
 7339SOL     OW33478   4.031   0.617   5.688 -0.3721  0.1675 -0.9782
 7339SOL    HW133479   4.099   0.677   5.656 -0.1754  0.1647 -0.5753
 7339SOL    HW233480   3.960   0.641   5.629 -2.2641 -2.3071  0.3272
 7340SOL     OW33481   4.244   0.477   2.877 -0.3550  0.0305 -0.3892
 7340SOL    HW133482   4.290   0.426   2.944 -0.9205  2.9209  2.2541
 7340SOL    HW233483   4.286   0.458   2.794  2.4772 -0.5124  1.1549
 7341SOL     OW33484   3.916   2.661   8.393 -0.5547 -0.4527 -0.2570
 7341SOL    HW133485   3.947   2.641   8.482 -0.4038 -1.6040 -0.5668
 7341SOL    HW233486   3.859   2.587   8.371 -3.2014  1.4615  0.1042
 7342SOL     OW33487   4.561   0.315   3.730  0.3155  0.2333 -0.2372
 7342SOL    HW133488   4.632   0.263   3.766 -0.4507 -0.8967 -0.3446
 7342SOL    HW233489   4.484   0.267   3.763 -0.2104 -0.6676 -2.7583
 7343SOL     OW33490   3.043   4.718  10.937 -0.1935  0.0688 -0.2478
 7343SOL    HW133491   3.089   0.024  11.014 -0.3218  0.0611 -0.1687
 7343SOL    HW233492   2.951   4.722  10.961  0.6636  1.9150  2.7065
 7344SOL     OW33493   4.010   1.217  10.860 -0.3112 -0.0126 -0.3113
 7344SOL    HW133494   4.017   1.281  10.930  2.0918 -0.1926 -0.3846
 7344SOL    HW233495   4.082   1.239  10.800 -0.8691  2.4719 -0.0587
 7345SOL     OW33496   1.756   4.612   2.202  0.1272  0.6886 -0.0125
 7345SOL    HW133497   1.702   4.629   2.124  0.2213  1.2870  0.0471
 7345SOL    HW233498   1.816   4.687   2.200  1.8988 -0.7186  1.9498
 7346SOL     OW33499   1.651   3.965   9.204 -0.0183 -0.4194  0.4260
 7346SOL    HW133500   1.699   4.047   9.219 -3.1610  1.3580  0.7538
 7346SOL    HW233501   1.578   4.010   9.161  0.5027  1.4230  1.4482
 7347SOL     OW33502   3.799   4.363   5.726  0.4118  0.0674  0.5636
 7347SOL    HW133503   3.782   4.452   5.693  2.5339  1.3121  2.7640
 7347SOL    HW233504   3.863   4.332   5.662 -1.7942  0.5560 -1.8615
 7348SOL     OW33505   2.233   2.402   1.971 -1.0615 -0.1515 -1.1867
 7348SOL    HW133506   2.317   2.443   1.949 -2.2368  2.6072 -0.6208
 7348SOL    HW233507   2.249   2.379   2.062  0.0523  0.2017 -1.2916
 7349SOL     OW33508   4.180   2.213   4.076  0.8648 -0.1927  0.1319
 7349SOL    HW133509   4.223   2.129   4.062  1.7347  0.1906  0.4295
 7349SOL    HW233510   4.235   2.266   4.134  1.0709  1.4093 -1.5042
 7350SOL     OW33511   0.649   1.469  11.795 -0.1423  0.2082 -0.3645
 7350SOL    HW133512   0.724   1.527  11.777 -1.5528  2.4759  0.9703
 7350SOL    HW233513   0.594   1.467  11.716  0.5476  0.8794 -0.8634
 7351SOL     OW33514   4.380   0.797   6.456 -0.6030  0.0067 -0.0590
 7351SOL    HW133515   4.374   0.707   6.424  0.4816 -0.2155  0.3395
 7351SOL    HW233516   4.337   0.856   6.394 -0.4446  0.5036  0.2998
 7352SOL     OW33517   3.872   3.410  10.508 -0.6882 -0.3678  0.4134
 7352SOL    HW133518   3.835   3.481  10.561 -1.5814  0.7878 -1.7435
 7352SOL    HW233519   3.896   3.455  10.426  0.8875 -0.1740  0.9795
 7353SOL     OW33520   0.950   1.341  11.601 -0.6701 -0.4702 -0.1827
 7353SOL    HW133521   0.896   1.389  11.664  0.6013  0.4918  0.1726
 7353SOL    HW233522   0.971   1.412  11.541  1.8780 -1.4763 -0.5034
 7354SOL     OW33523   3.235   0.573   5.032  0.3218 -0.3148 -0.2072
 7354SOL    HW133524   3.251   0.657   4.991  0.6420 -0.4736 -0.4068
 7354SOL    HW233525   3.279   0.519   4.966  0.2992 -1.0435  0.3717
 7355SOL     OW33526   0.655   1.175   1.998 -0.2704 -0.1237 -0.2308
 7355SOL    HW133527   0.607   1.112   1.945 -0.0863 -2.0710  1.9140
 7355SOL    HW233528   0.657   1.258   1.951  0.5350  0.2090  0.3715
 7356SOL     OW33529   1.492   0.508   5.878  0.0363 -0.2309 -0.3377
 7356SOL    HW133530   1.483   0.425   5.831  1.2649  0.1861 -1.2963
 7356SOL    HW233531   1.464   0.576   5.817 -0.8897  0.8749  1.3406
 7357SOL     OW33532   1.094   2.925   2.353 -0.2548 -0.1880  0.7582
 7357SOL    HW133533   1.130   2.845   2.391  0.4207  0.5928  1.7814
 7357SOL    HW233534   1.090   2.896   2.262  2.0335 -1.0376  0.9295
 7358SOL     OW33535   3.183   3.838   9.333  0.2618 -0.6062 -0.1572
 7358SOL    HW133536   3.196   3.897   9.259 -1.1487  0.5741  0.5348
 7358SOL    HW233537   3.120   3.889   9.384  0.5371  1.4206 -1.8490
 7359SOL     OW33538   2.835   3.282   3.186  0.2396  0.2917 -0.2428
 7359SOL    HW133539   2.877   3.312   3.268  0.7014 -0.0798 -0.3429
 7359SOL    HW233540   2.761   3.233   3.221 -0.3150  0.8293 -0.6789
 7360SOL     OW33541   1.114   1.820   7.251 -0.3681 -0.0994  0.3809
 7360SOL    HW133542   1.031   1.807   7.296 -0.8654 -2.7250 -1.3372
 7360SOL    HW233543   1.092   1.876   7.177 -1.8707 -1.4005 -0.1404
 7361SOL     OW33544   2.539   2.580   0.951 -0.7150 -0.1093 -0.2647
 7361SOL    HW133545   2.590   2.626   1.017 -0.3560 -1.0873  0.1509
 7361SOL    HW233546   2.590   2.500   0.963  1.8415  1.8273  1.6979
 7362SOL     OW33547   3.555   0.965   5.301 -0.3658  0.3782 -0.0328
 7362SOL    HW133548   3.557   0.958   5.206  1.8908  2.4651 -0.1342
 7362SOL    HW233549   3.602   0.882   5.314 -2.8662 -0.9104  0.7151
 7363SOL     OW33550   1.802   1.283   1.030 -0.1764 -0.2641  0.5322
 7363SOL    HW133551   1.739   1.218   1.060  0.1426 -1.4727 -1.3867
 7363SOL    HW233552   1.758   1.311   0.950  1.5003 -0.4191 -0.4572
 7364SOL     OW33553   1.023   0.267  16.827 -0.0310  0.3792  0.3124
 7364SOL    HW133554   1.096   0.271  16.889 -1.1318 -1.4294  1.7206
 7364SOL    HW233555   0.948   0.245  16.881  2.1257 -3.2107  1.8683
 7365SOL     OW33556   4.150   3.721   0.622  0.6004  0.6515  0.2785
 7365SOL    HW133557   4.124   3.635   0.589 -1.9662  1.3520  0.4272
 7365SOL    HW233558   4.188   3.757   0.541 -0.0419 -0.8353 -0.6864
 7366SOL     OW33559   3.738   1.641   1.646 -0.3485 -0.2915  0.2904
 7366SOL    HW133560   3.822   1.629   1.691 -0.0370  0.4426 -0.0979
 7366SOL    HW233561   3.748   1.728   1.608 -0.0765  0.0050  1.0269
 7367SOL     OW33562   4.340   0.826   1.958  0.0860 -0.2490  0.0026
 7367SOL    HW133563   4.260   0.788   1.993 -1.0127  1.7014 -0.4029
 7367SOL    HW233564   4.355   0.778   1.876 -0.9525 -1.3132  0.4382
 7368SOL     OW33565   3.694   3.197   6.505 -0.4030  0.6525  0.3546
 7368SOL    HW133566   3.699   3.239   6.419  1.1878 -1.6420 -0.6964
 7368SOL    HW233567   3.601   3.196   6.523 -0.6167  0.0602 -0.7771
 7369SOL     OW33568   3.396   4.109   4.471 -0.8215  0.2080 -0.1522
 7369SOL    HW133569   3.483   4.099   4.432 -1.9280 -1.3345 -2.2501
 7369SOL    HW233570   3.400   4.202   4.492 -1.8683 -0.2486  2.1195
 7370SOL     OW33571   0.906   0.363   6.416 -0.3055 -0.5072  0.2647
 7370SOL    HW133572   0.955   0.304   6.473 -0.8074 -0.3334  0.8801
 7370SOL    HW233573   0.984   0.401   6.376 -0.5079  2.1680  2.3835
 7371SOL     OW33574   2.673   3.527   8.403  0.2416  0.2640 -0.6190
 7371SOL    HW133575   2.590   3.483   8.382  1.3444 -1.0443 -2.2811
 7371SOL    HW233576   2.667   3.601   8.341  1.3786  1.6119  0.8923
 7372SOL     OW33577   1.374   1.060   6.257 -0.1388 -0.2717  0.0758
 7372SOL    HW133578   1.314   1.119   6.303  3.1970  3.2181 -0.0040
 7372SOL    HW233579   1.464   1.091   6.273 -0.3431 -0.2237  1.1799
 7373SOL     OW33580   2.611   0.353   4.687  0.1633  0.4938  0.1575
 7373SOL    HW133581   2.706   0.360   4.696 -0.0057  2.3903  0.4286
 7373SOL    HW233582   2.581   0.396   4.767 -0.7109 -2.0111  1.1755
 7374SOL     OW33583   3.141   1.546   6.910 -0.4417  0.8232 -0.1898
 7374SOL    HW133584   3.207   1.554   6.841 -0.9967  2.8831 -0.4845
 7374SOL    HW233585   3.203   1.529   6.982  0.9265 -0.0489 -1.5767
 7375SOL     OW33586   4.227   3.138   0.297 -0.2076  0.3527  0.1782
 7375SOL    HW133587   4.305   3.121   0.350 -0.6865 -2.0974  0.0807
 7375SOL    HW233588   4.186   3.052   0.299  1.2323 -0.3721 -1.1994
 7376SOL     OW33589   2.805   1.598  11.637 -0.4601 -0.0556 -0.0805
 7376SOL    HW133590   2.773   1.661  11.572 -1.0305  0.5691  0.8082
 7376SOL    HW233591   2.900   1.602  11.627 -0.3548 -0.0062  0.9917
 7377SOL     OW33592   4.361   2.263   2.102 -0.1143  0.0286  0.4334
 7377SOL    HW133593   4.281   2.214   2.118  0.2196 -0.8784 -0.6739
 7377SOL    HW233594   4.436   2.209   2.127  0.0619 -0.2037 -0.6072
 7378SOL     OW33595   3.805   3.727   2.749 -0.3726  0.0181 -0.6187
 7378SOL    HW133596   3.772   3.638   2.738  1.2946 -0.5212 -1.2901
 7378SOL    HW233597   3.730   3.770   2.707 -0.3346  0.9110  0.2049
 7379SOL     OW33598   3.217   2.708   0.740 -0.1180 -0.5124  0.2131
 7379SOL    HW133599   3.311   2.718   0.731 -0.5013  0.4591 -2.8251
 7379SOL    HW233600   3.193   2.685   0.650 -2.6200  0.1939  0.7065
 7380SOL     OW33601   1.135   3.696   8.027 -0.4078  0.1146  0.4636
 7380SOL    HW133602   1.179   3.674   7.945 -3.4037  1.1694 -1.4422
 7380SOL    HW233603   1.079   3.770   8.004 -0.3568  0.6126  1.9239
 7381SOL     OW33604   2.324   2.479   1.495  0.2484  0.1417  0.2487
 7381SOL    HW133605   2.295   2.565   1.463 -0.8143  0.3687  1.8297
 7381SOL    HW233606   2.365   2.453   1.412 -2.0391  1.0773 -1.1730
 7382SOL     OW33607   3.554   2.931   5.023  0.5190 -0.2730 -0.0330
 7382SOL    HW133608   3.615   2.858   5.013  0.5748 -0.3690  1.0718
 7382SOL    HW233609   3.503   2.911   4.944 -1.8685  3.8965  0.4429
 7383SOL     OW33610   0.035   4.081   7.731 -0.3980 -0.1455 -0.0605
 7383SOL    HW133611   0.065   4.032   7.655 -1.3139  0.0627 -0.5651
 7383SOL    HW233612   4.666   4.075   7.723 -0.2448 -0.3446 -1.6119
 7384SOL     OW33613   4.559   4.128   6.656 -0.8561  0.4615 -0.1933
 7384SOL    HW133614   4.479   4.156   6.701 -0.7860 -0.8327  0.7257
 7384SOL    HW233615   4.518   4.083   6.582  0.8156 -0.3269 -0.6408
 7385SOL     OW33616   0.082   2.452  16.862 -0.1046  0.0308  0.4023
 7385SOL    HW133617   0.007   2.393  16.864  0.2959 -0.4609  1.0739
 7385SOL    HW233618   0.145   2.406  16.918  0.8060  1.0731  0.2318
 7386SOL     OW33619   0.170   1.062   6.040 -0.0946  0.7710  0.3767
 7386SOL    HW133620   0.081   1.081   6.010  0.6709 -1.1949 -3.1533
 7386SOL    HW233621   0.162   0.992   6.105 -1.8735  0.9816  0.3860
 7387SOL     OW33622   2.102   1.661   2.005  0.0084 -0.1813  0.5004
 7387SOL    HW133623   2.195   1.684   2.004  0.4024 -1.7429  0.4801
 7387SOL    HW233624   2.093   1.580   2.055  0.6107  0.2059  1.2402
 7388SOL     OW33625   2.042   2.541   2.340  0.3850  0.5913 -0.3972
 7388SOL    HW133626   2.104   2.592   2.287 -0.7059  0.9209 -1.3489
 7388SOL    HW233627   2.105   2.485   2.386 -1.0120 -0.2114  0.5320
 7389SOL     OW33628   2.468   3.705   5.414 -0.3214 -0.1559 -0.0209
 7389SOL    HW133629   2.534   3.671   5.354 -0.4858  1.3191 -1.0541
 7389SOL    HW233630   2.515   3.758   5.479 -1.3534 -0.1672  0.7384
 7390SOL     OW33631   0.018   0.554  10.758  0.0736 -0.4711 -0.2045
 7390SOL    HW133632   0.083   0.520  10.696  0.8550 -1.5652  1.2372
 7390SOL    HW233633   0.004   0.491  10.828 -0.5216 -1.6992 -1.4166
 7391SOL     OW33634   0.561   1.346   3.130 -0.0403 -0.1641  0.1619
 7391SOL    HW133635   0.501   1.420   3.129  0.4023  0.1497 -2.6721
 7391SOL    HW233636   0.601   1.353   3.043 -0.5571 -1.1765 -0.1586
 7392SOL     OW33637   1.060   4.657   1.472  0.1132 -0.0119 -0.2346
 7392SOL    HW133638   1.110   0.008   1.498 -0.1311 -0.0340  0.2916
 7392SOL    HW233639   0.987   4.649   1.532 -1.0259 -0.5822 -1.6933
 7393SOL     OW33640   3.145   0.133  14.594  0.0345  0.1922  0.1232
 7393SOL    HW133641   3.170   0.091  14.677 -1.4009 -0.7504  0.0850
 7393SOL    HW233642   3.191   0.086  14.524 -0.9086 -0.9769  0.2824
 7394SOL     OW33643   2.399   3.135   6.662 -0.1155 -0.2401 -0.3736
 7394SOL    HW133644   2.477   3.090   6.628  0.7740  1.9982 -1.2961
 7394SOL    HW233645   2.350   3.134   6.580  0.6033 -0.0155 -0.8080
 7395SOL     OW33646   0.850   0.551   6.209  0.4793  0.0793  0.5952
 7395SOL    HW133647   0.914   0.622   6.203 -1.4820  1.7336 -0.5807
 7395SOL    HW233648   0.769   0.597   6.188  1.3804  1.6397  0.5409
 7396SOL     OW33649   3.647   0.568  12.718 -0.6240 -0.2909  0.7170
 7396SOL    HW133650   3.707   0.635  12.686 -1.8442  1.3307  1.7811
 7396SOL    HW233651   3.597   0.536  12.643 -1.5910  1.3681  0.6434
 7397SOL     OW33652   1.845   1.093   9.830  0.3335  0.3372  0.8983
 7397SOL    HW133653   1.908   1.149   9.876  1.2493 -0.8025  1.0082
 7397SOL    HW233654   1.797   1.169   9.797 -1.1609 -0.0096  2.2711
 7398SOL     OW33655   2.232   0.128   8.394  0.0399  0.2995  0.2102
 7398SOL    HW133656   2.187   0.171   8.322 -0.3944  0.6045  0.6701
 7398SOL    HW233657   2.289   0.199   8.423 -0.7591  0.9059  0.2999
 7399SOL     OW33658   2.044   0.202   8.174  0.4082  0.0707 -0.3141
 7399SOL    HW133659   2.029   0.290   8.139  0.0727 -0.3088 -1.1451
 7399SOL    HW233660   2.081   0.153   8.100 -1.3393  1.3635 -2.0542
 7400SOL     OW33661   0.330   3.429   3.316 -0.1775  0.9541 -0.1415
 7400SOL    HW133662   0.336   3.342   3.275 -2.5117  0.6588  0.1467
 7400SOL    HW233663   0.240   3.421   3.347  0.4068 -1.0675  1.0254
 7401SOL     OW33664   0.692   4.683   7.259 -0.4961  0.3272 -0.0209
 7401SOL    HW133665   0.668   4.701   7.350 -2.0459  0.0164 -0.3600
 7401SOL    HW233666   0.632   4.613   7.232  1.5315 -1.4758  0.1001
 7402SOL     OW33667   1.273   2.149   3.844 -0.1711 -0.1232 -0.4630
 7402SOL    HW133668   1.250   2.088   3.774 -2.4142 -0.0550  0.2325
 7402SOL    HW233669   1.311   2.094   3.913  0.4274 -1.4217 -1.8257
 7403SOL     OW33670   3.012   0.566   8.482 -0.2986 -0.6383  0.0510
 7403SOL    HW133671   3.006   0.614   8.565 -2.7689  0.5020 -0.8023
 7403SOL    HW233672   2.971   0.623   8.417  1.7355 -1.6864 -2.1599
 7404SOL     OW33673   2.764   2.984   4.806  0.0308 -0.6048  0.0466
 7404SOL    HW133674   2.798   2.905   4.765 -0.2122 -1.2737  1.1543
 7404SOL    HW233675   2.708   3.010   4.733 -0.8065 -2.3769  0.0658
 7405SOL     OW33676   1.794   1.694   5.450 -0.2230 -0.7784  0.8322
 7405SOL    HW133677   1.790   1.606   5.414  0.9102 -0.8064  0.7945
 7405SOL    HW233678   1.871   1.687   5.506 -0.5126  0.0996  1.3533
 7406SOL     OW33679   0.000   4.131  14.302 -0.2716 -0.1348 -0.2334
 7406SOL    HW133680   0.074   4.103  14.248 -0.9358  0.5637 -1.4915
 7406SOL    HW233681   4.717   4.044  14.340 -0.4903  0.1039  0.2569
 7407SOL     OW33682   1.643   4.053   8.656  0.0628  0.1186 -0.6289
 7407SOL    HW133683   1.624   4.074   8.564  1.2679  0.6740 -0.7544
 7407SOL    HW233684   1.558   4.050   8.700  0.2193  1.2616 -0.2383
 7408SOL     OW33685   3.105   4.612   4.625  0.4129 -0.0055  0.7885
 7408SOL    HW133686   3.184   4.559   4.614  0.7882  0.3590  1.8156
 7408SOL    HW233687   3.132   4.683   4.567  0.4590  1.0761  2.1645
 7409SOL     OW33688   1.364   3.122   9.703 -0.1906  0.3049  0.5463
 7409SOL    HW133689   1.457   3.131   9.724 -0.5421  1.2223  1.7176
 7409SOL    HW233690   1.367   3.029   9.725  1.2441 -0.5366 -3.3165
 7410SOL     OW33691   2.561   0.851   1.600  0.3561 -0.1021  0.7096
 7410SOL    HW133692   2.520   0.913   1.540 -0.8890 -1.0861  0.5412
 7410SOL    HW233693   2.630   0.899   1.646  1.6444 -1.1572 -0.0801
 7411SOL     OW33694   3.457   4.355   8.923  0.7407  0.1157  0.3238
 7411SOL    HW133695   3.445   4.264   8.895 -2.3984  0.1056  1.7407
 7411SOL    HW233696   3.451   4.398   8.837 -1.5615 -0.2217  0.3083
 7412SOL     OW33697   3.631   4.133  13.031 -0.1989 -0.0097  0.0336
 7412SOL    HW133698   3.587   4.050  13.012  1.3383 -0.7249 -0.3580
 7412SOL    HW233699   3.660   4.123  13.121 -1.8803 -2.7118  0.2835
 7413SOL     OW33700   3.478   3.522  17.240  0.8427 -0.6368 -0.0759
 7413SOL    HW133701   3.442   3.450  17.291 -0.7538  0.5150  0.4265
 7413SOL    HW233702   3.571   3.498  17.240  0.9472 -0.2303 -0.0234
 7414SOL     OW33703   4.373   2.995  17.090  0.3787  0.4238 -0.2640
 7414SOL    HW133704   4.438   2.926  17.080  1.8188  1.6887  0.4628
 7414SOL    HW233705   4.350   3.014  16.999 -0.3286  2.4096  0.3263
 7415SOL     OW33706   1.384   4.661   8.113 -0.1114 -0.6515 -0.4396
 7415SOL    HW133707   1.384   0.029   8.108  0.1687 -0.6382 -0.1768
 7415SOL    HW233708   1.316   4.652   8.180  0.5520  0.6134  0.4132
 7416SOL     OW33709   1.670   0.597   9.967  0.1231  0.2901  0.1881
 7416SOL    HW133710   1.659   0.663   9.898 -0.8062 -0.5001 -0.4181
 7416SOL    HW233711   1.618   0.520   9.946  1.0045 -0.1233 -0.4816
 7417SOL     OW33712   1.663   1.698   8.133 -0.0682  0.3628  0.2092
 7417SOL    HW133713   1.644   1.758   8.205 -0.2382 -0.9049  1.2291
 7417SOL    HW233714   1.616   1.619   8.159  0.8570 -1.1446 -2.6205
 7418SOL     OW33715   0.697   3.492  13.303  0.4076  0.2346 -0.8037
 7418SOL    HW133716   0.653   3.557  13.357  0.5208  1.7525 -2.5482
 7418SOL    HW233717   0.662   3.412  13.343  0.6911  1.0386  1.0398
 7419SOL     OW33718   2.753   2.792   7.943  0.0476  0.2529  0.0733
 7419SOL    HW133719   2.743   2.845   7.864  0.3746 -1.6336 -1.2519
 7419SOL    HW233720   2.796   2.714   7.907  0.3407  1.4039 -2.0302
 7420SOL     OW33721   0.122   3.655   8.261  0.0767  0.0804 -0.2066
 7420SOL    HW133722   0.145   3.578   8.210  2.2251  1.3418 -1.1780
 7420SOL    HW233723   0.105   3.724   8.197 -1.2429  0.6904  0.8043
 7421SOL     OW33724   0.755   4.031   3.641  0.3295 -0.5516 -0.0690
 7421SOL    HW133725   0.783   4.089   3.570 -0.5458 -0.3951 -0.2842
 7421SOL    HW233726   0.682   3.981   3.606 -0.2551  0.2086  0.0610
 7422SOL     OW33727   2.900   0.148   8.080 -0.4267 -0.3289  0.0888
 7422SOL    HW133728   2.851   0.187   8.152 -0.1427  1.2506 -0.5779
 7422SOL    HW233729   2.943   0.226   8.045  1.7276 -0.2929  2.8475
 7423SOL     OW33730   1.340   3.242  11.625 -0.0863  0.1721  0.5126
 7423SOL    HW133731   1.244   3.231  11.626  0.0757 -1.3428 -1.2294
 7423SOL    HW233732   1.359   3.263  11.534 -1.3220 -1.3087 -0.0934
 7424SOL     OW33733   1.535   2.033   3.639  0.0209 -0.0891  0.0560
 7424SOL    HW133734   1.520   2.096   3.569  3.1948  1.0908  0.4090
 7424SOL    HW233735   1.570   1.960   3.588 -3.6124 -1.2359 -0.7901
 7425SOL     OW33736   0.990   4.401   7.279  0.2525  0.6854  0.4164
 7425SOL    HW133737   1.080   4.382   7.255 -0.7070 -0.4336 -2.3091
 7425SOL    HW233738   0.938   4.354   7.213  1.9640  1.1499 -1.2644
 7426SOL     OW33739   3.531   2.546   2.434 -0.8263  0.2990 -0.1260
 7426SOL    HW133740   3.441   2.573   2.452 -0.2417  1.2995  1.3552
 7426SOL    HW233741   3.533   2.451   2.437 -0.7907  0.2853 -0.5696
 7427SOL     OW33742   4.186   2.101   2.529 -0.1593 -0.0984 -0.0753
 7427SOL    HW133743   4.135   2.130   2.605 -1.5297  1.3035 -1.5288
 7427SOL    HW233744   4.253   2.037   2.551 -0.4311 -0.6950 -0.9953
 7428SOL     OW33745   4.632   0.508   1.671 -0.2044  0.3891  0.1293
 7428SOL    HW133746   4.559   0.558   1.708 -0.2113  0.8656 -0.5240
 7428SOL    HW233747   4.659   0.569   1.602  0.5164 -0.3396 -0.2303
 7429SOL     OW33748   4.615   1.343  16.176  0.0616  0.8319  0.1909
 7429SOL    HW133749   4.701   1.301  16.170 -0.7819 -0.7687 -0.7568
 7429SOL    HW233750   4.612   1.392  16.094 -0.9830  2.1383  1.0226
 7430SOL     OW33751   3.217   1.708  17.066  0.2261 -0.5649  0.4453
 7430SOL    HW133752   3.158   1.646  17.107  1.0907 -1.0841  0.8973
 7430SOL    HW233753   3.223   1.770  17.139  1.5265 -0.7779  0.5221
 7431SOL     OW33754   0.340   1.086   0.348 -0.3885  0.8767  0.2989
 7431SOL    HW133755   0.420   1.036   0.363 -1.2065 -0.0517  1.5825
 7431SOL    HW233756   0.329   1.114   0.439  1.7885  0.1958  0.7603
 7432SOL     OW33757   2.338   2.044  12.703  0.5818 -0.1851 -0.4840
 7432SOL    HW133758   2.365   1.987  12.775  1.2031  2.6415  1.5314
 7432SOL    HW233759   2.352   1.995  12.622  1.2069 -0.1928 -0.3747
 7433SOL     OW33760   2.107   2.680   0.518 -0.9533 -0.1136  0.0668
 7433SOL    HW133761   2.024   2.672   0.472 -1.0050  0.9066 -0.0219
 7433SOL    HW233762   2.104   2.592   0.555 -0.8745 -0.2982 -0.3644
 7434SOL     OW33763   0.268   2.977   4.824  0.6558 -0.2572 -0.4485
 7434SOL    HW133764   0.299   2.951   4.910 -0.5355  0.2386  0.1377
 7434SOL    HW233765   0.193   2.920   4.805  0.3244 -0.4458  1.4982
 7435SOL     OW33766   4.640   2.274   6.201 -0.2216 -0.3202  0.3668
 7435SOL    HW133767   0.007   2.282   6.218  0.0232 -1.4209 -0.3884
 7435SOL    HW233768   4.622   2.368   6.200  0.7381 -0.1193  1.7215
 7436SOL     OW33769   0.124   1.565   7.158  0.0719  0.3896 -0.3149
 7436SOL    HW133770   0.208   1.525   7.134  1.4738  1.9856  1.8831
 7436SOL    HW233771   0.142   1.658   7.172  1.1030  0.1820 -0.2483
 7437SOL     OW33772   3.579   0.497   5.110  0.2793  0.3867 -0.1139
 7437SOL    HW133773   3.547   0.415   5.072 -0.5378  1.4138 -1.6907
 7437SOL    HW233774   3.636   0.478   5.184  0.8902  1.0774 -0.4084
 7438SOL     OW33775   4.266   0.386  14.288 -0.4644  0.9827  0.0042
 7438SOL    HW133776   4.213   0.458  14.323  0.6056  1.3866  0.7686
 7438SOL    HW233777   4.229   0.382  14.199  1.0756  0.7804 -0.6172
 7439SOL     OW33778   3.780   2.586   2.630 -0.8816 -0.4570 -0.4808
 7439SOL    HW133779   3.716   2.647   2.592 -0.6464 -0.6882 -1.2429
 7439SOL    HW233780   3.817   2.553   2.549 -0.3900 -0.1004 -0.4010
 7440SOL     OW33781   3.502   2.073   7.641 -0.1139  0.1266  0.1179
 7440SOL    HW133782   3.587   2.080   7.598  0.0258  1.6023  0.6465
 7440SOL    HW233783   3.459   2.158   7.633  0.9871  0.8733  2.3882
 7441SOL     OW33784   2.154   4.632   8.226  0.1003  0.3036 -0.3469
 7441SOL    HW133785   2.071   4.587   8.246  0.0889  0.2266 -0.5669
 7441SOL    HW233786   2.157   4.705   8.288  0.7291 -0.9930  1.1376
 7442SOL     OW33787   1.012   1.790   5.954  0.3532 -0.1509 -0.5443
 7442SOL    HW133788   1.105   1.770   5.956  0.1675 -1.0997 -1.3721
 7442SOL    HW233789   1.003   1.835   5.870 -3.6291 -1.2296 -0.7226
 7443SOL     OW33790   4.105   1.776  17.317 -0.0069 -0.0314  0.0473
 7443SOL    HW133791   4.031   1.782  17.256 -0.4689  1.2116  0.7245
 7443SOL    HW233792   4.123   1.682  17.310 -0.9808 -0.3779  2.1935
 7444SOL     OW33793   1.793   1.532   1.967 -0.7870  0.0315  0.2939
 7444SOL    HW133794   1.787   1.544   2.061 -1.7797  1.6731  0.0047
 7444SOL    HW233795   1.779   1.440   1.944 -1.3236  0.9928 -3.2578
 7445SOL     OW33796   0.688   0.321   8.471 -0.1174  0.1142  0.2894
 7445SOL    HW133797   0.702   0.228   8.459  0.9235  0.2821  0.2089
 7445SOL    HW233798   0.664   0.317   8.564 -2.6424  1.2917 -0.2936
 7446SOL     OW33799   3.826   0.034   5.344  0.3020  0.6204 -0.1961
 7446SOL    HW133800   3.810   0.088   5.266  1.8793 -0.0367 -0.9580
 7446SOL    HW233801   3.920   0.020   5.340  0.1296  0.4883 -3.4513
 7447SOL     OW33802   0.330   0.055   5.974 -0.1869  1.1790 -0.2175
 7447SOL    HW133803   0.328   0.139   6.018  1.5975  0.8388  0.5072
 7447SOL    HW233804   0.254   0.075   5.920 -0.4988 -0.4197 -0.3907
 7448SOL     OW33805   4.270   3.969   2.351 -0.1001 -0.4898 -0.3679
 7448SOL    HW133806   4.360   3.971   2.318  0.9643 -1.3359  2.5307
 7448SOL    HW233807   4.225   4.037   2.299  0.7608  1.2425  1.1519
 7449SOL     OW33808   1.541   3.839   1.148  0.2163 -0.2367  0.0480
 7449SOL    HW133809   1.471   3.811   1.089  0.5663 -0.0484 -0.4543
 7449SOL    HW233810   1.483   3.872   1.217  0.2809 -2.0334  0.9604
 7450SOL     OW33811   2.189   0.447   3.128 -0.1903 -0.5159  0.2364
 7450SOL    HW133812   2.268   0.477   3.173  0.8882 -1.4713 -1.0125
 7450SOL    HW233813   2.190   0.512   3.058  0.2648  0.2001  0.9040
 7451SOL     OW33814   2.806   4.423   8.895  0.4009  0.2171 -0.4155
 7451SOL    HW133815   2.842   4.350   8.945  0.4601  1.2492  1.0612
 7451SOL    HW233816   2.865   4.439   8.821 -0.1149 -0.0397 -0.8889
 7452SOL     OW33817   2.444   4.467  14.802  0.1166  0.2345 -0.2069
 7452SOL    HW133818   2.392   4.390  14.822 -1.2216  1.4296  0.9172
 7452SOL    HW233819   2.497   4.475  14.881  0.7824  0.1949 -0.6550
 7453SOL     OW33820   2.100   3.177   4.475 -0.1852 -0.3693 -0.1774
 7453SOL    HW133821   2.183   3.129   4.469 -0.5752 -1.0292 -0.2798
 7453SOL    HW233822   2.042   3.112   4.435 -0.2347 -0.2205 -0.3454
 7454SOL     OW33823   2.234   2.768   6.831 -0.2580 -0.0836 -0.0783
 7454SOL    HW133824   2.320   2.810   6.838  0.5333 -1.7690  0.2776
 7454SOL    HW233825   2.197   2.791   6.917  1.9119 -0.2099  0.8864
 7455SOL     OW33826   4.708   2.179   3.428 -0.6297 -0.3197  0.1268
 7455SOL    HW133827   0.025   2.243   3.373  0.0261 -1.2955 -0.4869
 7455SOL    HW233828   4.720   2.098   3.378 -1.1867  0.7560 -1.7052
 7456SOL     OW33829   3.724   2.063   7.478 -0.0924  0.0442 -0.3622
 7456SOL    HW133830   3.681   2.074   7.393  0.4685  0.6987 -0.5606
 7456SOL    HW233831   3.746   1.970   7.485 -0.1291 -0.0454 -1.4105
 7457SOL     OW33832   0.511   2.908   7.031 -0.3149  0.3222  0.3930
 7457SOL    HW133833   0.565   2.986   7.014 -0.4039 -0.0200 -1.5302
 7457SOL    HW233834   0.447   2.929   6.963 -1.2553  1.9668  1.7694
 7458SOL     OW33835   2.417   3.446   8.380  0.9863 -0.3520 -0.3870
 7458SOL    HW133836   2.415   3.433   8.285 -0.5752 -3.3175  0.0456
 7458SOL    HW233837   2.355   3.519   8.383 -1.0944 -2.1349  0.4556
 7459SOL     OW33838   2.423   0.029   7.316  0.8981 -0.9703  0.0482
 7459SOL    HW133839   2.403   0.047   7.408  1.3931 -0.5170  0.0670
 7459SOL    HW233840   2.430   4.660   7.318 -0.3712 -1.0766 -0.4065
 7460SOL     OW33841   0.855   0.201   5.173 -0.1395  0.7213  0.0431
 7460SOL    HW133842   0.872   0.295   5.170 -1.5715  0.9351 -1.8558
 7460SOL    HW233843   0.905   0.186   5.253  0.9351 -1.9372 -1.1076
 7461SOL     OW33844   1.096   3.230  11.090 -0.0856  0.3127 -0.0177
 7461SOL    HW133845   1.179   3.256  11.049  0.3159  1.3512  1.4355
 7461SOL    HW233846   1.127   3.213  11.179  0.5982 -0.7618 -0.4696
 7462SOL     OW33847   0.903   1.483  12.278 -0.2663 -0.0434  0.0568
 7462SOL    HW133848   0.908   1.559  12.337  0.2031 -0.1628  0.1714
 7462SOL    HW233849   0.869   1.418  12.340  2.0592 -0.0203  1.3425
 7463SOL     OW33850   1.560   0.857   7.883  0.0782  0.5676  0.4894
 7463SOL    HW133851   1.614   0.893   7.813 -1.1067  0.2231 -0.6041
 7463SOL    HW233852   1.588   0.765   7.875 -0.8274  0.2002  1.5939
 7464SOL     OW33853   4.374   3.790  11.735  0.3149 -0.5877 -0.6309
 7464SOL    HW133854   4.396   3.803  11.643 -2.0213 -0.9757 -1.2571
 7464SOL    HW233855   4.449   3.822  11.784 -1.9201  1.4131  1.5224
 7465SOL     OW33856   2.183   1.058   6.618 -0.0282 -0.7113 -0.1482
 7465SOL    HW133857   2.276   1.076   6.628 -0.9471  4.7992 -1.2469
 7465SOL    HW233858   2.172   0.998   6.692  0.6348  1.5976  1.8381
 7466SOL     OW33859   0.256   2.531  15.447  0.3835 -0.2951 -0.6420
 7466SOL    HW133860   0.285   2.442  15.431  1.0178  0.4826 -3.6860
 7466SOL    HW233861   0.190   2.535  15.378  1.7643  0.3861 -1.9258
 7467SOL     OW33862   2.466   2.924   7.910  0.5551 -0.5580  0.2027
 7467SOL    HW133863   2.561   2.921   7.908  0.5229 -2.0186  1.2405
 7467SOL    HW233864   2.440   2.985   7.841  0.1745 -0.2176  0.6449
 7468SOL     OW33865   0.890   4.684   2.651  0.0295 -0.6653 -0.0067
 7468SOL    HW133866   0.795   4.695   2.651  0.1890  0.7450 -0.2327
 7468SOL    HW233867   0.894   4.594   2.683  0.1500 -1.3769 -2.0631
 7469SOL     OW33868   1.079   1.913   5.081  0.0817  0.5095  0.1448
 7469SOL    HW133869   1.061   1.821   5.098  1.4748 -0.2327 -2.2445
 7469SOL    HW233870   1.172   1.904   5.101 -0.3159 -0.3334  1.5259
 7470SOL     OW33871   2.097   1.257   7.863  0.1961 -0.2998 -0.3042
 7470SOL    HW133872   2.048   1.266   7.945 -0.1357 -0.3758 -0.4910
 7470SOL    HW233873   2.167   1.319   7.886  0.0376 -0.0862 -0.3916
 7471SOL     OW33874   1.625   1.537   5.927  0.7990 -0.1250  0.4460
 7471SOL    HW133875   1.592   1.509   5.841  0.3977  1.0484  0.2180
 7471SOL    HW233876   1.642   1.453   5.970  1.6800 -0.9084 -1.4328
 7472SOL     OW33877   4.714   4.584  15.771  0.3894 -0.0201  0.4915
 7472SOL    HW133878   4.724   4.489  15.778  0.0554 -0.1396 -0.5649
 7472SOL    HW233879   0.036   4.614  15.847  0.4864 -1.1954  0.8987
 7473SOL     OW33880   3.010   3.864   8.255  0.2385 -0.1112  0.1405
 7473SOL    HW133881   3.034   3.797   8.191 -1.0080 -1.3816  0.9982
 7473SOL    HW233882   3.069   3.851   8.329 -0.4000 -0.5854  0.5715
 7474SOL     OW33883   3.184   0.785   1.938  0.0209 -0.0506 -0.0295
 7474SOL    HW133884   3.150   0.707   1.893  1.1000  0.3123 -1.4627
 7474SOL    HW233885   3.265   0.797   1.889 -0.7069 -0.8987 -1.4506
 7475SOL     OW33886   2.540   0.224   3.241  0.0497 -0.0337  0.9257
 7475SOL    HW133887   2.569   0.265   3.160  1.6702 -0.7408  1.1284
 7475SOL    HW233888   2.593   0.275   3.303 -0.4002 -0.4722  1.6620
 7476SOL     OW33889   1.723   4.233   9.264 -0.3782  0.8461  0.3334
 7476SOL    HW133890   1.798   4.290   9.282  1.2330 -0.9950 -0.5320
 7476SOL    HW233891   1.650   4.292   9.281 -0.3899  0.7250  0.7240
 7477SOL     OW33892   2.235   3.458   6.467  0.3251  0.2274  0.1923
 7477SOL    HW133893   2.200   3.532   6.517 -0.3555 -0.5728  0.9010
 7477SOL    HW233894   2.171   3.462   6.396  1.6575 -1.5900 -1.0966
 7478SOL     OW33895   4.077   1.242   5.210  0.2169 -0.3047  0.3912
 7478SOL    HW133896   4.102   1.226   5.301 -0.9805  2.4205  1.1908
 7478SOL    HW233897   4.100   1.334   5.197  0.0956 -0.5403 -1.4920
 7479SOL     OW33898   4.214   1.804   9.561  0.3555  0.0510 -0.0011
 7479SOL    HW133899   4.227   1.844   9.647  1.6595  0.3089 -0.3148
 7479SOL    HW233900   4.157   1.871   9.523  2.1882  1.6766  0.1177
 7480SOL     OW33901   4.201   0.985   3.864  0.5745  0.0694 -0.2336
 7480SOL    HW133902   4.124   1.033   3.893  1.5237  1.8165 -0.5808
 7480SOL    HW233903   4.167   0.901   3.836  2.9589 -1.2910  0.8815
 7481SOL     OW33904   3.152   1.861   4.824  0.3474 -0.0293  0.2842
 7481SOL    HW133905   3.156   1.874   4.919 -1.7486 -0.6211  0.4579
 7481SOL    HW233906   3.080   1.798   4.812 -0.5970  1.1610 -0.2802
 7482SOL     OW33907   0.820   3.148   3.103 -0.2800 -0.7483  0.3548
 7482SOL    HW133908   0.834   3.241   3.117  0.1450 -1.0164  1.7630
 7482SOL    HW233909   0.906   3.116   3.131 -0.9397 -2.8550  0.0086
 7483SOL     OW33910   1.116   4.502   4.579 -0.2608 -0.8739  0.2544
 7483SOL    HW133911   1.126   4.503   4.484 -0.1906 -0.7573  0.2634
 7483SOL    HW233912   1.209   4.492   4.603 -0.2475 -2.7498 -0.5371
 7484SOL     OW33913   0.303   3.136  13.649  1.0737  0.3441  0.2390
 7484SOL    HW133914   0.249   3.208  13.617  0.8349  0.7702  1.6036
 7484SOL    HW233915   0.355   3.176  13.719  1.0562  0.7245  0.0375
 7485SOL     OW33916   4.589   0.107   7.594  0.1374 -0.6886 -0.4647
 7485SOL    HW133917   4.634   0.067   7.519 -1.2399  0.2611 -1.7939
 7485SOL    HW233918   4.633   0.088   7.677  0.3756  1.6675 -0.0631
 7486SOL     OW33919   0.663   1.673   4.178 -0.1252 -0.0022 -0.6839
 7486SOL    HW133920   0.708   1.596   4.144 -0.4640 -0.3523 -0.3351
 7486SOL    HW233921   0.610   1.708   4.107  0.5382  0.2872 -1.0410
 7487SOL     OW33922   2.862   3.862  10.050  0.4793  0.8691  0.1270
 7487SOL    HW133923   2.786   3.896  10.001 -1.2969 -1.4368  1.3232
 7487SOL    HW233924   2.820   3.847  10.134 -1.5714 -1.7186 -1.3672
 7488SOL     OW33925   4.046   1.469   8.845  0.2581 -0.2149 -0.1849
 7488SOL    HW133926   3.969   1.477   8.901  0.9092  2.0694  0.3572
 7488SOL    HW233927   4.107   1.460   8.918  1.0384 -2.4925 -1.0931
 7489SOL     OW33928   4.282   2.988   3.265 -0.0369  0.4522 -0.2637
 7489SOL    HW133929   4.312   2.963   3.352 -2.3084  4.2761  1.5991
 7489SOL    HW233930   4.212   2.926   3.241 -3.0724  2.8596  2.5084
 7490SOL     OW33931   4.704   2.607  13.116  0.0481  0.1418 -0.0365
 7490SOL    HW133932   4.657   2.643  13.191 -1.6569 -3.0046  0.4146
 7490SOL    HW233933   4.636   2.552  13.078  1.0246 -2.3944  1.8768
 7491SOL     OW33934   1.122   1.839  16.758  0.0812 -0.1586  0.1406
 7491SOL    HW133935   1.072   1.808  16.682  0.7447  2.0186 -1.1933
 7491SOL    HW233936   1.135   1.930  16.732 -2.1946  0.2003  0.2467
 7492SOL     OW33937   0.497   1.745   3.968 -0.0287  0.3393  0.1874
 7492SOL    HW133938   0.429   1.736   4.035  0.5115 -3.4285  0.2156
 7492SOL    HW233939   0.450   1.779   3.892 -1.8264 -1.4187  0.5265
 7493SOL     OW33940   1.880   0.656   8.919  0.1088 -0.0293  0.4625
 7493SOL    HW133941   1.884   0.672   9.013  3.4713 -1.5210  0.5771
 7493SOL    HW233942   1.925   0.572   8.917  0.3174  0.0955 -0.0740
 7494SOL     OW33943   3.410   3.297  17.387 -0.7130 -0.5470 -0.1034
 7494SOL    HW133944   3.421   3.326  17.477 -3.2631  3.2766 -0.9886
 7494SOL    HW233945   3.434   3.205  17.395  0.5452 -0.2010  0.0636
 7495SOL     OW33946   3.600   1.975   6.976  0.0053 -0.7928 -0.8279
 7495SOL    HW133947   3.642   1.997   7.059 -1.4434 -1.6657  0.1497
 7495SOL    HW233948   3.556   2.056   6.950  3.3863  2.0168  2.1775
 7496SOL     OW33949   1.129   1.120   6.642 -0.8723  0.2853 -0.5148
 7496SOL    HW133950   1.072   1.185   6.683 -3.0092 -0.6269 -2.0377
 7496SOL    HW233951   1.135   1.155   6.553  1.3263  1.6278  0.1717
 7497SOL     OW33952   2.910   2.435   1.504 -0.5822  0.3036 -0.1134
 7497SOL    HW133953   2.911   2.344   1.532  0.8889  0.3998  0.1358
 7497SOL    HW233954   2.983   2.474   1.553 -2.0781  0.8669  1.6794
 7498SOL     OW33955   2.884   3.197  15.472  0.7006 -0.1771 -0.9746
 7498SOL    HW133956   2.904   3.160  15.386  1.1207  0.6344 -1.2202
 7498SOL    HW233957   2.926   3.130  15.526 -0.6048  0.5117  0.8976
 7499SOL     OW33958   0.016   1.986   1.009 -0.2926  0.3760  0.1325
 7499SOL    HW133959   4.666   1.929   1.012 -1.7124  2.1823 -1.6335
 7499SOL    HW233960   0.063   1.964   1.090  0.2339  0.0530 -0.2667
 7500SOL     OW33961   1.875   2.645   2.555 -0.4562 -0.0615  0.2388
 7500SOL    HW133962   1.929   2.717   2.587 -0.1296 -0.4366  0.5319
 7500SOL    HW233963   1.932   2.598   2.494 -1.9639 -1.6721  0.0857
 7501SOL     OW33964   4.067   1.264   7.780 -0.3059 -0.0701 -0.5733
 7501SOL    HW133965   4.003   1.324   7.742 -0.9504 -0.1093  0.4331
 7501SOL    HW233966   4.145   1.319   7.774 -1.6093  1.6707 -1.5209
 7502SOL     OW33967   3.307   2.384   2.821 -0.4360 -0.2933  0.4990
 7502SOL    HW133968   3.382   2.444   2.817 -0.2997 -0.6289 -2.1481
 7502SOL    HW233969   3.281   2.368   2.730  2.1699  1.0814 -0.5139
 7503SOL     OW33970   4.109   3.598   1.785 -0.0445  0.1477  0.1038
 7503SOL    HW133971   4.097   3.589   1.879 -0.7898  1.1557  0.0953
 7503SOL    HW233972   4.195   3.555   1.786  0.6937  1.6156 -0.4419
 7504SOL     OW33973   3.830   2.009   3.862 -0.4702  0.2575 -0.1954
 7504SOL    HW133974   3.887   1.932   3.873 -1.0639 -0.0204  0.8820
 7504SOL    HW233975   3.779   2.007   3.943 -1.9361  3.9306 -1.0014
 7505SOL     OW33976   2.281   3.549  16.544  0.1068  0.3768  0.3490
 7505SOL    HW133977   2.277   3.577  16.452  0.0788  1.7011  0.7527
 7505SOL    HW233978   2.190   3.531  16.564  0.5419 -1.3315  0.7575
 7506SOL     OW33979   2.441   2.385  13.864  0.0281 -0.1637  0.2165
 7506SOL    HW133980   2.403   2.320  13.805 -1.2608  2.2593 -1.6408
 7506SOL    HW233981   2.447   2.466  13.812 -0.3012 -0.2865 -0.0128
 7507SOL     OW33982   2.380   0.176  16.457 -0.8332  0.2823  0.2265
 7507SOL    HW133983   2.415   0.187  16.546 -2.2217 -0.0776  0.8252
 7507SOL    HW233984   2.444   0.117  16.417 -2.9630 -0.8384 -1.4957
 7508SOL     OW33985   4.147   0.260  13.391  0.5680  0.7917  0.2984
 7508SOL    HW133986   4.156   0.356  13.387 -0.4226  0.7851 -1.9856
 7508SOL    HW233987   4.075   0.252  13.454 -0.9277  1.9653 -1.2587
 7509SOL     OW33988   2.764   0.543   2.033  0.6960  1.1529 -0.1430
 7509SOL    HW133989   2.758   0.473   1.968  0.6738  0.1073  0.9824
 7509SOL    HW233990   2.802   0.623   1.995  0.5868  2.2860  2.1383
 7510SOL     OW33991   0.653   3.644   1.765 -0.6998  0.0885  0.0441
 7510SOL    HW133992   0.670   3.598   1.683  0.4124 -0.7827  0.7617
 7510SOL    HW233993   0.615   3.723   1.727 -1.4462  0.0633  0.7388
 7511SOL     OW33994   3.806   0.248   1.499  0.0280 -0.5673  0.0543
 7511SOL    HW133995   3.782   0.221   1.410 -0.3700 -0.5158  0.1440
 7511SOL    HW233996   3.723   0.247   1.548  0.4937 -1.8190  0.8146
 7512SOL     OW33997   1.799   0.414   7.924 -0.0913  0.0126  0.0332
 7512SOL    HW133998   1.860   0.459   7.983 -0.2693 -0.8558  0.8747
 7512SOL    HW233999   1.853   0.336   7.912 -0.2588  0.0262 -0.7833
 7513SOL     OW34000   2.556   3.704   3.032  0.1816  0.2142 -0.4653
 7513SOL    HW134001   2.597   3.772   2.977 -2.8549  0.6931 -2.0944
 7513SOL    HW234002   2.470   3.742   3.050  0.1663 -0.4629  0.8564
 7514SOL     OW34003   0.467   3.222  12.630 -0.1116 -0.4556  0.2439
 7514SOL    HW134004   0.461   3.137  12.673  2.3078 -0.5330  0.4211
 7514SOL    HW234005   0.531   3.266  12.685 -2.0826  3.2563 -0.3816
 7515SOL     OW34006   1.730   3.768  14.746  0.3168  0.9678 -0.8696
 7515SOL    HW134007   1.735   3.854  14.704  0.4338  2.3703  2.0195
 7515SOL    HW234008   1.717   3.788  14.839  2.5274 -0.2950 -0.2884
 7516SOL     OW34009   1.335   0.055  10.814  0.1292 -0.2198 -0.0266
 7516SOL    HW134010   1.375   4.712  10.867  2.3752 -0.1748 -1.6719
 7516SOL    HW234011   1.293   0.108  10.883 -1.8824 -2.1349  0.2062
 7517SOL     OW34012   3.219   1.905   6.756 -0.2840 -0.8648  0.1336
 7517SOL    HW134013   3.225   1.912   6.852 -1.9622  2.4778  0.0235
 7517SOL    HW234014   3.261   1.987   6.728 -0.3729 -0.2544  1.7702
 7518SOL     OW34015   0.394   2.328  13.322  0.0593 -0.0911 -0.4230
 7518SOL    HW134016   0.303   2.354  13.313  0.2802  0.9242  0.2468
 7518SOL    HW234017   0.397   2.273  13.243  2.4089 -0.6413  0.0322
 7519SOL     OW34018   3.557   0.691   3.465  1.0943 -0.1091 -0.1004
 7519SOL    HW134019   3.527   0.650   3.546 -2.7729 -0.1591 -1.5241
 7519SOL    HW234020   3.597   0.624   3.410  0.2522  0.5818 -1.5801
 7520SOL     OW34021   3.436   3.851   4.272 -0.0581  0.8332  0.5192
 7520SOL    HW134022   3.420   3.939   4.237  2.2571  0.0865 -2.4342
 7520SOL    HW234023   3.361   3.842   4.330 -0.4105 -0.7212 -0.1791
 7521SOL     OW34024   4.605   2.602   6.068 -0.1223  0.4240  0.4683
 7521SOL    HW134025   4.577   2.530   6.012 -1.7638  0.5362  1.1412
 7521SOL    HW234026   4.562   2.675   6.023 -0.8795  0.1466  0.7416
 7522SOL     OW34027   1.207   1.234   6.378 -0.1148 -0.2100 -0.0059
 7522SOL    HW134028   1.221   1.325   6.403 -0.6836 -0.6761  1.9831
 7522SOL    HW234029   1.141   1.241   6.310 -0.1421 -2.3696 -0.1999
 7523SOL     OW34030   1.519   3.044   1.691 -0.4028 -0.7587  0.3259
 7523SOL    HW134031   1.523   3.122   1.745 -0.8035 -0.2066 -0.4437
 7523SOL    HW234032   1.606   3.029   1.655  0.3445  0.6294  1.5764
 7524SOL     OW34033   3.293   1.955   5.905  0.0857 -0.0342 -0.2019
 7524SOL    HW134034   3.276   1.918   5.818  0.2275 -1.8254  0.5397
 7524SOL    HW234035   3.381   1.989   5.894 -0.0995 -0.3356 -2.6105
 7525SOL     OW34036   2.281   2.056   4.679  0.8776 -0.3332  0.2580
 7525SOL    HW134037   2.212   2.055   4.745  1.9932 -1.5559  1.4076
 7525SOL    HW234038   2.222   2.049   4.603  0.0965 -0.0505  0.8399
 7526SOL     OW34039   0.794   3.311   8.208 -0.7726  0.5510  0.1071
 7526SOL    HW134040   0.743   3.317   8.289 -1.5034 -1.3518 -0.2009
 7526SOL    HW234041   0.777   3.396   8.168 -0.3194  0.1261 -0.9793
 7527SOL     OW34042   4.274   3.716   7.500 -0.3635  0.4039 -0.1680
 7527SOL    HW134043   4.278   3.804   7.538  2.1172 -0.1284  0.8294
 7527SOL    HW234044   4.296   3.741   7.411  0.0912 -2.1706 -0.7850
 7528SOL     OW34045   3.160   0.957   7.667  0.0658 -0.0798 -0.3988
 7528SOL    HW134046   3.072   0.928   7.692  0.1703  0.0156  0.0814
 7528SOL    HW234047   3.213   0.883   7.696 -0.0323  0.2759  0.6644
 7529SOL     OW34048   4.242   2.031   8.373  0.4876  0.5655 -0.2030
 7529SOL    HW134049   4.256   2.018   8.467  0.5238 -1.9698 -0.5640
 7529SOL    HW234050   4.218   2.124   8.365  0.8430  0.4716 -2.3890
 7530SOL     OW34051   4.140   0.351   7.647 -0.0911  0.1314 -0.4291
 7530SOL    HW134052   4.087   0.295   7.704 -0.1466 -2.1956 -2.7959
 7530SOL    HW234053   4.107   0.325   7.561  1.0842 -1.7855 -0.2935
 7531SOL     OW34054   2.698   2.341  17.000  0.3972  0.2395 -0.1489
 7531SOL    HW134055   2.608   2.310  16.990 -0.3704  2.1704  0.9499
 7531SOL    HW234056   2.695   2.409  17.067 -1.2784 -0.7891  0.8222
 7532SOL     OW34057   4.725   1.464   9.196  0.0683 -0.0265  0.6890
 7532SOL    HW134058   4.672   1.492   9.270  2.1705  1.5728  1.5995
 7532SOL    HW234059   0.088   1.483   9.224 -1.0712  1.3799  3.3285
 7533SOL     OW34060   4.628   0.470   3.974 -0.3139 -0.3992  0.1667
 7533SOL    HW134061   4.623   0.423   3.891  1.2554  1.3620 -0.8936
 7533SOL    HW234062   4.702   0.422   4.012  0.8962  0.5130 -1.0511
 7534SOL     OW34063   2.742   4.120   6.700  0.0886 -0.1111  0.2111
 7534SOL    HW134064   2.749   4.208   6.661 -2.3803  0.6173  1.3469
 7534SOL    HW234065   2.646   4.123   6.695  0.0922 -0.6397 -0.1635
 7535SOL     OW34066   0.610   3.910   8.193 -0.0082  0.1864  0.7313
 7535SOL    HW134067   0.689   3.888   8.243  0.1340 -1.7676 -0.3614
 7535SOL    HW234068   0.642   3.997   8.167  0.9380 -1.0850 -2.4300
 7536SOL     OW34069   3.039   4.146   7.135  0.7901 -0.7904 -0.0809
 7536SOL    HW134070   3.096   4.199   7.079  2.5918 -2.4694  0.1505
 7536SOL    HW234071   2.966   4.125   7.076  0.0758  1.5808 -0.0352
 7537SOL     OW34072   2.561   2.098   2.032 -0.2102 -0.3159  0.5794
 7537SOL    HW134073   2.560   2.033   2.103  0.4213  0.5005  1.3237
 7537SOL    HW234074   2.476   2.087   1.988 -0.6875 -1.8733  1.8608
 7538SOL     OW34075   1.429   1.427  11.143 -0.1966  0.3490  0.8631
 7538SOL    HW134076   1.524   1.416  11.138 -0.2537  1.3051 -3.0779
 7538SOL    HW234077   1.422   1.461  11.232  1.5841 -0.2341  1.2298
 7539SOL     OW34078   2.095   1.968   9.501  1.0951 -0.1232  0.3080
 7539SOL    HW134079   2.173   2.001   9.545  1.0577 -1.7614  1.6075
 7539SOL    HW234080   2.081   1.888   9.552 -2.0745 -0.1692 -0.5830
 7540SOL     OW34081   1.564   3.395   9.859 -0.8860  0.4137  0.6582
 7540SOL    HW134082   1.593   3.387   9.768  1.9709  1.0182  1.5267
 7540SOL    HW234083   1.502   3.324   9.871 -1.5615  0.6711 -1.2619
 7541SOL     OW34084   1.545   0.148   6.453 -0.3390  0.2774  0.1378
 7541SOL    HW134085   1.574   0.063   6.485 -1.2405 -0.3869 -0.7854
 7541SOL    HW234086   1.629   0.191   6.439 -0.5867  0.2245 -1.4965
 7542SOL     OW34087   4.499   2.077   2.723 -0.1879  0.0611  0.4733
 7542SOL    HW134088   4.453   2.031   2.793 -1.1709  0.9643  0.4272
 7542SOL    HW234089   4.486   2.015   2.650 -0.4020  0.6107  0.0410
 7543SOL     OW34090   0.701   1.000   8.974  0.3358 -0.1440  0.3053
 7543SOL    HW134091   0.751   1.081   8.972 -1.0877  0.7628  1.3768
 7543SOL    HW234092   0.671   0.991   8.884  1.6615 -0.8101 -0.0673
 7544SOL     OW34093   1.818   1.289   7.529  0.3724 -0.4505 -0.6287
 7544SOL    HW134094   1.825   1.260   7.438 -0.4920 -1.0581 -0.4988
 7544SOL    HW234095   1.880   1.361   7.521  0.8553 -0.8109 -0.1868
 7545SOL     OW34096   3.954   2.067   2.038 -0.1884 -0.3325 -0.0858
 7545SOL    HW134097   3.974   2.138   1.977  0.4943 -0.0381  0.4803
 7545SOL    HW234098   3.859   2.069   2.048  0.0155  0.3170  1.6458
 7546SOL     OW34099   0.970   0.232  13.772 -0.2704  0.3769  0.2878
 7546SOL    HW134100   0.956   0.140  13.748  0.0054  0.0485  1.3881
 7546SOL    HW234101   0.903   0.286  13.730  0.6029  1.1427 -0.1173
 7547SOL     OW34102   3.884   3.596  12.290  0.3662 -0.0524 -0.0408
 7547SOL    HW134103   3.978   3.584  12.303  0.7016  0.6508 -1.8504
 7547SOL    HW234104   3.878   3.660  12.219  1.6714  0.6523  0.4720
 7548SOL     OW34105   0.103   3.756   6.040 -0.1344 -0.8719 -0.2780
 7548SOL    HW134106   0.018   3.796   6.058  0.9626  0.2034  2.6853
 7548SOL    HW234107   0.101   3.735   5.947 -1.8017 -1.4399 -0.1140
 7549SOL     OW34108   4.361   1.800   5.119  0.2541 -0.5284 -0.1120
 7549SOL    HW134109   4.380   1.708   5.137  1.8808 -0.2293 -0.2837
 7549SOL    HW234110   4.298   1.813   5.190  2.1287 -0.4499  1.5320
 7550SOL     OW34111   0.034   2.405   3.595 -0.3409 -0.0642 -0.0856
 7550SOL    HW134112   0.035   2.321   3.549 -2.2280  0.9269 -1.9267
 7550SOL    HW234113   0.014   2.378   3.684  1.8180 -1.0597  0.1065
 7551SOL     OW34114   2.084   2.329   5.298  0.0509 -0.3040  0.1907
 7551SOL    HW134115   2.057   2.412   5.336  3.5437 -0.2037  2.5294
 7551SOL    HW234116   2.081   2.269   5.373 -4.2747 -0.3258 -0.0276
 7552SOL     OW34117   3.016   0.315   5.905  0.5621  0.0505  0.8526
 7552SOL    HW134118   3.035   0.334   5.996 -2.4251  1.8050  1.1291
 7552SOL    HW234119   2.933   0.362   5.901  0.3601 -0.4374 -0.8743
 7553SOL     OW34120   0.613   0.171   5.474  0.1401  0.1551  0.3921
 7553SOL    HW134121   0.623   0.266   5.475 -0.5412  0.2308 -1.4097
 7553SOL    HW234122   0.686   0.149   5.533 -0.0465 -2.3460 -0.3200
 7554SOL     OW34123   1.185   2.788   8.241  0.0547 -0.0908  0.1315
 7554SOL    HW134124   1.274   2.773   8.208  0.4271  2.3677  0.0215
 7554SOL    HW234125   1.142   2.721   8.187  1.2784 -1.1497  0.4527
 7555SOL     OW34126   4.467   2.406  17.646  0.0190  0.3157  0.5067
 7555SOL    HW134127   4.390   2.439  17.693  0.6740  1.8003  0.5415
 7555SOL    HW234128   4.518   2.483  17.622 -1.6586  0.9671 -1.0097
 7556SOL     OW34129   0.590   0.356   4.123 -0.1565 -0.4631  0.0818
 7556SOL    HW134130   0.670   0.327   4.166 -1.1384 -1.2203  1.3917
 7556SOL    HW234131   0.556   0.268   4.110  0.0272 -0.5220  0.0122
 7557SOL     OW34132   1.573   2.468   7.665  0.0092  0.1530  0.0837
 7557SOL    HW134133   1.646   2.517   7.702 -0.9351  1.1774  0.5689
 7557SOL    HW234134   1.606   2.378   7.669  2.0081  0.8960  0.2767
 7558SOL     OW34135   2.173   0.013   7.951 -0.1649 -0.1527  0.6585
 7558SOL    HW134136   2.200   4.678   7.884  2.5541 -0.1515  1.7234
 7558SOL    HW234137   2.231   0.006   8.027  1.5633 -0.1572 -0.6625
 7559SOL     OW34138   4.532   3.137   8.741 -0.0373  0.1638  0.3327
 7559SOL    HW134139   4.617   3.182   8.744  0.3956 -0.6835  0.8140
 7559SOL    HW234140   4.509   3.151   8.649 -3.0655 -0.1939  1.0439
 7560SOL     OW34141   0.840   1.190  12.202 -0.1287  0.0767  0.2345
 7560SOL    HW134142   0.933   1.211  12.196 -0.3801  0.9460 -0.8610
 7560SOL    HW234143   0.820   1.212  12.111 -0.4389 -1.4128 -0.0580
 7561SOL     OW34144   4.162   2.651   6.820  0.9473 -0.5697  0.2334
 7561SOL    HW134145   4.121   2.635   6.905  2.0190 -2.4593  0.4056
 7561SOL    HW234146   4.202   2.738   6.821 -0.2681  0.0044 -1.2953
 7562SOL     OW34147   3.313   4.350   0.239 -0.1730 -0.3595 -0.3856
 7562SOL    HW134148   3.320   4.263   0.278  0.7701  1.0801  2.5940
 7562SOL    HW234149   3.370   4.330   0.165 -0.6503  0.0047 -0.8595
 7563SOL     OW34150   4.379   1.460   1.887  0.2754 -0.1356 -0.3850
 7563SOL    HW134151   4.311   1.454   1.954  0.6522  1.8347  0.1802
 7563SOL    HW234152   4.389   1.369   1.859 -3.6342 -0.9038  0.8333
 7564SOL     OW34153   1.186   0.326   7.688  0.0406  0.4611  0.2138
 7564SOL    HW134154   1.277   0.350   7.705  0.5164 -0.9104 -0.4108
 7564SOL    HW234155   1.166   0.305   7.779  4.4413  2.5696  1.6356
 7565SOL     OW34156   3.523   2.190   6.178 -0.1194  0.3011  0.1685
 7565SOL    HW134157   3.452   2.211   6.239 -0.1722  0.9425 -0.1163
 7565SOL    HW234158   3.478   2.219   6.099  0.3010 -0.1440 -0.2323
 7566SOL     OW34159   4.314   2.594   0.062  0.5184  0.1364 -0.5485
 7566SOL    HW134160   4.316   2.544   0.144  0.7606 -0.4371 -0.9002
 7566SOL    HW234161   4.399   2.636   0.074  0.0301  0.4677  1.6076
 7567SOL     OW34162   2.620   3.372   1.239 -0.0223 -0.2696 -0.0247
 7567SOL    HW134163   2.526   3.379   1.253 -0.2737  0.2187 -2.0092
 7567SOL    HW234164   2.641   3.462   1.216 -0.1953  0.4406  2.5837
 7568SOL     OW34165   1.816   3.896   0.703  0.0026 -0.0147  0.5555
 7568SOL    HW134166   1.743   3.931   0.754 -0.7913 -0.9513  0.0414
 7568SOL    HW234167   1.829   3.810   0.743  0.4030  0.1758  0.8371
 7569SOL     OW34168   0.278   3.467   9.326 -0.2230  0.0951 -0.0298
 7569SOL    HW134169   0.309   3.414   9.400  2.0140  0.0976 -0.9660
 7569SOL    HW234170   0.358   3.460   9.275  0.5293 -1.7910  1.3999
 7570SOL     OW34171   0.466   1.824  13.374 -0.4786 -0.0423  0.6242
 7570SOL    HW134172   0.535   1.830  13.308 -0.8255 -0.2670  0.2479
 7570SOL    HW234173   0.515   1.846  13.454 -1.5595  1.4637  0.8812
 7571SOL     OW34174   1.949   3.413   4.502  0.7724 -0.0852  0.6213
 7571SOL    HW134175   1.994   3.333   4.474 -3.1970 -1.3931 -2.0339
 7571SOL    HW234176   1.937   3.465   4.423 -1.0679  0.1324  1.0477
 7572SOL     OW34177   0.858   0.587   1.481  0.3736  0.1914 -0.1002
 7572SOL    HW134178   0.936   0.581   1.426 -0.3712  0.6608 -1.2048
 7572SOL    HW234179   0.799   0.590   1.405 -0.7623 -1.0024  0.7287
 7573SOL     OW34180   0.835   3.781   5.263  0.1540 -0.0263  0.1727
 7573SOL    HW134181   0.769   3.719   5.229  1.0479 -1.0634  0.3333
 7573SOL    HW234182   0.851   3.743   5.350  0.1955 -0.1560  0.1074
 7574SOL     OW34183   3.341   0.695   4.424  0.4015  0.1904  0.2507
 7574SOL    HW134184   3.284   0.686   4.500 -0.2958  0.4191 -0.2421
 7574SOL    HW234185   3.313   0.777   4.384  0.6394  0.1423 -0.0162
 7575SOL     OW34186   1.492   2.773   9.219 -0.0023  0.5431  0.5845
 7575SOL    HW134187   1.434   2.796   9.292  0.0874 -0.1779  0.8861
 7575SOL    HW234188   1.574   2.775   9.269 -0.6191  0.4660  1.6026
 7576SOL     OW34189   0.699   1.600  12.098  0.0089  0.1269 -0.6197
 7576SOL    HW134190   0.671   1.527  12.042  2.5490 -0.1850 -1.4947
 7576SOL    HW234191   0.768   1.564  12.154 -0.7523  2.2173  1.6751
 7577SOL     OW34192   0.144   3.813   7.136  0.3980  0.4115 -0.5319
 7577SOL    HW134193   0.203   3.874   7.180 -1.9887  1.1960  1.5190
 7577SOL    HW234194   0.104   3.867   7.067 -0.1332  0.2233 -0.3670
 7578SOL     OW34195   1.775   0.841  16.005  0.2025  0.2425 -1.0855
 7578SOL    HW134196   1.799   0.761  16.052 -0.7384  0.0770 -0.8828
 7578SOL    HW234197   1.861   0.873  15.978  0.2549  0.2406 -0.9222
 7579SOL     OW34198   3.772   1.656  16.628 -0.0994  0.1551  0.2799
 7579SOL    HW134199   3.768   1.734  16.682 -1.3067 -0.3308  0.9093
 7579SOL    HW234200   3.705   1.599  16.666 -1.0560  2.2789  1.7481
 7580SOL     OW34201   1.175   3.119   4.422  0.0120  0.1422 -1.1701
 7580SOL    HW134202   1.084   3.090   4.430  0.0095  0.7000  0.8053
 7580SOL    HW234203   1.177   3.186   4.491  1.2673 -1.1136  0.0129
 7581SOL     OW34204   2.668   1.089   5.968  0.1280  0.0259 -0.4116
 7581SOL    HW134205   2.740   1.073   6.028 -1.4934  1.5615  1.9487
 7581SOL    HW234206   2.630   1.161   6.017  1.4956 -0.0810  0.7998
 7582SOL     OW34207   1.171   4.345   2.731  0.3007  0.4665 -0.1941
 7582SOL    HW134208   1.211   4.270   2.775  0.2844  0.8433  0.4690
 7582SOL    HW234209   1.163   4.308   2.643 -1.1336  1.1448 -0.3516
 7583SOL     OW34210   4.379   2.687  14.055  0.3107 -0.2182 -0.9309
 7583SOL    HW134211   4.303   2.634  14.076  0.0549  0.4607 -0.1592
 7583SOL    HW234212   4.368   2.764  14.110 -0.3295 -0.4931 -0.6762
 7584SOL     OW34213   2.941   3.920   6.693 -0.1997 -0.1094  0.3229
 7584SOL    HW134214   2.890   3.905   6.772  0.4173 -1.2679  0.4998
 7584SOL    HW234215   2.920   4.014   6.686 -1.0975 -0.3130  0.2353
 7585SOL     OW34216   0.903   4.494   0.085  0.0868  0.5004  0.6073
 7585SOL    HW134217   0.974   4.553   0.110 -0.1306  0.9591  0.1523
 7585SOL    HW234218   0.896   4.422   0.148  0.8410  0.7464  0.9736
 7586SOL     OW34219   0.140   4.460   8.482 -0.3185  0.3912  0.1315
 7586SOL    HW134220   0.086   4.539   8.479  1.1854  1.3458 -1.3726
 7586SOL    HW234221   0.205   4.477   8.414 -0.2657 -0.3314  0.0019
 7587SOL     OW34222   4.472   0.037   1.872  0.5137  0.2304 -0.2047
 7587SOL    HW134223   4.521   4.686   1.844 -0.7105 -0.4143 -0.6033
 7587SOL    HW234224   4.533   0.108   1.853  2.2793 -0.7692  1.7282
 7588SOL     OW34225   2.046   4.341   6.272  0.3408  0.6460  0.1866
 7588SOL    HW134226   2.111   4.409   6.289  0.7341  0.1508  0.6515
 7588SOL    HW234227   2.075   4.314   6.184 -0.6471  2.3720 -0.6813
 7589SOL     OW34228   2.550   1.886   5.157  0.2108 -0.3053  0.2788
 7589SOL    HW134229   2.501   1.830   5.217  0.9316 -0.3802  0.7944
 7589SOL    HW234230   2.500   1.968   5.151  0.8290  0.0884  0.5086
 7590SOL     OW34231   0.655   1.069   7.151 -0.1004  0.1567 -0.2438
 7590SOL    HW134232   0.571   1.109   7.170 -0.1683  0.2470 -0.7262
 7590SOL    HW234233   0.639   0.984   7.110 -1.4311 -0.4205  1.4654
 7591SOL     OW34234   4.608   0.191   2.502  0.4174  0.3678  0.2862
 7591SOL    HW134235   4.646   0.117   2.455  0.0540 -0.3062  1.0691
 7591SOL    HW234236   4.591   0.244   2.423  0.3486 -0.3666 -0.1950
 7592SOL     OW34237   2.744   0.885   4.974 -1.2767 -0.2010  0.3519
 7592SOL    HW134238   2.663   0.931   4.996 -0.8573 -0.1857  1.8271
 7592SOL    HW234239   2.795   0.880   5.054  0.2767  1.0317 -0.5545
 7593SOL     OW34240   3.328   2.888   2.348 -0.3629  0.5433 -0.3409
 7593SOL    HW134241   3.266   2.937   2.403 -1.2045 -0.1664 -0.6657
 7593SOL    HW234242   3.317   2.798   2.377 -0.4306  0.5581 -0.3197
 7594SOL     OW34243   0.586   1.984   3.735 -0.0057  0.5183 -0.5358
 7594SOL    HW134244   0.503   2.029   3.720 -0.9775 -0.9934  0.4230
 7594SOL    HW234245   0.572   1.912   3.674  2.0050  0.1701 -0.6017
 7595SOL     OW34246   3.244   3.104   3.056 -0.1298  1.2435  0.2086
 7595SOL    HW134247   3.282   3.094   3.143  2.3149  1.1140 -0.8727
 7595SOL    HW234248   3.148   3.096   3.055  0.0695 -1.0470 -0.1694
 7596SOL     OW34249   3.191   3.144   6.124 -0.2111  0.2497 -0.6037
 7596SOL    HW134250   3.139   3.101   6.057 -2.4579  2.1794 -0.0823
 7596SOL    HW234251   3.211   3.071   6.182  0.6751  2.3285  1.7321
 7597SOL     OW34252   4.384   4.653   5.762 -0.3547 -0.2127  0.0282
 7597SOL    HW134253   4.398   0.018   5.785 -0.1680 -0.7558  2.1001
 7597SOL    HW234254   4.330   4.666   5.684  1.0609  0.8848 -0.7801
 7598SOL     OW34255   0.039   0.691   1.966 -0.3189 -0.4855  0.1892
 7598SOL    HW134256   0.047   0.771   2.018 -0.6752 -0.3182 -0.0157
 7598SOL    HW234257   0.026   0.732   1.881 -0.7225 -1.8939 -0.4353
 7599SOL     OW34258   2.555   3.234  16.206  0.3250 -0.1116 -0.3627
 7599SOL    HW134259   2.611   3.214  16.281 -0.2541  4.7075  1.3900
 7599SOL    HW234260   2.477   3.275  16.243  0.3999  0.7101 -1.1037
 7600SOL     OW34261   0.986   4.121  15.672 -0.1680  0.0244 -0.1491
 7600SOL    HW134262   1.021   4.137  15.584 -0.8726  1.3367 -0.2023
 7600SOL    HW234263   0.946   4.207  15.689  1.3063  0.8629 -0.9856
 7601SOL     OW34264   2.788   0.864   7.390  0.3772  1.1241  0.2952
 7601SOL    HW134265   2.770   0.936   7.330 -1.8570 -0.3598 -0.8141
 7601SOL    HW234266   2.835   0.812   7.325 -0.3661 -1.2709  1.6740
 7602SOL     OW34267   4.093   3.195  14.055  0.0277 -0.3352  0.2760
 7602SOL    HW134268   4.061   3.259  14.118  0.7864 -2.2403  2.6172
 7602SOL    HW234269   4.026   3.188  13.987 -0.5511 -2.3110  1.0265
 7603SOL     OW34270   4.234   4.465  11.823  0.0830  0.7120  0.0419
 7603SOL    HW134271   4.274   4.382  11.849  1.9526  0.7771 -2.7256
 7603SOL    HW234272   4.277   4.528  11.881 -0.8460 -2.4562  4.1779
 7604SOL     OW34273   2.819   3.653   5.417 -0.3677 -0.3568 -0.0356
 7604SOL    HW134274   2.802   3.584   5.353 -0.9528  1.1210 -1.4957
 7604SOL    HW234275   2.784   3.607   5.493 -1.3480  0.5770  0.0794
 7605SOL     OW34276   2.193   1.350   3.873  0.7746 -0.2931  0.1834
 7605SOL    HW134277   2.170   1.261   3.849 -0.2979 -0.0415  0.2575
 7605SOL    HW234278   2.162   1.366   3.963 -3.1094  0.8291 -1.3338
 7606SOL     OW34279   1.605   2.346   4.341  0.5451  0.0106 -0.3833
 7606SOL    HW134280   1.618   2.332   4.435 -2.0500 -2.0538 -0.3331
 7606SOL    HW234281   1.625   2.440   4.346 -0.9460  0.1904  2.6305
 7607SOL     OW34282   2.609   2.841  15.589 -0.8662 -0.4988  0.1485
 7607SOL    HW134283   2.675   2.783  15.552  1.0892  1.0797  1.1900
 7607SOL    HW234284   2.655   2.923  15.606 -1.8561 -0.3917  2.3820
 7608SOL     OW34285   1.694   3.245   0.212  0.7459  0.0198 -0.7608
 7608SOL    HW134286   1.771   3.276   0.259 -0.0916 -1.1202  1.3422
 7608SOL    HW234287   1.719   3.260   0.121  1.4564 -1.0443 -0.7424
 7609SOL     OW34288   3.075   2.227   6.534 -0.3668 -0.0372  0.6094
 7609SOL    HW134289   3.083   2.142   6.491 -2.8486  1.0565 -2.0237
 7609SOL    HW234290   3.023   2.276   6.471  0.1414 -0.3155 -0.0203
 7610SOL     OW34291   1.142   4.408   1.550  0.0743 -0.2692 -0.2447
 7610SOL    HW134292   1.203   4.398   1.477 -1.2219  1.3261 -1.5448
 7610SOL    HW234293   1.102   4.493   1.533 -0.1675 -0.1035  1.1655
 7611SOL     OW34294   3.653   2.109   7.212 -0.1391 -0.4016  0.5767
 7611SOL    HW134295   3.599   2.187   7.227  0.9668  0.1114  1.9614
 7611SOL    HW234296   3.720   2.159   7.163 -0.8227 -1.7630 -1.7395
 7612SOL     OW34297   4.479   1.123   7.065  0.4587  0.2981 -0.2792
 7612SOL    HW134298   4.456   1.147   7.155 -0.4643 -0.5942 -0.2779
 7612SOL    HW234299   4.403   1.075   7.032  0.2365  1.4217 -1.4103
 7613SOL     OW34300   1.638   0.746   7.521  0.0323  0.4595 -0.1948
 7613SOL    HW134301   1.664   0.705   7.604 -1.4826 -2.5210 -1.2025
 7613SOL    HW234302   1.609   0.828   7.560  2.4640  0.4159  1.7550
 7614SOL     OW34303   3.904   3.192  13.868  0.0228 -0.4436  0.6355
 7614SOL    HW134304   3.904   3.285  13.889 -0.4361 -0.2774 -0.1239
 7614SOL    HW234305   3.810   3.192  13.852  0.1750 -0.6438 -0.2632
 7615SOL     OW34306   4.696   0.282   8.283 -0.0545 -0.1439 -0.4995
 7615SOL    HW134307   4.682   0.268   8.189  0.7612  0.9339 -0.7803
 7615SOL    HW234308   0.058   0.254   8.302  1.3713  2.9226 -2.6756
 7616SOL     OW34309   3.519   0.798   0.273 -0.6405 -0.7035  0.0477
 7616SOL    HW134310   3.534   0.777   0.181  0.3170 -2.0274  0.5110
 7616SOL    HW234311   3.488   0.715   0.308 -2.5379  0.3658  0.9318
 7617SOL     OW34312   1.728   0.947   4.584  0.3160  1.0089  0.4950
 7617SOL    HW134313   1.678   0.994   4.651  0.0889 -1.1603  1.8556
 7617SOL    HW234314   1.740   1.019   4.523  2.5709  1.1699  1.1147
 7618SOL     OW34315   2.806   2.592  15.133  0.9595  0.3471 -0.0569
 7618SOL    HW134316   2.868   2.632  15.073  0.6824  0.9648  0.0693
 7618SOL    HW234317   2.764   2.664  15.181  0.8827 -1.0247  1.9146
 7619SOL     OW34318   4.307   4.000   5.089  0.0504 -0.0620  0.0109
 7619SOL    HW134319   4.356   4.080   5.072 -2.2016  1.3453  0.2064
 7619SOL    HW234320   4.248   3.995   5.014  1.0975 -1.4208 -0.7327
 7620SOL     OW34321   1.582   0.171   7.972 -0.3751 -0.4088 -0.0415
 7620SOL    HW134322   1.501   0.190   8.019 -1.1697 -5.3743  0.5666
 7620SOL    HW234323   1.641   0.150   8.045  0.3302  2.1908  0.1388
 7621SOL     OW34324   1.026   1.687  12.076  0.3987 -0.3388  0.2724
 7621SOL    HW134325   1.009   1.627  12.148  1.4193 -0.8653  0.0677
 7621SOL    HW234326   1.031   1.768  12.128 -1.1892 -0.7588  1.0957
 7622SOL     OW34327   3.225   0.824  12.542  0.7904  0.4222  0.1193
 7622SOL    HW134328   3.295   0.801  12.602  1.5671 -1.8569 -1.6594
 7622SOL    HW234329   3.232   0.919  12.536 -0.8462  0.5716  0.3648
 7623SOL     OW34330   0.761   4.022   1.002 -0.7285  0.2087  0.2208
 7623SOL    HW134331   0.769   3.946   0.945 -2.7555 -0.8698  1.3559
 7623SOL    HW234332   0.715   3.980   1.075  0.5298 -0.3338  0.7052
 7624SOL     OW34333   3.030   1.774  10.437 -0.4639 -0.2442  0.5352
 7624SOL    HW134334   2.979   1.849  10.468  0.4762  0.9301 -0.7437
 7624SOL    HW234335   3.059   1.813  10.354 -0.8755 -3.0923 -0.9787
 7625SOL     OW34336   0.015   2.666   6.656 -0.1982 -0.6002 -0.3949
 7625SOL    HW134337   4.658   2.660   6.609 -0.1978 -0.6685 -0.3866
 7625SOL    HW234338   0.075   2.645   6.585  1.7810 -0.3946  1.2257
 7626SOL     OW34339   3.619   3.488  12.112 -0.7608  0.7859 -0.4043
 7626SOL    HW134340   3.559   3.416  12.098 -1.0944  1.0904 -0.5378
 7626SOL    HW234341   3.703   3.443  12.104  0.0981  2.3573 -0.2882
 7627SOL     OW34342   2.504   0.248   3.743 -0.6128  0.5242  0.4355
 7627SOL    HW134343   2.424   0.300   3.746 -1.3009 -0.4051 -1.8962
 7627SOL    HW234344   2.562   0.309   3.698  0.0515  1.2976  2.3426
 7628SOL     OW34345   2.043   4.395   3.817  0.5889  0.1157 -0.1966
 7628SOL    HW134346   2.003   4.450   3.749 -1.4629  0.7261  1.4958
 7628SOL    HW234347   2.111   4.453   3.853 -1.3661 -0.7688  4.9807
 7629SOL     OW34348   2.430   3.454  16.757 -0.2551 -0.7635  0.6840
 7629SOL    HW134349   2.484   3.387  16.714 -1.8458 -1.7608  0.2655
 7629SOL    HW234350   2.391   3.488  16.676  1.3274  1.2063  0.7443
 7630SOL     OW34351   0.749   0.259   8.202 -0.3155 -0.3992  0.7534
 7630SOL    HW134352   0.718   0.333   8.149  0.4854  0.5048  1.5437
 7630SOL    HW234353   0.727   0.293   8.289  0.9390  2.1420  0.0911
 7631SOL     OW34354   0.710   4.648   4.921  0.8232  0.0290 -0.2514
 7631SOL    HW134355   0.801   4.676   4.908  0.6168 -0.2572 -2.3034
 7631SOL    HW234356   0.672   0.009   4.928 -1.3401 -1.0541  1.5868
 7632SOL     OW34357   3.165   1.945   7.016  0.1052 -0.6363  0.2071
 7632SOL    HW134358   3.134   1.913   7.101  0.3582 -1.7576 -0.1251
 7632SOL    HW234359   3.138   2.037   7.024 -1.1626 -1.0058  0.1175
 7633SOL     OW34360   0.061   2.735   5.181  0.3746 -0.0664 -0.0526
 7633SOL    HW134361   0.118   2.726   5.105 -0.2047 -0.1980 -0.4691
 7633SOL    HW234362   0.096   2.664   5.234  0.8665 -0.8361 -1.4145
 7634SOL     OW34363   2.981   0.946   2.757 -0.0988  0.0008 -0.6336
 7634SOL    HW134364   3.010   0.938   2.666  0.8383  0.7414 -0.4032
 7634SOL    HW234365   3.066   0.967   2.797 -0.6328  0.8565  0.0504
 7635SOL     OW34366   3.136   3.632   7.830 -0.2288 -0.6429  0.6824
 7635SOL    HW134367   3.085   3.552   7.821  0.4735 -1.2487  2.1911
 7635SOL    HW234368   3.109   3.653   7.919 -1.4649 -0.7333  0.3257
 7636SOL     OW34369   3.448   2.267   9.145 -0.0431 -1.0438 -0.1207
 7636SOL    HW134370   3.372   2.246   9.199  1.1681  1.3507  2.5422
 7636SOL    HW234371   3.409   2.247   9.060 -1.1208 -1.2628  0.4299
 7637SOL     OW34372   0.671   2.916   8.838  0.0116 -0.4835  0.4548
 7637SOL    HW134373   0.602   2.965   8.795 -0.6493 -1.6438  0.2118
 7637SOL    HW234374   0.697   2.974   8.910 -0.8348  2.0572 -1.2678
 7638SOL     OW34375   2.797   3.500   2.982  0.0817 -0.6510 -0.4992
 7638SOL    HW134376   2.819   3.415   3.020 -0.9641 -1.1697 -1.0293
 7638SOL    HW234377   2.712   3.525   3.020  0.2646 -1.2546  0.3092
 7639SOL     OW34378   0.945   3.258  16.630  0.1448  0.1238 -0.0411
 7639SOL    HW134379   0.881   3.294  16.568  0.2706 -2.3412 -1.5811
 7639SOL    HW234380   0.979   3.336  16.675 -4.3657  0.5680  2.5670
 7640SOL     OW34381   3.964   2.380   4.569  0.4437  0.2701  0.8796
 7640SOL    HW134382   3.896   2.383   4.502  1.8859  0.8827 -0.5459
 7640SOL    HW234383   4.035   2.335   4.524  0.1228 -3.3919  3.9383
 7641SOL     OW34384   2.481   1.593   2.495 -0.0331  0.3342  0.2322
 7641SOL    HW134385   2.556   1.534   2.484 -1.3701 -1.3747  0.3936
 7641SOL    HW234386   2.408   1.531   2.499 -2.3874  3.0193 -1.5714
 7642SOL     OW34387   1.486   1.979   8.041 -0.6058 -0.0719  0.2376
 7642SOL    HW134388   1.442   2.018   7.965  1.2442 -0.5043 -1.0478
 7642SOL    HW234389   1.421   1.930   8.091 -2.2376 -0.3594 -2.1551
 7643SOL     OW34390   2.016   1.545   4.467  0.4455 -0.0229  0.1701
 7643SOL    HW134391   1.964   1.536   4.546  0.1340 -0.8030 -0.1240
 7643SOL    HW234392   2.014   1.452   4.444  1.0907  0.0301 -0.1183
 7644SOL     OW34393   4.477   1.204   7.894 -0.5602  0.1914 -0.1887
 7644SOL    HW134394   4.499   1.113   7.914  0.0024  0.0092 -1.6295
 7644SOL    HW234395   4.440   1.223   7.980 -0.3199  0.5459 -0.1624
 7645SOL     OW34396   0.614   4.477  17.697 -0.5995 -0.0982  0.3932
 7645SOL    HW134397   0.548   4.457   0.055  0.3567  1.8092  1.9521
 7645SOL    HW234398   0.681   4.507   0.051  2.1237 -4.0346 -0.6169
 7646SOL     OW34399   2.017   0.465  13.207 -0.1175  0.0929  0.5748
 7646SOL    HW134400   1.974   0.522  13.270  0.2544 -0.5467  1.4052
 7646SOL    HW234401   1.981   0.379  13.229 -0.9354 -0.2809 -2.2815
 7647SOL     OW34402   4.434   0.670   7.125 -0.2369  0.1439  0.2431
 7647SOL    HW134403   4.460   0.677   7.033  2.9980  0.1848  1.1936
 7647SOL    HW234404   4.515   0.667   7.175  1.1777  0.1113 -2.0339
 7648SOL     OW34405   1.047   4.363  15.465  0.6498 -0.3494  0.0216
 7648SOL    HW134406   0.972   4.363  15.524 -0.7915 -0.0085 -1.7876
 7648SOL    HW234407   1.072   4.454  15.479 -0.9931  0.0081  0.6354
 7649SOL     OW34408   2.295   3.852  17.324  0.0272  0.0538  0.0975
 7649SOL    HW134409   2.276   3.893  17.240 -0.3934  0.3718  0.3462
 7649SOL    HW234410   2.301   3.931  17.376  0.7114  0.7830 -1.0964
 7650SOL     OW34411   4.333   3.096   4.805 -1.0376  0.2350  0.1642
 7650SOL    HW134412   4.400   3.028   4.807  0.4038  1.6709  0.6103
 7650SOL    HW234413   4.381   3.172   4.839 -1.9742  1.5070 -1.3306
 7651SOL     OW34414   1.506   4.093  14.972  0.1888 -0.3235 -0.3107
 7651SOL    HW134415   1.582   4.043  15.003  0.2016 -0.7331 -1.0104
 7651SOL    HW234416   1.495   4.049  14.887 -0.3905  0.2789 -0.5474
 7652SOL     OW34417   0.165   0.951  11.296 -0.4258 -0.3096 -1.1126
 7652SOL    HW134418   0.253   0.915  11.310  0.2154  1.0023 -1.8071
 7652SOL    HW234419   0.123   0.927  11.379  1.1926 -0.6974 -0.4100
 7653SOL     OW34420   2.054   1.643  17.653 -0.1724  0.1084 -0.0744
 7653SOL    HW134421   2.054   1.591   0.025 -0.5094  0.2705  0.0333
 7653SOL    HW234422   2.144   1.635  17.622  0.5748  0.3072  2.0891
 7654SOL     OW34423   1.836   2.082   8.828 -0.3390 -0.2261  0.5444
 7654SOL    HW134424   1.886   2.068   8.908  2.0564 -1.2247 -1.1110
 7654SOL    HW234425   1.905   2.123   8.777  0.8383  0.1864  2.4675
 7655SOL     OW34426   3.045   4.453   2.950  0.4446  0.2977 -0.1134
 7655SOL    HW134427   3.123   4.431   2.900  0.0007 -0.4470 -0.4887
 7655SOL    HW234428   2.991   4.445   2.871  0.3237 -2.1497  0.2127
 7656SOL     OW34429   0.656   1.218   6.778  0.5505 -0.4966 -0.0010
 7656SOL    HW134430   0.728   1.225   6.840  1.5673 -2.9053 -0.8972
 7656SOL    HW234431   0.577   1.203   6.831 -0.0238  0.3112 -0.6292
 7657SOL     OW34432   1.880   0.654   8.390  0.2275 -0.0072 -0.4183
 7657SOL    HW134433   1.834   0.600   8.455  2.0077 -2.1763 -0.9601
 7657SOL    HW234434   1.899   0.724   8.452 -0.0213  0.0481 -0.4047
 7658SOL     OW34435   0.132   2.758  10.611 -0.3024  0.3118 -0.2414
 7658SOL    HW134436   0.152   2.820  10.541  0.6116 -0.3443 -0.5596
 7658SOL    HW234437   0.148   2.822  10.681  2.3255  0.8542 -1.3153
 7659SOL     OW34438   3.472   0.463  13.309 -0.3236 -0.2945  0.2826
 7659SOL    HW134439   3.475   0.555  13.337  1.3320 -0.5713  1.0033
 7659SOL    HW234440   3.400   0.432  13.364  1.2473 -2.3143  1.1660
 7660SOL     OW34441   0.773   1.695  13.797  0.5614 -0.6224  1.0316
 7660SOL    HW134442   0.841   1.633  13.823  0.3880 -0.6467  1.4348
 7660SOL    HW234443   0.821   1.777  13.788 -1.4181  0.5797  1.3532
 7661SOL     OW34444   1.604   2.927  15.479 -0.5543  0.3484  0.2386
 7661SOL    HW134445   1.567   2.935  15.391  2.7444  0.6780 -1.0818
 7661SOL    HW234446   1.566   2.841  15.496  1.4501 -0.0440  2.6399
 7662SOL     OW34447   2.475   3.854   9.099  0.4500 -0.0719 -0.0742
 7662SOL    HW134448   2.427   3.784   9.053  0.4092 -0.1723  0.1192
 7662SOL    HW234449   2.504   3.809   9.179  2.7035 -1.0610 -1.4576
 7663SOL     OW34450   0.909   4.051   3.347  0.0626  0.4908 -0.1460
 7663SOL    HW134451   0.853   4.005   3.285  2.7058 -2.5106 -0.2770
 7663SOL    HW234452   0.994   4.007   3.339 -0.9588 -1.4968 -0.1055
 7664SOL     OW34453   1.627   0.338   5.281 -0.0794  0.2357 -0.0669
 7664SOL    HW134454   1.544   0.378   5.310  0.3798  1.6080 -0.6606
 7664SOL    HW234455   1.619   0.357   5.188  1.5630  0.4043 -0.1647
 7665SOL     OW34456   0.283   4.102   8.379 -0.4105 -0.1405 -0.0540
 7665SOL    HW134457   0.340   4.054   8.440  0.5040  0.3348 -0.5291
 7665SOL    HW234458   0.226   4.158   8.432  0.7039  0.6254  0.3424
 7666SOL     OW34459   3.856   2.926   2.916 -0.2148  0.6101 -0.1810
 7666SOL    HW134460   3.775   2.932   2.866 -0.2877 -0.1329 -0.1568
 7666SOL    HW234461   3.854   2.836   2.948 -0.2560  0.5997 -0.2131
 7667SOL     OW34462   1.621   0.073   6.981  0.2949  0.2879  0.2388
 7667SOL    HW134463   1.541   0.103   6.936  1.1753  1.4312 -0.5684
 7667SOL    HW234464   1.627   4.721   6.927  1.5095  1.8890 -1.9810
 7668SOL     OW34465   1.342   0.843   8.031 -0.1896 -0.0521 -0.1016
 7668SOL    HW134466   1.415   0.841   7.969  1.0008 -1.9439  1.3869
 7668SOL    HW234467   1.367   0.781   8.099  0.2405  0.5936  0.3377
 7669SOL     OW34468   3.273   0.434   2.408 -0.0550  0.2959  0.6447
 7669SOL    HW134469   3.197   0.401   2.360  1.8872 -1.6539 -1.0788
 7669SOL    HW234470   3.314   0.494   2.346 -0.3969 -0.6967 -0.5533
 7670SOL     OW34471   2.931   1.762   6.345  0.7137  0.2678 -0.1845
 7670SOL    HW134472   2.954   1.763   6.438 -0.5366  3.2691  0.0912
 7670SOL    HW234473   2.961   1.849   6.318  0.3939 -0.3032 -2.3914
 7671SOL     OW34474   2.625   4.436  15.815 -0.4063  0.1519  0.4455
 7671SOL    HW134475   2.601   4.366  15.754 -0.8415  0.7245 -0.0291
 7671SOL    HW234476   2.585   4.518  15.788 -0.1123  0.5758  1.2906
 7672SOL     OW34477   4.303   3.452  13.421 -0.0261 -0.2691  0.4944
 7672SOL    HW134478   4.376   3.395  13.448  0.3791  0.4312  0.8669
 7672SOL    HW234479   4.234   3.386  13.424  1.0186 -1.3752  0.1781
 7673SOL     OW34480   4.183   2.054   2.209  0.4559  0.1125  0.2348
 7673SOL    HW134481   4.149   2.047   2.298 -2.8399  0.0188 -1.0315
 7673SOL    HW234482   4.100   2.066   2.164  0.5681  0.7962  0.2169
 7674SOL     OW34483   0.287   2.260   2.184  0.2560 -0.2410  0.4645
 7674SOL    HW134484   0.201   2.232   2.151  0.5016 -0.0370 -0.3389
 7674SOL    HW234485   0.291   2.353   2.159 -0.9068  0.3111  2.2966
 7675SOL     OW34486   3.852   2.346   2.191 -0.3493 -0.5562 -0.0005
 7675SOL    HW134487   3.927   2.347   2.132 -0.6380 -1.2687 -0.3803
 7675SOL    HW234488   3.780   2.353   2.128 -2.1284 -1.5229  1.9478
 7676SOL     OW34489   0.150   0.501  10.489 -0.5541 -0.1126  0.3702
 7676SOL    HW134490   0.216   0.446  10.446  0.8680  2.2044 -0.3949
 7676SOL    HW234491   0.106   0.552  10.421 -0.2507  0.1414  0.3671
 7677SOL     OW34492   3.096   3.025   2.470 -0.1472  0.3785 -0.5324
 7677SOL    HW134493   3.010   2.982   2.466  0.0690 -0.2274  1.3958
 7677SOL    HW234494   3.083   3.083   2.545 -0.6185  0.1583 -0.4464
 7678SOL     OW34495   0.839   1.494   2.304 -0.1895 -0.1286  0.3905
 7678SOL    HW134496   0.778   1.421   2.311 -0.7649  0.2142 -0.9461
 7678SOL    HW234497   0.910   1.458   2.250  1.0542 -0.0701  1.9844
 7679SOL     OW34498   0.199   3.638   2.194  0.2137  0.4924  0.0432
 7679SOL    HW134499   0.229   3.600   2.111 -0.1501  1.9787 -0.7620
 7679SOL    HW234500   0.272   3.696   2.218  0.3254 -0.1812  1.3050
 7680SOL     OW34501   1.305   0.069   6.659 -0.2291 -0.1657 -0.0039
 7680SOL    HW134502   1.276   4.713   6.696 -3.4616  0.0911 -1.9758
 7680SOL    HW234503   1.355   0.031   6.587  1.4014  1.7735  0.1090
 7681SOL     OW34504   0.823   4.683   9.118 -0.1140  0.2108 -0.0223
 7681SOL    HW134505   0.816   0.043   9.078 -3.3152 -1.6651 -3.6475
 7681SOL    HW234506   0.871   4.705   9.197 -2.6992  2.0092  1.0547
 7682SOL     OW34507   3.341   2.733   1.482  0.1271  0.0515 -0.4124
 7682SOL    HW134508   3.258   2.729   1.435  0.2913  0.3792 -0.7306
 7682SOL    HW234509   3.399   2.785   1.426 -0.6670  1.1590 -0.1935
 7683SOL     OW34510   3.387   4.096   0.856  0.0527 -0.1861  0.1437
 7683SOL    HW134511   3.456   4.034   0.882  0.9891  0.5073 -0.6653
 7683SOL    HW234512   3.348   4.035   0.793  0.6294  0.7742 -1.1379
 7684SOL     OW34513   4.278   4.111   0.808 -0.2041 -0.4798 -0.1468
 7684SOL    HW134514   4.357   4.094   0.859 -0.5396 -0.7827  0.2732
 7684SOL    HW234515   4.309   4.098   0.718  1.2011 -0.0039  0.2688
 7685SOL     OW34516   3.170   3.948   3.381  0.2732 -0.3374 -0.3469
 7685SOL    HW134517   3.256   3.905   3.377  0.1106 -0.7491  0.5774
 7685SOL    HW234518   3.194   4.039   3.365 -1.0313 -0.5152 -3.1999
 7686SOL     OW34519   2.265   1.371   1.930 -0.1355 -0.2750  0.0577
 7686SOL    HW134520   2.206   1.306   1.892 -0.5217  0.8018 -1.1749
 7686SOL    HW234521   2.264   1.439   1.863 -0.9225 -0.4145 -0.0799
 7687SOL     OW34522   4.316   1.712   8.971  0.4343 -0.3555 -0.6184
 7687SOL    HW134523   4.347   1.709   9.061 -0.0536 -1.6400 -0.4815
 7687SOL    HW234524   4.264   1.631   8.964 -0.4402  0.4758 -3.9533
 7688SOL     OW34525   1.046   4.366  15.184  0.2437 -0.1763  0.1296
 7688SOL    HW134526   1.058   4.339  15.275  1.9148 -0.2469 -0.1142
 7688SOL    HW234527   1.095   4.447  15.193 -0.3371  0.3773 -1.7123
 7689SOL     OW34528   0.219   2.665   4.970 -0.6295  0.9089  0.5223
 7689SOL    HW134529   0.168   2.676   4.889  1.1789 -2.3737 -1.0864
 7689SOL    HW234530   0.310   2.672   4.940 -0.9879 -0.7406 -0.9859
 7690SOL     OW34531   1.480   1.482   5.354  0.3674  0.6257 -0.0852
 7690SOL    HW134532   1.474   1.400   5.305  0.8324  1.6699 -1.8632
 7690SOL    HW234533   1.388   1.506   5.345 -0.7072 -2.6576  1.8714
 7691SOL     OW34534   4.091   3.031  17.115 -0.3513  0.4533 -0.0380
 7691SOL    HW134535   4.092   3.076  17.030 -0.2425  0.7916  0.1416
 7691SOL    HW234536   4.181   3.051  17.141  0.2237 -0.3796 -1.3811
 7692SOL     OW34537   2.718   3.824   6.910  0.1626 -0.1297 -0.4064
 7692SOL    HW134538   2.732   3.901   6.966  1.7475 -0.0849 -0.8684
 7692SOL    HW234539   2.782   3.762   6.944 -0.0961 -0.3844 -0.3833
 7693SOL     OW34540   2.661   1.288   3.269  0.2287  0.1349 -0.2426
 7693SOL    HW134541   2.612   1.301   3.188 -1.6554 -1.0376  0.7127
 7693SOL    HW234542   2.747   1.322   3.245  0.0728  0.2897 -0.5840
 7694SOL     OW34543   3.192   0.939   0.120 -0.1201  0.0413  0.6801
 7694SOL    HW134544   3.133   0.879   0.166 -0.8661 -1.4883 -2.2926
 7694SOL    HW234545   3.137   0.972   0.049 -0.9320 -0.2469  1.1833
 7695SOL     OW34546   2.858   1.230  13.941  0.2636 -0.2441 -0.1710
 7695SOL    HW134547   2.841   1.136  13.936 -0.0147 -0.3405  2.2391
 7695SOL    HW234548   2.872   1.237  14.036 -1.6957 -0.4714  0.1327
 7696SOL     OW34549   2.135   3.313   9.804 -0.0772 -0.2409 -0.2787
 7696SOL    HW134550   2.161   3.247   9.868 -0.6862 -0.2388 -0.0358
 7696SOL    HW234551   2.151   3.275   9.717 -0.0346 -0.7202 -0.0642
 7697SOL     OW34552   2.227   2.376   6.055  0.0140  0.4572  0.2637
 7697SOL    HW134553   2.201   2.402   6.143 -1.0326 -0.4651  0.2263
 7697SOL    HW234554   2.276   2.295   6.070  2.0648  1.6262 -0.1338
 7698SOL     OW34555   2.819   1.409  10.734  0.4079 -0.3219 -0.1072
 7698SOL    HW134556   2.863   1.459  10.665  0.6518 -1.1280 -0.5326
 7698SOL    HW234557   2.824   1.318  10.705  1.3307 -0.3376  0.1098
 7699SOL     OW34558   4.395   0.068   6.365 -0.3180  0.2089 -0.0238
 7699SOL    HW134559   4.320   0.075   6.424 -0.3151  1.8317 -0.2241
 7699SOL    HW234560   4.423   4.708   6.395  0.6816  0.2636 -0.8023
 7700SOL     OW34561   2.952   0.652   5.094  0.2916  0.0015  0.2740
 7700SOL    HW134562   2.912   0.612   5.017  2.5761 -3.5948  0.9834
 7700SOL    HW234563   3.043   0.620   5.096  0.7569  1.3702  1.0299
 7701SOL     OW34564   3.719   0.619   2.891  0.2553 -0.0350 -0.0952
 7701SOL    HW134565   3.752   0.684   2.828  0.5145  0.2254  0.3084
 7701SOL    HW234566   3.791   0.556   2.896 -0.8458 -1.3376 -0.8826
 7702SOL     OW34567   1.827   0.738   2.233 -0.2349 -0.0525 -0.2369
 7702SOL    HW134568   1.815   0.669   2.167 -1.6701 -0.4619  0.4507
 7702SOL    HW234569   1.753   0.720   2.291 -1.1639  0.2958 -1.3180
 7703SOL     OW34570   1.538   2.541  15.066  0.0204  0.2015  0.2751
 7703SOL    HW134571   1.475   2.469  15.061  1.4201 -0.9163 -0.9762
 7703SOL    HW234572   1.498   2.599  15.131  0.3070  0.1225  0.5198
 7704SOL     OW34573   1.545   2.122   8.856 -0.1116 -0.2963  0.5250
 7704SOL    HW134574   1.524   2.205   8.900 -1.5596  1.0531 -2.7046
 7704SOL    HW234575   1.638   2.139   8.840 -0.2087 -0.7656 -0.5350
 7705SOL     OW34576   2.203   2.979  17.655 -0.5266 -0.6268 -0.8777
 7705SOL    HW134577   2.265   2.984  17.582 -0.4691 -0.1891 -0.7989
 7705SOL    HW234578   2.256   2.951   0.022 -0.7834  0.1865 -0.3929
 7706SOL     OW34579   3.702   0.221   0.748  0.4954  0.0428 -0.4118
 7706SOL    HW134580   3.704   0.258   0.660 -1.3918  0.7772 -0.1404
 7706SOL    HW234581   3.782   0.168   0.755 -0.3122 -0.9791  0.9512
 7707SOL     OW34582   0.926   4.052   2.655 -0.1947 -0.3186 -0.1950
 7707SOL    HW134583   0.965   4.121   2.600 -0.4485  0.4701  0.6074
 7707SOL    HW234584   0.992   3.983   2.648 -0.6148 -0.9788  2.4940
 7708SOL     OW34585   4.420   3.292   8.953 -0.4036  0.1640 -0.3787
 7708SOL    HW134586   4.472   3.233   8.897 -1.0357 -1.4636  0.7432
 7708SOL    HW234587   4.344   3.235   8.967 -0.4111  0.5059  0.9123
 7709SOL     OW34588   0.882   0.718   9.328  0.7099  0.4222  0.0663
 7709SOL    HW134589   0.954   0.744   9.270  0.2810  1.3063 -0.0673
 7709SOL    HW234590   0.854   0.803   9.362 -1.7220 -0.0157 -0.8268
 7710SOL     OW34591   1.622   0.512   8.495  0.1635 -0.0256 -0.1310
 7710SOL    HW134592   1.609   0.602   8.523 -1.5830 -0.2257 -0.3444
 7710SOL    HW234593   1.537   0.475   8.471  0.6189 -1.3123  0.2109
 7711SOL     OW34594   3.413   2.843  15.950 -0.0267  0.1286 -0.7889
 7711SOL    HW134595   3.369   2.822  16.033  0.5649 -0.2174 -0.5639
 7711SOL    HW234596   3.459   2.920  15.984 -0.4599  0.3011 -0.5963
 7712SOL     OW34597   2.332   2.284   1.684  0.2018  0.0395  0.4405
 7712SOL    HW134598   2.259   2.246   1.633  0.3437 -0.2760  0.4734
 7712SOL    HW234599   2.367   2.348   1.622 -0.6436  1.5982  1.5822
 7713SOL     OW34600   1.933   4.536   5.899 -0.2508 -0.0052 -0.1974
 7713SOL    HW134601   1.861   4.512   5.956  2.0233 -1.4095  2.1049
 7713SOL    HW234602   1.930   4.451   5.854 -2.2208  0.1674 -0.3869
 7714SOL     OW34603   0.260   2.009  10.714  0.0319 -0.1002 -0.2851
 7714SOL    HW134604   0.284   1.973  10.629  2.6893 -1.3112  0.9566
 7714SOL    HW234605   0.166   1.996  10.716  0.5111 -3.5495 -0.4348
 7715SOL     OW34606   1.826   1.024   8.142  0.1877 -0.1413 -0.0764
 7715SOL    HW134607   1.868   0.972   8.073 -0.9860 -0.9641 -0.1764
 7715SOL    HW234608   1.776   0.958   8.190 -0.8792  1.8523  1.5043
 7716SOL     OW34609   2.975   4.474   8.684  0.0573 -0.3469  0.0239
 7716SOL    HW134610   2.933   4.520   8.611  1.5105 -1.5210 -1.5572
 7716SOL    HW234611   3.041   4.539   8.708 -0.0183  0.2820 -1.4578
 7717SOL     OW34612   2.929   4.623   7.746  0.2870  0.8461 -0.2274
 7717SOL    HW134613   2.970   4.658   7.668 -0.1799 -0.3998 -1.0369
 7717SOL    HW234614   2.996   4.642   7.812  0.5975 -2.0361  0.2961
 7718SOL     OW34615   2.851   2.756  16.804 -0.2789  0.0188  0.4221
 7718SOL    HW134616   2.831   2.769  16.896 -1.2910  0.5324  0.1341
 7718SOL    HW234617   2.864   2.845  16.771  1.1883 -0.9236 -1.5284
 7719SOL     OW34618   1.408   3.474   9.559  0.6498 -0.2801  0.0246
 7719SOL    HW134619   1.477   3.482   9.624 -0.0149 -0.2647  0.7222
 7719SOL    HW234620   1.371   3.562   9.560  2.2806  0.4283 -0.7825
 7720SOL     OW34621   3.227   1.233   2.975  1.0587 -0.1974 -0.0237
 7720SOL    HW134622   3.214   1.138   2.965 -0.8332  0.1241 -0.5915
 7720SOL    HW234623   3.246   1.256   2.884  0.3211 -2.5986 -0.7858
 7721SOL     OW34624   3.987   1.332   9.871 -0.7586 -0.5070  0.3534
 7721SOL    HW134625   3.900   1.297   9.890 -0.5636 -0.6907  0.9415
 7721SOL    HW234626   3.956   1.420   9.850 -0.1817 -0.2231  0.6848
 7722SOL     OW34627   0.728   2.321   5.794 -0.1962  0.3896  0.2532
 7722SOL    HW134628   0.780   2.394   5.829  0.9814  0.6591 -2.0548
 7722SOL    HW234629   0.793   2.277   5.739  0.3719  1.8176 -0.2296
 7723SOL     OW34630   2.107   1.904   1.411  0.0953  0.4937  0.2537
 7723SOL    HW134631   2.034   1.938   1.359 -0.3280  0.3744  0.7672
 7723SOL    HW234632   2.090   1.811   1.402 -1.5133  0.8230 -0.0905
 7724SOL     OW34633   0.251   3.139  11.407 -0.1970  0.3555 -0.5729
 7724SOL    HW134634   0.203   3.108  11.330 -0.7986 -3.1374  1.2272
 7724SOL    HW234635   0.199   3.218  11.421 -0.3628  0.2509 -0.6024
 7725SOL     OW34636   3.620   3.352   6.107  0.4259  0.0085 -0.6023
 7725SOL    HW134637   3.666   3.370   6.188 -0.1468  1.8081 -0.6781
 7725SOL    HW234638   3.532   3.323   6.132  0.5757 -0.6280 -0.8074
 7726SOL     OW34639   0.227   0.941   7.304 -0.2312 -0.3509  0.0965
 7726SOL    HW134640   0.136   0.949   7.275 -0.0623 -0.0967 -0.3610
 7726SOL    HW234641   0.222   0.954   7.399 -0.7683  2.3371 -0.2987
 7727SOL     OW34642   4.200   1.815   5.873  0.1805  0.5969  0.3782
 7727SOL    HW134643   4.232   1.837   5.786 -0.5165 -1.4307 -0.3921
 7727SOL    HW234644   4.257   1.866   5.930  0.0726  0.4808  0.5901
 7728SOL     OW34645   3.477   1.752   3.484  0.2890 -0.4262 -0.1292
 7728SOL    HW134646   3.390   1.713   3.489  0.8049 -1.6044 -0.2549
 7728SOL    HW234647   3.485   1.797   3.568  0.4279 -1.8327  0.6151
 7729SOL     OW34648   1.080   2.517  14.679  0.5990  0.8017 -0.6384
 7729SOL    HW134649   1.152   2.545  14.736  0.6680 -0.3397 -0.1656
 7729SOL    HW234650   1.136   2.461  14.625 -0.0151 -1.8492  1.4408
 7730SOL     OW34651   3.190   1.159   6.805  0.3871  0.3595  0.2749
 7730SOL    HW134652   3.157   1.214   6.875  0.5953  0.1381  0.5500
 7730SOL    HW234653   3.284   1.179   6.804  0.1002  1.4649 -2.5546
 7731SOL     OW34654   4.362   3.118   2.270  0.3554 -0.3046 -1.0106
 7731SOL    HW134655   4.408   3.191   2.311 -0.5056 -0.0410 -0.5278
 7731SOL    HW234656   4.268   3.134   2.280  0.4284 -0.2471 -0.4593
 7732SOL     OW34657   3.100   2.013   6.345 -0.0978 -0.3999  0.3101
 7732SOL    HW134658   3.050   2.073   6.290  0.2456  0.8952  1.3891
 7732SOL    HW234659   3.146   1.963   6.278  0.7636  0.4377  0.2716
 7733SOL     OW34660   2.625   3.571   6.281 -0.2275  1.0314 -0.3081
 7733SOL    HW134661   2.692   3.533   6.225  0.4538 -0.1670  1.3385
 7733SOL    HW234662   2.656   3.662   6.279 -0.9048  1.2899  0.9429
 7734SOL     OW34663   2.741   3.107   5.598  0.4015  0.0578 -0.6445
 7734SOL    HW134664   2.654   3.146   5.590  0.6594  0.9098  0.7614
 7734SOL    HW234665   2.728   3.029   5.544 -2.3903 -0.8956  1.3899
 7735SOL     OW34666   1.119   0.326   6.044  0.1838  0.7397  0.2150
 7735SOL    HW134667   1.133   0.333   5.949 -1.1271 -1.9003 -0.1679
 7735SOL    HW234668   1.195   0.278   6.077  0.9004  0.9952 -1.0454
 7736SOL     OW34669   1.038   0.333  15.785  0.5220  0.2697 -0.1611
 7736SOL    HW134670   1.057   0.423  15.811  0.0349  0.6849 -1.2567
 7736SOL    HW234671   1.124   0.295  15.767  1.0929  0.6119  1.8056
 7737SOL     OW34672   4.307   3.470  12.730  0.0178  0.3928 -0.2633
 7737SOL    HW134673   4.323   3.510  12.644  2.6135 -2.1290 -0.9679
 7737SOL    HW234674   4.214   3.490  12.737 -0.0367 -0.0212  0.1732
 7738SOL     OW34675   2.201   4.487   5.014  0.0095 -0.2130 -0.0784
 7738SOL    HW134676   2.283   4.441   4.997  1.1560  0.9053  2.4201
 7738SOL    HW234677   2.204   4.563   4.957 -1.0477  0.5223  0.8296
 7739SOL     OW34678   1.433   0.386   7.736 -1.0418  0.9732 -0.5228
 7739SOL    HW134679   1.495   0.315   7.753 -1.6706  0.5798  0.1353
 7739SOL    HW234680   1.463   0.458   7.792 -0.2422  0.4792 -0.3092
 7740SOL     OW34681   4.101   4.447   5.253  0.1859  0.3124 -0.7348
 7740SOL    HW134682   4.153   4.411   5.325 -0.9747  0.3607  0.1288
 7740SOL    HW234683   4.037   4.379   5.233 -1.4956  1.8268 -0.4887
 7741SOL     OW34684   4.052   0.910  15.288  0.2174 -0.2309 -0.0406
 7741SOL    HW134685   4.022   0.905  15.379 -3.3933 -0.8642 -1.2954
 7741SOL    HW234686   3.975   0.889  15.237 -0.5588 -1.4414  1.6406
 7742SOL     OW34687   2.956   0.736   3.553 -0.4321 -0.9275  0.1272
 7742SOL    HW134688   3.014   0.807   3.523  1.8670 -2.3030  1.3419
 7742SOL    HW234689   2.935   0.689   3.473  0.1440 -0.4039 -0.3375
 7743SOL     OW34690   0.845   0.794   5.829  0.0627 -0.1638 -0.0176
 7743SOL    HW134691   0.871   0.764   5.916  0.9307 -1.8285 -0.8516
 7743SOL    HW234692   0.757   0.757   5.821 -1.4368  3.4880 -0.0591
 7744SOL     OW34693   0.312   1.980   4.705 -0.0477  0.5286  0.2208
 7744SOL    HW134694   0.220   1.956   4.701 -0.5980  2.8032 -0.8351
 7744SOL    HW234695   0.311   2.072   4.729 -0.4612  0.8710 -1.0821
 7745SOL     OW34696   2.497   3.397   1.626  0.4303 -0.5733 -0.1808
 7745SOL    HW134697   2.449   3.404   1.543  2.0241  0.5973 -1.0121
 7745SOL    HW234698   2.586   3.425   1.604  0.0701 -0.0631 -1.0009
 7746SOL     OW34699   1.025   4.230  14.561 -0.2919 -0.6955  0.1015
 7746SOL    HW134700   0.954   4.207  14.621 -0.4093  0.3283  0.3627
 7746SOL    HW234701   1.110   4.213  14.602 -1.2355 -2.0133  1.4700
 7747SOL     OW34702   0.484   1.194   5.807  0.0203  0.4323  0.3622
 7747SOL    HW134703   0.490   1.102   5.835  0.3553  0.7397  1.2887
 7747SOL    HW234704   0.485   1.188   5.711 -0.1271 -2.0768  0.5075
 7748SOL     OW34705   4.454   3.087   8.247 -0.0294 -0.1264  0.4341
 7748SOL    HW134706   4.438   3.017   8.183  0.8436  0.7765 -0.7793
 7748SOL    HW234707   4.376   3.141   8.246  0.4303  0.5586  1.1303
 7749SOL     OW34708   2.545   2.079  17.018 -0.2631 -0.1105  0.0697
 7749SOL    HW134709   2.526   2.057  17.109 -0.2700  2.8799  0.7905
 7749SOL    HW234710   2.479   2.024  16.976 -2.1144  0.6073  2.0185
 7750SOL     OW34711   2.053   4.182   8.420  0.0104  0.3900 -0.1781
 7750SOL    HW134712   2.113   4.254   8.441 -1.3315  1.5340 -0.2550
 7750SOL    HW234713   2.016   4.169   8.508 -1.1182 -0.2805 -0.7434
 7751SOL     OW34714   3.830   3.161   4.295 -0.1648  0.4342 -0.1239
 7751SOL    HW134715   3.760   3.110   4.254  1.1300 -2.1459  0.9266
 7751SOL    HW234716   3.786   3.246   4.292  0.9811  0.9473 -3.0489
 7752SOL     OW34717   0.754   1.723   8.013  0.3716 -0.8084  0.9890
 7752SOL    HW134718   0.675   1.703   8.062  1.3494 -0.5920  2.6348
 7752SOL    HW234719   0.724   1.707   7.923  0.2664 -1.8650  1.2044
 7753SOL     OW34720   2.026   4.094   7.587 -0.4266 -0.0715  0.6170
 7753SOL    HW134721   2.017   4.001   7.608 -0.1754 -0.6208 -1.7742
 7753SOL    HW234722   1.939   4.130   7.608 -0.8262 -0.2308 -0.7976
 7754SOL     OW34723   0.577   3.478   5.936 -0.4505 -0.4365  0.5941
 7754SOL    HW134724   0.549   3.387   5.923 -0.7116  0.0850 -2.4111
 7754SOL    HW234725   0.530   3.506   6.015 -0.2431 -0.3425  0.6852
 7755SOL     OW34726   4.048   0.900  14.317  0.0819 -0.2432  0.1178
 7755SOL    HW134727   4.032   0.979  14.266 -0.3342  0.8631  1.9458
 7755SOL    HW234728   4.097   0.952  14.381 -1.3236 -1.6663  2.3578
 7756SOL     OW34729   3.927   2.268   3.920  0.0542  0.4439 -0.0455
 7756SOL    HW134730   3.994   2.269   3.988  0.2670 -0.6396 -0.2407
 7756SOL    HW234731   3.901   2.178   3.899  0.5493  0.8826 -2.5484
 7757SOL     OW34732   2.772   1.952   1.900  0.0334  0.1617  0.1728
 7757SOL    HW134733   2.713   2.012   1.946 -0.5855  0.0623 -0.5075
 7757SOL    HW234734   2.830   1.931   1.974  2.8078 -1.0276 -2.3505
 7758SOL     OW34735   1.473   1.403   4.627 -0.3713 -0.2134 -0.7696
 7758SOL    HW134736   1.387   1.361   4.629 -0.5600  0.1362 -1.8621
 7758SOL    HW234737   1.468   1.470   4.559 -1.4510 -1.8270 -2.2927
 7759SOL     OW34738   2.633   1.359  17.015 -0.6922  0.5760  0.2834
 7759SOL    HW134739   2.627   1.264  17.024 -2.0498  0.6211 -0.2318
 7759SOL    HW234740   2.593   1.396  17.094 -0.4978 -0.3048  0.7920
 7760SOL     OW34741   1.738   0.947  13.081 -0.1144 -0.3970  0.1032
 7760SOL    HW134742   1.822   0.980  13.113  1.1990 -2.1009 -1.5671
 7760SOL    HW234743   1.770   0.891  13.010 -0.0360  0.6617 -0.6951
 7761SOL     OW34744   2.029   0.128   6.429 -0.8787 -0.1051 -0.4978
 7761SOL    HW134745   2.078   0.183   6.490 -0.7357 -2.9226  1.9010
 7761SOL    HW234746   2.000   0.056   6.484  0.4524 -1.5186 -1.6414
 7762SOL     OW34747   1.800   0.963   2.808 -0.0919 -0.4769  0.1306
 7762SOL    HW134748   1.808   1.001   2.896  1.7023 -1.9877  0.6321
 7762SOL    HW234749   1.719   0.997   2.772  0.4427  1.2508  0.5689
 7763SOL     OW34750   2.842   0.008   4.054 -0.2452  0.3092 -0.3868
 7763SOL    HW134751   2.876   4.663   4.002 -2.0360 -1.4992  0.9340
 7763SOL    HW234752   2.868   4.716   4.145  0.5527  1.4883 -0.3751
 7764SOL     OW34753   3.809   2.165  10.617 -0.3317  0.2948 -0.0344
 7764SOL    HW134754   3.796   2.130  10.529 -0.1607 -0.8945  0.4050
 7764SOL    HW234755   3.729   2.128  10.655  0.3119  0.1521  1.2009
 7765SOL     OW34756   0.277   2.065   6.842  0.2545  0.5949 -0.2653
 7765SOL    HW134757   0.325   2.099   6.766  1.3753  0.7087  0.4891
 7765SOL    HW234758   0.336   1.990   6.852 -0.0003  0.5067  0.5195
 7766SOL     OW34759   4.316   1.135  13.572  0.4457 -0.1858  0.4717
 7766SOL    HW134760   4.228   1.168  13.591 -0.8689 -3.8665  0.7547
 7766SOL    HW234761   4.340   1.193  13.500  1.1372 -2.5100 -1.1907
 7767SOL     OW34762   4.612   0.979   3.533  0.4976 -0.1662  0.6773
 7767SOL    HW134763   4.620   1.031   3.454 -2.4226 -2.0474 -0.8536
 7767SOL    HW234764   4.539   1.025   3.575 -1.4914 -1.9106 -0.8621
 7768SOL     OW34765   0.722   0.294   7.313  0.7325 -0.4005  1.2063
 7768SOL    HW134766   0.689   0.225   7.370  0.1507 -0.9850  0.1572
 7768SOL    HW234767   0.817   0.300   7.323  0.8609  0.0505 -0.2092
 7769SOL     OW34768   1.112   0.835  14.176 -0.0867 -1.0791  0.0865
 7769SOL    HW134769   1.131   0.833  14.270  0.0528  2.2291  0.1118
 7769SOL    HW234770   1.194   0.802  14.139  0.9143  1.3031  0.2121
 7770SOL     OW34771   1.201   4.315   7.549  0.2807  0.1279 -0.6940
 7770SOL    HW134772   1.118   4.360   7.538 -0.2511  0.1239  3.0689
 7770SOL    HW234773   1.204   4.257   7.473  1.0486 -0.2202 -0.3958
 7771SOL     OW34774   0.903   4.548   8.207 -0.4089 -0.0719 -0.2864
 7771SOL    HW134775   0.840   4.609   8.169 -1.1359 -1.5325 -1.4106
 7771SOL    HW234776   0.971   4.611   8.232  0.9101 -2.6565  2.7282
 7772SOL     OW34777   4.268   3.018   7.007  0.1290 -0.3451  0.3060
 7772SOL    HW134778   4.342   2.968   7.042  0.3228 -0.3516 -0.1164
 7772SOL    HW234779   4.207   2.999   7.078  0.1177 -1.3992  0.0109
 7773SOL     OW34780   0.510   1.407   2.771 -0.3040  0.0425  0.4707
 7773SOL    HW134781   0.469   1.456   2.842 -2.3523 -1.3005  0.2437
 7773SOL    HW234782   0.600   1.397   2.800  0.3759  1.9671 -0.9627
 7774SOL     OW34783   1.963   1.769   9.676  0.2908 -0.8143 -0.3514
 7774SOL    HW134784   1.938   1.723   9.757  0.3243  1.2734  0.8359
 7774SOL    HW234785   1.909   1.848   9.675  2.0850  0.4496  1.4791
 7775SOL     OW34786   1.866   3.429   6.854  0.3784 -0.0826 -0.5587
 7775SOL    HW134787   1.930   3.359   6.866  2.1771  1.3102 -2.0547
 7775SOL    HW234788   1.849   3.393   6.767 -1.9383 -2.1305  0.7417
 7776SOL     OW34789   0.189   2.261   7.426 -0.2415  0.0208  0.1911
 7776SOL    HW134790   0.253   2.208   7.472  1.2034  2.3710  0.8382
 7776SOL    HW234791   0.146   2.196   7.370  1.9041 -1.4734  0.2905
 7777SOL     OW34792   0.210   2.809  12.274  0.1138  0.0073 -0.2352
 7777SOL    HW134793   0.219   2.859  12.355 -0.6386 -0.7091  0.2905
 7777SOL    HW234794   0.284   2.748  12.273 -0.3190 -0.5054 -1.3525
 7778SOL     OW34795   0.652   1.985   3.396 -0.2635  0.2812 -0.1600
 7778SOL    HW134796   0.672   2.074   3.424 -1.5187  0.5622 -0.1637
 7778SOL    HW234797   0.560   1.993   3.370 -1.2782 -1.2868  2.9867
 7779SOL     OW34798   2.335   0.472   6.439  0.1367 -0.3081  0.1958
 7779SOL    HW134799   2.288   0.400   6.397 -2.7262  1.9001 -0.3216
 7779SOL    HW234800   2.264   0.526   6.473 -0.7714 -1.0442 -0.5422
 7780SOL     OW34801   4.408   1.643   9.250 -0.0389 -0.3464 -0.2182
 7780SOL    HW134802   4.347   1.610   9.315  1.2838  0.1227  1.2701
 7780SOL    HW234803   4.452   1.559   9.238  0.4053 -0.4640  2.1089
 7781SOL     OW34804   3.607   1.643   0.851  0.3390 -0.9012  0.1751
 7781SOL    HW134805   3.539   1.701   0.816 -0.5994 -0.3507  2.9597
 7781SOL    HW234806   3.671   1.713   0.859 -1.9133  1.4047 -1.9208
 7782SOL     OW34807   4.157   0.998   4.456 -0.1502 -0.0681  0.0648
 7782SOL    HW134808   4.223   1.019   4.522 -1.1550 -2.1077  1.7065
 7782SOL    HW234809   4.212   0.946   4.397  0.7881  0.2354  0.6721
 7783SOL     OW34810   0.543   1.494   2.167  0.6012 -0.0149 -0.6557
 7783SOL    HW134811   0.604   1.472   2.098 -1.0354 -0.4181 -1.9700
 7783SOL    HW234812   0.569   1.582   2.196 -1.1848 -0.1613  1.4278
 7784SOL     OW34813   1.580   2.104   8.525 -0.5498 -0.6425  0.4018
 7784SOL    HW134814   1.510   2.169   8.537 -0.4074 -0.1743 -1.2812
 7784SOL    HW234815   1.655   2.163   8.523 -0.4214 -0.8012  0.5018
 7785SOL     OW34816   0.678   2.688   2.584  0.3322  0.9004  0.4700
 7785SOL    HW134817   0.736   2.758   2.555  1.2528  0.0090  0.1255
 7785SOL    HW234818   0.592   2.728   2.584  0.0129  0.2287 -1.8835
 7786SOL     OW34819   1.618   1.074   8.462 -0.1493 -0.4092  0.3104
 7786SOL    HW134820   1.538   1.041   8.423  0.0079 -4.0074  3.0836
 7786SOL    HW234821   1.654   1.121   8.386 -1.6744 -1.6921 -1.1999
 7787SOL     OW34822   0.740   1.176  13.124 -0.1951 -1.1383 -0.0211
 7787SOL    HW134823   0.794   1.198  13.048 -1.2529  1.0600 -0.1228
 7787SOL    HW234824   0.658   1.151  13.081  0.7105 -1.8273 -1.3651
 7788SOL     OW34825   2.880   4.501   6.241  0.8289  0.2029 -0.3092
 7788SOL    HW134826   2.808   4.564   6.239  0.6821  0.0614  0.3013
 7788SOL    HW234827   2.921   4.519   6.157  1.1954 -2.6218 -0.7282
 7789SOL     OW34828   0.275   3.186   8.365  0.0385 -0.3465  0.4147
 7789SOL    HW134829   0.216   3.183   8.441  1.9033  0.9704  1.9196
 7789SOL    HW234830   0.219   3.220   8.295 -2.0237 -3.4678  0.5364
 7790SOL     OW34831   2.961   3.764   1.148 -0.6714 -0.0048  0.1384
 7790SOL    HW134832   2.953   3.804   1.061  0.3991  0.5100  0.2789
 7790SOL    HW234833   3.055   3.751   1.164 -0.9924 -1.5811  0.7350
 7791SOL     OW34834   0.888   1.130   4.260  0.0105  0.3764  0.1712
 7791SOL    HW134835   0.930   1.044   4.252 -2.1088 -0.8107  1.7070
 7791SOL    HW234836   0.796   1.121   4.235  0.3566  0.3787 -1.0943
 7792SOL     OW34837   0.978   3.928  10.293 -0.1118 -0.3234 -0.0193
 7792SOL    HW134838   0.925   3.895  10.220  0.3252 -1.9370  0.4069
 7792SOL    HW234839   0.956   3.858  10.354 -1.3149  0.8497  0.9128
 7793SOL     OW34840   4.448   3.739   4.658 -0.0868 -0.2272 -0.5960
 7793SOL    HW134841   4.361   3.722   4.693 -0.8205  0.9430 -1.8148
 7793SOL    HW234842   4.477   3.648   4.650  1.5656  0.2867 -0.4833
 7794SOL     OW34843   4.408   2.502   1.984 -0.2642  0.8524  0.3355
 7794SOL    HW134844   4.415   2.408   2.003  0.2433  0.9226  0.5085
 7794SOL    HW234845   4.488   2.525   2.032 -0.2798  0.7968  0.3885
 7795SOL     OW34846   3.804   0.732   6.903  0.5381  0.7600  0.0020
 7795SOL    HW134847   3.757   0.692   6.830  2.6978  1.5043 -1.8014
 7795SOL    HW234848   3.782   0.666   6.969  1.1064  0.0732 -0.4962
 7796SOL     OW34849   1.909   4.003  14.605  0.1900  0.5812 -0.3473
 7796SOL    HW134850   1.967   4.031  14.676 -0.0317  0.6076 -0.1765
 7796SOL    HW234851   1.890   4.092  14.574 -1.1760  0.4992  0.2746
 7797SOL     OW34852   3.171   3.399   5.063 -0.5203 -0.1271 -0.6903
 7797SOL    HW134853   3.249   3.343   5.068  0.7688  1.7080  0.0291
 7797SOL    HW234854   3.194   3.452   4.986 -0.4185  0.3173 -0.3540
 7798SOL     OW34855   0.898   1.090   1.318  0.5569 -0.3173  0.1145
 7798SOL    HW134856   0.846   1.166   1.293  0.8998  1.0897  3.5737
 7798SOL    HW234857   0.851   1.014   1.286 -0.7463  0.7872 -0.5870
 7799SOL     OW34858   3.941   0.443   2.896  0.2421  0.3837 -0.3394
 7799SOL    HW134859   3.943   0.457   2.801  1.1211  1.2529 -0.1892
 7799SOL    HW234860   4.027   0.479   2.917 -0.1300 -0.0133  1.8395
 7800SOL     OW34861   0.957   1.843   0.778  0.1100  0.0651 -0.1127
 7800SOL    HW134862   0.997   1.928   0.758 -1.6338  0.9051  0.0360
 7800SOL    HW234863   0.866   1.862   0.757  0.7281  2.9290 -0.1704
 7801SOL     OW34864   0.959   0.358   4.481  0.7862  0.7082  0.4908
 7801SOL    HW134865   1.010   0.314   4.413  2.2055  1.4407  1.0937
 7801SOL    HW234866   1.029   0.381   4.542  2.3996  0.8127 -1.3895
 7802SOL     OW34867   1.411   0.939   8.325  0.2130  0.4362  0.0244
 7802SOL    HW134868   1.350   0.891   8.382  1.1912 -1.6764 -0.7226
 7802SOL    HW234869   1.344   0.974   8.266 -1.2555 -2.5080 -0.0595
 7803SOL     OW34870   4.619   2.915  10.375  0.3315  0.5432  0.0168
 7803SOL    HW134871   4.664   3.000  10.380 -1.2977  1.5189 -2.0434
 7803SOL    HW234872   4.691   2.860  10.346  0.3208  0.4607  0.1485
 7804SOL     OW34873   3.126   1.561  10.323 -0.0841 -0.4038 -0.3235
 7804SOL    HW134874   3.083   1.627  10.378 -1.4623 -0.5580 -1.2072
 7804SOL    HW234875   3.052   1.508  10.293  0.4079  0.3026 -2.8119
 7805SOL     OW34876   1.578   2.722  16.763 -0.0868 -0.0806 -0.1037
 7805SOL    HW134877   1.561   2.766  16.846 -0.1372  2.3158 -1.3936
 7805SOL    HW234878   1.499   2.755  16.721 -0.1319 -0.2199 -0.1281
 7806SOL     OW34879   1.580   3.807  10.921  0.3446 -0.4587 -0.4125
 7806SOL    HW134880   1.650   3.781  10.981 -0.9643 -0.0017  1.2840
 7806SOL    HW234881   1.599   3.899  10.903 -0.1488 -0.0238  1.3218
 7807SOL     OW34882   2.367   2.633   3.196  0.2213 -0.0619  0.1517
 7807SOL    HW134883   2.359   2.619   3.101  0.7495  0.7643 -0.0146
 7807SOL    HW234884   2.296   2.695   3.206 -0.8198 -1.1431 -0.4713
 7808SOL     OW34885   3.398   4.421   2.078  0.0558  0.0097 -0.1292
 7808SOL    HW134886   3.475   4.472   2.102  1.2720 -1.4495 -0.9653
 7808SOL    HW234887   3.324   4.469   2.117  0.1375 -0.4341  0.5681
 7809SOL     OW34888   2.257   2.046  13.363  0.1901 -0.5486  0.6539
 7809SOL    HW134889   2.300   2.115  13.413 -0.9295  0.8339 -0.2961
 7809SOL    HW234890   2.331   1.985  13.357 -0.3698 -1.0867 -0.6857
 7810SOL     OW34891   2.815   1.964  14.915 -0.5516 -0.1255 -0.0426
 7810SOL    HW134892   2.893   2.015  14.938 -1.1988 -0.1128  2.1322
 7810SOL    HW234893   2.807   1.987  14.822 -0.0115 -1.4156 -0.4062
 7811SOL     OW34894   0.213   0.319  10.286  0.4303  0.2953 -0.7921
 7811SOL    HW134895   0.242   0.363  10.206  2.4465  1.4344  0.5745
 7811SOL    HW234896   0.175   0.239  10.249  3.4009 -1.3529 -0.2715
 7812SOL     OW34897   1.803   4.192   7.144 -0.3531 -0.0393 -0.0046
 7812SOL    HW134898   1.729   4.211   7.201 -0.9546 -1.7554 -0.2288
 7812SOL    HW234899   1.865   4.147   7.201  0.7622 -1.4254 -2.2737
 7813SOL     OW34900   2.085   3.854  10.810  0.0644 -0.1186  0.3650
 7813SOL    HW134901   1.998   3.887  10.789 -0.6638 -0.8327  2.2105
 7813SOL    HW234902   2.086   3.839  10.905  1.2805  0.8323  0.4939
 7814SOL     OW34903   0.348   0.263   2.380  0.0918  0.2233  0.2934
 7814SOL    HW134904   0.313   0.267   2.291  0.3499  2.7406  0.3060
 7814SOL    HW234905   0.348   0.169   2.398  0.6085  0.1592 -0.0424
 7815SOL     OW34906   1.288   4.479  12.409 -0.0849 -0.0812  0.6344
 7815SOL    HW134907   1.334   4.447  12.488 -0.8791  1.7312  1.8140
 7815SOL    HW234908   1.203   4.440  12.430  1.0354 -1.1095  3.4117
 7816SOL     OW34909   0.992   2.756   6.015 -0.3663 -0.4028  0.1020
 7816SOL    HW134910   0.966   2.845   5.990  0.2904 -0.2917 -0.1766
 7816SOL    HW234911   1.082   2.759   5.984 -0.1587 -0.8688  0.6574
 7817SOL     OW34912   2.634   3.773   5.678 -0.1154 -0.4165  0.1809
 7817SOL    HW134913   2.723   3.742   5.699  0.0574  0.7664  1.2633
 7817SOL    HW234914   2.577   3.720   5.734  0.2209 -0.1400  0.7955
 7818SOL     OW34915   4.218   3.498   7.338  0.1745 -0.4707 -0.2108
 7818SOL    HW134916   4.244   3.455   7.420 -0.2022  2.9780  1.7293
 7818SOL    HW234917   4.241   3.588   7.358  0.4003 -0.6198  0.2041
 7819SOL     OW34918   0.004   2.818   4.461 -0.7183 -0.4009  0.7493
 7819SOL    HW134919   4.641   2.787   4.475 -0.2409 -1.5756  1.1643
 7819SOL    HW234920   4.723   2.913   4.454  0.6044 -0.3161  0.4006
 7820SOL     OW34921   3.017   2.190   3.913 -0.0135  0.4430 -0.2763
 7820SOL    HW134922   2.998   2.211   3.822 -1.3092  0.9041  0.1105
 7820SOL    HW234923   3.112   2.180   3.904  0.1543  3.0986 -1.4723
 7821SOL     OW34924   1.572   0.063   3.057 -0.1627 -0.0889  0.6387
 7821SOL    HW134925   1.610   0.121   2.991  0.3077  1.5695  2.3897
 7821SOL    HW234926   1.644   0.048   3.118 -0.5651  2.2692  1.6962
 7822SOL     OW34927   4.087   0.751   4.165  0.3644 -0.0090  0.1798
 7822SOL    HW134928   4.087   0.672   4.219  2.5926 -1.0059 -1.2938
 7822SOL    HW234929   4.166   0.797   4.193  0.7316 -0.2277 -0.4962
 7823SOL     OW34930   0.607   0.857   9.200 -0.2150  0.1628 -0.7149
 7823SOL    HW134931   0.625   0.887   9.111 -1.1072 -1.7605 -1.5512
 7823SOL    HW234932   0.678   0.896   9.252 -1.8929  3.1897 -0.7271
 7824SOL     OW34933   3.881   3.640   2.234  0.1787 -0.2511  0.6678
 7824SOL    HW134934   3.902   3.593   2.315 -0.5015  1.7630  2.0237
 7824SOL    HW234935   3.947   3.709   2.226  1.1886 -1.3789 -0.6489
 7825SOL     OW34936   2.842   1.521   8.764 -0.4754  0.1474  0.2876
 7825SOL    HW134937   2.902   1.594   8.748  1.8524 -1.2067  2.8174
 7825SOL    HW234938   2.792   1.559   8.836 -0.6794  0.0158  0.2164
 7826SOL     OW34939   2.849   3.661  16.679  0.1614 -0.5636  0.3760
 7826SOL    HW134940   2.889   3.746  16.698 -0.6911 -0.1806  0.4654
 7826SOL    HW234941   2.786   3.678  16.609  2.3369 -2.2766 -1.9639
 7827SOL     OW34942   0.262   4.418  11.532  0.7120 -0.0491  0.5342
 7827SOL    HW134943   0.198   4.352  11.503 -0.8618  1.4189  0.6601
 7827SOL    HW234944   0.331   4.429  11.467 -0.9557 -1.2386 -1.4389
 7828SOL     OW34945   3.105   2.922   4.649  0.1065  0.2037 -0.3501
 7828SOL    HW134946   3.060   2.845   4.684 -0.3886  0.1842 -1.0557
 7828SOL    HW234947   3.148   2.890   4.570  1.0828  1.4959 -0.3609
 7829SOL     OW34948   0.716   3.731   3.866  0.1078  0.9121  0.1258
 7829SOL    HW134949   0.664   3.688   3.798  1.2239  1.4019 -1.0364
 7829SOL    HW234950   0.755   3.651   3.901 -0.2581  0.8077  0.2936
 7830SOL     OW34951   0.522   0.300  10.685 -0.5554  0.2547 -0.6976
 7830SOL    HW134952   0.500   0.393  10.678  0.7191  0.4509 -2.0992
 7830SOL    HW234953   0.536   0.293  10.590 -1.6319  3.8864 -1.1118
 7831SOL     OW34954   4.150   2.566  14.148 -0.0666  0.9098  0.4930
 7831SOL    HW134955   4.084   2.625  14.113  1.8257  2.4878 -0.4336
 7831SOL    HW234956   4.106   2.531  14.225  0.3593  1.2392  0.8883
 7832SOL     OW34957   1.555   4.009  14.708  0.8384  0.3138 -0.0227
 7832SOL    HW134958   1.532   4.079  14.647 -0.8259 -2.5077 -2.6556
 7832SOL    HW234959   1.529   3.931  14.659 -0.3539  1.2033 -0.8027
 7833SOL     OW34960   0.633   1.730  10.469  0.2855  0.1412 -0.1275
 7833SOL    HW134961   0.593   1.650  10.435 -0.8820 -0.6595  3.1183
 7833SOL    HW234962   0.591   1.744  10.554  0.8776 -0.7293  0.3199
 7834SOL     OW34963   2.921   1.087   0.177 -0.5729 -0.1272 -0.3782
 7834SOL    HW134964   2.829   1.099   0.152 -0.9434 -2.2734 -0.0187
 7834SOL    HW234965   2.959   1.052   0.097 -1.5448 -2.6037  0.2470
 7835SOL     OW34966   3.480   0.861  13.866  0.1090 -0.0594  0.4125
 7835SOL    HW134967   3.436   0.884  13.949 -0.7801 -1.7152  0.3998
 7835SOL    HW234968   3.557   0.918  13.870 -0.8807  1.3908 -1.1043
 7836SOL     OW34969   3.798   1.206   4.903 -0.5743 -0.2133 -0.2210
 7836SOL    HW134970   3.792   1.183   4.996  0.4210  0.8499  0.1008
 7836SOL    HW234971   3.870   1.268   4.908 -1.9922  1.3406  1.0888
 7837SOL     OW34972   1.112   4.162  11.347  0.3211  0.1267 -0.0992
 7837SOL    HW134973   1.159   4.245  11.336 -0.9753  0.8841  0.1783
 7837SOL    HW234974   1.170   4.113  11.406  0.4595  0.6706  0.2204
 7838SOL     OW34975   2.770   2.546  14.131 -0.1031 -0.3089  0.0457
 7838SOL    HW134976   2.696   2.489  14.149 -0.7602  0.7966  0.8217
 7838SOL    HW234977   2.724   2.629  14.146  0.4425 -0.4526  2.5379
 7839SOL     OW34978   2.010   0.064   2.594 -0.4643  0.0563  0.1122
 7839SOL    HW134979   2.046   0.037   2.679 -1.7272  0.3742  0.7429
 7839SOL    HW234980   1.942   4.724   2.581 -0.1866 -0.0944 -0.5462
 7840SOL     OW34981   1.449   1.930   8.670 -0.4352  0.0726 -0.0863
 7840SOL    HW134982   1.476   1.996   8.735  1.2854  1.5145 -2.2849
 7840SOL    HW234983   1.464   1.994   8.600 -0.5900  0.6309  0.3888
 7841SOL     OW34984   1.911   4.318   2.823  0.5514 -0.3791 -0.5860
 7841SOL    HW134985   1.909   4.254   2.752 -0.0669 -0.6632 -0.3138
 7841SOL    HW234986   1.988   4.368   2.793  0.0494  1.3149  0.9553
 7842SOL     OW34987   2.765   4.373   6.454 -0.1504 -0.0350  0.2774
 7842SOL    HW134988   2.796   4.410   6.371  0.9707 -2.0928 -0.2337
 7842SOL    HW234989   2.685   4.426   6.457  0.2333  0.6125 -0.8835
 7843SOL     OW34990   1.134   1.402   3.671 -0.2903  0.5718  0.0674
 7843SOL    HW134991   1.138   1.493   3.702  0.1900  0.4441  0.3873
 7843SOL    HW234992   1.069   1.410   3.601 -1.9653 -1.9884  1.3015
 7844SOL     OW34993   1.681   4.697   3.387 -0.0746  0.1058 -0.4512
 7844SOL    HW134994   1.726   0.019   3.318  0.2767 -0.3138 -0.5139
 7844SOL    HW234995   1.742   4.623   3.388 -0.1467  0.0701  2.0372
 7845SOL     OW34996   4.398   2.679   2.906 -0.5308 -0.0153  0.0412
 7845SOL    HW134997   4.315   2.709   2.944 -0.0272  1.1363  0.2197
 7845SOL    HW234998   4.372   2.644   2.821  2.4800 -1.4899 -0.2763
 7846SOL     OW34999   3.008   3.219  17.389  0.0238  0.6311 -0.1530
 7846SOL    HW135000   2.937   3.259  17.439  0.6589  1.2169  0.2900
 7846SOL    HW235001   3.075   3.218  17.458 -0.1749  0.1326  0.0306
 7847SOL     OW35002   1.439   1.426   8.298  0.2282 -0.0260 -0.2247
 7847SOL    HW135003   1.502   1.443   8.367 -0.9546  1.0690  0.5814
 7847SOL    HW235004   1.482   1.345   8.270  3.8405  1.8562 -0.0342
 7848SOL     OW35005   4.142   3.271   2.301  0.7912  0.5122 -0.1785
 7848SOL    HW135006   4.173   3.285   2.390  0.3817  0.1713  0.0143
 7848SOL    HW235007   4.052   3.243   2.318  0.7321 -0.0474 -1.4334
 7849SOL     OW35008   3.147   0.248  13.325  0.0618 -0.0386  0.7402
 7849SOL    HW135009   3.238   0.253  13.354  0.7682  1.6632 -1.8432
 7849SOL    HW235010   3.164   0.189  13.252  3.6259 -1.3943  2.6492
 7850SOL     OW35011   2.348   3.349   8.673 -0.2082 -0.4017  0.3110
 7850SOL    HW135012   2.386   3.261   8.679  1.0227  0.1365  0.3908
 7850SOL    HW235013   2.372   3.367   8.583 -1.5726 -0.4840 -0.0607
 7851SOL     OW35014   3.059   3.570   8.571 -0.0774  0.5214  0.6302
 7851SOL    HW135015   3.113   3.582   8.649 -0.0262  0.2982  0.6297
 7851SOL    HW235016   2.967   3.572   8.595 -0.2915 -0.3706 -0.1093
 7852SOL     OW35017   0.886   4.209   5.070  0.0525  0.5497  0.1387
 7852SOL    HW135018   0.872   4.141   5.136 -0.4075 -0.3579 -0.9058
 7852SOL    HW235019   0.813   4.270   5.078 -0.7796 -0.5235  0.7656
 7853SOL     OW35020   0.606   1.495   0.962 -0.0460 -0.4130 -0.2607
 7853SOL    HW135021   0.658   1.547   0.900  0.9790  0.6921  1.5372
 7853SOL    HW235022   0.669   1.455   1.021 -0.4934 -0.6172  0.0822
 7854SOL     OW35023   0.539   4.515   3.449  0.0380 -0.1288  0.1474
 7854SOL    HW135024   0.577   4.427   3.447  0.4812  0.0974 -1.7575
 7854SOL    HW235025   0.457   4.508   3.401  0.9798 -0.7875 -1.3660
 7855SOL     OW35026   0.438   3.174  11.044 -0.1392 -0.9992 -0.0372
 7855SOL    HW135027   0.465   3.248  11.099 -2.4125 -2.1586  2.6842
 7855SOL    HW235028   0.507   3.112  11.067  1.0413  0.2326 -0.2495
 7856SOL     OW35029   0.008   3.600   6.254 -0.0281  0.1241 -0.2297
 7856SOL    HW135030   0.070   3.623   6.185  1.4391  1.3082  1.4875
 7856SOL    HW235031   4.652   3.631   6.217 -0.8616 -0.6814  0.9759
 7857SOL     OW35032   4.463   3.633  13.546 -0.4746  0.4195 -0.2317
 7857SOL    HW135033   4.387   3.584  13.517 -1.2302  0.6665  1.3087
 7857SOL    HW235034   4.480   3.689  13.470  0.0510  1.2047  0.4641
 7858SOL     OW35035   3.245   0.607   6.003  0.3820  0.4023 -0.8137
 7858SOL    HW135036   3.306   0.538   5.977 -0.3173 -0.8811  0.9963
 7858SOL    HW235037   3.272   0.613   6.094 -0.8193  1.3914 -0.5228
 7859SOL     OW35038   3.737   2.612   7.185  0.6520  0.0427  0.0536
 7859SOL    HW135039   3.732   2.685   7.247  1.0875 -0.2436  0.4248
 7859SOL    HW235040   3.717   2.540   7.244 -1.8630 -1.0213 -2.0699
 7860SOL     OW35041   0.699   3.481  17.581  0.5091 -0.6779 -0.5105
 7860SOL    HW135042   0.654   3.465  17.664 -1.4903  0.0071 -1.4767
 7860SOL    HW235043   0.637   3.536  17.533 -0.4058  0.2644  1.7267
 7861SOL     OW35044   0.477   2.401  17.115 -0.9586  0.2263 -0.4413
 7861SOL    HW135045   0.403   2.370  17.062 -0.1418  0.2280 -1.5749
 7861SOL    HW235046   0.432   2.462  17.174 -0.9529  0.5405 -0.7641
 7862SOL     OW35047   2.804   1.364   3.636 -0.0635  0.0407 -0.9834
 7862SOL    HW135048   2.811   1.282   3.587  0.6922 -0.2073 -0.4594
 7862SOL    HW235049   2.725   1.408   3.607  0.5889  2.0303  0.2692
 7863SOL     OW35050   2.327   4.593   4.539  0.8082  0.3058  0.0636
 7863SOL    HW135051   2.363   4.649   4.470  3.5796  0.6465  1.7488
 7863SOL    HW235052   2.320   4.505   4.502  1.8203  0.5338 -0.6711
 7864SOL     OW35053   0.044   3.165   2.304 -0.5451  0.1068  0.3458
 7864SOL    HW135054   0.049   3.213   2.387  3.2091 -0.0033  0.2001
 7864SOL    HW235055   0.006   3.082   2.333 -1.1049  0.1130 -0.3925
 7865SOL     OW35056   1.414   3.916   2.694  0.0187  0.6728  0.0349
 7865SOL    HW135057   1.405   3.826   2.727  0.9304  1.2019  1.6801
 7865SOL    HW235058   1.504   3.914   2.663  0.1502  0.5916  0.4213
 7866SOL     OW35059   4.726   1.047   8.121 -0.2751 -0.3153 -0.0714
 7866SOL    HW135060   4.642   1.029   8.078 -0.1943 -0.4555 -0.1699
 7866SOL    HW235061   4.717   1.000   8.204  1.8570 -0.3842  0.1056
 7867SOL     OW35062   4.310   1.288   5.706  0.3939  0.3621  0.5613
 7867SOL    HW135063   4.253   1.349   5.660 -1.3677 -2.6821 -1.2430
 7867SOL    HW235064   4.395   1.332   5.705 -0.3487  1.8455  1.6139
 7868SOL     OW35065   3.162   1.381   3.189 -0.2688  0.3353 -0.1443
 7868SOL    HW135066   3.171   1.343   3.101  0.7542  2.3338 -0.9047
 7868SOL    HW235067   3.241   1.359   3.237  0.8131  0.1473 -2.0123
 7869SOL     OW35068   2.144   3.943   4.267  0.4586  0.2999 -0.1609
 7869SOL    HW135069   2.122   4.031   4.234  1.9617  0.4606 -0.7593
 7869SOL    HW235070   2.087   3.890   4.212 -2.6906  0.3544  3.0887
 7870SOL     OW35071   2.227   2.729   4.889 -0.3439  0.0768 -0.0940
 7870SOL    HW135072   2.134   2.730   4.910 -0.2363  0.4188  0.3624
 7870SOL    HW235073   2.232   2.697   4.799 -0.5344  1.2377 -0.5188
 7871SOL     OW35074   3.725   2.737  11.260  0.0405 -0.1271  0.1927
 7871SOL    HW135075   3.683   2.662  11.304  1.7712 -2.6529 -2.4509
 7871SOL    HW235076   3.665   2.804  11.293  0.8030  1.1996 -1.1650
 7872SOL     OW35077   0.242   3.636   8.537 -0.5596 -0.1415  0.0763
 7872SOL    HW135078   0.201   3.631   8.451 -0.6355 -0.1230  0.1118
 7872SOL    HW235079   0.163   3.634   8.591 -1.6812  0.6337 -1.5323
 7873SOL     OW35080   0.917   2.201   3.707 -0.2195  0.3527  0.6453
 7873SOL    HW135081   0.846   2.160   3.755 -1.7364  1.7993 -0.3406
 7873SOL    HW235082   0.978   2.129   3.694 -0.0101  0.8750 -1.2950
 7874SOL     OW35083   4.446   1.454  14.210  0.8596 -0.1839  0.0691
 7874SOL    HW135084   4.458   1.369  14.167  0.2125  0.5281 -1.4821
 7874SOL    HW235085   4.353   1.458  14.233  0.2658  0.5205 -2.4774
 7875SOL     OW35086   0.296   2.949   3.296 -0.1115 -0.2306  0.1287
 7875SOL    HW135087   0.362   2.923   3.361  0.4946 -0.5313 -0.6088
 7875SOL    HW235088   0.219   2.951   3.353  0.5155  1.0110  0.9230
 7876SOL     OW35089   2.717   1.430   6.466 -0.0885  0.5147 -0.2554
 7876SOL    HW135090   2.730   1.423   6.372  1.4195  1.5565 -0.1205
 7876SOL    HW235091   2.627   1.402   6.486  0.5703 -1.7360 -0.3894
 7877SOL     OW35092   0.750   3.318   5.728 -0.1100  0.3718  0.1319
 7877SOL    HW135093   0.669   3.343   5.683 -1.5169 -0.3079  2.2784
 7877SOL    HW235094   0.724   3.346   5.816 -1.6935 -0.1747 -0.1437
 7878SOL     OW35095   3.162   4.084  13.483 -1.1108 -0.2683 -0.4370
 7878SOL    HW135096   3.197   4.013  13.538  0.3851  0.1314 -0.8497
 7878SOL    HW235097   3.153   4.158  13.543 -1.3162 -1.1925  0.6766
 7879SOL     OW35098   3.671   2.481  13.406 -0.4294 -0.1007  0.2926
 7879SOL    HW135099   3.700   2.393  13.383 -4.3860 -1.0067 -1.0691
 7879SOL    HW235100   3.606   2.512  13.343 -1.2725 -0.7442  0.8549
 7880SOL     OW35101   3.249   3.369   2.437 -0.0365  0.1358 -0.3767
 7880SOL    HW135102   3.202   3.430   2.494 -0.2636  0.8353 -1.3067
 7880SOL    HW235103   3.181   3.330   2.381  3.0865 -1.6213 -2.9442
 7881SOL     OW35104   0.209   2.666   6.870  0.5704 -0.3039  0.0839
 7881SOL    HW135105   0.149   2.635   6.802 -0.1120  2.0368 -0.3754
 7881SOL    HW235106   0.225   2.757   6.847 -0.5978  0.2174  1.3579
 7882SOL     OW35107   0.956   1.468   7.107  0.1232 -0.2788 -0.0926
 7882SOL    HW135108   0.964   1.488   7.201 -1.7131 -0.7130  0.1633
 7882SOL    HW235109   0.956   1.548   7.055  1.1997  0.6351  1.2988
 7883SOL     OW35110   1.700   3.603   9.957  0.3594  0.6631 -0.0668
 7883SOL    HW135111   1.645   3.533   9.922  1.5859 -1.0618  1.4342
 7883SOL    HW235112   1.784   3.567   9.932  0.7168  0.2362  1.7126
 7884SOL     OW35113   2.790   1.828  14.288  0.3050 -0.2167  0.2540
 7884SOL    HW135114   2.763   1.905  14.339 -0.0859  0.5307 -1.0907
 7884SOL    HW235115   2.721   1.765  14.309 -0.7995  1.1559  0.7967
 7885SOL     OW35116   2.834   3.009  15.695  0.3136  0.1347 -0.1161
 7885SOL    HW135117   2.822   2.990  15.788 -0.5265 -1.0864 -0.4695
 7885SOL    HW235118   2.811   3.102  15.694 -2.3800 -0.5031  1.5066
 7886SOL     OW35119   1.145   0.132  16.603 -0.6101  0.6464  0.2486
 7886SOL    HW135120   1.211   0.192  16.566  0.3438 -0.4930  0.0957
 7886SOL    HW235121   1.122   0.188  16.677  2.6446 -0.2820  1.9648
 7887SOL     OW35122   4.270   2.185  13.278  0.5835  0.7615 -0.1309
 7887SOL    HW135123   4.344   2.240  13.253  0.3298  1.4682  0.6822
 7887SOL    HW235124   4.205   2.248  13.311 -0.0911  0.2135 -0.4085
 7888SOL     OW35125   2.607   2.453   6.894 -0.4238  0.2300  0.1612
 7888SOL    HW135126   2.646   2.370   6.923 -0.2025  0.8001  1.4650
 7888SOL    HW235127   2.530   2.452   6.950 -1.4732 -0.7460 -1.2987
 7889SOL     OW35128   3.673   4.546   5.396 -0.1735  0.4450  0.3076
 7889SOL    HW135129   3.733   4.610   5.358  1.7555 -1.1416  0.6572
 7889SOL    HW235130   3.679   4.568   5.489 -2.1373  1.8985  0.0931
 7890SOL     OW35131   2.796   1.148   3.463 -0.0090  0.0847  0.8177
 7890SOL    HW135132   2.851   1.111   3.395  3.5295 -0.5009  4.0052
 7890SOL    HW235133   2.742   1.203   3.406 -0.8277 -0.4385  1.0945
 7891SOL     OW35134   4.229   1.242   9.957  0.6743 -0.3697 -0.1170
 7891SOL    HW135135   4.142   1.279   9.942  0.3656 -0.7201  0.7581
 7891SOL    HW235136   4.209   1.186  10.033 -0.6168 -0.5768 -0.6092
 7892SOL     OW35137   0.115   0.393   7.748  0.0744  0.2955  0.5081
 7892SOL    HW135138   0.189   0.352   7.704  0.2097  1.1927 -0.1151
 7892SOL    HW235139   0.149   0.450   7.818  1.3292  0.1307  0.0348
 7893SOL     OW35140   4.231   2.615   3.620  1.1182 -0.2328  0.1048
 7893SOL    HW135141   4.177   2.681   3.576  0.7091 -0.6001  0.0625
 7893SOL    HW235142   4.171   2.542   3.633 -2.3371  2.5038 -0.3086
 7894SOL     OW35143   3.117   0.864   9.963 -0.4610 -0.0904  0.5234
 7894SOL    HW135144   3.058   0.804  10.010  2.4155 -0.3246  3.8197
 7894SOL    HW235145   3.171   0.885  10.040 -2.1313 -0.0933  1.7021
 7895SOL     OW35146   4.635   2.672   9.382 -0.1945  0.0529  0.4853
 7895SOL    HW135147   4.617   2.646   9.473  3.3443 -0.0560  1.1659
 7895SOL    HW235148   4.561   2.624   9.345 -0.1360  0.5621 -0.2908
 7896SOL     OW35149   3.438   0.575   0.381 -0.3177 -0.0652 -0.4858
 7896SOL    HW135150   3.467   0.484   0.381 -1.9914 -0.6078  0.6523
 7896SOL    HW235151   3.370   0.564   0.448 -1.7605 -0.7122 -2.0470
 7897SOL     OW35152   0.864   0.761   0.247 -0.2019  0.0558 -0.0574
 7897SOL    HW135153   0.893   0.678   0.210 -2.6466 -1.1397  0.7805
 7897SOL    HW235154   0.927   0.772   0.319  0.1637 -0.3911 -0.3072
 7898SOL     OW35155   4.184   1.458  14.816 -0.0229  0.0599 -0.1921
 7898SOL    HW135156   4.209   1.550  14.806 -0.2452  0.0962 -0.4046
 7898SOL    HW235157   4.271   1.424  14.838 -0.0512 -1.1830 -1.9890
 7899SOL     OW35158   0.109   3.928   0.729  0.2488  0.4600  0.1483
 7899SOL    HW135159   0.090   3.835   0.726 -0.5180  0.6032  0.7146
 7899SOL    HW235160   0.155   3.932   0.813  0.6474  0.8555 -0.0846
 7900SOL     OW35161   3.879   4.424   3.356  0.1904 -0.1088  0.1795
 7900SOL    HW135162   3.832   4.483   3.297 -0.8364 -1.0994  0.0052
 7900SOL    HW235163   3.869   4.334   3.325 -5.0578  0.4235  0.2296
 7901SOL     OW35164   1.679   1.621   2.533 -0.1906 -0.5658  0.4920
 7901SOL    HW135165   1.654   1.532   2.512 -0.8178 -0.1279 -0.5748
 7901SOL    HW235166   1.745   1.645   2.468 -0.1090 -3.7047 -0.5991
 7902SOL     OW35167   2.368   1.727   5.349 -0.0772  0.2827 -0.2347
 7902SOL    HW135168   2.293   1.685   5.307  0.1398  0.0738 -0.4138
 7902SOL    HW235169   2.388   1.664   5.418 -3.0006 -0.5914 -0.2049
 7903SOL     OW35170   0.063   4.588  15.431  0.5406 -0.1996 -0.0302
 7903SOL    HW135171   0.099   4.643  15.360  1.2855 -2.2161 -1.2065
 7903SOL    HW235172   4.701   4.618  15.450  0.3638 -0.8170  0.1143
 7904SOL     OW35173   3.459   2.664   8.631 -0.5700  0.1985 -0.0950
 7904SOL    HW135174   3.415   2.588   8.594  0.7665 -1.3923  1.5547
 7904SOL    HW235175   3.451   2.655   8.726  2.5326  0.2699  0.1861
 7905SOL     OW35176   1.502   4.104   5.308 -0.4842  0.3078 -0.4195
 7905SOL    HW135177   1.564   4.079   5.376  2.5029  1.4025 -2.6776
 7905SOL    HW235178   1.552   4.079   5.230 -1.1291  1.3047 -1.1601
 7906SOL     OW35179   4.032   2.393   1.971 -0.5969 -0.3072  0.1919
 7906SOL    HW135180   3.982   2.440   1.905  0.1459 -0.2137 -0.3017
 7906SOL    HW235181   4.078   2.328   1.919 -2.2453 -0.9162 -0.5029
 7907SOL     OW35182   4.410   0.794   5.029 -0.3710  0.2329  0.2617
 7907SOL    HW135183   4.367   0.727   5.082  1.8922 -2.2237 -1.0111
 7907SOL    HW235184   4.339   0.858   5.023 -0.4719 -0.0071 -1.0930
 7908SOL     OW35185   1.305   3.447  12.962  0.2147  0.1622  0.0788
 7908SOL    HW135186   1.272   3.472  12.876  0.6191 -0.9321 -0.3856
 7908SOL    HW235187   1.271   3.500  13.035 -3.0241 -1.1308 -0.5045
 7909SOL     OW35188   2.559   0.580   2.266  0.5145 -0.2493 -0.3034
 7909SOL    HW135189   2.615   0.602   2.192  0.4845 -0.9072 -0.5269
 7909SOL    HW235190   2.480   0.632   2.254  1.3392  0.3657 -3.0328
 7910SOL     OW35191   4.064   1.237  16.805  0.3573 -0.6325  0.2299
 7910SOL    HW135192   4.143   1.287  16.826 -0.9895  0.9902  1.4407
 7910SOL    HW235193   3.999   1.280  16.861  1.9904  0.3995  1.3245
 7911SOL     OW35194   0.208   4.107   0.517  0.4851  0.2606  0.0768
 7911SOL    HW135195   0.169   4.057   0.589  3.0441  0.7997  1.8583
 7911SOL    HW235196   0.272   4.147   0.577 -0.0047  1.0668  0.0518
 7912SOL     OW35197   4.088   1.782   2.931  0.0333 -0.1844  0.0761
 7912SOL    HW135198   4.049   1.864   2.961  1.0190  0.8166 -1.3851
 7912SOL    HW235199   4.012   1.749   2.884  0.4874  0.0078 -0.7839
 7913SOL     OW35200   2.203   3.250  12.509  0.4740 -0.1518 -0.2715
 7913SOL    HW135201   2.186   3.343  12.501  0.2537 -0.3039 -1.5619
 7913SOL    HW235202   2.220   3.226  12.418 -2.2621 -0.4048 -0.7248
 7914SOL     OW35203   2.699   2.455   6.506 -0.1620 -0.0666  0.1219
 7914SOL    HW135204   2.668   2.378   6.553 -0.9047  0.9661  1.3381
 7914SOL    HW235205   2.656   2.454   6.420  2.6661 -0.4562 -1.2762
 7915SOL     OW35206   1.337   1.166   4.431  0.1212  0.4225 -0.5693
 7915SOL    HW135207   1.272   1.096   4.438 -1.1502  1.5784 -0.6005
 7915SOL    HW235208   1.425   1.134   4.450  0.0515  1.3148  1.2939
 7916SOL     OW35209   0.349   0.971   3.801 -0.7986 -0.2885  0.3270
 7916SOL    HW135210   0.278   0.955   3.739 -1.2212  0.4997  0.5982
 7916SOL    HW235211   0.396   0.890   3.780  1.4930  1.3905 -1.0018
 7917SOL     OW35212   2.661   1.369   5.222 -0.6959  0.0979  0.4595
 7917SOL    HW135213   2.655   1.362   5.318  1.9307 -0.4956  0.5680
 7917SOL    HW235214   2.754   1.350   5.212 -0.9264 -0.9781  0.3494
 7918SOL     OW35215   2.362   3.000   1.335 -0.3328 -0.1534  0.2834
 7918SOL    HW135216   2.396   2.963   1.253  0.3294  0.2910  0.3554
 7918SOL    HW235217   2.439   3.034   1.382 -0.4313  0.7318 -0.1918
 7919SOL     OW35218   3.726   0.367   2.194 -0.1138  0.7455 -0.4447
 7919SOL    HW135219   3.686   0.295   2.242 -0.5090  1.3726  0.1757
 7919SOL    HW235220   3.803   0.322   2.158 -1.0845  0.0561 -1.6581
 7920SOL     OW35221   1.356   4.158   8.425 -0.4509  0.1182 -0.0957
 7920SOL    HW135222   1.446   4.125   8.422 -0.8990 -1.0797 -0.1793
 7920SOL    HW235223   1.299   4.082   8.416 -0.9815  0.6642 -1.3973
 7921SOL     OW35224   0.477   0.970   1.923 -0.9983 -0.1638 -0.4911
 7921SOL    HW135225   0.410   0.905   1.906 -0.8386 -0.7527  1.1518
 7921SOL    HW235226   0.507   0.993   1.835  1.4203 -0.2309  0.3064
 7922SOL     OW35227   1.199   0.209   8.862  0.3111  0.0761  0.1257
 7922SOL    HW135228   1.288   0.235   8.886  0.3240 -0.6307  0.8515
 7922SOL    HW235229   1.163   0.190   8.949 -0.5214  0.2807 -0.1663
 7923SOL     OW35230   2.812   0.315   2.211 -0.2571  0.0210 -0.0609
 7923SOL    HW135231   2.835   0.263   2.134 -1.5124  1.2289 -1.2664
 7923SOL    HW235232   2.799   0.402   2.175 -0.1885  0.4183  0.8786
 7924SOL     OW35233   0.788   1.296   6.505  0.1526  0.2569 -0.0768
 7924SOL    HW135234   0.764   1.205   6.489 -0.5311  0.5189 -0.5366
 7924SOL    HW235235   0.785   1.330   6.415 -2.4834 -1.5152 -0.6525
 7925SOL     OW35236   2.566   1.412  17.299  0.5800 -0.1996  0.1174
 7925SOL    HW135237   2.575   1.500  17.335 -0.9243 -0.6387  1.5927
 7925SOL    HW235238   2.474   1.390  17.312  0.5678 -0.4722 -0.4405
 7926SOL     OW35239   4.203   2.492   6.123 -0.2649 -0.8452 -0.2912
 7926SOL    HW135240   4.270   2.430   6.154  0.9261 -0.3055 -1.7637
 7926SOL    HW235241   4.249   2.575   6.136 -1.7533  0.2494 -2.0327
 7927SOL     OW35242   0.433   2.160   6.647  0.0859  0.2210 -0.3753
 7927SOL    HW135243   0.467   2.191   6.564  0.0290 -1.7688 -1.1378
 7927SOL    HW235244   0.469   2.213   6.718 -0.6161  0.1625  0.0329
 7928SOL     OW35245   0.531   3.632  12.340  0.3211  0.6283 -0.1390
 7928SOL    HW135246   0.586   3.556  12.319  0.6438  1.7319 -3.3178
 7928SOL    HW235247   0.535   3.640  12.435  0.5654 -0.5773 -0.0530
 7929SOL     OW35248   3.292   1.913  14.641 -0.3820 -0.3254 -0.2441
 7929SOL    HW135249   3.367   1.940  14.589  0.9581 -1.1540  1.2849
 7929SOL    HW235250   3.234   1.884  14.570 -0.3167 -1.7789  0.3007
 7930SOL     OW35251   2.779   4.683   5.432 -0.1420  0.2433  0.4366
 7930SOL    HW135252   2.828   4.706   5.511  0.2202  0.0556  0.2665
 7930SOL    HW235253   2.825   4.604   5.403 -0.2486  0.0973  0.6691
 7931SOL     OW35254   3.823   0.151   3.308  0.0320 -0.4685 -0.2515
 7931SOL    HW135255   3.792   0.210   3.239  0.1296  0.0929  0.1930
 7931SOL    HW235256   3.810   0.064   3.269 -0.6537  0.0493 -1.1817
 7932SOL     OW35257   3.834   2.524  11.156  0.4355 -0.0106 -1.2542
 7932SOL    HW135258   3.803   2.613  11.172 -1.1191 -0.8744  0.4967
 7932SOL    HW235259   3.862   2.501  11.244 -0.6079 -0.4676 -1.0434
 7933SOL     OW35260   3.419   2.360   6.545 -0.2919  0.2597  0.2211
 7933SOL    HW135261   3.449   2.443   6.508 -2.8906  0.5381 -1.2820
 7933SOL    HW235262   3.497   2.305   6.544 -0.5117 -0.0213 -1.8486
 7934SOL     OW35263   2.886   1.831   2.103 -0.2984  0.2950 -0.3569
 7934SOL    HW135264   2.937   1.899   2.148  1.1285  0.7905 -2.7239
 7934SOL    HW235265   2.888   1.767   2.174 -0.0831  0.1360 -0.5035
 7935SOL     OW35266   3.047   0.133   2.381  0.1832 -0.3086 -0.1911
 7935SOL    HW135267   3.060   0.163   2.291 -0.7910  0.4677 -0.0798
 7935SOL    HW235268   3.095   0.050   2.375 -0.7661 -0.7383 -1.7383
 7936SOL     OW35269   3.560   0.732  17.145  0.1850  0.1684  0.5802
 7936SOL    HW135270   3.603   0.661  17.098 -1.4660 -0.7049  0.3851
 7936SOL    HW235271   3.505   0.776  17.079 -0.0864 -2.4903 -0.9427
 7937SOL     OW35272   2.507   2.477   9.017 -0.1526  0.1069 -0.2098
 7937SOL    HW135273   2.536   2.390   8.990 -0.4867 -0.6720  1.9495
 7937SOL    HW235274   2.590   2.522   9.003 -0.1788  0.3160  0.3114
 7938SOL     OW35275   3.164   0.901   5.374 -0.4854  0.2579  0.0759
 7938SOL    HW135276   3.149   0.895   5.468  0.3552  1.1276  0.2560
 7938SOL    HW235277   3.232   0.834   5.371  1.5308  2.3275  0.3775
 7939SOL     OW35278   4.267   1.328  14.524 -0.1256  0.0193 -0.5438
 7939SOL    HW135279   4.226   1.381  14.456 -0.7991 -0.1763 -0.2836
 7939SOL    HW235280   4.358   1.345  14.498  0.5617 -1.3387  0.9945
 7940SOL     OW35281   2.586   2.634   6.694 -0.1774 -0.5168  0.4454
 7940SOL    HW135282   2.618   2.572   6.628 -0.4940 -0.9763  0.7215
 7940SOL    HW235283   2.603   2.580   6.771  2.1300  0.8557  0.9049
 7941SOL     OW35284   1.462   3.664  16.025  0.5525  0.2503  0.0835
 7941SOL    HW135285   1.464   3.722  16.101  1.2398 -2.3409  2.0296
 7941SOL    HW235286   1.422   3.729  15.967 -1.6242  0.7274  2.1055
 7942SOL     OW35287   4.255   0.364  14.723 -0.4204 -0.1914 -0.5799
 7942SOL    HW135288   4.262   0.459  14.731  1.6445 -0.3505 -0.4056
 7942SOL    HW235289   4.287   0.334  14.808 -0.7977  0.6681 -0.1255
 7943SOL     OW35290   4.123   4.130   2.157 -0.3202 -0.4022 -0.6901
 7943SOL    HW135291   4.036   4.149   2.190 -0.0091 -2.7902  1.4937
 7943SOL    HW235292   4.137   4.209   2.104 -0.3919 -0.0364 -0.1664
 7944SOL     OW35293   0.449   1.324   8.596 -0.2394  0.2245 -0.4191
 7944SOL    HW135294   0.518   1.390   8.586 -1.2046  1.3690  0.4963
 7944SOL    HW235295   0.472   1.262   8.528  2.0528  1.8895 -1.1731
 7945SOL     OW35296   1.163   0.241   3.434  0.6798 -0.7215  0.4632
 7945SOL    HW135297   1.166   0.146   3.450  0.3667 -0.3215  2.8580
 7945SOL    HW235298   1.136   0.269   3.522  0.5599  0.6131  0.0031
 7946SOL     OW35299   1.308   0.500   4.299 -0.0842  0.7713  0.0154
 7946SOL    HW135300   1.372   0.470   4.363 -0.8929 -1.9701 -0.4805
 7946SOL    HW235301   1.346   0.579   4.260 -1.2767  1.0250 -0.6461
 7947SOL     OW35302   0.727   3.698   1.134  0.3659  0.3780 -0.1084
 7947SOL    HW135303   0.655   3.662   1.082 -1.1054  0.0609  2.1755
 7947SOL    HW235304   0.684   3.777   1.167  0.7816 -0.0021  1.3493
 7948SOL     OW35305   0.790   4.452  13.286 -0.8473  0.4489 -0.4066
 7948SOL    HW135306   0.751   4.371  13.317 -2.8928  1.0437 -1.4074
 7948SOL    HW235307   0.741   4.521  13.332 -2.6053 -0.2169 -1.2788
 7949SOL     OW35308   4.536   3.937   7.522  0.3507  0.5059 -0.5922
 7949SOL    HW135309   4.516   3.858   7.571 -1.9850  0.9485 -0.8192
 7949SOL    HW235310   4.604   3.917   7.458 -0.6167  0.1418 -1.4932
 7950SOL     OW35311   1.664   0.575   7.742 -0.1510 -0.1536 -0.3716
 7950SOL    HW135312   1.730   0.541   7.802  1.4892  0.2777 -1.9569
 7950SOL    HW235313   1.671   0.521   7.664  3.5940 -0.8180  0.4492
 7951SOL     OW35314   0.844   0.184   3.471 -0.3773  0.3017  0.1092
 7951SOL    HW135315   0.749   0.174   3.472 -0.1347 -2.1459 -0.3324
 7951SOL    HW235316   0.867   0.156   3.559  0.5460  1.8636  0.3569
 7952SOL     OW35317   4.657   0.031   7.874  0.0886  0.3785 -0.5410
 7952SOL    HW135318   0.017   0.018   7.836 -0.1457  1.0219 -1.2910
 7952SOL    HW235319   4.635   4.669   7.905 -2.0946  0.9726 -0.3508
 7953SOL     OW35320   0.790   0.553   0.057  0.2191 -0.0083 -0.3821
 7953SOL    HW135321   0.751   0.489  17.705  1.1203  0.2588 -1.2531
 7953SOL    HW235322   0.752   0.521   0.139 -0.7956 -3.8205 -2.3012
 7954SOL     OW35323   2.384   3.700   7.702  0.2422 -0.2567 -0.1594
 7954SOL    HW135324   2.479   3.705   7.692  0.2689  3.9990  2.0383
 7954SOL    HW235325   2.347   3.768   7.646 -0.4580 -0.4391  0.0772
 7955SOL     OW35326   2.203   3.460  10.098  0.3930 -0.4706 -0.5428
 7955SOL    HW135327   2.217   3.366  10.090  1.1244 -0.3864 -0.2127
 7955SOL    HW235328   2.171   3.456  10.188  0.5347  0.8896 -0.4259
 7956SOL     OW35329   0.906   1.440   5.659 -0.5604 -0.0300 -0.3350
 7956SOL    HW135330   0.820   1.420   5.697  0.4991  0.6149  2.3601
 7956SOL    HW235331   0.925   1.349   5.637  1.2152  0.0120  1.0714
 7957SOL     OW35332   1.775   4.610  15.866  0.3427  0.3161 -0.8819
 7957SOL    HW135333   1.777   4.701  15.836  3.2855  0.4935 -0.0751
 7957SOL    HW235334   1.844   4.603  15.932 -0.6071 -2.4700 -0.1926
 7958SOL     OW35335   2.078   0.628   8.193  0.1124  0.3951  0.2443
 7958SOL    HW135336   1.997   0.628   8.244 -1.0764  3.3150 -1.6065
 7958SOL    HW235337   2.136   0.617   8.268  3.1765  2.2815 -1.8390
 7959SOL     OW35338   1.600   0.721   7.201 -0.1687  0.0735  0.3323
 7959SOL    HW135339   1.657   0.762   7.267  0.8843 -1.2658  0.2735
 7959SOL    HW235340   1.573   0.800   7.154  1.6373  1.9894  2.4903
 7960SOL     OW35341   1.196   2.269   4.118 -0.2598 -0.1546 -0.0800
 7960SOL    HW135342   1.169   2.240   4.031  0.0684 -0.3943 -0.1030
 7960SOL    HW235343   1.236   2.350   4.087 -1.3362  0.3429 -0.1704
 7961SOL     OW35344   1.957   1.783   9.074 -0.1611 -0.6018 -0.1700
 7961SOL    HW135345   1.963   1.876   9.052 -0.4290 -0.8582 -1.3100
 7961SOL    HW235346   1.861   1.785   9.080 -0.0790 -0.6948  1.1255
 7962SOL     OW35347   3.315   1.527   7.095 -0.6504  0.2779  0.2318
 7962SOL    HW135348   3.344   1.618   7.103  1.2485 -0.4536  1.6526
 7962SOL    HW235349   3.360   1.491   7.172 -0.8360  0.2549  0.3320
 7963SOL     OW35350   0.934   0.468   4.211  0.0713  0.2543  0.0033
 7963SOL    HW135351   1.026   0.443   4.206 -0.1023 -0.2877 -0.5380
 7963SOL    HW235352   0.907   0.424   4.291  0.1163  1.4682  0.6835
 7964SOL     OW35353   0.357   3.828   2.331 -0.2228 -0.8313  0.4869
 7964SOL    HW135354   0.329   3.835   2.422 -0.6299  0.0336  0.2974
 7964SOL    HW235355   0.450   3.848   2.336 -0.4905  1.1166 -2.0519
 7965SOL     OW35356   1.118   3.150   2.033  0.0951  0.5001  0.1443
 7965SOL    HW135357   1.076   3.065   2.021  1.3177 -0.0764 -0.0795
 7965SOL    HW235358   1.204   3.133   1.995  0.5027  1.8807  0.4697
 7966SOL     OW35359   3.478   3.688   5.075  0.2616  0.2341 -0.3918
 7966SOL    HW135360   3.386   3.692   5.048 -1.1540 -1.1739  4.2068
 7966SOL    HW235361   3.465   3.749   5.149 -1.7614 -0.8200  0.1059
 7967SOL     OW35362   0.567   4.671   6.270  0.4004 -0.1424  0.0239
 7967SOL    HW135363   0.601   4.594   6.225  2.0581  0.4082  0.3399
 7967SOL    HW235364   0.620   0.022   6.252 -1.6161  1.5779  1.4668
 7968SOL     OW35365   1.744   2.770   4.073  0.0575  0.2961 -0.1386
 7968SOL    HW135366   1.669   2.762   4.014 -0.2344 -1.4719  0.4730
 7968SOL    HW235367   1.708   2.820   4.146  1.3788  0.8697  0.1235
 7969SOL     OW35368   1.499   1.614   8.886 -0.4867  0.0884 -0.1221
 7969SOL    HW135369   1.477   1.676   8.956 -1.1427 -0.5166  0.2142
 7969SOL    HW235370   1.591   1.634   8.870  0.2049 -2.1752  0.9828
 7970SOL     OW35371   2.945   4.590   3.480 -0.0206  0.5189 -0.1415
 7970SOL    HW135372   2.961   4.624   3.568 -1.8037 -0.2387  0.4654
 7970SOL    HW235373   2.905   4.506   3.501  1.0310 -0.7338 -3.2500
 7971SOL     OW35374   3.052   4.207   3.991 -0.6010 -0.4406 -0.5906
 7971SOL    HW135375   3.058   4.215   3.896  3.9407 -1.3378 -0.3824
 7971SOL    HW235376   3.140   4.180   4.015 -1.8837 -2.2673  2.0562
 7972SOL     OW35377   0.074   0.938   9.209 -0.2765 -0.0435  0.0719
 7972SOL    HW135378   0.144   0.894   9.160  0.8286  1.6797  0.0978
 7972SOL    HW235379   0.002   0.946   9.146 -0.5161  0.2507  0.3829
 7973SOL     OW35380   3.685   0.028  13.537  0.0575  0.3260 -0.4337
 7973SOL    HW135381   3.713   4.686  13.598 -0.2323 -1.5616 -2.4575
 7973SOL    HW235382   3.605   0.039  13.588  0.0576  0.1189 -0.3886
 7974SOL     OW35383   3.032   0.585  10.296 -0.1393 -0.0777  0.5059
 7974SOL    HW135384   3.117   0.625  10.315 -0.8162  0.9468  1.3440
 7974SOL    HW235385   2.987   0.606  10.377  0.9364 -0.6628  1.2583
 7975SOL     OW35386   0.478   3.905  12.568 -0.2703  0.4438  0.4494
 7975SOL    HW135387   0.408   3.899  12.633 -2.2832  2.1870 -1.5554
 7975SOL    HW235388   0.530   3.829  12.595 -3.6163 -2.3086 -0.7690
 7976SOL     OW35389   4.097   1.009   7.642  0.3126 -0.1178 -0.7705
 7976SOL    HW135390   4.107   1.087   7.696  1.5204  0.2955 -1.5753
 7976SOL    HW235391   4.146   1.032   7.562 -0.3186 -2.4115 -1.8337
 7977SOL     OW35392   0.857   1.766  10.608  0.0502  0.4073 -0.4257
 7977SOL    HW135393   0.777   1.741  10.562 -0.7343 -0.2969  1.3465
 7977SOL    HW235394   0.923   1.721  10.554 -0.2315 -0.1369 -0.3116
 7978SOL     OW35395   3.462   3.623   0.805  0.0224 -0.0518  0.0960
 7978SOL    HW135396   3.382   3.608   0.854  0.2950 -2.9048 -0.3722
 7978SOL    HW235397   3.440   3.582   0.722 -0.4612 -0.3910  0.3927
 7979SOL     OW35398   3.550   0.290  13.092  0.4631 -0.1424 -0.2631
 7979SOL    HW135399   3.534   0.349  13.165  4.4631  0.5413  0.0556
 7979SOL    HW235400   3.613   0.340  13.039 -0.8431  1.0507 -0.6918
 7980SOL     OW35401   3.466   3.880   9.556 -0.2058  0.4249  0.2367
 7980SOL    HW135402   3.516   3.823   9.615 -2.5578 -1.0130  0.8673
 7980SOL    HW235403   3.477   3.826   9.478  0.7095  1.2378 -0.1816
 7981SOL     OW35404   1.433   0.141  12.272  0.6027 -0.2625 -0.0743
 7981SOL    HW135405   1.436   0.135  12.177  5.5353 -2.0485  0.1935
 7981SOL    HW235406   1.422   0.236  12.282  0.9819 -0.3878  1.5822
 7982SOL     OW35407   2.101   1.795  15.162  0.9326  0.3160 -0.0060
 7982SOL    HW135408   2.192   1.826  15.162  1.2326 -0.5640  1.4641
 7982SOL    HW235409   2.108   1.737  15.238 -1.1400 -0.7673 -0.6456
 7983SOL     OW35410   0.066   3.588   8.754  0.0588 -0.7225  0.1106
 7983SOL    HW135411   0.001   3.573   8.822  1.0022 -2.7206  0.5605
 7983SOL    HW235412   0.136   3.615   8.814 -0.1142 -1.0607  0.4596
 7984SOL     OW35413   2.347   0.723   6.614  0.1813 -0.1270 -0.2287
 7984SOL    HW135414   2.433   0.694   6.644  0.8856  0.5594 -1.5548
 7984SOL    HW235415   2.315   0.765   6.693  1.6307  1.2235 -0.3534
 7985SOL     OW35416   2.357   3.273   3.761  0.6031 -0.1545  0.6496
 7985SOL    HW135417   2.275   3.235   3.729 -0.1332  0.8572  1.3247
 7985SOL    HW235418   2.373   3.217   3.837 -0.0375 -1.3450 -0.0869
 7986SOL     OW35419   3.356   1.920   8.448 -0.5727 -0.3157 -0.1649
 7986SOL    HW135420   3.303   1.867   8.389 -1.5088 -0.7959  1.1210
 7986SOL    HW235421   3.318   2.008   8.437  1.3497  0.3157 -1.6739
 7987SOL     OW35422   1.782   3.848   4.927  0.3395 -0.6904 -0.5296
 7987SOL    HW135423   1.813   3.758   4.935 -1.4694 -1.3494 -0.9785
 7987SOL    HW235424   1.859   3.900   4.901  0.7779 -0.3113  1.5028
 7988SOL     OW35425   2.560   4.464   8.804  0.1552  0.2409  0.3622
 7988SOL    HW135426   2.647   4.461   8.845  0.2644 -1.0291  0.0370
 7988SOL    HW235427   2.540   4.371   8.816 -0.4229  0.3424  0.1670
 7989SOL     OW35428   3.643   4.483   9.911  0.0922  0.4510  0.3611
 7989SOL    HW135429   3.640   4.558   9.971 -0.5830 -0.8653  1.9733
 7989SOL    HW235430   3.555   4.446   9.920 -1.0066  2.2664 -2.9004
 7990SOL     OW35431   1.209   4.063   6.618  0.2805 -0.2422  0.5864
 7990SOL    HW135432   1.170   3.976   6.621 -0.9678  0.3386  1.2416
 7990SOL    HW235433   1.228   4.083   6.710 -1.0013 -0.9509  1.0094
 7991SOL     OW35434   4.416   4.321  15.251  0.0358 -0.4815 -0.0703
 7991SOL    HW135435   4.400   4.257  15.181  0.1534  2.0971 -2.4141
 7991SOL    HW235436   4.449   4.389  15.193  0.0030 -1.2290 -0.9595
 7992SOL     OW35437   1.572   3.047   4.763 -0.0280  0.4876 -0.1105
 7992SOL    HW135438   1.627   3.118   4.729 -2.0993  2.4770  0.6989
 7992SOL    HW235439   1.646   2.989   4.783 -1.8717 -2.4373 -1.9171
 7993SOL     OW35440   0.245   1.056   6.380  0.3793  0.4305 -0.4236
 7993SOL    HW135441   0.228   1.104   6.460  0.4649 -3.4176  1.8994
 7993SOL    HW235442   0.295   0.986   6.422 -0.4363 -0.3460 -0.7186
 7994SOL     OW35443   2.413   1.980  17.692  0.4674  0.0760  0.4346
 7994SOL    HW135444   2.505   1.983   0.009  0.1338  1.0886  1.5406
 7994SOL    HW235445   2.382   1.923   0.055  1.0804  1.5690  1.9013
 7995SOL     OW35446   0.498   3.854  11.175  0.0135 -0.2719 -0.1106
 7995SOL    HW135447   0.591   3.835  11.173 -0.3878 -2.2268 -0.4485
 7995SOL    HW235448   0.460   3.783  11.122  1.4708 -1.4307  0.4185
 7996SOL     OW35449   1.211   4.360  16.275  0.3706  0.0356 -0.0050
 7996SOL    HW135450   1.217   4.277  16.321 -0.4484  0.3655  0.6910
 7996SOL    HW235451   1.276   4.334  16.210 -0.9153 -0.4151 -1.1199
 7997SOL     OW35452   4.322   1.220   8.875 -0.1038  0.1383  0.0850
 7997SOL    HW135453   4.289   1.228   8.964 -3.5607  2.1046 -1.3406
 7997SOL    HW235454   4.334   1.314   8.860 -0.1513  0.5861  2.9609
 7998SOL     OW35455   0.101   4.205   8.568  0.4362 -0.1947 -0.1853
 7998SOL    HW135456   0.068   4.295   8.576 -2.6163 -1.3478  0.2733
 7998SOL    HW235457   0.166   4.192   8.637  0.2774 -0.7194 -0.1382
 7999SOL     OW35458   3.745   2.008  13.560 -0.0495 -0.2897  0.3786
 7999SOL    HW135459   3.748   2.078  13.626 -0.4116 -0.3103  0.4214
 7999SOL    HW235460   3.800   1.948  13.609  1.2682  0.8609  0.3182
 8000SOL     OW35461   2.912   3.908   8.811  0.3949 -0.1158  0.3662
 8000SOL    HW135462   2.899   3.916   8.906 -0.5200  2.2422  0.0475
 8000SOL    HW235463   2.984   3.847   8.822 -0.4406 -1.1725 -0.0997
 8001SOL     OW35464   4.532   4.216   1.371 -0.5171  0.2623  0.7783
 8001SOL    HW135465   4.625   4.192   1.365 -0.5936  0.5113 -1.2952
 8001SOL    HW235466   4.495   4.156   1.307 -0.6792  0.9086  0.2728
 8002SOL     OW35467   4.358   1.115   4.042 -1.0191 -0.0587 -0.0992
 8002SOL    HW135468   4.311   1.196   4.063  1.0668  0.9820  0.5790
 8002SOL    HW235469   4.299   1.076   3.978  0.5676 -2.8357  0.1271
 8003SOL     OW35470   1.116   0.775   5.515  0.4311 -0.2582  0.4087
 8003SOL    HW135471   1.210   0.789   5.518  0.1365  2.0572 -1.3113
 8003SOL    HW235472   1.104   0.698   5.570 -2.7835 -1.1768 -1.5703
 8004SOL     OW35473   2.453   4.375   8.297 -0.3489 -0.5907 -0.0856
 8004SOL    HW135474   2.449   4.448   8.359 -0.7106  0.5436 -1.4321
 8004SOL    HW235475   2.525   4.398   8.238  1.7209  1.7471  3.3503
 8005SOL     OW35476   2.605   0.351   6.894  0.4954  0.2189  0.1051
 8005SOL    HW135477   2.521   0.351   6.940  0.1817  1.0220 -0.4778
 8005SOL    HW235478   2.577   0.355   6.803  1.3165 -1.7471 -0.2405
 8006SOL     OW35479   4.636   3.003   6.890 -0.5578  0.0963 -0.3647
 8006SOL    HW135480   4.646   2.944   6.965  0.4830  1.0784  0.2709
 8006SOL    HW235481   0.000   3.030   6.878  0.2052 -2.3062  0.0847
 8007SOL     OW35482   0.958   3.955  15.914  0.1773  0.1539  0.5437
 8007SOL    HW135483   0.952   3.986  15.824  0.4198  0.5326  0.6585
 8007SOL    HW235484   1.034   4.002  15.950  1.5729 -0.9840 -0.9335
 8008SOL     OW35485   3.201   4.022   7.728 -0.4325 -0.1576  0.2766
 8008SOL    HW135486   3.260   4.097   7.720 -0.9688  0.2235 -0.0987
 8008SOL    HW235487   3.175   4.017   7.636  1.3740 -0.8213 -0.1933
 8009SOL     OW35488   4.249   1.311  15.457  0.0692  0.2700  0.3471
 8009SOL    HW135489   4.185   1.293  15.526  0.6336  3.6985  1.7585
 8009SOL    HW235490   4.220   1.398  15.431 -1.3232 -0.5804 -0.9736
 8010SOL     OW35491   1.839   1.618   6.329  0.2686 -0.1663 -0.4897
 8010SOL    HW135492   1.932   1.626   6.312  0.7322  0.1557  2.1204
 8010SOL    HW235493   1.819   1.671   6.407  1.2408 -0.5455  0.0117
 8011SOL     OW35494   0.867   3.853  13.931  0.9393 -0.5643 -0.0632
 8011SOL    HW135495   0.796   3.824  13.988  0.8377  1.5870  0.8847
 8011SOL    HW235496   0.937   3.888  13.985  1.9933  0.9273 -2.3924
 8012SOL     OW35497   2.567   1.190   8.024  0.0875 -0.0757 -0.1733
 8012SOL    HW135498   2.661   1.173   8.031  0.2072 -0.5222 -3.0288
 8012SOL    HW235499   2.531   1.103   8.004  0.6953 -0.4979  0.5455
 8013SOL     OW35500   2.017   0.904  15.586  0.2046 -0.3501 -0.1303
 8013SOL    HW135501   2.002   0.925  15.678 -0.1322 -2.5940  0.3127
 8013SOL    HW235502   1.967   0.824  15.570  0.4155 -0.2259 -1.4395
 8014SOL     OW35503   4.370   4.093   2.821 -0.9578 -0.3567 -0.0293
 8014SOL    HW135504   4.298   4.155   2.829  0.2260  0.6313  2.7056
 8014SOL    HW235505   4.341   4.035   2.750 -0.8963  0.8901 -1.0643
 8015SOL     OW35506   2.866   0.366  10.775  0.3336 -0.6792 -0.2077
 8015SOL    HW135507   2.816   0.446  10.759  0.0322 -0.7614  0.3140
 8015SOL    HW235508   2.845   0.345  10.866  1.9928 -2.2013 -0.1833
 8016SOL     OW35509   0.836   3.814   9.406 -0.4140  0.3757  0.1195
 8016SOL    HW135510   0.860   3.903   9.431 -2.6290  1.1273 -0.4491
 8016SOL    HW235511   0.884   3.765   9.472  0.4160  0.9730 -0.0400
 8017SOL     OW35512   3.479   0.632   3.969  0.8061  0.9077 -0.3372
 8017SOL    HW135513   3.399   0.583   3.950  1.5256 -0.5454  0.4279
 8017SOL    HW235514   3.462   0.701   4.034 -2.0750  0.1313 -0.2698
 8018SOL     OW35515   0.665   0.548   3.904 -0.0604 -0.0800 -0.4462
 8018SOL    HW135516   0.637   0.494   3.978  0.5894 -1.2005 -1.0115
 8018SOL    HW235517   0.603   0.620   3.912 -0.2970 -0.4678  1.2210
 8019SOL     OW35518   1.001   0.250   7.337 -0.1091 -0.5327  0.2393
 8019SOL    HW135519   0.979   0.159   7.358  0.6668 -0.9500 -0.7955
 8019SOL    HW235520   1.010   0.291   7.423 -3.4486 -0.9802  0.8089
 8020SOL     OW35521   3.450   3.594   7.935 -0.1617 -0.4549 -0.1405
 8020SOL    HW135522   3.413   3.675   7.899  2.5329  0.3725 -0.9867
 8020SOL    HW235523   3.444   3.531   7.863 -0.2888  1.1327 -1.5203
 8021SOL     OW35524   2.484   2.492   5.193  0.6125 -0.1560 -0.1672
 8021SOL    HW135525   2.514   2.541   5.116  1.3179 -1.0561 -0.4492
 8021SOL    HW235526   2.426   2.559   5.230  0.1193 -0.9928  0.5510
 8022SOL     OW35527   3.392   1.592   2.457 -0.4119 -0.2150  0.0641
 8022SOL    HW135528   3.424   1.544   2.381 -1.4898 -0.8286  0.0002
 8022SOL    HW235529   3.479   1.609   2.494  0.2348  2.0049 -2.4402
 8023SOL     OW35530   1.802   2.635   3.316 -0.6803  0.8368  0.8719
 8023SOL    HW135531   1.784   2.701   3.384 -1.3680 -0.5540  2.0338
 8023SOL    HW235532   1.728   2.650   3.258 -0.4416  0.7548  0.5485
 8024SOL     OW35533   3.176   1.754   3.815  0.1056 -0.3262 -0.1217
 8024SOL    HW135534   3.113   1.690   3.847 -0.2214 -0.0709 -0.2584
 8024SOL    HW235535   3.119   1.809   3.761 -0.1656  2.1636  2.7597
 8025SOL     OW35536   1.143   2.596   5.035  0.5355  0.0361 -0.3813
 8025SOL    HW135537   1.234   2.604   5.062  0.4645  0.0740 -0.1457
 8025SOL    HW235538   1.163   2.620   4.945 -1.1392  2.3255 -0.1601
 8026SOL     OW35539   0.958   0.105   1.740 -0.1299  0.1532  0.3155
 8026SOL    HW135540   0.887   0.168   1.745 -0.0950  0.3037 -1.1810
 8026SOL    HW235541   1.004   0.124   1.658  1.2773  0.5149  1.1851
 8027SOL     OW35542   4.121   3.623   8.929 -0.0493  0.7075  0.0344
 8027SOL    HW135543   4.033   3.657   8.944 -0.5722 -0.0334 -1.3341
 8027SOL    HW235544   4.171   3.691   8.974 -0.8639  0.6056  1.0822
 8028SOL     OW35545   0.604   1.509  14.911  0.3704  0.0605  0.5646
 8028SOL    HW135546   0.618   1.594  14.954 -2.2913  0.1536  1.2416
 8028SOL    HW235547   0.514   1.519  14.879  0.5293  0.4249  0.2309
 8029SOL     OW35548   2.728   1.332   1.023  0.4126 -0.3038 -0.3178
 8029SOL    HW135549   2.715   1.307   0.931 -1.5472  0.9936 -0.3778
 8029SOL    HW235550   2.698   1.259   1.077 -2.0370  0.7136 -0.3075
 8030SOL     OW35551   3.652   3.963   7.120 -0.4454  0.7458 -0.2316
 8030SOL    HW135552   3.661   4.040   7.176 -0.6745  0.2014  0.5607
 8030SOL    HW235553   3.572   3.920   7.151 -0.7203 -0.4842 -2.6504
 8031SOL     OW35554   4.235   3.256   6.243 -0.2984  0.6490  0.3103
 8031SOL    HW135555   4.271   3.224   6.161 -2.4483 -2.2543  0.4972
 8031SOL    HW235556   4.309   3.274   6.300 -0.3830 -2.0662  1.2406
 8032SOL     OW35557   1.216   1.239   2.470 -0.8604  0.6987 -0.0591
 8032SOL    HW135558   1.130   1.203   2.493 -0.3676 -1.3914 -1.5255
 8032SOL    HW235559   1.251   1.267   2.555  0.2229  1.8112 -0.8635
 8033SOL     OW35560   2.520   3.286   5.599 -0.1677 -0.0583 -0.2284
 8033SOL    HW135561   2.472   3.347   5.543  3.2360  1.9568 -0.9736
 8033SOL    HW235562   2.446   3.250   5.647  0.0514  0.5019  0.5393
 8034SOL     OW35563   1.450   3.190   6.654 -0.3815  0.3223  0.1923
 8034SOL    HW135564   1.376   3.200   6.595  0.7178 -0.1790 -1.2497
 8034SOL    HW235565   1.409   3.158   6.735  2.1160 -0.8084  1.0154
 8035SOL     OW35566   4.235   1.941   1.738 -0.1425  0.1529  0.3733
 8035SOL    HW135567   4.192   1.889   1.805  1.5052 -0.6506  0.8188
 8035SOL    HW235568   4.322   1.901   1.740 -0.4325 -0.4769  0.0076
 8036SOL     OW35569   4.568   4.481   7.215  0.2340  0.5466 -0.3265
 8036SOL    HW135570   4.543   4.571   7.192  1.2768  0.8224 -0.3779
 8036SOL    HW235571   4.484   4.437   7.200  0.4057 -0.3203  1.3358
 8037SOL     OW35572   3.670   1.246   2.089 -0.4717  0.0323  0.1004
 8037SOL    HW135573   3.741   1.194   2.053 -0.2894  0.7255 -0.5543
 8037SOL    HW235574   3.589   1.217   2.047 -0.6095  0.9390 -0.2734
 8038SOL     OW35575   1.683   2.765   5.724 -0.1451 -0.4215  0.3514
 8038SOL    HW135576   1.604   2.744   5.774  0.1903 -1.5368  0.4064
 8038SOL    HW235577   1.750   2.710   5.763  0.8770  0.3729 -0.2779
 8039SOL     OW35578   3.301   1.278   2.121 -0.4212 -0.4739 -0.4218
 8039SOL    HW135579   3.358   1.342   2.165 -1.3003  1.3649 -1.9209
 8039SOL    HW235580   3.222   1.332   2.120 -1.1867 -1.6145 -0.8162
 8040SOL     OW35581   2.089   0.123   3.845 -0.3343 -0.1831  0.5633
 8040SOL    HW135582   2.122   0.166   3.924  1.5161  0.8722 -0.7729
 8040SOL    HW235583   2.148   0.048   3.838 -3.2008 -2.2525 -1.1227
 8041SOL     OW35584   0.486   4.081   1.717  0.4250 -0.0402 -0.0065
 8041SOL    HW135585   0.565   4.127   1.687  0.3080 -0.0550 -0.3315
 8041SOL    HW235586   0.503   4.057   1.808  1.0758 -0.9843 -0.3817
 8042SOL     OW35587   1.560   3.808   4.110  0.0024  0.2255  0.2145
 8042SOL    HW135588   1.475   3.852   4.116  0.3539  0.9187  0.1083
 8042SOL    HW235589   1.616   3.869   4.158  1.5712 -1.8972  1.1010
 8043SOL     OW35590   0.874   4.585   7.902 -0.3241  0.4725 -0.0009
 8043SOL    HW135591   0.870   4.665   7.849  1.4661  0.9073  0.5128
 8043SOL    HW235592   0.969   4.577   7.907 -0.6814 -2.6332  2.0211
 8044SOL     OW35593   2.678   0.912   2.240  0.4989 -0.1675  0.0456
 8044SOL    HW135594   2.743   0.842   2.250  0.3112 -0.1366  1.4557
 8044SOL    HW235595   2.700   0.965   2.316 -1.8335 -0.6117  1.0019
 8045SOL     OW35596   0.980   2.059   7.019  0.6395  0.2378 -0.3143
 8045SOL    HW135597   1.011   2.112   6.946 -0.7279 -1.4629 -2.1192
 8045SOL    HW235598   0.912   2.115   7.056  2.3651  2.0150  0.1590
 8046SOL     OW35599   1.721   3.219   9.033  0.4335  0.0300 -0.2130
 8046SOL    HW135600   1.703   3.162   9.108  0.1738 -1.6515 -1.5676
 8046SOL    HW235601   1.761   3.296   9.073  0.1330  0.4099 -0.6345
 8047SOL     OW35602   1.279   3.567   2.664 -0.0705  0.6259  0.1514
 8047SOL    HW135603   1.304   3.476   2.675  0.5879  0.8092  0.2275
 8047SOL    HW235604   1.204   3.580   2.721 -0.5018  0.7821 -0.4522
 8048SOL     OW35605   1.133   2.417   5.829  0.2115 -0.4746 -0.4673
 8048SOL    HW135606   1.047   2.455   5.850 -0.0175 -1.1118 -0.2796
 8048SOL    HW235607   1.106   2.326   5.826 -0.5012 -0.3271  1.3196
 8049SOL     OW35608   2.430   3.697   6.989  0.0305  0.2816  0.0109
 8049SOL    HW135609   2.497   3.736   6.934  0.0456  0.4067  0.1171
 8049SOL    HW235610   2.465   3.706   7.078 -0.4293  1.1869  0.1059
 8050SOL     OW35611   2.675   2.907   3.496  0.4612  0.5841 -0.5123
 8050SOL    HW135612   2.662   2.956   3.414  0.2328  0.8831 -0.2944
 8050SOL    HW235613   2.708   2.972   3.558  1.9471 -0.1407 -0.5170
 8051SOL     OW35614   4.546   2.845  16.309 -0.8110 -0.1912 -0.2060
 8051SOL    HW135615   4.489   2.793  16.366  0.7305  0.1230  1.6159
 8051SOL    HW235616   4.632   2.803  16.314 -0.7141  0.1914  1.2190
 8052SOL     OW35617   4.232   3.405   1.538  0.5600  0.2534 -0.1338
 8052SOL    HW135618   4.317   3.381   1.502 -0.0234 -1.0444 -0.6620
 8052SOL    HW235619   4.258   3.426   1.628 -2.2025  0.1288  0.6976
 8053SOL     OW35620   4.560   2.008   8.510  0.0741 -0.1490 -0.1144
 8053SOL    HW135621   4.625   1.954   8.554  0.4533  0.3029 -0.1177
 8053SOL    HW235622   4.546   1.950   8.435  0.4347  0.0817 -0.3623
 8054SOL     OW35623   2.155   4.467   3.268 -0.2933  0.0830 -0.0410
 8054SOL    HW135624   2.087   4.526   3.236  1.5465  1.0446 -2.2396
 8054SOL    HW235625   2.231   4.492   3.214  0.2563 -1.0520  0.2063
 8055SOL     OW35626   1.729   2.935   8.264  0.3127  0.6146 -0.4244
 8055SOL    HW135627   1.810   2.885   8.265  1.0646  1.8121 -1.8184
 8055SOL    HW235628   1.755   3.004   8.204  1.8774 -0.0181 -0.4602
 8056SOL     OW35629   3.659   0.408   3.964 -0.3702 -0.2021 -0.2343
 8056SOL    HW135630   3.719   0.409   3.890 -1.3237  1.4410 -0.9667
 8056SOL    HW235631   3.609   0.488   3.952  1.0954  0.5888 -1.0547
 8057SOL     OW35632   3.499   2.293   2.506  0.0053 -0.1825 -0.3913
 8057SOL    HW135633   3.410   2.322   2.488  0.2440 -0.5877 -2.2294
 8057SOL    HW235634   3.490   2.215   2.560 -1.3037 -0.1469 -0.5551
 8058SOL     OW35635   0.636   3.538   4.428  0.1474 -0.2687 -0.2952
 8058SOL    HW135636   0.647   3.599   4.355  1.9006 -1.6228 -1.1719
 8058SOL    HW235637   0.620   3.591   4.506  1.0534  2.0259 -1.6447
 8059SOL     OW35638   2.842   1.588   5.914 -0.7980  0.0330  0.6251
 8059SOL    HW135639   2.887   1.545   5.841  0.4119  1.8275  0.3059
 8059SOL    HW235640   2.908   1.588   5.983  0.3024  1.1494 -0.4323
 8060SOL     OW35641   3.537   3.150  12.507 -0.3897 -0.3045 -0.2810
 8060SOL    HW135642   3.456   3.194  12.481  0.4943  1.0530 -0.7249
 8060SOL    HW235643   3.501   3.061  12.509 -1.7572  0.2642  0.4347
 8061SOL     OW35644   2.648   4.417   0.468  1.0523  0.1115 -0.2667
 8061SOL    HW135645   2.704   4.485   0.430  0.4537 -0.4408 -2.1718
 8061SOL    HW235646   2.674   4.422   0.560  0.7413 -1.4242 -0.0972
 8062SOL     OW35647   0.216   3.743   4.620 -0.5323 -0.0705 -1.0945
 8062SOL    HW135648   0.219   3.651   4.594 -1.8336  0.0193 -1.5431
 8062SOL    HW235649   0.126   3.760   4.647 -0.9680  0.3448 -2.8231
 8063SOL     OW35650   4.384   2.457   8.943  0.7292  0.4928 -0.3509
 8063SOL    HW135651   4.429   2.522   8.890  0.2479  0.9761 -0.1621
 8063SOL    HW235652   4.446   2.383   8.945 -1.3187 -1.1928  0.7268
 8064SOL     OW35653   1.094   2.397   6.485  0.2765 -0.1892  0.2848
 8064SOL    HW135654   1.071   2.455   6.412  0.7638 -0.1093  0.1920
 8064SOL    HW235655   1.009   2.380   6.526 -0.4900  2.8177 -0.0674
 8065SOL     OW35656   0.020   4.599   3.235 -0.1107  0.3909  0.0878
 8065SOL    HW135657   4.714   4.581   3.322  0.3069  0.4461  0.2561
 8065SOL    HW235658   0.110   4.566   3.240 -0.7764 -1.2548  1.1003
 8066SOL     OW35659   2.224   1.138   2.227 -0.1679 -0.2757  0.6643
 8066SOL    HW135660   2.250   1.047   2.239 -0.3088 -0.3476  0.4047
 8066SOL    HW235661   2.297   1.180   2.274 -0.9070  1.5158  0.2278
 8067SOL     OW35662   4.510   2.020   5.011  0.0771 -0.0144  0.3940
 8067SOL    HW135663   4.593   2.038   5.054  0.2406 -1.2598  0.5940
 8067SOL    HW235664   4.481   1.945   5.063 -1.3553 -0.0061 -0.3976
 8068SOL     OW35665   2.073   3.900   5.195 -0.4652 -0.1713  0.5130
 8068SOL    HW135666   2.039   3.987   5.174  1.6028  0.2982 -0.9201
 8068SOL    HW235667   1.990   3.857   5.175 -0.0256 -0.9799  0.4554
 8069SOL     OW35668   3.031   0.661  15.962  0.1368  0.4821 -0.0797
 8069SOL    HW135669   3.119   0.624  15.956 -0.1375 -0.0308 -0.9752
 8069SOL    HW235670   3.042   0.721  16.036 -0.6131 -0.7993  1.0908
 8070SOL     OW35671   0.415   2.693  11.339  0.0811  1.1174 -0.4793
 8070SOL    HW135672   0.382   2.665  11.424  1.7400  1.8982  0.4314
 8070SOL    HW235673   0.329   2.720  11.308 -0.1577 -0.4937 -1.2259
 8071SOL     OW35674   0.987   1.853  13.673  0.2283 -0.2492 -0.0641
 8071SOL    HW135675   1.078   1.871  13.651  0.5113 -1.3691  0.2079
 8071SOL    HW235676   0.951   1.941  13.665 -1.1672 -0.8110  0.0275
 8072SOL     OW35677   4.714   1.520   8.913  0.1534 -0.1613  0.1782
 8072SOL    HW135678   4.687   1.456   8.979 -0.9768  0.3695  0.2433
 8072SOL    HW235679   0.001   1.602   8.962 -1.3353  2.2102 -3.3679
 8073SOL     OW35680   0.059   0.624  11.768  0.4491  0.5272  0.1549
 8073SOL    HW135681   0.013   0.560  11.822  2.5038 -0.4905  0.7013
 8073SOL    HW235682   0.121   0.565  11.724 -0.1997 -0.1811  0.1896
 8074SOL     OW35683   3.195   3.456   3.075  0.0808 -0.2803 -0.5376
 8074SOL    HW135684   3.105   3.440   3.047 -0.2656  1.6165 -0.5566
 8074SOL    HW235685   3.183   3.478   3.168  0.1124 -2.5397 -0.0194
 8075SOL     OW35686   2.533   0.750   5.408 -0.3250 -0.3873  0.5921
 8075SOL    HW135687   2.522   0.741   5.503 -0.2781 -0.0289  0.6332
 8075SOL    HW235688   2.588   0.673   5.404  4.3589  3.1745 -2.7731
 8076SOL     OW35689   2.920   0.281   3.800  0.5621 -0.4084 -0.3478
 8076SOL    HW135690   2.960   0.367   3.790  0.5835 -0.3026  0.6270
 8076SOL    HW235691   2.825   0.290   3.795  0.6903  1.5174  0.8271
 8077SOL     OW35692   2.041   1.637   7.126 -0.2759  0.4430 -0.4715
 8077SOL    HW135693   2.023   1.726   7.158 -1.3703 -0.4095  1.3157
 8077SOL    HW235694   1.950   1.610   7.111 -0.5566  1.8461 -1.2973
 8078SOL     OW35695   1.077   3.574   9.389 -0.1766 -0.2603 -0.2813
 8078SOL    HW135696   1.005   3.514   9.410 -1.4540  0.9758 -1.0693
 8078SOL    HW235697   1.058   3.645   9.450 -0.0667  0.7092 -1.3850
 8079SOL     OW35698   2.004   4.033   2.202 -0.5598  0.2124 -0.2027
 8079SOL    HW135699   2.041   4.076   2.125  1.4134 -1.7070 -0.3457
 8079SOL    HW235700   2.069   4.067   2.263 -0.3012  1.6065 -1.2626
 8080SOL     OW35701   1.431   3.373  15.144 -0.4542  0.7053 -0.6486
 8080SOL    HW135702   1.458   3.300  15.200  1.0069  0.7615 -1.2731
 8080SOL    HW235703   1.354   3.403  15.192  1.7744  0.5664  3.0048
 8081SOL     OW35704   2.408   3.022   1.993  0.0494 -0.3234 -0.1666
 8081SOL    HW135705   2.325   2.992   1.956 -0.0749 -1.8504  1.3342
 8081SOL    HW235706   2.409   3.110   1.954 -0.5278 -0.2632 -0.0435
 8082SOL     OW35707   3.530   4.040  16.041  0.3796  0.3488  0.0380
 8082SOL    HW135708   3.481   4.090  16.106 -1.8807 -1.4471 -0.2741
 8082SOL    HW235709   3.600   4.020  16.103 -0.6172  2.4899  1.8352
 8083SOL     OW35710   1.603   0.796   3.530 -0.2445  0.2464  0.0612
 8083SOL    HW135711   1.599   0.890   3.516  2.4203  0.5133  1.1057
 8083SOL    HW235712   1.535   0.780   3.596 -0.3110  1.4844  0.2825
 8084SOL     OW35713   2.300   3.203   4.916 -0.3012 -0.2521  0.5522
 8084SOL    HW135714   2.372   3.246   4.871  0.2242 -1.6509  0.0571
 8084SOL    HW235715   2.228   3.267   4.917  0.3776  0.5185 -0.6657
 8085SOL     OW35716   1.221   2.977   0.346  0.6403 -0.1006  0.5513
 8085SOL    HW135717   1.259   3.020   0.423  2.7966 -0.1092 -0.4986
 8085SOL    HW235718   1.172   3.043   0.297  0.8583 -0.2813  0.0833
 8086SOL     OW35719   4.317   3.772   6.965 -0.1856  0.3912 -0.3821
 8086SOL    HW135720   4.339   3.773   7.058  0.4816 -0.0383 -0.5326
 8086SOL    HW235721   4.251   3.840   6.957 -0.4576  0.2155  0.3557
 8087SOL     OW35722   1.426   1.812   9.065  0.0424 -0.1533  0.0293
 8087SOL    HW135723   1.366   1.759   9.118  3.3055 -1.8068  2.0906
 8087SOL    HW235724   1.361   1.861   9.015  0.8801 -0.9012 -1.7976
 8088SOL     OW35725   3.232   1.880   5.583 -0.3221 -0.1271 -0.8442
 8088SOL    HW135726   3.320   1.916   5.571 -0.2366  0.7553  2.5685
 8088SOL    HW235727   3.182   1.939   5.526 -1.0312 -1.1226 -1.2546
 8089SOL     OW35728   3.210   3.261  17.180  0.0684  0.3635 -0.4501
 8089SOL    HW135729   3.270   3.304  17.241  1.0564 -2.9401  0.9513
 8089SOL    HW235730   3.145   3.216  17.235 -1.9233  0.6996 -2.5721
 8090SOL     OW35731   1.079   1.644   1.239  0.1812 -0.2591 -0.1479
 8090SOL    HW135732   1.077   1.551   1.261 -0.6860  0.0737  1.2271
 8090SOL    HW235733   0.986   1.667   1.240  0.4001  0.5903  2.5936
 8091SOL     OW35734   4.408   1.660  16.788 -0.2293 -0.3478  0.1341
 8091SOL    HW135735   4.395   1.696  16.700 -0.5759 -2.3200 -0.6203
 8091SOL    HW235736   4.472   1.725  16.814 -1.8377  2.3084 -2.5057
 8092SOL     OW35737   2.046   4.186  13.324 -0.1038  0.2186  0.1445
 8092SOL    HW135738   2.024   4.097  13.296 -1.8111  0.0720  1.9807
 8092SOL    HW235739   2.128   4.176  13.373 -0.2985 -2.4013 -0.0509
 8093SOL     OW35740   1.403   4.320   0.825 -0.4546  0.5086  0.2421
 8093SOL    HW135741   1.437   4.273   0.749  0.2881  1.7462 -0.1970
 8093SOL    HW235742   1.327   4.268   0.849  1.2105 -2.1064 -0.1273
 8094SOL     OW35743   2.587   3.218   0.038  0.0345 -0.2364  0.3821
 8094SOL    HW135744   2.565   3.214  17.653  2.7034  1.3836 -0.3048
 8094SOL    HW235745   2.680   3.239   0.037 -0.4415  1.9117  0.7128
 8095SOL     OW35746   0.817   3.887   3.067 -0.4625 -0.6154 -0.2767
 8095SOL    HW135747   0.764   3.862   3.143  0.6057 -0.3883  0.5583
 8095SOL    HW235748   0.847   3.808   3.024  0.3360  0.4750 -1.7284
 8096SOL     OW35749   0.893   4.318   8.348  0.4412  0.0951 -0.2482
 8096SOL    HW135750   0.988   4.307   8.340  0.5808  0.9826  0.1775
 8096SOL    HW235751   0.866   4.403   8.316 -1.4438 -0.0471  0.9986
 8097SOL     OW35752   2.444   3.001  12.668  0.2413  0.3650  0.3446
 8097SOL    HW135753   2.492   3.008  12.586 -0.4010 -1.8394 -0.2161
 8097SOL    HW235754   2.489   2.929  12.712  1.3911  0.9947  0.2034
 8098SOL     OW35755   2.435   2.852   3.800  0.7481 -0.4359 -0.1930
 8098SOL    HW135756   2.401   2.864   3.712  3.1553  1.3289 -0.9068
 8098SOL    HW235757   2.490   2.774   3.797  0.5310 -0.7470  3.5683
 8099SOL     OW35758   1.719   3.025  11.608 -0.2828 -0.1234 -1.0539
 8099SOL    HW135759   1.675   2.983  11.682 -0.1476 -0.6464 -1.2645
 8099SOL    HW235760   1.795   3.065  11.650 -2.2228  0.2929  2.0427
 8100SOL     OW35761   0.201   1.041   7.565  0.1603 -0.3545 -0.4042
 8100SOL    HW135762   0.179   1.134   7.569 -2.2050 -0.8852 -0.9888
 8100SOL    HW235763   0.280   1.052   7.618 -0.4954  2.2906  0.0245
 8101SOL     OW35764   3.775   3.970   5.356  0.7012  0.2290 -0.3293
 8101SOL    HW135765   3.743   3.882   5.376 -1.5051  0.7076 -1.7410
 8101SOL    HW235766   3.850   3.986   5.412  0.8116  1.6817 -0.8991
 8102SOL     OW35767   3.864   1.897   1.835  0.3908 -0.5486 -0.8577
 8102SOL    HW135768   3.918   1.930   1.907 -1.5677 -1.3555  0.9661
 8102SOL    HW235769   3.792   1.857   1.882 -0.1635 -0.8112 -1.9404
 8103SOL     OW35770   4.448   2.922   0.142  0.4222  0.1778  0.3991
 8103SOL    HW135771   4.412   2.955   0.224  0.3312  1.3360 -0.1052
 8103SOL    HW235772   4.527   2.977   0.142  0.5122  0.0606 -4.0439
 8104SOL     OW35773   3.071   2.941   2.154  0.1164  0.1423  0.1439
 8104SOL    HW135774   3.063   2.980   2.240  2.0773 -0.0932  0.4498
 8104SOL    HW235775   3.010   2.868   2.157 -0.3660  0.5828  0.9830
 8105SOL     OW35776   0.432   1.203   6.917 -0.3455  0.0289 -0.0798
 8105SOL    HW135777   0.386   1.156   6.987 -0.6728  0.6387  0.1141
 8105SOL    HW235778   0.412   1.296   6.930 -0.7665  0.0349 -0.7836
 8106SOL     OW35779   2.635   4.572  10.955  0.4957  0.6313  0.5444
 8106SOL    HW135780   2.658   4.661  10.927 -2.2645  1.2561  0.2431
 8106SOL    HW235781   2.710   4.551  11.011  0.1713  0.1985  0.8143
 8107SOL     OW35782   3.928   2.963   5.575 -0.2701  0.0730 -0.3908
 8107SOL    HW135783   3.842   2.986   5.539 -0.7050 -1.6835 -0.4935
 8107SOL    HW235784   3.902   2.980   5.666  0.4135 -3.0326  0.4060
 8108SOL     OW35785   0.033   3.268   8.544  0.1403  0.0467  0.1755
 8108SOL    HW135786   0.024   3.358   8.573 -0.0045  0.5131 -1.3070
 8108SOL    HW235787   4.665   3.250   8.546 -0.0431  1.0113  0.3077
 8109SOL     OW35788   1.994   0.964  15.887  0.3373  0.1634 -0.2343
 8109SOL    HW135789   2.036   1.048  15.873  0.3278  0.3472  0.8871
 8109SOL    HW235790   2.059   0.920  15.941  0.7660 -0.4418 -1.2388
 8110SOL     OW35791   1.363   2.474   2.042  0.2029  0.0231  0.0419
 8110SOL    HW135792   1.430   2.528   2.083  2.3704 -3.3923  0.9317
 8110SOL    HW235793   1.365   2.395   2.095  0.6959 -0.9586 -1.4404
 8111SOL     OW35794   0.776   0.697   1.909  0.3573 -0.9268  0.3341
 8111SOL    HW135795   0.702   0.678   1.966  0.7668  1.3538  1.6002
 8111SOL    HW235796   0.811   0.774   1.954  2.5075 -1.0494 -1.1522
 8112SOL     OW35797   4.246   4.477   1.775  0.0872  0.2041 -0.3706
 8112SOL    HW135798   4.275   4.394   1.812 -0.0137 -1.1162 -3.2485
 8112SOL    HW235799   4.326   4.511   1.734  2.6284 -2.2093  2.6949
 8113SOL     OW35800   1.247   1.494   6.098  0.1830 -0.3495  0.1722
 8113SOL    HW135801   1.280   1.446   6.022 -1.5629 -2.7886  0.9393
 8113SOL    HW235802   1.155   1.475   6.082 -0.0027  0.1795  0.5906
 8114SOL     OW35803   3.160   1.861  11.959  0.6644 -0.0805  0.2292
 8114SOL    HW135804   3.208   1.944  11.960  0.7309 -0.1404  3.7269
 8114SOL    HW235805   3.179   1.823  11.873  0.3389  1.5291 -0.5573
 8115SOL     OW35806   0.959   2.209   2.965  0.4458  0.0954  0.0624
 8115SOL    HW135807   0.992   2.120   2.956 -0.3320 -0.3627  1.6296
 8115SOL    HW235808   0.883   2.205   2.907  0.1068  1.4866  0.4067
 8116SOL     OW35809   1.678   2.400   5.961 -0.3757  0.1776 -0.4259
 8116SOL    HW135810   1.582   2.401   5.969 -0.4793 -2.3062 -1.3793
 8116SOL    HW235811   1.688   2.311   5.996 -1.5168 -0.2834 -1.2526
 8117SOL     OW35812   1.099   2.032   7.666  0.6352  0.7268  0.0509
 8117SOL    HW135813   1.161   1.969   7.703  0.6459 -0.0430 -1.2746
 8117SOL    HW235814   1.068   2.079   7.743  0.5027  0.5358  0.1143
 8118SOL     OW35815   1.839   0.736   4.183  0.6663 -0.1485 -0.1478
 8118SOL    HW135816   1.805   0.649   4.160  0.5722 -0.4577  1.1270
 8118SOL    HW235817   1.817   0.777   4.100  0.2680 -0.1167 -0.0283
 8119SOL     OW35818   1.165   3.985   8.743 -0.4838  0.1682  0.0951
 8119SOL    HW135819   1.107   3.959   8.672  1.9224 -1.8549 -1.1392
 8119SOL    HW235820   1.219   3.907   8.745  1.5725  1.6474  2.6517
 8120SOL     OW35821   1.447   4.154   7.469  0.0095 -0.2326 -0.3711
 8120SOL    HW135822   1.354   4.145   7.447  0.3017 -0.0945 -1.6499
 8120SOL    HW235823   1.478   4.075   7.426  1.4984  0.2023 -0.1131
 8121SOL     OW35824   1.412   4.595   3.444 -0.1925 -0.4339 -0.2292
 8121SOL    HW135825   1.501   4.568   3.418  0.6161 -1.3530  3.4719
 8121SOL    HW235826   1.437   4.657   3.512 -3.1835  0.5666 -0.0722
 8122SOL     OW35827   4.057   3.817   6.021  0.2473  0.0989  0.3716
 8122SOL    HW135828   4.029   3.765   5.946 -0.1612  0.0294  0.5730
 8122SOL    HW235829   3.978   3.871   6.028  0.3995  0.3905 -0.1438
 8123SOL     OW35830   0.729   2.598   3.466  0.2843 -1.0525 -0.1588
 8123SOL    HW135831   0.658   2.596   3.402  0.8971 -0.6669 -0.8599
 8123SOL    HW235832   0.789   2.536   3.424  1.5658 -0.3415  0.6303
 8124SOL     OW35833   3.441   2.932   9.680 -0.4143 -0.8139 -0.4719
 8124SOL    HW135834   3.479   2.850   9.714  1.0472 -0.9062 -2.3049
 8124SOL    HW235835   3.355   2.919   9.720 -0.1747 -1.3375 -0.1266
 8125SOL     OW35836   1.914   1.331   3.176  0.0276 -0.3298 -0.4575
 8125SOL    HW135837   1.915   1.427   3.168 -3.3864 -0.3736 -1.3911
 8125SOL    HW235838   1.997   1.321   3.222  0.0579 -1.8470 -0.8542
 8126SOL     OW35839   3.141   3.376   4.115  0.0889 -0.3256 -0.2086
 8126SOL    HW135840   3.102   3.439   4.176 -0.7865 -2.1212  1.1078
 8126SOL    HW235841   3.167   3.436   4.045  1.6045 -1.6491 -0.7677
 8127SOL     OW35842   2.204   3.652  16.298 -0.2520  0.1113 -0.0167
 8127SOL    HW135843   2.127   3.630  16.245  0.4366 -0.3325 -0.8463
 8127SOL    HW235844   2.220   3.746  16.292 -1.7710  0.3612 -0.2514
 8128SOL     OW35845   0.132   0.025  15.205  0.4296 -0.3420  0.0645
 8128SOL    HW135846   0.192   0.067  15.144  1.8059  0.7296  2.1694
 8128SOL    HW235847   0.103   4.678  15.152  0.3497 -0.7928  0.7264
 8129SOL     OW35848   2.322   0.665   2.962  0.4441  0.3506 -0.1264
 8129SOL    HW135849   2.347   0.696   2.875 -1.3838 -2.1368 -1.5533
 8129SOL    HW235850   2.408   0.637   2.994 -0.1604 -0.5628  0.7035
 8130SOL     OW35851   1.643   3.782   8.909 -0.9742  0.2806  0.6916
 8130SOL    HW135852   1.569   3.776   8.969  0.2855 -4.4752  1.7196
 8130SOL    HW235853   1.682   3.695   8.915  0.4656  0.7597 -1.7279
 8131SOL     OW35854   1.057   0.839   2.700 -0.0196 -0.1308 -0.1708
 8131SOL    HW135855   1.116   0.778   2.655  0.4702 -0.7110  1.2508
 8131SOL    HW235856   1.102   0.825   2.783  0.7131 -0.9898 -0.7024
 8132SOL     OW35857   1.535   3.799   6.055  0.1224 -0.1347  0.2132
 8132SOL    HW135858   1.541   3.783   5.960 -0.1882 -0.7015  0.2898
 8132SOL    HW235859   1.554   3.717   6.101  1.3579  0.1232  0.1718
 8133SOL     OW35860   1.408   3.195   1.435 -0.1836  0.2717 -0.6667
 8133SOL    HW135861   1.317   3.207   1.461  0.1375  1.8206 -0.2891
 8133SOL    HW235862   1.448   3.152   1.511 -3.0583  0.7329  1.1096
 8134SOL     OW35863   2.233   1.933   5.613 -0.2965  0.4251  0.0573
 8134SOL    HW135864   2.325   1.908   5.625 -1.0083 -1.7472  0.8945
 8134SOL    HW235865   2.190   1.848   5.618  1.2522 -0.3922 -0.4143
 8135SOL     OW35866   3.394   4.475  11.706 -0.5034 -0.0932  0.7321
 8135SOL    HW135867   3.395   4.516  11.619 -0.1992 -1.2013  0.2078
 8135SOL    HW235868   3.453   4.530  11.756  0.1830 -1.0320  0.9569
 8136SOL     OW35869   2.304   2.031   6.744 -0.0665  0.1564  0.1929
 8136SOL    HW135870   2.225   1.983   6.720 -1.8644  2.0801  2.2473
 8136SOL    HW235871   2.295   2.032   6.840 -0.1234  1.0080  0.1717
 8137SOL     OW35872   3.958   3.165  12.420 -0.2235 -0.0812 -0.2668
 8137SOL    HW135873   4.018   3.093  12.436  1.6413  1.7152  0.8724
 8137SOL    HW235874   3.977   3.170  12.326 -0.8925 -0.3912 -0.4201
 8138SOL     OW35875   3.332   1.439  17.257  0.3787 -0.3691 -0.4836
 8138SOL    HW135876   3.316   1.347  17.237  1.5560 -1.5974  4.0821
 8138SOL    HW235877   3.244   1.475  17.255  0.6110  0.3486  2.0500
 8139SOL     OW35878   2.965   1.751   6.946 -0.4783 -0.2552  0.1599
 8139SOL    HW135879   3.020   1.673   6.947  0.4114  0.4093  2.1825
 8139SOL    HW235880   3.029   1.818   6.969 -0.0759 -0.5736 -0.0308
 8140SOL     OW35881   0.299   3.911  12.794 -0.2081 -0.0936  0.1662
 8140SOL    HW135882   0.368   3.952  12.847 -1.1905  2.3631 -0.5125
 8140SOL    HW235883   0.264   3.847  12.857 -0.9211  1.2777  1.1460
 8141SOL     OW35884   3.827   3.582   1.198 -0.4351 -0.1753 -0.4390
 8141SOL    HW135885   3.776   3.556   1.122 -1.9074 -1.2914  0.9085
 8141SOL    HW235886   3.837   3.496   1.240 -0.2305 -1.0125 -2.1926
 8142SOL     OW35887   2.353   1.691  16.986  0.1109  0.6505 -0.0434
 8142SOL    HW135888   2.441   1.719  17.011 -0.0860  0.5772  0.7536
 8142SOL    HW235889   2.382   1.671  16.897 -1.6861  0.2156 -0.5255
 8143SOL     OW35890   0.853   4.451   4.263 -0.1070 -0.0388  0.6717
 8143SOL    HW135891   0.931   4.415   4.305  2.1387  2.3643 -1.4217
 8143SOL    HW235892   0.880   4.445   4.171 -0.1153  0.5859  0.6305
 8144SOL     OW35893   3.888   4.590   8.142  0.4180 -0.0501 -0.0490
 8144SOL    HW135894   3.864   4.545   8.223  0.8196 -1.7297 -0.8672
 8144SOL    HW235895   3.806   4.631   8.113  0.3217 -0.8874 -0.9549
 8145SOL     OW35896   1.695   3.766   7.729 -0.1363  0.1201 -0.0702
 8145SOL    HW135897   1.738   3.680   7.735 -0.0589  0.4511  3.7806
 8145SOL    HW235898   1.653   3.775   7.643  0.5172  0.9130 -0.3063
 8146SOL     OW35899   2.532   4.133  14.085  0.4797  0.3775 -0.0103
 8146SOL    HW135900   2.480   4.089  14.152 -1.8134  2.6021 -0.3397
 8146SOL    HW235901   2.545   4.058  14.027  0.6445  1.1860 -1.0088
 8147SOL     OW35902   4.317   2.474   1.289  0.2844  0.0175  0.1406
 8147SOL    HW135903   4.236   2.428   1.310  1.5381 -2.7831 -1.2218
 8147SOL    HW235904   4.376   2.400   1.302  0.9925  0.5796  0.1314
 8148SOL     OW35905   3.918   3.378   7.590  0.8747 -0.6154  0.5571
 8148SOL    HW135906   3.929   3.388   7.495  1.0402 -0.9566  0.5427
 8148SOL    HW235907   3.952   3.460   7.625 -0.9820  0.7470 -0.7692
 8149SOL     OW35908   0.464   0.002   2.303  0.6949  0.6263  0.4107
 8149SOL    HW135909   0.397   0.026   2.240  0.7264  0.4665  0.3156
 8149SOL    HW235910   0.493   4.639   2.286 -0.2313  0.6821 -1.3729
 8150SOL     OW35911   2.635   3.748   3.998 -0.2714 -0.1125 -0.0782
 8150SOL    HW135912   2.728   3.753   4.021  0.0940  0.5538 -1.6430
 8150SOL    HW235913   2.604   3.832   4.031  1.0362  0.1098  0.5677
 8151SOL     OW35914   4.344   1.682  14.469  0.0611  0.1436  0.1814
 8151SOL    HW135915   4.297   1.758  14.435  1.0943 -0.2576 -2.0748
 8151SOL    HW235916   4.295   1.610  14.428 -1.4888  0.7420  0.9643
 8152SOL     OW35917   3.027   0.931  13.229 -0.1985  0.5671 -0.4383
 8152SOL    HW135918   3.020   0.836  13.225  0.1101  0.5054  0.4967
 8152SOL    HW235919   2.975   0.950  13.307  0.4188  1.6042 -0.2784
 8153SOL     OW35920   0.514   2.051   4.535  0.2529 -0.4074  0.3168
 8153SOL    HW135921   0.462   2.032   4.457  1.8003  1.4577 -1.1904
 8153SOL    HW235922   0.452   2.012   4.596 -1.1681  2.8008  0.9248
 8154SOL     OW35923   3.483   3.516   8.860 -0.2666 -0.5047 -0.3305
 8154SOL    HW135924   3.408   3.472   8.820  0.5449 -0.1631 -2.2037
 8154SOL    HW235925   3.525   3.553   8.783 -2.1745 -2.2494 -2.2266
 8155SOL     OW35926   0.142   3.523   4.470 -0.0039  0.0747 -0.7533
 8155SOL    HW135927   0.137   3.554   4.380 -1.9559  1.8881  0.0024
 8155SOL    HW235928   0.066   3.465   4.469  1.8518 -2.4197  0.7865
 8156SOL     OW35929   1.694   2.993   8.587 -0.0072 -0.7687 -0.3820
 8156SOL    HW135930   1.729   3.018   8.672 -1.3754  1.2887 -0.4142
 8156SOL    HW235931   1.779   2.984   8.545 -0.3794 -0.8926 -1.1178
 8157SOL     OW35932   2.418   0.695  16.337 -0.2116  0.0527 -0.3640
 8157SOL    HW135933   2.502   0.714  16.295  0.1175  1.5176  0.9180
 8157SOL    HW235934   2.451   0.673  16.425  1.7012 -1.5175 -1.4723
 8158SOL     OW35935   0.921   3.484  13.972 -0.2449  0.6361 -0.4343
 8158SOL    HW135936   0.978   3.415  14.008  0.1118  0.9285 -0.4414
 8158SOL    HW235937   0.839   3.438  13.952 -0.1983  0.3785 -0.0256
 8159SOL     OW35938   2.716   2.083   3.115 -0.2573 -0.0963  0.5586
 8159SOL    HW135939   2.711   2.178   3.110 -1.2185 -0.2557 -1.5193
 8159SOL    HW235940   2.673   2.068   3.199 -2.0138 -0.6782 -0.4437
 8160SOL     OW35941   3.222   0.394   5.253 -0.1400 -0.1274 -0.3180
 8160SOL    HW135942   3.193   0.316   5.206  1.0279 -0.2569 -0.8092
 8160SOL    HW235943   3.216   0.463   5.187 -0.8944  1.0928  1.0228
 8161SOL     OW35944   2.955   1.066   3.234  0.4828  0.1085  0.5935
 8161SOL    HW135945   3.049   1.084   3.231  0.6541 -0.4800  2.2408
 8161SOL    HW235946   2.923   1.131   3.172 -0.6763  1.4693  2.6064
 8162SOL     OW35947   1.010   3.791   1.668  0.2387  0.4764  0.0198
 8162SOL    HW135948   0.924   3.822   1.641  1.1729  1.4176 -1.8752
 8162SOL    HW235949   0.993   3.741   1.748  1.0714  0.5977  0.2760
 8163SOL     OW35950   0.480   2.474   5.159 -0.3072 -0.1491  0.2920
 8163SOL    HW135951   0.469   2.389   5.202  0.0221 -0.1977  0.2793
 8163SOL    HW235952   0.536   2.454   5.085 -0.1768 -0.9083  0.5985
 8164SOL     OW35953   3.053   3.705   5.295 -0.2608 -0.2956 -0.7387
 8164SOL    HW135954   2.968   3.705   5.338  0.8928  3.1039  1.5360
 8164SOL    HW235955   3.028   3.707   5.203  0.3902 -1.4829 -0.9430
 8165SOL     OW35956   3.789   2.914   3.719 -0.3914  0.2813  0.2483
 8165SOL    HW135957   3.783   3.009   3.731 -1.1647  0.1675  0.7601
 8165SOL    HW235958   3.782   2.904   3.624  0.5075  0.3917  0.1664
 8166SOL     OW35959   0.170   0.022   7.736  0.2774 -0.0139  0.4879
 8166SOL    HW135960   0.193   0.018   7.643  0.0715  2.9979  0.2879
 8166SOL    HW235961   0.253   0.013   7.783  0.8056  0.4642 -0.3615
 8167SOL     OW35962   2.527   4.398   7.579  0.2195  0.7515  0.2447
 8167SOL    HW135963   2.607   4.381   7.528 -0.9295 -1.2187 -0.8988
 8167SOL    HW235964   2.557   4.475   7.627  0.6243 -0.5709  2.0993
 8168SOL     OW35965   2.159   1.536   9.538  0.4502 -0.8592  0.1155
 8168SOL    HW135966   2.107   1.577   9.469 -0.9881 -0.0584  1.6585
 8168SOL    HW235967   2.097   1.482   9.587 -0.4189 -0.9944 -1.1250
 8169SOL     OW35968   4.390   1.697   6.813  0.3712  0.1767  0.3386
 8169SOL    HW135969   4.370   1.611   6.849  3.0037 -0.6375 -0.1511
 8169SOL    HW235970   4.486   1.688   6.814  0.3170 -0.1762  2.0650
 8170SOL     OW35971   3.710   4.220   8.161  0.0285  0.1857 -0.4394
 8170SOL    HW135972   3.750   4.276   8.227 -2.4638  1.9854 -0.4571
 8170SOL    HW235973   3.644   4.283   8.132 -2.3145 -2.7030 -1.3288
 8171SOL     OW35974   1.376   3.698   2.916  0.0431 -0.2173 -0.2110
 8171SOL    HW135975   1.359   3.764   2.983 -0.6891 -1.7286  1.0887
 8171SOL    HW235976   1.468   3.680   2.932  0.0550  1.5237  1.6910
 8172SOL     OW35977   3.782   2.556   8.705 -0.2519 -0.1676 -0.4518
 8172SOL    HW135978   3.876   2.566   8.723 -0.4367  0.0280  0.3871
 8172SOL    HW235979   3.776   2.650   8.693 -0.7222 -0.0265  0.8951
 8173SOL     OW35980   3.790   2.916  10.922  0.0519 -0.0443  0.3818
 8173SOL    HW135981   3.815   2.824  10.908 -1.4353 -0.6680  1.8795
 8173SOL    HW235982   3.698   2.917  10.896  0.9036  0.4900 -2.5988
 8174SOL     OW35983   2.999   2.642  12.161 -0.2690 -0.5750  0.5785
 8174SOL    HW135984   2.958   2.625  12.246 -1.2293  0.0424  0.2316
 8174SOL    HW235985   3.030   2.554  12.137 -0.1205  0.2773 -2.3262
 8175SOL     OW35986   3.669   3.509   9.383  0.0926 -0.1260  0.6211
 8175SOL    HW135987   3.694   3.501   9.291  1.8340 -2.2330  1.2710
 8175SOL    HW235988   3.648   3.418   9.402  2.8614 -0.9776 -0.3757
 8176SOL     OW35989   3.107   0.720  16.277  0.0465 -0.5298 -0.4554
 8176SOL    HW135990   3.196   0.740  16.306  0.2810 -0.7198 -1.0443
 8176SOL    HW235991   3.059   0.787  16.324  0.8173 -0.3707  0.1074
 8177SOL     OW35992   2.623   4.245   5.493 -0.1839 -0.3352 -0.0773
 8177SOL    HW135993   2.564   4.208   5.558 -0.8086 -0.1914 -0.5679
 8177SOL    HW235994   2.601   4.337   5.480 -1.2933 -0.9326 -2.5545
 8178SOL     OW35995   4.007   1.713  16.824 -0.2158  0.1650 -0.1170
 8178SOL    HW135996   3.988   1.667  16.742 -2.1675 -2.9914  2.1370
 8178SOL    HW235997   4.030   1.800  16.791  2.3321  0.0752  1.3985
 8179SOL     OW35998   1.336   0.885   2.553 -0.2499  0.2473  0.2016
 8179SOL    HW135999   1.279   0.812   2.526 -1.6698  1.4405 -0.0393
 8179SOL    HW236000   1.330   0.888   2.648  1.2311 -1.6585  0.3618
 8180SOL     OW36001   0.211   2.581   3.136  0.2294 -0.0612  0.7259
 8180SOL    HW136002   0.273   2.616   3.200 -0.6423  0.6906  1.1465
 8180SOL    HW236003   0.161   2.520   3.189  1.4098 -1.0191  0.7491
 8181SOL     OW36004   1.312   0.380   7.022  0.4769 -0.0640  0.3191
 8181SOL    HW136005   1.365   0.331   6.959  1.2825  1.5910 -0.2914
 8181SOL    HW236006   1.381   0.444   7.040 -1.6517  1.6464  2.3013
 8182SOL     OW36007   4.450   3.887   0.304  0.4402  0.4188  0.4061
 8182SOL    HW136008   4.441   3.920   0.214  0.0967  3.6741  1.6397
 8182SOL    HW236009   4.358   3.890   0.330  0.0456  1.3193 -1.0836
 8183SOL     OW36010   0.337   2.860   5.434  0.3465 -0.3145 -0.0731
 8183SOL    HW136011   0.338   2.827   5.345 -2.2077  2.2409 -1.0406
 8183SOL    HW236012   0.348   2.955   5.426  0.6399 -0.1870  1.8096
 8184SOL     OW36013   2.466   1.056   1.389 -0.4419  0.6569  0.3542
 8184SOL    HW136014   2.507   1.049   1.303 -0.8659 -2.1658  0.3818
 8184SOL    HW236015   2.373   1.070   1.369 -0.2241  2.4494  0.5934
 8185SOL     OW36016   4.050   1.689   7.627  0.4325 -0.1925 -0.4699
 8185SOL    HW136017   4.113   1.638   7.575  2.1042  1.7134 -0.2944
 8185SOL    HW236018   4.033   1.622   7.694 -0.3483  2.0997  1.5997
 8186SOL     OW36019   0.314   1.539  11.333 -0.1557  0.2715  0.1993
 8186SOL    HW136020   0.331   1.610  11.395  0.3953 -1.4539  2.0092
 8186SOL    HW236021   0.235   1.503  11.373 -0.3526  0.9087  0.3913
 8187SOL     OW36022   4.141   2.452   3.138  0.5149 -0.0639 -0.3109
 8187SOL    HW136023   4.135   2.438   3.044  0.3594 -1.3118 -0.1113
 8187SOL    HW236024   4.049   2.463   3.162  0.7127 -0.5163  0.6698
 8188SOL     OW36025   3.603   3.816  13.969  0.0201 -0.6752 -0.0238
 8188SOL    HW136026   3.680   3.763  13.949 -0.1064 -1.4435  1.4987
 8188SOL    HW236027   3.609   3.820  14.065  0.2692  1.1480 -0.1110
 8189SOL     OW36028   3.454   0.610  17.533 -0.0306  0.3770 -0.0278
 8189SOL    HW136029   3.459   0.697  17.572 -2.6770  0.4359  0.1548
 8189SOL    HW236030   3.473   0.564  17.615  1.3336  1.8869  0.5173
 8190SOL     OW36031   1.336   2.383   7.795  0.1154 -0.5512 -0.2335
 8190SOL    HW136032   1.269   2.392   7.728 -3.1880  1.5606  3.3515
 8190SOL    HW236033   1.416   2.422   7.759  1.1540 -0.5862  2.0406
 8191SOL     OW36034   3.945   0.629  14.811  0.2025  0.7905 -0.1183
 8191SOL    HW136035   3.958   0.691  14.883  0.0978 -1.8450  2.1971
 8191SOL    HW236036   4.028   0.654  14.771  0.1006 -0.2346 -0.9539
 8192SOL     OW36037   0.671   1.663   5.972  0.4283  0.0351 -0.2745
 8192SOL    HW136038   0.683   1.594   5.907  3.3871 -2.9317  3.4561
 8192SOL    HW236039   0.601   1.624   6.025  1.1693 -0.1757  0.5429
 8193SOL     OW36040   2.360   2.241   7.190  0.5485  0.0699 -0.0902
 8193SOL    HW136041   2.345   2.305   7.259  1.0813  1.3540 -1.1346
 8193SOL    HW236042   2.452   2.214   7.197  0.2525 -0.0905  3.0659
 8194SOL     OW36043   1.177   1.083   8.519  0.0470  0.0545  0.0424
 8194SOL    HW136044   1.215   0.995   8.518  2.2003  1.0066 -2.8741
 8194SOL    HW236045   1.085   1.062   8.535 -0.6151  3.5395  0.6488
 8195SOL     OW36046   4.015   4.065   1.593  0.0437 -0.4008  0.3982
 8195SOL    HW136047   3.986   4.103   1.676 -1.2684  1.6948 -1.0205
 8195SOL    HW236048   3.930   4.069   1.549 -0.2595  3.0723  1.3459
 8196SOL     OW36049   1.500   3.339   8.901  0.3109  0.5881  0.3649
 8196SOL    HW136050   1.586   3.325   8.943 -0.4544 -0.2727  1.6460
 8196SOL    HW236051   1.523   3.333   8.808  2.0675  1.3903  0.7355
 8197SOL     OW36052   1.011   4.303   8.050  0.8722 -0.2940 -0.4309
 8197SOL    HW136053   0.981   4.393   8.064 -0.6295 -0.8930  0.2878
 8197SOL    HW236054   1.070   4.289   8.124 -2.0070 -1.6572  1.6345
 8198SOL     OW36055   1.837   0.092   6.213  0.1687 -0.1543  0.3382
 8198SOL    HW136056   1.777   0.062   6.281 -2.4013 -0.0256 -1.8810
 8198SOL    HW236057   1.909   0.117   6.271 -0.0460  2.6403 -0.6213
 8199SOL     OW36058   0.559   0.319   7.643 -0.0650 -0.1204  0.0649
 8199SOL    HW136059   0.540   0.329   7.737 -1.3651 -0.5145 -0.1541
 8199SOL    HW236060   0.517   0.398   7.609 -1.2792 -0.9762 -0.4272
 8200SOL     OW36061   4.220   0.975   2.798 -0.3387 -0.3326  0.0301
 8200SOL    HW136062   4.191   0.909   2.735 -0.1156 -1.1010  0.7431
 8200SOL    HW236063   4.202   0.927   2.879  0.6106 -1.5347 -0.4928
 8201SOL     OW36064   1.719   4.201   6.882 -0.2342  0.3074  0.6343
 8201SOL    HW136065   1.803   4.211   6.837 -0.7320  1.0461 -0.1269
 8201SOL    HW236066   1.750   4.202   6.972 -1.3128 -1.5899  1.0334
 8202SOL     OW36067   3.952   4.228   4.652  0.6551 -0.2509 -0.3238
 8202SOL    HW136068   4.010   4.271   4.715  3.1463 -1.7364 -1.6356
 8202SOL    HW236069   3.984   4.250   4.565 -0.4745 -0.3347 -0.7699
 8203SOL     OW36070   4.201   0.768   3.669 -0.7202  0.0622 -0.1938
 8203SOL    HW136071   4.293   0.792   3.677 -1.0910  1.6224 -0.6901
 8203SOL    HW236072   4.193   0.687   3.721 -1.0262 -0.5962 -1.2675
 8204SOL     OW36073   1.903   1.566  11.849  0.0480 -0.0462 -0.0367
 8204SOL    HW136074   1.869   1.476  11.857  1.2369 -0.2840  2.0795
 8204SOL    HW236075   1.989   1.552  11.888  0.4697  1.1836 -0.5342
 8205SOL     OW36076   3.184   1.095  16.323  0.4557 -0.0754  0.0041
 8205SOL    HW136077   3.147   1.027  16.380  0.5354 -0.5230 -0.4754
 8205SOL    HW236078   3.216   1.160  16.385 -0.8893  2.9841 -2.5213
 8206SOL     OW36079   1.116   4.645   7.042 -0.4311 -0.3454 -0.1154
 8206SOL    HW136080   1.021   4.646   7.051 -0.2857 -0.5144  1.6080
 8206SOL    HW236081   1.140   0.009   7.021  1.0447 -0.5429  0.7232
 8207SOL     OW36082   2.440   4.060  12.054 -0.0666  0.0621  0.0921
 8207SOL    HW136083   2.414   4.141  12.099  0.1358 -0.7251  1.6380
 8207SOL    HW236084   2.462   4.012  12.134  1.3403 -1.0492 -0.9877
 8208SOL     OW36085   1.032   4.339   6.540 -0.4979 -0.7790  0.2362
 8208SOL    HW136086   1.018   4.280   6.615  1.9138 -2.5515 -0.7105
 8208SOL    HW236087   0.956   4.318   6.485 -0.1049 -1.1156 -0.1761
 8209SOL     OW36088   3.359   0.369   4.243  0.0332  0.1948  0.7092
 8209SOL    HW136089   3.280   0.418   4.266 -0.4918  0.1229 -0.9336
 8209SOL    HW236090   3.416   0.438   4.209 -1.8606  0.0603 -2.7680
 8210SOL     OW36091   0.907   1.040   8.542 -0.3921  0.0224  0.0324
 8210SOL    HW136092   0.850   1.104   8.585  0.6079  0.4061  0.8098
 8210SOL    HW236093   0.840   0.972   8.533  1.4258 -2.1442  2.8432
 8211SOL     OW36094   2.490   0.011  12.551 -0.1953  0.0916 -0.0992
 8211SOL    HW136095   2.422   0.046  12.608 -0.1598 -0.5107  0.3073
 8211SOL    HW236096   2.457   0.033  12.464 -1.5330  0.6836  0.5641
 8212SOL     OW36097   0.362   1.650  15.097  0.3046  0.5660 -0.1075
 8212SOL    HW136098   0.345   1.592  15.023  1.2955  0.7897 -0.5210
 8212SOL    HW236099   0.444   1.694  15.074  0.4126  0.8555  0.8644
 8213SOL     OW36100   3.199   4.680   6.179  0.5659  0.7347  0.6596
 8213SOL    HW136101   3.177   4.617   6.247 -1.4959  0.1083 -0.5790
 8213SOL    HW236102   3.144   4.636   6.114  0.2319  1.5331  0.4023
 8214SOL     OW36103   1.563   4.525  17.298  0.2106 -0.3466 -0.2986
 8214SOL    HW136104   1.626   4.456  17.277  0.5427  0.0747 -0.6887
 8214SOL    HW236105   1.625   4.573  17.353  0.6431 -3.0382  1.5669
 8215SOL     OW36106   3.119   3.049   5.328 -0.3423 -0.0556 -0.4265
 8215SOL    HW136107   3.145   3.007   5.410 -1.9903 -2.6941 -1.2665
 8215SOL    HW236108   3.109   3.141   5.353 -1.2903 -0.8853  2.2520
 8216SOL     OW36109   0.785   2.446  10.485 -0.5277  0.0391  0.5665
 8216SOL    HW136110   0.862   2.486  10.445 -0.7439 -0.0432  0.0627
 8216SOL    HW236111   0.746   2.520  10.532 -1.8733  1.5221 -2.8572
 8217SOL     OW36112   2.678   1.665   6.233  0.1400 -0.0069  0.4492
 8217SOL    HW136113   2.692   1.572   6.215 -0.9341 -0.5528  2.4623
 8217SOL    HW236114   2.763   1.695   6.265 -0.3221 -0.2875  1.9168
 8218SOL     OW36115   1.675   3.293   3.812  0.1766  0.0044 -0.4920
 8218SOL    HW136116   1.647   3.312   3.901 -1.4983  2.1223 -1.4956
 8218SOL    HW236117   1.640   3.205   3.796 -0.1978  0.1818 -0.6488
 8219SOL     OW36118   3.572   3.861  16.680  0.2909  0.1650 -0.0075
 8219SOL    HW136119   3.572   3.952  16.711  0.2165 -0.6799  2.4239
 8219SOL    HW236120   3.623   3.879  16.600 -2.7402 -1.8544 -2.3782
 8220SOL     OW36121   3.254   3.789  16.231 -0.7873 -0.0054 -0.8407
 8220SOL    HW136122   3.316   3.746  16.172  1.2271  0.6855  0.7585
 8220SOL    HW236123   3.295   3.751  16.309  0.9675  1.5175 -0.9951
 8221SOL     OW36124   1.901   3.481   3.551  0.0146  0.6237 -0.2497
 8221SOL    HW136125   1.806   3.486   3.559  0.1373 -0.9275  2.1678
 8221SOL    HW236126   1.939   3.537   3.619 -1.0763 -0.3744  1.1778
 8222SOL     OW36127   3.701   2.679   9.012  0.1225  0.3697  0.1502
 8222SOL    HW136128   3.726   2.591   8.982  0.3171  0.5668 -0.2564
 8222SOL    HW236129   3.716   2.666   9.106 -3.3942 -0.3239  0.5864
 8223SOL     OW36130   0.477   1.741   4.648 -0.5169  0.2619  0.5179
 8223SOL    HW136131   0.467   1.828   4.686 -2.1434  0.6331 -0.7448
 8223SOL    HW236132   0.489   1.761   4.555  0.6895 -1.9805  0.1909
 8224SOL     OW36133   4.331   2.566   3.335  0.0762  0.4295 -0.0665
 8224SOL    HW136134   4.268   2.553   3.264 -0.3947 -2.0291  0.8146
 8224SOL    HW236135   4.405   2.579   3.276 -0.2220 -2.9223 -1.1595
 8225SOL     OW36136   1.782   2.783   2.220  0.7563 -0.7736 -0.5858
 8225SOL    HW136137   1.733   2.808   2.299  0.8951 -0.8930 -0.4630
 8225SOL    HW236138   1.865   2.827   2.240 -0.2952  0.0189  1.9936
 8226SOL     OW36139   2.020   2.300   3.456 -0.1614 -0.4165  0.2746
 8226SOL    HW136140   2.037   2.215   3.495 -2.3580 -0.5261  0.9780
 8226SOL    HW236141   1.945   2.315   3.514 -1.5112 -1.0052 -1.3177
 8227SOL     OW36142   1.694   2.965  17.244  0.2335  0.2192 -0.4124
 8227SOL    HW136143   1.662   3.054  17.231  3.2827  1.5472  1.2422
 8227SOL    HW236144   1.732   2.976  17.331 -0.4858  0.6094 -0.1522
 8228SOL     OW36145   2.933   0.763   9.537 -0.0823 -0.1637 -0.3550
 8228SOL    HW136146   2.842   0.777   9.564 -0.9114  0.5770 -3.5207
 8228SOL    HW236147   2.976   0.747   9.621  0.2265 -0.0977 -0.4987
 8229SOL     OW36148   4.134   2.479  16.077  0.3969 -0.2787  0.3901
 8229SOL    HW136149   4.103   2.414  16.014  0.0008 -0.8362  1.1560
 8229SOL    HW236150   4.051   2.487  16.124  0.7940 -0.2282  1.0783
 8230SOL     OW36151   2.799   2.700   1.549  0.7852 -0.0274  0.6450
 8230SOL    HW136152   2.741   2.662   1.615  0.3750 -0.9218 -0.2227
 8230SOL    HW236153   2.882   2.653   1.543  0.5349 -0.0490 -2.6996
 8231SOL     OW36154   2.179   0.703   1.755  0.6514  0.1659  0.2747
 8231SOL    HW136155   2.151   0.695   1.664  0.9577 -2.4306  0.4032
 8231SOL    HW236156   2.117   0.658   1.812  1.0320 -0.0005  0.5601
 8232SOL     OW36157   4.066   4.682  12.458 -0.0473  0.6426  0.5383
 8232SOL    HW136158   4.076   0.024  12.523 -1.9642  0.5579  0.9008
 8232SOL    HW236159   4.059   4.613  12.524  2.3059 -0.7811 -0.7107
 8233SOL     OW36160   3.614   3.954   0.134 -0.3156  0.2443  0.3474
 8233SOL    HW136161   3.659   4.029   0.095 -1.6070  1.0713  0.4438
 8233SOL    HW236162   3.598   3.905   0.053 -1.9567  1.1738  0.1196
 8234SOL     OW36163   1.888   4.696  13.206  0.2018  0.0686 -0.5764
 8234SOL    HW136164   1.913   4.610  13.174  0.8566  0.4028 -0.9557
 8234SOL    HW236165   1.905   4.692  13.300  1.2484  1.9577 -0.6857
 8235SOL     OW36166   2.455   2.866   1.129 -0.2412  0.3301 -0.2663
 8235SOL    HW136167   2.544   2.845   1.102  0.4381  1.4508  1.1011
 8235SOL    HW236168   2.395   2.821   1.069  1.5530 -0.4742 -1.4510
 8236SOL     OW36169   0.228   4.700   8.774  0.9771 -0.6372  0.0143
 8236SOL    HW136170   0.264   0.035   8.712 -0.0449  0.3311  0.3786
 8236SOL    HW236171   0.277   4.623   8.745  1.2514  0.3502 -2.1114
 8237SOL     OW36172   2.132   4.531  16.588 -0.2521  0.6149 -0.4210
 8237SOL    HW136173   2.054   4.493  16.627  0.4843 -0.8867 -0.4139
 8237SOL    HW236174   2.172   4.572  16.664  1.2011 -2.0692  0.2484
 8238SOL     OW36175   0.535   4.359  14.940 -0.0265 -0.0564 -0.0348
 8238SOL    HW136176   0.545   4.362  14.845  0.5840  1.8672  0.0809
 8238SOL    HW236177   0.522   4.451  14.965  2.8646  0.2663  0.2729
 8239SOL     OW36178   4.223   2.817   8.579  0.4043 -0.3173 -0.2968
 8239SOL    HW136179   4.181   2.889   8.533  0.8213 -0.8911 -1.6054
 8239SOL    HW236180   4.273   2.854   8.652  1.0027 -0.5492 -0.5865
 8240SOL     OW36181   0.338   3.512   0.763  0.0904 -0.4748 -0.2078
 8240SOL    HW136182   0.354   3.484   0.853 -0.6137 -0.5938 -0.1145
 8240SOL    HW236183   0.355   3.605   0.775 -0.3527 -0.3454 -0.5619
 8241SOL     OW36184   4.287   1.440   7.830 -0.4751 -0.0826  0.4142
 8241SOL    HW136185   4.295   1.520   7.883  1.0476 -0.2793  0.4567
 8241SOL    HW236186   4.352   1.386   7.875  0.1732  0.4341  0.0962
 8242SOL     OW36187   1.053   3.081   6.664  0.6723 -0.9857 -0.0601
 8242SOL    HW136188   1.106   3.001   6.659  2.1847 -0.0560  1.1975
 8242SOL    HW236189   1.007   3.070   6.748  0.1455  1.2485 -0.0590
 8243SOL     OW36190   2.780   1.051   2.481  0.1765 -0.1304 -0.5149
 8243SOL    HW136191   2.797   1.125   2.539  1.1750  0.3128 -1.3663
 8243SOL    HW236192   2.849   0.989   2.506  1.7598  1.3201 -1.2350
 8244SOL     OW36193   0.094   0.393   9.310  0.2385 -0.4147  0.0639
 8244SOL    HW136194   0.156   0.416   9.241  1.2437 -2.1989  0.3811
 8244SOL    HW236195   0.062   0.305   9.286 -0.6458 -0.4795  1.4742
 8245SOL     OW36196   1.136   0.092  12.889 -0.5972 -0.3475 -0.0583
 8245SOL    HW136197   1.089   0.112  12.808  1.8340  0.3953 -1.2955
 8245SOL    HW236198   1.128   4.724  12.878  0.0921 -0.1063 -2.7461
 8246SOL     OW36199   0.416   1.608   3.017 -0.7605  0.9187  0.5789
 8246SOL    HW136200   0.423   1.674   2.948 -0.1799  0.6694  0.3942
 8246SOL    HW236201   0.480   1.634   3.082 -0.2848  0.0644  0.4552
 8247SOL     OW36202   3.039   4.092  15.875  0.4528  0.2028  0.2202
 8247SOL    HW136203   3.120   4.078  15.924  1.5288  1.4410 -1.2168
 8247SOL    HW236204   2.971   4.068  15.939  1.0747  1.5728  1.3867
 8248SOL     OW36205   0.232   2.183   7.102 -0.0221 -0.3153 -0.1836
 8248SOL    HW136206   0.143   2.149   7.116 -0.4427  0.3358 -1.3053
 8248SOL    HW236207   0.244   2.179   7.007  2.2032  0.3145  0.0806
 8249SOL     OW36208   3.358   0.349  14.842  0.3049  0.1066 -0.5600
 8249SOL    HW136209   3.380   0.441  14.823  1.5890 -0.0173  0.3278
 8249SOL    HW236210   3.412   0.312  14.912 -3.8782 -3.2644  0.8686
 8250SOL     OW36211   4.395   3.082  16.298 -0.1012  0.2376 -0.2199
 8250SOL    HW136212   4.478   3.120  16.273  0.0675  0.1392  0.1844
 8250SOL    HW236213   4.422   2.990  16.292  1.5135  0.7140 -0.0014
 8251SOL     OW36214   3.177   1.138   2.338 -0.4369  0.4037  0.5502
 8251SOL    HW136215   3.249   1.188   2.297  0.3191 -0.9189  0.2658
 8251SOL    HW236216   3.150   1.090   2.260  1.0899  0.7762 -0.2225
 8252SOL     OW36217   4.726   0.496   4.625 -0.2277 -0.2390 -0.0126
 8252SOL    HW136218   4.636   0.528   4.627  0.0117  0.4416 -0.3124
 8252SOL    HW236219   4.718   0.402   4.643 -0.1877 -0.6461 -2.1504
 8253SOL     OW36220   1.602   2.417   6.981 -0.5080 -0.3394  0.3014
 8253SOL    HW136221   1.512   2.394   7.001 -0.5902 -0.5705 -0.3222
 8253SOL    HW236222   1.647   2.334   6.996  1.3028  0.5788 -0.0642
 8254SOL     OW36223   1.189   3.180  16.915 -0.2305  0.2586 -0.4834
 8254SOL    HW136224   1.145   3.106  16.956 -1.5801  0.6820 -1.1760
 8254SOL    HW236225   1.129   3.253  16.904 -0.6797 -0.1950 -1.0603
 8255SOL     OW36226   3.230   2.906   9.849 -0.3165 -0.5513  0.3263
 8255SOL    HW136227   3.147   2.940   9.882 -1.4578 -0.7554 -2.3204
 8255SOL    HW236228   3.280   2.922   9.929 -0.1017  1.3122 -0.1674
 8256SOL     OW36229   2.123   0.936   8.994  0.6291 -0.3977  0.5502
 8256SOL    HW136230   2.051   0.996   9.015  0.0247 -0.7976 -0.3885
 8256SOL    HW236231   2.093   0.874   9.061 -1.3087 -1.7601 -1.5885
 8257SOL     OW36232   3.287   0.058   8.382 -0.1493 -0.4421  0.2090
 8257SOL    HW136233   3.246   0.015   8.457 -0.2387 -0.0509  0.3845
 8257SOL    HW236234   3.320   0.134   8.430  2.5231 -0.2628 -1.9478
 8258SOL     OW36235   3.515   3.606   9.111 -0.9614 -0.7978  0.8345
 8258SOL    HW136236   3.603   3.572   9.124  0.3988  2.5541  0.5463
 8258SOL    HW236237   3.484   3.567   9.029  0.7212 -0.0726 -0.1738
 8259SOL     OW36238   2.015   2.221   2.038 -0.3471  0.3066 -0.5801
 8259SOL    HW136239   2.031   2.144   1.982  0.1895 -0.7129  0.9660
 8259SOL    HW236240   2.039   2.293   1.980  0.4897  0.1672 -0.4044
 8260SOL     OW36241   3.373   1.562  13.699 -0.4621  0.0737  0.4167
 8260SOL    HW136242   3.360   1.540  13.791 -0.4508 -1.3233  0.0898
 8260SOL    HW236243   3.284   1.587  13.675 -0.0129  2.2253  1.0583
 8261SOL     OW36244   1.703   2.710  14.917  0.2917  0.3774 -0.3467
 8261SOL    HW136245   1.640   2.640  14.937  0.5183 -0.0968 -1.3087
 8261SOL    HW236246   1.643   2.784  14.930  1.2038  0.7646  1.6898
 8262SOL     OW36247   3.102   0.535   1.581  0.1667 -0.0453  0.5225
 8262SOL    HW136248   3.186   0.526   1.626  0.0779  1.6983  1.0248
 8262SOL    HW236249   3.064   0.597   1.643  0.3298  0.3311  0.2495
 8263SOL     OW36250   1.373   3.572  13.948  0.0294  0.3649 -0.0255
 8263SOL    HW136251   1.344   3.481  13.950  0.0585  0.3748  1.3185
 8263SOL    HW236252   1.302   3.606  13.894  0.0819 -0.6035 -0.6888
 8264SOL     OW36253   2.943   0.732  10.966 -0.0745  0.1371 -0.8352
 8264SOL    HW136254   3.018   0.749  11.023 -0.9054 -0.8668  0.5397
 8264SOL    HW236255   2.921   0.821  10.937 -1.0065  0.1412 -0.1319
 8265SOL     OW36256   2.757   1.454  13.132  0.5027  0.3429 -0.2662
 8265SOL    HW136257   2.707   1.521  13.085  0.0411  0.8993  1.0054
 8265SOL    HW236258   2.743   1.375  13.079  1.3892 -1.9178  2.8484
 8266SOL     OW36259   2.488   4.329  13.805  0.8447 -0.9763  0.1532
 8266SOL    HW136260   2.496   4.354  13.713 -0.1937  1.4900  0.7224
 8266SOL    HW236261   2.438   4.248  13.795 -0.1810 -0.3610  0.2409
 8267SOL     OW36262   3.114   3.203   3.894 -0.1769  0.7270 -0.0102
 8267SOL    HW136263   3.086   3.244   3.976 -1.8978 -0.0360 -0.2225
 8267SOL    HW236264   3.189   3.159   3.934  1.2565  1.1705 -2.2157
 8268SOL     OW36265   1.046   2.425   4.766 -0.2630 -0.2185  0.7224
 8268SOL    HW136266   0.979   2.420   4.835 -0.6796 -0.7792  0.2724
 8268SOL    HW236267   0.998   2.440   4.685 -1.0633  0.0234  1.2316
 8269SOL     OW36268   3.351   1.123   6.333  0.3873 -0.1893  0.5996
 8269SOL    HW136269   3.439   1.088   6.340  0.5730  0.4534  1.5351
 8269SOL    HW236270   3.343   1.195   6.395  0.9194  0.7618 -0.4469
 8270SOL     OW36271   2.442   0.078   6.963 -0.2831  0.4667  0.3147
 8270SOL    HW136272   2.368   0.027   6.930  0.1356 -0.1094  0.2610
 8270SOL    HW236273   2.404   0.153   7.008  0.3541  0.5175  0.7570
 8271SOL     OW36274   2.294   1.374   0.344  0.4279  0.0589  0.0229
 8271SOL    HW136275   2.363   1.321   0.304  0.2406  0.7898 -1.2952
 8271SOL    HW236276   2.343   1.455   0.359  0.1456  0.3758 -0.7373
 8272SOL     OW36277   0.492   1.716   8.086  0.1633 -0.7840 -0.5573
 8272SOL    HW136278   0.457   1.805   8.096 -1.6156 -1.5335 -0.1947
 8272SOL    HW236279   0.420   1.656   8.068  0.3218 -1.1333 -0.0166
 8273SOL     OW36280   2.684   0.139   7.909 -0.0936 -0.1652  0.1848
 8273SOL    HW136281   2.658   0.048   7.896 -2.8324  0.3090  2.1173
 8273SOL    HW236282   2.753   0.125   7.975 -0.4758  2.5231  1.1655
 8274SOL     OW36283   2.094   2.528   2.948  0.0262 -0.1118 -0.6179
 8274SOL    HW136284   2.010   2.483   2.938 -0.7007  1.5180 -1.8564
 8274SOL    HW236285   2.120   2.481   3.027 -0.3112 -1.3479 -1.2264
 8275SOL     OW36286   1.491   3.194   3.384  0.1327 -0.4209 -0.1015
 8275SOL    HW136287   1.533   3.281   3.379 -1.7859  0.3979 -2.2070
 8275SOL    HW236288   1.427   3.221   3.450  1.6052  0.4082  0.9780
 8276SOL     OW36289   4.332   3.416   6.836  0.5665  0.1101  0.4283
 8276SOL    HW136290   4.387   3.368   6.897  0.1108  0.4451  1.1078
 8276SOL    HW236291   4.253   3.420   6.891 -0.7754 -1.3088 -1.3987
 8277SOL     OW36292   0.842   2.776   3.822 -0.4341  0.6342  0.2376
 8277SOL    HW136293   0.772   2.720   3.788  0.0628  0.5517 -0.6751
 8277SOL    HW236294   0.838   2.747   3.913 -0.9359 -0.0407  0.0048
 8278SOL     OW36295   0.167   1.001  11.033 -0.4113  0.3990 -0.7412
 8278SOL    HW136296   0.205   1.086  11.056 -1.5685  0.8983 -0.6518
 8278SOL    HW236297   0.158   0.958  11.118 -0.3554 -0.1318 -1.0021
 8279SOL     OW36298   1.922   2.094  10.859 -0.2394  0.4547  0.3387
 8279SOL    HW136299   1.888   2.161  10.919 -1.1531  1.8023 -1.6976
 8279SOL    HW236300   1.895   2.015  10.906 -1.7580 -0.3455 -1.9074
 8280SOL     OW36301   4.328   0.381  15.660 -0.0197 -0.3527 -0.2110
 8280SOL    HW136302   4.262   0.446  15.638  0.9844  0.8120  0.2087
 8280SOL    HW236303   4.352   0.353  15.572 -1.6285 -0.7415 -0.5191
 8281SOL     OW36304   1.808   2.246   8.528 -0.0694  0.0888 -0.1191
 8281SOL    HW136305   1.823   2.254   8.433 -0.9908  2.1369 -0.0939
 8281SOL    HW236306   1.894   2.264   8.565 -0.6737  2.0750  0.3561
 8282SOL     OW36307   3.387   1.602   9.131  0.3609  0.0504  0.0864
 8282SOL    HW136308   3.438   1.583   9.210 -1.0544 -0.6790  0.8282
 8282SOL    HW236309   3.321   1.534   9.143  2.0076 -1.8601 -1.8360
 8283SOL     OW36310   0.369   1.720   8.509 -0.1643  0.5683  0.0982
 8283SOL    HW136311   0.455   1.677   8.506 -0.7351 -0.5020 -0.8206
 8283SOL    HW236312   0.317   1.652   8.468 -1.2333  2.7745 -2.1666
 8284SOL     OW36313   4.332   1.608  12.915  0.1979  0.0823 -0.3674
 8284SOL    HW136314   4.421   1.640  12.902 -0.1461  0.5699 -1.5554
 8284SOL    HW236315   4.312   1.644  13.001  1.7213 -2.2110  0.9232
 8285SOL     OW36316   0.198   1.379   4.127 -0.2916 -0.6309  0.2953
 8285SOL    HW136317   0.206   1.304   4.067  0.9526  0.0972 -0.4583
 8285SOL    HW236318   0.109   1.412   4.113 -0.0866  0.6856  2.1960
 8286SOL     OW36319   3.828   1.936   0.332 -0.1568  0.4038 -0.2955
 8286SOL    HW136320   3.846   1.844   0.347 -1.1470  0.6282  2.2080
 8286SOL    HW236321   3.890   1.955   0.262  1.3316 -2.4269  0.2702
 8287SOL     OW36322   0.632   1.005   3.468 -0.3050  0.0052 -0.7470
 8287SOL    HW136323   0.699   1.004   3.537  1.1084  1.9578 -2.1012
 8287SOL    HW236324   0.606   1.097   3.461  0.6694  0.1929 -1.7110
 8288SOL     OW36325   0.364   4.193   4.129  0.2604 -0.3847  0.2324
 8288SOL    HW136326   0.448   4.200   4.084 -1.3940 -1.7692 -3.1127
 8288SOL    HW236327   0.314   4.145   4.063  0.2709  0.2273 -0.2214
 8289SOL     OW36328   3.288   2.796   3.673  0.2384  0.3126 -0.5183
 8289SOL    HW136329   3.211   2.783   3.728  1.0658  1.6313  0.9217
 8289SOL    HW236330   3.355   2.792   3.741 -1.2422 -1.9645  0.7949
 8290SOL     OW36331   0.044   0.905   6.237 -0.0789  0.4747  0.3485
 8290SOL    HW136332   0.107   0.955   6.290  2.2348 -0.1197 -1.8635
 8290SOL    HW236333   4.693   0.959   6.257  0.9071  1.1602  2.3586
 8291SOL     OW36334   0.675   1.964   2.632 -0.3202 -0.9547  0.0945
 8291SOL    HW136335   0.588   1.994   2.609  0.0407 -0.6585 -0.8922
 8291SOL    HW236336   0.671   1.886   2.577  1.2040 -1.9761  1.4296
 8292SOL     OW36337   0.793   2.729  11.068 -0.2450  0.1696  0.4175
 8292SOL    HW136338   0.785   2.811  11.019 -0.6960 -0.2356 -0.2005
 8292SOL    HW236339   0.700   2.714  11.088 -0.5083 -0.4602 -1.2700
 8293SOL     OW36340   4.566   1.448   2.583  0.3284 -0.0407 -0.1530
 8293SOL    HW136341   4.548   1.528   2.633  2.2535  1.2558 -1.5040
 8293SOL    HW236342   4.532   1.467   2.495  0.5034  0.6921 -0.0612
 8294SOL     OW36343   1.494   4.200  16.530 -0.1164  0.4982 -0.0694
 8294SOL    HW136344   1.522   4.113  16.559 -2.9027 -0.1080  0.7952
 8294SOL    HW236345   1.511   4.265  16.598  0.9769  0.2321 -0.0882
 8295SOL     OW36346   3.974   3.630   0.151 -0.1438  0.1354  0.1898
 8295SOL    HW136347   3.937   3.712   0.185  0.6364  1.4043 -1.9896
 8295SOL    HW236348   3.970   3.642   0.056  1.7038  1.1506  0.2407
 8296SOL     OW36349   3.020   3.896  15.455  0.2884  0.1720 -0.1090
 8296SOL    HW136350   2.932   3.895  15.416 -0.0826  0.0467  0.7274
 8296SOL    HW236351   3.005   3.973  15.511  1.1611  0.8423 -0.8040
 8297SOL     OW36352   2.700   1.672  14.070  0.1294  0.2014 -0.4899
 8297SOL    HW136353   2.695   1.607  14.000 -0.2153  0.2295 -0.4923
 8297SOL    HW236354   2.650   1.632  14.141  1.1004  0.2604  0.2185
 8298SOL     OW36355   1.071   1.530   4.781 -0.1146  0.5550  0.0816
 8298SOL    HW136356   1.042   1.600   4.724 -2.5601  0.4119  1.1394
 8298SOL    HW236357   0.988   1.485   4.798 -0.4124  1.8899  2.1442
 8299SOL     OW36358   1.502   3.389   8.006  0.0586 -0.1180  0.3742
 8299SOL    HW136359   1.482   3.469   8.055 -1.0658 -0.2486  0.1264
 8299SOL    HW236360   1.418   3.345   8.013 -0.1090 -0.0517 -1.2719
 8300SOL     OW36361   1.471   3.741   9.106 -0.0089  0.5779 -0.3478
 8300SOL    HW136362   1.441   3.683   9.176  0.9048 -0.3759 -0.7433
 8300SOL    HW236363   1.527   3.800   9.155 -0.1653 -0.9924  1.7017
 8301SOL     OW36364   4.706   3.840   1.954 -0.2122  1.0198  0.0367
 8301SOL    HW136365   0.001   3.755   1.917 -1.8408  0.8231 -0.4565
 8301SOL    HW236366   4.705   3.888   1.872  2.8267  0.8121 -0.1214
 8302SOL     OW36367   2.226   4.396  13.561 -0.6670 -0.3527  0.3422
 8302SOL    HW136368   2.198   4.428  13.647 -1.7704  0.3036 -0.2635
 8302SOL    HW236369   2.179   4.456  13.503 -1.1970 -1.6838 -0.6023
 8303SOL     OW36370   2.008   0.066  15.926 -0.7842  0.6400  0.1333
 8303SOL    HW136371   2.061   4.714  15.939 -0.0468  0.9899 -0.7941
 8303SOL    HW236372   1.975   0.081  16.015 -1.6753 -1.3394  0.1401
 8304SOL     OW36373   0.921   1.734   7.019 -0.0406 -0.0969 -0.4157
 8304SOL    HW136374   0.887   1.804   7.075 -1.3029  0.3461 -1.7287
 8304SOL    HW236375   1.004   1.771   6.992 -0.4294  1.2226  0.2044
 8305SOL     OW36376   0.505   2.998   9.652  0.2487  0.2616  0.0917
 8305SOL    HW136377   0.421   3.044   9.648 -0.0536 -0.1448  1.9922
 8305SOL    HW236378   0.556   3.037   9.580 -2.8817  1.6640 -1.3604
 8306SOL     OW36379   1.575   2.312   8.124  0.4675  0.0960 -0.0642
 8306SOL    HW136380   1.581   2.297   8.218  0.7476  0.0215 -0.0938
 8306SOL    HW236381   1.480   2.300   8.119  0.1177  3.0796 -0.3477
 8307SOL     OW36382   4.344   0.307   1.420  0.4474  0.3086  0.1898
 8307SOL    HW136383   4.374   0.257   1.496 -1.9408 -2.8428 -0.9530
 8307SOL    HW236384   4.253   0.278   1.427  0.4808 -0.6517 -3.3359
 8308SOL     OW36385   4.397   0.187   0.115 -0.1172 -0.5257  0.5760
 8308SOL    HW136386   4.402   0.138   0.197 -0.6240  1.0293  1.5526
 8308SOL    HW236387   4.468   0.251   0.118 -0.8358  0.2381  1.5204
 8309SOL     OW36388   0.435   1.588  17.563 -0.0868 -0.3720 -0.1669
 8309SOL    HW136389   0.493   1.640  17.508  0.0970 -0.5252 -0.1213
 8309SOL    HW236390   0.388   1.663  17.597 -0.6705 -0.3451 -1.0480
 8310SOL     OW36391   0.030   3.248   9.377  0.1168  0.0912 -0.1253
 8310SOL    HW136392   0.002   3.253   9.286 -0.3137  0.0210  0.0013
 8310SOL    HW236393   0.084   3.327   9.386  1.6396 -1.0394  0.5279
 8311SOL     OW36394   2.587   2.206   1.602 -0.0291  0.3310 -1.0374
 8311SOL    HW136395   2.598   2.228   1.510  2.0048  0.0325 -0.8543
 8311SOL    HW236396   2.495   2.179   1.602  0.6250 -2.0414  1.3603
 8312SOL     OW36397   2.791   2.508  16.258  0.3640  0.2262  0.6881
 8312SOL    HW136398   2.696   2.516  16.265  0.3057  1.4910 -1.2882
 8312SOL    HW236399   2.804   2.485  16.166 -1.4411  2.1411 -0.0508
 8313SOL     OW36400   4.423   1.340   5.410 -0.3800 -0.4480  0.2281
 8313SOL    HW136401   4.491   1.302   5.354 -1.1200  0.7751 -1.4897
 8313SOL    HW236402   4.392   1.261   5.455  0.9469 -0.5716  0.9341
 8314SOL     OW36403   1.597   0.128  10.670  0.0598 -0.1024  0.8405
 8314SOL    HW136404   1.525   0.092  10.722 -1.4726  2.7994  0.7429
 8314SOL    HW236405   1.564   0.102  10.584 -1.1777 -0.1562  1.3180
 8315SOL     OW36406   0.052   3.888  12.614 -0.6244 -0.3595 -0.0951
 8315SOL    HW136407   0.123   3.892  12.678  1.2672 -0.0417 -2.2249
 8315SOL    HW236408   4.702   3.915  12.666  0.7637  0.2227  1.6521
 8316SOL     OW36409   1.702   3.847  10.630 -0.0635  0.3439  0.6984
 8316SOL    HW136410   1.756   3.889  10.697  1.8846 -2.7215  1.0486
 8316SOL    HW236411   1.770   3.787  10.598 -1.3773 -0.4080 -0.6386
 8317SOL     OW36412   1.769   3.441   8.657  0.7412 -0.0459 -0.0703
 8317SOL    HW136413   1.789   3.498   8.732 -0.1975 -1.4814  1.2672
 8317SOL    HW236414   1.681   3.474   8.640  0.8690  0.2736 -0.1199
 8318SOL     OW36415   2.914   1.409   3.241 -0.2730  0.2633  0.0755
 8318SOL    HW136416   3.005   1.393   3.216  0.3057 -0.6547  2.8611
 8318SOL    HW236417   2.914   1.505   3.236 -0.7521  0.3016  0.8462
 8319SOL     OW36418   1.117   0.653   4.414  0.0071  0.1531  0.0806
 8319SOL    HW136419   1.095   0.614   4.498  0.4681 -2.3758 -0.9585
 8319SOL    HW236420   1.191   0.600   4.386  1.0601  1.7622 -0.1513
 8320SOL     OW36421   3.325   4.420   4.739  0.2834 -0.0735  0.4898
 8320SOL    HW136422   3.355   4.508   4.761 -1.4570  0.1508  1.8795
 8320SOL    HW236423   3.346   4.426   4.645  0.1429 -0.5671  0.4248
 8321SOL     OW36424   4.338   3.805   7.251 -0.2026  0.4840 -0.3224
 8321SOL    HW136425   4.424   3.766   7.265 -0.7891 -0.7745 -0.1781
 8321SOL    HW236426   4.343   3.896   7.279 -2.3619  0.6893 -0.6069
 8322SOL     OW36427   1.986   4.606  11.145  0.0353 -0.0672  0.2103
 8322SOL    HW136428   2.005   4.665  11.218  0.6783  1.4268 -1.1631
 8322SOL    HW236429   1.893   4.628  11.145  0.0481 -0.0594  3.3355
 8323SOL     OW36430   0.195   4.289   3.842 -0.4370 -0.2545  0.3952
 8323SOL    HW136431   0.142   4.232   3.897 -0.4755  1.2798  1.9292
 8323SOL    HW236432   0.212   4.361   3.902 -0.3531 -0.4375  0.5886
 8324SOL     OW36433   2.795   1.283   0.726 -0.0487  0.2336  0.0811
 8324SOL    HW136434   2.826   1.344   0.660 -0.4675  2.3768  1.8594
 8324SOL    HW236435   2.771   1.201   0.683 -1.4219  0.8679 -0.3550
 8325SOL     OW36436   4.283   1.032  15.023 -0.0093  0.0987  0.0969
 8325SOL    HW136437   4.279   0.959  15.085 -0.5412  0.2845  0.2867
 8325SOL    HW236438   4.216   1.000  14.962 -0.3591  2.3965 -0.7397
 8326SOL     OW36439   2.686   3.098   2.882 -0.8441 -0.0950 -0.1209
 8326SOL    HW136440   2.676   3.041   2.806  0.2960  0.1596 -0.4691
 8326SOL    HW236441   2.598   3.133   2.890 -1.1069  0.0205 -3.3946
 8327SOL     OW36442   4.470   3.380   1.429  0.0059  0.1066 -0.0918
 8327SOL    HW136443   4.419   3.368   1.349  1.0265  0.5660 -0.8181
 8327SOL    HW236444   4.539   3.315   1.421  0.8523  1.2691 -2.3528
 8328SOL     OW36445   2.462   0.937  15.087 -0.1404 -0.0184 -0.6061
 8328SOL    HW136446   2.514   1.017  15.078  0.3539  0.0096  2.7646
 8328SOL    HW236447   2.422   0.968  15.168 -0.3718  2.5795 -1.7125
 8329SOL     OW36448   2.414   0.335  13.493 -0.5439  0.4156  0.5388
 8329SOL    HW136449   2.507   0.326  13.474 -0.3080  0.4662  1.6476
 8329SOL    HW236450   2.390   0.421  13.459  1.4459  0.7481  0.0012
 8330SOL     OW36451   3.789   0.577   7.833 -0.2510 -0.6187  0.2537
 8330SOL    HW136452   3.702   0.538   7.844 -0.9399  0.8800  0.1899
 8330SOL    HW236453   3.785   0.610   7.743  0.5841 -0.9833  0.0787
 8331SOL     OW36454   2.831   1.119   8.050  0.1781  0.4723  0.2642
 8331SOL    HW136455   2.905   1.170   8.085  1.7302 -1.3696 -0.3875
 8331SOL    HW236456   2.861   1.029   8.061 -1.4738 -0.0349  0.5934
 8332SOL     OW36457   1.254   2.291   0.988  0.2900  0.8220 -0.0133
 8332SOL    HW136458   1.196   2.222   0.956  0.4004  2.1843 -3.1707
 8332SOL    HW236459   1.303   2.319   0.911  0.5848 -2.0989 -0.8731
 8333SOL     OW36460   3.783   3.053  11.171  0.2268 -0.0743  0.0305
 8333SOL    HW136461   3.787   3.020  11.082  0.8422  1.2799 -0.4574
 8333SOL    HW236462   3.838   2.992  11.221  0.2490  0.2101  0.3537
 8334SOL     OW36463   0.466   0.396   7.919  0.0912  0.3078  0.1536
 8334SOL    HW136464   0.387   0.444   7.947 -0.9884  0.4967 -3.2736
 8334SOL    HW236465   0.525   0.439   7.980  2.3711 -1.6510 -0.6625
 8335SOL     OW36466   4.609   2.447   7.420  0.5990  0.9142 -0.1996
 8335SOL    HW136467   4.575   2.484   7.501  0.9595 -1.6642  1.1156
 8335SOL    HW236468   4.547   2.377   7.400 -0.1535  1.0921  1.5348
 8336SOL     OW36469   0.680   2.431   3.142 -0.5676  0.4314  0.5006
 8336SOL    HW136470   0.679   2.336   3.143 -0.1931  0.4313  0.7051
 8336SOL    HW236471   0.695   2.440   3.048  0.9298 -0.6345  0.6401
 8337SOL     OW36472   3.497   2.533  13.867  0.8131  0.3697 -0.2909
 8337SOL    HW136473   3.480   2.590  13.942 -1.5031 -2.1741  1.1453
 8337SOL    HW236474   3.412   2.515  13.827 -0.3401  1.8082  1.5072
 8338SOL     OW36475   1.949   2.848   3.866 -0.0092 -0.1465 -0.2549
 8338SOL    HW136476   1.955   2.761   3.827  0.5885 -0.1655 -0.1283
 8338SOL    HW236477   1.892   2.829   3.941 -0.2279 -1.2784 -0.6977
 8339SOL     OW36478   0.855   2.459   8.309 -0.4669 -0.1145 -0.1624
 8339SOL    HW136479   0.783   2.512   8.276  0.4849  0.3449 -1.4760
 8339SOL    HW236480   0.812   2.387   8.356  0.9117 -1.5012 -0.9948
 8340SOL     OW36481   1.889   1.933   8.541  0.0481 -0.3992  0.1301
 8340SOL    HW136482   1.843   2.007   8.582 -1.2233 -0.0750 -1.8986
 8340SOL    HW236483   1.962   1.925   8.602  1.8644 -0.9635 -2.1146
 8341SOL     OW36484   0.589   2.129   1.891  0.0942  0.5046 -0.3232
 8341SOL    HW136485   0.597   2.224   1.889 -2.3971  0.7372  0.3709
 8341SOL    HW236486   0.496   2.116   1.872  0.0670 -0.1776  0.2515
 8342SOL     OW36487   3.900   2.003   4.839  0.2119  0.2912 -0.3890
 8342SOL    HW136488   3.992   1.997   4.811  0.2547 -2.6203  0.3856
 8342SOL    HW236489   3.864   2.012   4.751 -2.1432  0.4554  0.5874
 8343SOL     OW36490   4.363   0.239  15.407 -0.1672 -0.0099  0.1448
 8343SOL    HW136491   4.351   0.324  15.366  1.6654  0.3269  0.2955
 8343SOL    HW236492   4.362   0.184  15.329  0.5415 -1.5233  1.1884
 8344SOL     OW36493   1.498   1.763   0.466 -0.0452 -0.3711 -0.3091
 8344SOL    HW136494   1.433   1.764   0.537  0.1097 -0.1403 -0.1713
 8344SOL    HW236495   1.517   1.856   0.455  1.0680 -0.3399  1.9284
 8345SOL     OW36496   1.304   0.252  17.290 -0.5298 -0.7390 -0.6215
 8345SOL    HW136497   1.231   0.269  17.348 -0.7737  1.7420 -1.6783
 8345SOL    HW236498   1.339   0.341  17.284 -0.4983 -0.6973  0.1854
 8346SOL     OW36499   0.851   3.442  15.101 -0.4403  0.5700  0.3573
 8346SOL    HW136500   0.913   3.430  15.173 -0.3735 -2.8583 -0.2767
 8346SOL    HW236501   0.914   3.438  15.029 -1.0222  0.7842 -0.1623
 8347SOL     OW36502   4.191   3.287   2.024 -0.2414  0.5913  0.2119
 8347SOL    HW136503   4.149   3.373   2.030 -0.4871  0.4785  0.1238
 8347SOL    HW236504   4.206   3.273   2.118 -0.0133 -1.1412 -0.0876
 8348SOL     OW36505   3.359   2.144   8.027  0.2443  0.0897 -0.5168
 8348SOL    HW136506   3.451   2.166   8.011  0.4777  0.0777  0.8639
 8348SOL    HW236507   3.368   2.053   8.055 -0.9721  0.3790  0.8166
 8349SOL     OW36508   3.490   2.200   4.660 -0.6184  0.7127  0.9883
 8349SOL    HW136509   3.425   2.176   4.595 -0.0476  1.9555 -0.0431
 8349SOL    HW236510   3.449   2.281   4.689 -0.8029 -0.3254  3.6472
 8350SOL     OW36511   2.310   1.980  11.514  0.0436 -0.6378 -0.2151
 8350SOL    HW136512   2.321   1.902  11.459 -0.8332 -2.1573  1.7477
 8350SOL    HW236513   2.333   2.054  11.459  1.0241 -3.0156 -3.0306
 8351SOL     OW36514   3.979   4.616  12.184 -0.0569 -0.3289  0.1723
 8351SOL    HW136515   3.942   4.534  12.217  0.1066 -0.5095 -0.0891
 8351SOL    HW236516   4.010   4.644  12.270 -1.0536 -1.3781  0.8776
 8352SOL     OW36517   3.359   0.220   6.586 -0.6906 -0.6209  0.1882
 8352SOL    HW136518   3.323   0.308   6.584 -1.8916 -1.0578  2.7656
 8352SOL    HW236519   3.309   0.172   6.520 -0.4130  2.4697 -2.2326
 8353SOL     OW36520   2.703   0.260   3.016 -0.7852 -0.0721 -0.6363
 8353SOL    HW136521   2.678   0.285   2.927 -0.9434  0.0477 -0.5570
 8353SOL    HW236522   2.798   0.273   3.018 -1.0332  1.7331 -1.0230
 8354SOL     OW36523   4.676   1.384   6.654 -0.6549  0.1246 -0.3845
 8354SOL    HW136524   4.593   1.383   6.607  0.2507 -0.2994 -1.9909
 8354SOL    HW236525   4.639   1.362   6.739  0.4412 -2.0630 -0.4520
 8355SOL     OW36526   4.722   0.165   9.224 -0.3264 -0.3310  0.3449
 8355SOL    HW136527   0.012   0.113   9.145 -1.7228  0.6791 -0.6116
 8355SOL    HW236528   4.629   0.180   9.207  0.1246  0.9854 -0.9406
 8356SOL     OW36529   3.353   0.493   1.695 -0.2870  0.2899 -0.0623
 8356SOL    HW136530   3.426   0.523   1.641  0.8224 -1.4335  0.4922
 8356SOL    HW236531   3.349   0.400   1.674  1.4033 -0.1195  1.3796
 8357SOL     OW36532   0.090   2.669  15.657 -0.3713 -0.4069  0.0655
 8357SOL    HW136533   0.124   2.621  15.581 -0.4363  0.2039 -0.3425
 8357SOL    HW236534   0.152   2.741  15.662 -0.8586  0.0257 -0.1934
 8358SOL     OW36535   1.213   3.345   5.601  0.1136  0.2062  0.0211
 8358SOL    HW136536   1.140   3.339   5.663 -0.4505  1.0497 -0.5654
 8358SOL    HW236537   1.197   3.422   5.546  1.1784  1.0225  0.8457
 8359SOL     OW36538   0.047   3.316   6.835 -0.1495  0.4576  0.2039
 8359SOL    HW136539   0.071   3.374   6.907 -2.2139 -0.1210  1.3683
 8359SOL    HW236540   4.680   3.333   6.827  0.0094  1.4688  0.5224
 8360SOL     OW36541   3.117   0.208   5.651  0.1685  0.7644  0.2194
 8360SOL    HW136542   3.070   0.251   5.723 -0.8910 -0.5673  0.3330
 8360SOL    HW236543   3.053   0.151   5.608  2.1496 -1.5395  0.2983
 8361SOL     OW36544   3.320   2.051  16.357 -0.4419 -0.2465  0.2939
 8361SOL    HW136545   3.347   1.962  16.380 -1.8453 -0.3048  1.6983
 8361SOL    HW236546   3.250   2.069  16.419  0.6712  0.5077  1.3402
 8362SOL     OW36547   2.850   0.622   3.070  0.1489 -0.2645  0.0973
 8362SOL    HW136548   2.877   0.557   3.005 -0.9847  1.0094 -1.6683
 8362SOL    HW236549   2.919   0.688   3.071  0.9297 -1.0745 -2.1529
 8363SOL     OW36550   0.153   3.246  16.312  0.1603 -0.0170 -0.0982
 8363SOL    HW136551   0.136   3.329  16.267  1.0834  0.2322  0.0166
 8363SOL    HW236552   0.237   3.257  16.357  0.7298  0.4627 -1.2759
 8364SOL     OW36553   2.139   1.889  10.925 -0.0374  0.5116 -0.1918
 8364SOL    HW136554   2.079   1.869  10.997 -0.4724  1.1042 -0.3841
 8364SOL    HW236555   2.100   1.969  10.890  2.8253  2.2712  0.6801
 8365SOL     OW36556   2.211   1.414  13.467  0.4587 -0.1889  0.2603
 8365SOL    HW136557   2.285   1.451  13.419  1.3335 -2.3315 -0.0340
 8365SOL    HW236558   2.158   1.489  13.495 -0.5749  0.0348 -2.2676
 8366SOL     OW36559   3.461   1.119   1.982 -0.6592  0.1607 -0.3277
 8366SOL    HW136560   3.382   1.171   1.996 -1.0146 -0.0882 -1.4509
 8366SOL    HW236561   3.437   1.066   1.906 -0.7928 -0.5069  0.1874
 8367SOL     OW36562   2.999   4.118  16.304  0.2936  0.6003  0.1960
 8367SOL    HW136563   3.032   4.028  16.304  1.1186  0.9020 -0.5813
 8367SOL    HW236564   3.071   4.153  16.251  1.7175  3.3542  3.9695
 8368SOL     OW36565   3.901   4.298  16.975  0.2013 -0.0767  0.5956
 8368SOL    HW136566   3.883   4.386  17.007 -0.7765  0.0160 -0.2000
 8368SOL    HW236567   3.994   4.280  16.988  0.9571  2.1290 -1.8220
 8369SOL     OW36568   3.244   0.755  16.633  0.7809 -0.0835 -0.4607
 8369SOL    HW136569   3.286   0.705  16.563  0.3565  1.3353 -1.7384
 8369SOL    HW236570   3.199   0.825  16.584  2.4789  1.2941 -0.0363
 8370SOL     OW36571   1.130   0.332  11.655 -0.0708  0.6596  0.2674
 8370SOL    HW136572   1.186   0.291  11.589 -0.7885 -0.4906  0.3627
 8370SOL    HW236573   1.091   0.408  11.611  1.5687 -0.0194 -2.3720
 8371SOL     OW36574   4.266   0.810   7.296 -0.0139  0.0308 -0.5590
 8371SOL    HW136575   4.314   0.779   7.219 -1.0773  2.3870 -2.1673
 8371SOL    HW236576   4.327   0.877   7.328  0.1023 -1.0540  1.4527
 8372SOL     OW36577   2.079   1.154   0.752 -0.1670  0.5230  0.5387
 8372SOL    HW136578   2.071   1.077   0.809  0.5301 -2.3856 -3.3093
 8372SOL    HW236579   2.174   1.169   0.747  0.0040 -1.6683 -3.2380
 8373SOL     OW36580   0.826   4.324   6.339  0.8832 -0.5696  0.3310
 8373SOL    HW136581   0.832   4.388   6.269  0.7165 -2.0436 -1.0369
 8373SOL    HW236582   0.733   4.324   6.359  0.5734  0.2791 -1.1214
 8374SOL     OW36583   2.261   0.277   1.995  0.5174 -0.5084 -0.2809
 8374SOL    HW136584   2.178   0.317   2.018 -0.2099 -3.1671  1.7182
 8374SOL    HW236585   2.276   0.320   1.911 -2.5206 -2.6833 -1.9429
 8375SOL     OW36586   0.091   0.778   3.218 -0.0472 -0.5213  0.1973
 8375SOL    HW136587   0.045   0.854   3.183 -1.1251 -1.3654 -0.2429
 8375SOL    HW236588   0.062   0.715   3.151 -0.5531 -0.7181  0.6001
 8376SOL     OW36589   3.229   1.436  10.604 -0.0712 -0.2691  0.3602
 8376SOL    HW136590   3.284   1.497  10.652  0.4187  0.2654 -0.8864
 8376SOL    HW236591   3.244   1.363  10.664 -0.6236  0.0548  0.8936
 8377SOL     OW36592   1.150   1.050   7.354 -0.3440 -0.8533 -0.0834
 8377SOL    HW136593   1.177   1.032   7.264 -2.3606 -0.6535 -0.7237
 8377SOL    HW236594   1.138   1.145   7.352  2.2346 -0.5117  0.2856
 8378SOL     OW36595   2.401   0.279   5.925  0.0506  0.3943  0.3390
 8378SOL    HW136596   2.452   0.357   5.948 -1.8276  1.9648 -0.8070
 8378SOL    HW236597   2.319   0.294   5.972  0.1135  1.8935 -0.0325
 8379SOL     OW36598   2.948   3.234   2.958 -0.1177 -0.2240 -0.6151
 8379SOL    HW136599   2.943   3.247   3.052 -0.0330  0.2913 -0.6821
 8379SOL    HW236600   2.869   3.183   2.943 -0.0943 -0.5097  0.2794
 8380SOL     OW36601   0.489   4.276   3.761  0.1207  0.1031  0.2520
 8380SOL    HW136602   0.512   4.263   3.669  1.0857 -1.2361  0.6901
 8380SOL    HW236603   0.400   4.241   3.769 -0.4166  1.3598 -0.1474
 8381SOL     OW36604   3.155   1.287   2.585 -0.2357 -0.2219 -0.3495
 8381SOL    HW136605   3.156   1.237   2.503  3.5024 -0.0643 -0.3985
 8381SOL    HW236606   3.243   1.273   2.620 -1.3980 -0.9515  2.2675
 8382SOL     OW36607   4.560   0.198   8.553 -0.1504 -0.1418  0.0692
 8382SOL    HW136608   4.511   0.281   8.544  1.3019  0.5773 -1.1406
 8382SOL    HW236609   4.611   0.195   8.473 -1.8780 -1.7992 -0.9564
 8383SOL     OW36610   0.625   4.227   8.814 -0.3825 -0.4757  0.5845
 8383SOL    HW136611   0.698   4.274   8.773 -0.2816 -0.4504  0.7962
 8383SOL    HW236612   0.643   4.140   8.777  1.8369 -0.4442  1.6014
 8384SOL     OW36613   4.000   0.159   7.245 -0.2578  0.2344  0.2182
 8384SOL    HW136614   4.073   0.174   7.185 -0.4092  1.1288  0.2580
 8384SOL    HW236615   4.022   0.230   7.304  0.3172 -0.6469  1.0540
 8385SOL     OW36616   1.996   2.931   0.914  0.5450 -0.6648  0.0366
 8385SOL    HW136617   2.045   2.922   0.832  1.6930  0.1927  0.6288
 8385SOL    HW236618   1.983   2.842   0.946 -1.8421 -0.8572 -1.4714
 8386SOL     OW36619   0.269   0.112   4.946 -0.3315 -0.1984 -0.1535
 8386SOL    HW136620   0.333   0.131   4.878  0.2735  2.4806  1.1572
 8386SOL    HW236621   0.309   0.038   4.991  0.7602  0.2196 -0.4296
 8387SOL     OW36622   3.872   4.719   8.413  0.4560 -0.3096 -0.1371
 8387SOL    HW136623   3.905   4.696   8.500 -1.4404 -1.4451  0.2989
 8387SOL    HW236624   3.951   0.002   8.360  0.9568  1.1930  0.8719
 8388SOL     OW36625   2.475   3.946   3.474 -0.6782 -0.1254  0.1193
 8388SOL    HW136626   2.485   3.858   3.438 -1.6064  0.0306 -0.5066
 8388SOL    HW236627   2.411   3.980   3.413 -0.9288 -0.5849  0.1251
 8389SOL     OW36628   3.424   1.546   2.162 -0.1029 -0.0756 -0.3038
 8389SOL    HW136629   3.516   1.573   2.169  0.0190 -0.1832 -1.5894
 8389SOL    HW236630   3.433   1.514   2.072  2.3305  0.4687 -0.2463
 8390SOL     OW36631   1.049   3.376  14.912  0.8793  0.2435 -0.1495
 8390SOL    HW136632   1.133   3.378  14.866  0.3460 -0.1525 -1.1368
 8390SOL    HW236633   1.035   3.282  14.899 -0.3064  0.1394  1.9443
 8391SOL     OW36634   2.527   1.734  16.124 -0.3687 -0.8209 -0.0889
 8391SOL    HW136635   2.620   1.712  16.113 -0.2344 -0.6009  0.6574
 8391SOL    HW236636   2.509   1.798  16.055  1.2759  0.9223  1.1232
 8392SOL     OW36637   2.672   0.048  15.734 -0.3902 -0.0081 -0.5514
 8392SOL    HW136638   2.649   0.135  15.766  0.8673  0.5513 -1.1566
 8392SOL    HW236639   2.617   0.040  15.656  0.0356 -0.2649 -0.8280
 8393SOL     OW36640   1.902   2.988   1.995 -0.5369  0.0083 -0.1208
 8393SOL    HW136641   1.852   2.990   2.077  1.0453  1.7510  0.8010
 8393SOL    HW236642   1.939   3.076   2.000  0.9313 -0.5712 -0.6600
 8394SOL     OW36643   3.452   2.918  15.630  0.4183  0.3144 -0.0985
 8394SOL    HW136644   3.405   2.925  15.547 -0.3186  0.5814  0.3502
 8394SOL    HW236645   3.492   2.832  15.615 -0.0495  0.0562  0.1540
 8395SOL     OW36646   2.684   1.633   8.939  0.0669 -0.1155  0.4001
 8395SOL    HW136647   2.592   1.654   8.919  0.2033 -1.1240 -1.2817
 8395SOL    HW236648   2.706   1.709   8.993  0.9590 -0.2689  0.2461
 8396SOL     OW36649   3.719   1.269   8.965  0.3365 -0.1707  0.0637
 8396SOL    HW136650   3.628   1.267   8.936 -0.0747 -0.8437  1.4052
 8396SOL    HW236651   3.717   1.195   9.025  0.6978  0.6803  1.1223
 8397SOL     OW36652   3.026   1.577   3.931  0.2723  0.1852 -0.2490
 8397SOL    HW136653   3.011   1.634   4.006 -1.3141 -2.6155  1.5754
 8397SOL    HW236654   2.951   1.519   3.945 -0.0267  0.7911  0.6615
 8398SOL     OW36655   2.501   1.939   4.043 -0.4626  0.1481 -0.3191
 8398SOL    HW136656   2.437   1.932   4.114 -1.7292  1.2939 -1.3364
 8398SOL    HW236657   2.483   2.030   4.018  0.1062  0.8782  1.9321
 8399SOL     OW36658   4.569   1.885   8.828 -0.2286 -0.2938  0.1803
 8399SOL    HW136659   4.590   1.824   8.898 -1.7880 -0.6500  0.3434
 8399SOL    HW236660   4.515   1.948   8.876  2.5706  0.8149  1.8420
 8400SOL     OW36661   2.033   1.113   7.009  0.6366  0.7672  0.6042
 8400SOL    HW136662   2.104   1.146   6.953  0.9271  3.5725  2.6590
 8400SOL    HW236663   1.954   1.141   6.963  0.5575 -0.1055  0.2071
 8401SOL     OW36664   2.707   3.149  16.435  0.1941 -0.3184 -0.6437
 8401SOL    HW136665   2.715   3.054  16.444 -0.7680 -0.3717 -0.3849
 8401SOL    HW236666   2.800   3.162  16.451 -0.1670  0.1387  0.9788
 8402SOL     OW36667   0.587   2.269   6.388 -0.6224  0.3377 -0.0258
 8402SOL    HW136668   0.626   2.324   6.457  1.0765 -0.2484 -0.5237
 8402SOL    HW236669   0.532   2.333   6.342 -0.1809 -1.4274 -3.0039
 8403SOL     OW36670   4.159   0.202   1.966 -0.3047  0.3004  0.0842
 8403SOL    HW136671   4.236   0.190   1.910  0.0768 -0.5766  0.7970
 8403SOL    HW236672   4.169   0.132   2.031  2.4530 -0.1955 -0.8426
 8404SOL     OW36673   1.536   1.134   7.274  0.0366 -0.1997 -0.0645
 8404SOL    HW136674   1.595   1.060   7.291  1.1585  0.9821  1.2555
 8404SOL    HW236675   1.545   1.167   7.364 -0.5806 -0.5800  0.1373
 8405SOL     OW36676   0.728   1.770  15.504  0.2704 -0.1631  0.0104
 8405SOL    HW136677   0.789   1.842  15.516  0.2876 -0.3336  0.9581
 8405SOL    HW236678   0.789   1.697  15.504  0.9942  0.4474 -0.2368
 8406SOL     OW36679   3.481   3.674  11.910 -0.3657  0.9405  0.5057
 8406SOL    HW136680   3.436   3.628  11.839  0.3507  1.2677 -0.1563
 8406SOL    HW236681   3.521   3.599  11.955 -1.3200 -0.7640 -1.4586
 8407SOL     OW36682   0.449   2.822  10.891  0.2736  0.0005  0.7624
 8407SOL    HW136683   0.469   2.728  10.897  0.0163  0.0461  2.2259
 8407SOL    HW236684   0.356   2.813  10.913 -0.1028 -0.5554 -1.0832
 8408SOL     OW36685   3.636   0.671   5.313  0.5031  0.1333  0.0994
 8408SOL    HW136686   3.582   0.634   5.383  1.4556  0.7536  1.1537
 8408SOL    HW236687   3.582   0.650   5.237  0.2764 -0.3699  0.3972
 8409SOL     OW36688   4.534   4.199   2.471 -0.3962  0.2084 -0.5089
 8409SOL    HW136689   4.571   4.186   2.558  1.1953 -2.3261 -1.5374
 8409SOL    HW236690   4.526   4.294   2.477 -1.2062  0.0995  0.0976
 8410SOL     OW36691   1.296   3.084   6.307  0.3373 -0.2164  0.2525
 8410SOL    HW136692   1.361   3.023   6.343 -1.0379 -1.1061  1.1991
 8410SOL    HW236693   1.263   3.131   6.384  1.2681  0.3778  0.2889
 8411SOL     OW36694   4.078   2.122   6.586  0.5794  0.5861 -0.3866
 8411SOL    HW136695   4.104   2.030   6.583  0.6173  0.4979  2.5633
 8411SOL    HW236696   4.154   2.168   6.550  0.7313  1.1511  0.6757
 8412SOL     OW36697   2.616   0.835  16.779  0.5161 -0.1301  0.2526
 8412SOL    HW136698   2.704   0.845  16.742  0.0828  2.8147  0.0654
 8412SOL    HW236699   2.586   0.773  16.713  2.7950 -0.6593 -0.2894
 8413SOL     OW36700   3.638   0.275   6.514 -0.4481  0.2276 -0.8036
 8413SOL    HW136701   3.544   0.272   6.532 -0.5647  0.5639 -1.3579
 8413SOL    HW236702   3.676   0.222   6.585 -0.8833  0.7160 -0.2045
 8414SOL     OW36703   4.559   0.388  12.846 -0.0037 -0.0908 -0.1017
 8414SOL    HW136704   4.567   0.456  12.780 -1.5205 -1.4488 -1.6890
 8414SOL    HW236705   4.617   0.423  12.914 -0.1843  1.5280 -0.7854
 8415SOL     OW36706   4.667   2.903   5.428 -0.1916 -0.0069  0.6352
 8415SOL    HW136707   4.701   2.978   5.381  2.2835 -0.3585  1.8864
 8415SOL    HW236708   4.694   2.826   5.378 -3.0252 -1.6248  1.5284
 8416SOL     OW36709   0.253   0.139  17.529 -0.1578 -0.1093  0.1778
 8416SOL    HW136710   0.258   0.222  17.482 -0.8409 -0.6039 -0.7898
 8416SOL    HW236711   0.169   0.104  17.498 -0.6110  1.4298 -0.3035
 8417SOL     OW36712   3.590   2.334   8.592 -0.1032  0.0977 -0.2060
 8417SOL    HW136713   3.599   2.251   8.640  0.0017  0.7412  0.8859
 8417SOL    HW236714   3.670   2.381   8.614 -0.0269 -0.1686  0.0936
 8418SOL     OW36715   2.594   2.515   7.905  0.0084  0.0585  0.3373
 8418SOL    HW136716   2.591   2.527   8.000  0.4513  0.1595  0.3375
 8418SOL    HW236717   2.683   2.540   7.883 -0.0247 -0.1179  0.0094
 8419SOL     OW36718   3.591   2.215   8.335 -0.5934 -0.5078 -0.1533
 8419SOL    HW136719   3.617   2.258   8.417  1.2640 -0.2046 -0.9019
 8419SOL    HW236720   3.667   2.159   8.321 -0.3273  0.0664 -0.9676
 8420SOL     OW36721   3.579   4.395  12.982 -0.1649 -0.0074 -0.1828
 8420SOL    HW136722   3.562   4.433  13.068 -0.5244  0.9956 -0.6994
 8420SOL    HW236723   3.584   4.300  12.991 -0.4784 -0.0235 -0.1539
 8421SOL     OW36724   0.462   2.183   2.892  0.2481 -0.5748 -0.2007
 8421SOL    HW136725   0.459   2.184   2.796 -0.6373  1.6627 -0.1444
 8421SOL    HW236726   0.442   2.275   2.909  1.3077  0.3653 -4.0002
 8422SOL     OW36727   0.641   2.074   7.660  0.0919  0.7755 -0.2773
 8422SOL    HW136728   0.678   2.127   7.589  0.0361 -2.1194 -2.4797
 8422SOL    HW236729   0.707   2.080   7.729  2.3309 -2.2881 -2.1462
 8423SOL     OW36730   3.556   1.792   2.272  0.0018 -0.5787  0.6771
 8423SOL    HW136731   3.464   1.794   2.297 -0.1015  0.0124  0.2528
 8423SOL    HW236732   3.589   1.764   2.357  0.8728 -1.8826 -0.0905
 8424SOL     OW36733   3.998   4.581   2.254  0.0756  0.6048 -0.5660
 8424SOL    HW136734   3.991   4.490   2.283 -0.6013  0.1033 -2.2627
 8424SOL    HW236735   3.954   4.627   2.324  0.7440  1.5620 -0.7725
 8425SOL     OW36736   3.496   2.228  13.774 -0.3829  0.1453  0.0580
 8425SOL    HW136737   3.503   2.297  13.840 -0.8860  0.7588 -0.5265
 8425SOL    HW236738   3.587   2.231  13.744 -0.0722 -0.8528  0.8898
 8426SOL     OW36739   3.435   2.331  12.918  0.1333  0.5771 -0.7116
 8426SOL    HW136740   3.513   2.360  12.872 -0.2620  4.3958  1.0591
 8426SOL    HW236741   3.450   2.380  12.999 -1.6173 -0.1289  0.0417
 8427SOL     OW36742   1.790   3.804   8.670 -0.5754  0.4776 -0.1924
 8427SOL    HW136743   1.733   3.791   8.746  0.7940  2.0874  1.1251
 8427SOL    HW236744   1.765   3.893   8.646  2.0039  1.1741 -0.3624
 8428SOL     OW36745   1.505   3.014   0.619 -0.1775  0.2255  0.3829
 8428SOL    HW136746   1.451   3.005   0.698  0.1085 -0.6162  0.4750
 8428SOL    HW236747   1.590   3.022   0.663 -0.9242  2.2057  1.4870
 8429SOL     OW36748   3.674   3.797   3.448 -0.4564  0.0119 -0.0355
 8429SOL    HW136749   3.587   3.763   3.425 -0.6257 -0.3947  1.1861
 8429SOL    HW236750   3.664   3.883   3.487 -0.0253  0.0954 -0.1082
 8430SOL     OW36751   0.316   0.241   3.428  0.0488  0.7128 -0.1070
 8430SOL    HW136752   0.317   0.200   3.341 -0.1901 -0.6934  0.5465
 8430SOL    HW236753   0.223   0.261   3.443 -0.6426 -2.4447 -0.1959
 8431SOL     OW36754   0.675   0.953   2.473 -0.5762  0.1774  0.0952
 8431SOL    HW136755   0.714   0.980   2.556  0.8434 -1.2438 -0.1022
 8431SOL    HW236756   0.738   0.973   2.404 -0.7964  1.0353  0.1501
 8432SOL     OW36757   2.669   0.043   2.129 -0.2247 -0.4214 -0.3038
 8432SOL    HW136758   2.715   0.060   2.211 -1.8113 -2.2169  0.9679
 8432SOL    HW236759   2.721   0.095   2.068  0.2488 -0.4987  0.0340
 8433SOL     OW36760   4.515   2.787   9.075  0.1319 -0.5680 -0.6298
 8433SOL    HW136761   4.504   2.737   9.156  0.8285 -1.8413 -1.3201
 8433SOL    HW236762   4.484   2.725   9.010 -0.6529 -0.0948 -0.6985
 8434SOL     OW36763   0.351   1.829   2.859 -0.4583 -0.1257  0.3500
 8434SOL    HW136764   0.265   1.800   2.828 -0.2737  0.2128 -0.4706
 8434SOL    HW236765   0.380   1.881   2.784  1.6952 -0.2365  1.1174
 8435SOL     OW36766   2.779   0.968   8.951  0.0272  0.2977 -0.6182
 8435SOL    HW136767   2.849   0.963   9.017 -0.5070  0.8731 -0.0025
 8435SOL    HW236768   2.812   1.038   8.895  0.4601 -0.3514 -1.1760
 8436SOL     OW36769   1.004   0.971  12.984  0.4647  0.4439 -0.0049
 8436SOL    HW136770   1.018   1.065  12.974  0.4177  0.3634 -0.8673
 8436SOL    HW236771   0.966   0.957  12.897  2.2751  1.5935 -0.9749
 8437SOL     OW36772   4.127   2.194   5.108  0.4497  0.6777  0.0687
 8437SOL    HW136773   4.059   2.218   5.045 -0.3503  0.6881  0.9313
 8437SOL    HW236774   4.204   2.219   5.057  1.4361 -1.4688  0.5150
 8438SOL     OW36775   3.163   3.021  10.291 -0.3116  0.2045 -0.3325
 8438SOL    HW136776   3.249   2.982  10.306 -0.0817 -0.0835 -2.3802
 8438SOL    HW236777   3.141   2.996  10.201  0.5005 -0.3575 -0.3719
 8439SOL     OW36778   2.437   4.128   9.548 -0.9101 -0.4094  0.7020
 8439SOL    HW136779   2.429   4.188   9.474  0.0507 -2.7100 -1.2561
 8439SOL    HW236780   2.530   4.106   9.541 -1.1998 -1.3409 -0.3549
 8440SOL     OW36781   3.249   2.764   5.326  0.0169 -0.7160 -0.0938
 8440SOL    HW136782   3.205   2.834   5.374 -0.1292 -0.2395 -0.9289
 8440SOL    HW236783   3.310   2.823   5.283 -0.1485 -1.3789 -1.2434
 8441SOL     OW36784   1.149   1.344   4.280  0.0996  0.3518  0.1164
 8441SOL    HW136785   1.150   1.264   4.228 -0.0829 -0.2450  1.0376
 8441SOL    HW236786   1.228   1.327   4.331 -0.3766 -0.0552  0.7134
 8442SOL     OW36787   3.094   0.952   4.092 -0.4499  0.3873 -0.1950
 8442SOL    HW136788   3.061   0.904   4.016  0.6302  1.6190 -1.4663
 8442SOL    HW236789   3.045   0.905   4.159  0.8540 -1.3903 -0.4965
 8443SOL     OW36790   4.493   1.664   3.215 -0.1249  0.1822  0.2212
 8443SOL    HW136791   4.476   1.590   3.157 -2.2791 -0.2844  1.4095
 8443SOL    HW236792   4.576   1.701   3.187  0.3941 -0.0216  1.4932
 8444SOL     OW36793   2.621   2.575  11.410  0.6687 -1.0155 -0.0304
 8444SOL    HW136794   2.667   2.504  11.454  0.5011 -0.3133  1.2685
 8444SOL    HW236795   2.559   2.530  11.353 -1.2353  1.5323  0.0137
 8445SOL     OW36796   1.146   2.743   1.772  0.5406  0.0871  0.5494
 8445SOL    HW136797   1.178   2.789   1.850  2.6007  0.9547 -0.8048
 8445SOL    HW236798   1.071   2.799   1.751  0.9686 -0.2386 -1.8328
 8446SOL     OW36799   2.020   1.731   5.593  0.9698 -0.0868 -0.4052
 8446SOL    HW136800   2.047   1.724   5.684  1.1387 -0.5219 -0.4874
 8446SOL    HW236801   2.087   1.682   5.545  1.5595 -1.8757  2.3044
 8447SOL     OW36802   4.652   2.078  15.894  0.3873  0.3887  0.5915
 8447SOL    HW136803   4.578   2.125  15.855  2.0573  0.8435 -2.0782
 8447SOL    HW236804   4.684   2.125  15.970  3.0383  2.3316 -1.7094
 8448SOL     OW36805   0.364   0.834   3.165  0.0767  0.3091  0.0334
 8448SOL    HW136806   0.380   0.924   3.195 -0.3871 -0.2022  1.8161
 8448SOL    HW236807   0.269   0.834   3.161 -0.0238 -0.3548  2.4524
 8449SOL     OW36808   3.186   3.172  17.643  0.7360 -0.0074 -0.6030
 8449SOL    HW136809   3.175   3.142   0.025  1.0744 -1.1201 -0.9397
 8449SOL    HW236810   3.247   3.245  17.652 -0.6956  1.0128  0.8836
 8450SOL     OW36811   1.972   3.884   6.556  0.0198 -0.1477 -0.1696
 8450SOL    HW136812   1.972   3.897   6.461 -1.1077  1.8543  0.1116
 8450SOL    HW236813   1.894   3.935   6.578 -0.2108 -0.5321 -0.1150
 8451SOL     OW36814   0.306   0.845   8.466  0.3129  0.0661 -0.0125
 8451SOL    HW136815   0.316   0.852   8.372 -1.4708  2.5959 -0.0111
 8451SOL    HW236816   0.392   0.806   8.484 -0.2109 -1.4307 -0.7594
 8452SOL     OW36817   2.377   3.137  17.066 -0.3628  0.1064  0.0509
 8452SOL    HW136818   2.402   3.119  16.975  2.3774  0.8516  0.6788
 8452SOL    HW236819   2.379   3.233  17.073 -0.9875  0.1518 -0.3775
 8453SOL     OW36820   1.207   2.056   0.449  0.3539 -0.1924 -0.1757
 8453SOL    HW136821   1.216   1.974   0.399 -0.2128 -0.2497 -0.1847
 8453SOL    HW236822   1.276   2.107   0.407 -1.1034  1.6971 -0.2709
 8454SOL     OW36823   0.892   1.795   7.388 -0.2840  0.0846 -0.3902
 8454SOL    HW136824   0.897   1.745   7.470 -1.2787 -2.6746 -2.0257
 8454SOL    HW236825   0.797   1.796   7.376 -0.4523 -1.4483  0.8219
 8455SOL     OW36826   4.606   4.412   8.089  0.0580 -0.5475 -0.2342
 8455SOL    HW136827   4.550   4.339   8.115  0.7191 -1.1228 -0.4229
 8455SOL    HW236828   4.656   4.367   8.020  0.8603 -0.3378  0.2106
 8456SOL     OW36829   1.029   4.354  16.593  0.2029 -0.2278  0.2667
 8456SOL    HW136830   0.987   4.386  16.513 -1.6334 -2.3527  0.3644
 8456SOL    HW236831   1.080   4.428  16.624  3.0674 -1.5250 -1.3283
 8457SOL     OW36832   1.420   4.127   9.161  0.7008 -0.5803 -0.2643
 8457SOL    HW136833   1.331   4.120   9.195  1.1918 -1.4545  0.8771
 8457SOL    HW236834   1.453   4.214   9.183 -0.5196 -0.2019  0.0444
 8458SOL     OW36835   3.159   4.257   6.512  0.5339  0.3969  0.2848
 8458SOL    HW136836   3.183   4.178   6.560 -0.7333  0.6793  1.3642
 8458SOL    HW236837   3.108   4.307   6.575  1.6805 -0.8123  2.1568
 8459SOL     OW36838   0.380   1.011  14.364 -0.3975 -0.1258  0.5282
 8459SOL    HW136839   0.448   0.950  14.336  0.9640  0.7681  1.8806
 8459SOL    HW236840   0.392   0.991  14.457  1.3206  1.7891  0.7131
 8460SOL     OW36841   3.636   3.356   7.885 -0.5302  0.3727 -0.0530
 8460SOL    HW136842   3.579   3.414   7.835  1.9379  1.5069 -1.5137
 8460SOL    HW236843   3.724   3.391   7.876 -0.3996  0.3094  1.0155
 8461SOL     OW36844   0.928   4.346   4.689 -0.3408 -0.0082 -0.2506
 8461SOL    HW136845   0.987   4.409   4.649  0.6791 -1.2010 -0.6222
 8461SOL    HW236846   0.846   4.390   4.666 -0.3683  0.3677  0.5706
 8462SOL     OW36847   2.134   1.349  14.176  0.3956  0.0023  0.0296
 8462SOL    HW136848   2.122   1.410  14.249  1.4106  0.4972 -0.2008
 8462SOL    HW236849   2.229   1.335  14.177  0.1718 -1.3704  1.6984
 8463SOL     OW36850   0.232   3.911  17.454  0.0950 -0.1615 -0.5961
 8463SOL    HW136851   0.327   3.904  17.465 -0.2235 -0.6482  1.8844
 8463SOL    HW236852   0.219   3.926  17.361  1.1211  1.9543 -0.3849
 8464SOL     OW36853   4.212   2.840  17.506  0.0332  0.3489 -0.2905
 8464SOL    HW136854   4.298   2.861  17.469  0.8001 -2.7812 -0.2718
 8464SOL    HW236855   4.183   2.764  17.455  1.1543 -0.5784  0.4454
 8465SOL     OW36856   2.319   0.649   6.901 -0.3182  0.2537  0.0660
 8465SOL    HW136857   2.258   0.628   6.971 -1.0227  3.2725  0.3688
 8465SOL    HW236858   2.392   0.684   6.952 -0.4717  2.8649 -1.5312
 8466SOL     OW36859   3.833   3.822  13.385  0.3246  0.5625  0.3429
 8466SOL    HW136860   3.797   3.911  13.379 -4.8835 -1.5270  0.0743
 8466SOL    HW236861   3.779   3.783  13.454  1.6565 -0.7019  0.6453
 8467SOL     OW36862   3.308   0.819   3.107 -0.4872  0.3015  0.3973
 8467SOL    HW136863   3.354   0.734   3.103 -1.2673 -0.1968  2.1008
 8467SOL    HW236864   3.380   0.882   3.114 -0.8538  0.4562  2.5320
 8468SOL     OW36865   0.649   2.613   3.714  0.0868 -0.1142 -0.6662
 8468SOL    HW136866   0.670   2.597   3.622  0.2615 -1.2305 -0.4299
 8468SOL    HW236867   0.655   2.524   3.747  1.0479 -0.0471 -0.6659
 8469SOL     OW36868   0.243   3.782   2.811 -0.6424  0.2595  0.0156
 8469SOL    HW136869   0.210   3.792   2.722 -1.9901  2.0563  0.7047
 8469SOL    HW236870   0.336   3.771   2.788 -0.8463 -0.9077 -0.2502
 8470SOL     OW36871   4.166   4.212   7.997 -0.4103  0.0552  0.1911
 8470SOL    HW136872   4.138   4.168   8.078 -1.4223 -2.6700 -1.6548
 8470SOL    HW236873   4.089   4.206   7.941 -0.3789  0.2595  0.1253
 8471SOL     OW36874   0.692   2.471   7.092  0.1441  0.2686 -0.5741
 8471SOL    HW136875   0.723   2.562   7.091 -0.8173  0.5631 -2.8007
 8471SOL    HW236876   0.601   2.488   7.068 -0.0819  1.9648  1.4519
 8472SOL     OW36877   2.692   3.483   5.945 -0.3090 -0.1852 -0.3049
 8472SOL    HW136878   2.680   3.390   5.962  0.6580 -0.3196 -0.3403
 8472SOL    HW236879   2.754   3.500   6.017  0.1967 -1.9611 -0.3116
 8473SOL     OW36880   4.230   4.701  15.964 -0.2348  0.1483  0.2943
 8473SOL    HW136881   4.304   0.020  16.005 -0.3001 -0.0721  0.6534
 8473SOL    HW236882   4.202   0.048  15.910 -1.6521  0.0529  0.8900
 8474SOL     OW36883   0.325   4.311   7.751 -0.5210  0.5266 -0.1244
 8474SOL    HW136884   0.284   4.289   7.835  0.3753  0.6969  0.3634
 8474SOL    HW236885   0.268   4.277   7.683  0.3995  0.3210 -0.7921
 8475SOL     OW36886   0.605   4.694   5.288  0.3549  0.5251  0.4125
 8475SOL    HW136887   0.628   0.024   5.362 -0.7237  0.1438  1.0407
 8475SOL    HW236888   0.691   4.662   5.260  0.3243 -0.1759  1.1026
 8476SOL     OW36889   3.727   3.332   0.332  0.2710 -0.3233 -0.3199
 8476SOL    HW136890   3.809   3.294   0.364  0.6160  0.5320 -0.1938
 8476SOL    HW236891   3.708   3.391   0.405  3.0923 -0.3872  0.4961
 8477SOL     OW36892   3.500   0.176   8.000 -0.8779 -0.2195  0.3720
 8477SOL    HW136893   3.472   0.137   7.917 -1.9673  2.1470 -0.3765
 8477SOL    HW236894   3.501   0.265   7.964 -0.7954 -0.5533 -0.4658
 8478SOL     OW36895   0.863   3.463   9.816  0.0550 -0.1424 -0.5616
 8478SOL    HW136896   0.774   3.473   9.850 -0.1309 -0.8322 -0.8335
 8478SOL    HW236897   0.884   3.556   9.825  2.5964 -0.9568  1.9302
 8479SOL     OW36898   4.408   3.685  12.914 -0.5128  0.4982 -0.0255
 8479SOL    HW136899   4.420   3.726  12.829  0.0569  2.6815  1.1138
 8479SOL    HW236900   4.349   3.611  12.897 -0.1384  0.3838 -0.7954
 8480SOL     OW36901   3.177   1.785   4.411  0.0563 -0.2786  0.2896
 8480SOL    HW136902   3.218   1.797   4.496 -0.0377  0.4312  0.2336
 8480SOL    HW236903   3.091   1.826   4.419  0.0798  0.4047 -2.9483
 8481SOL     OW36904   0.682   1.805   6.262 -0.5131 -0.0139 -0.0582
 8481SOL    HW136905   0.603   1.858   6.276 -0.1193  0.4535  0.4340
 8481SOL    HW236906   0.729   1.863   6.203 -1.5006  1.0469  0.1792
 8482SOL     OW36907   3.331   3.055   4.010  0.1505  0.3775  0.7326
 8482SOL    HW136908   3.375   3.123   3.959 -0.3684 -0.4617 -0.8251
 8482SOL    HW236909   3.394   2.983   4.006  0.6493  0.6734  3.5451
 8483SOL     OW36910   1.584   2.662   3.157 -0.3119 -0.7729 -0.0494
 8483SOL    HW136911   1.507   2.696   3.113  0.1451  0.3465  0.0148
 8483SOL    HW236912   1.613   2.592   3.098 -0.6241 -0.4372 -0.5976
 8484SOL     OW36913   1.340   0.403   5.312  0.5711  0.2566 -0.4952
 8484SOL    HW136914   1.295   0.380   5.231  1.3738  0.0605 -0.8750
 8484SOL    HW236915   1.299   0.339   5.371  0.6665 -0.7509 -1.5385
 8485SOL     OW36916   1.071   2.936   7.329 -0.1778 -0.0946  0.5402
 8485SOL    HW136917   1.009   2.894   7.388  0.6328 -1.1442  0.6463
 8485SOL    HW236918   1.135   2.982   7.384 -1.8500  0.9981  1.5751
 8486SOL     OW36919   2.703   1.080   7.221  0.0750  0.2230 -0.5648
 8486SOL    HW136920   2.655   1.126   7.290 -2.3233  0.6217 -2.5088
 8486SOL    HW236921   2.768   1.145   7.196  0.5030 -0.9234 -2.4165
 8487SOL     OW36922   1.478   2.037   4.533  0.3104  0.5306  0.7216
 8487SOL    HW136923   1.557   2.090   4.519  1.0827 -0.5213  1.1547
 8487SOL    HW236924   1.528   1.969   4.578  0.1412 -0.9133 -1.2779
 8488SOL     OW36925   0.561   0.232   3.508  0.0640 -0.2362 -0.3462
 8488SOL    HW136926   0.543   0.251   3.600 -2.0140 -1.6321 -0.4401
 8488SOL    HW236927   0.469   0.223   3.482 -0.5517 -0.4673  1.9404
 8489SOL     OW36928   2.517   2.546   3.797  0.2375 -0.0919 -0.0028
 8489SOL    HW136929   2.570   2.468   3.812 -0.2323 -0.3569  0.2816
 8489SOL    HW236930   2.555   2.586   3.718 -2.2959 -0.6459 -1.5314
 8490SOL     OW36931   3.797   0.979   7.720 -0.7790  0.6300  0.4410
 8490SOL    HW136932   3.794   1.008   7.629  1.6675  1.9453  0.7883
 8490SOL    HW236933   3.892   0.982   7.734 -0.6747 -0.6011  0.0360
 8491SOL     OW36934   0.032   3.365   5.658 -0.3569  0.8132  0.4190
 8491SOL    HW136935   4.693   3.434   5.657  0.7930  1.8906 -1.4948
 8491SOL    HW236936   4.701   3.289   5.655 -0.9656  1.2339  1.4085
 8492SOL     OW36937   3.273   2.896   2.831  0.4564 -0.3877  0.0392
 8492SOL    HW136938   3.248   2.953   2.758 -2.1095 -0.4241  0.9049
 8492SOL    HW236939   3.291   2.953   2.905 -1.4275 -0.5587  0.6329
 8493SOL     OW36940   2.951   2.101  15.227 -0.0442  0.0018 -0.1502
 8493SOL    HW136941   2.968   2.103  15.133  0.5508 -1.2708 -0.0692
 8493SOL    HW236942   2.973   2.010  15.249  1.0557  0.1599 -0.5901
 8494SOL     OW36943   2.893   0.290   0.355  0.1099  0.3821 -0.3295
 8494SOL    HW136944   2.837   0.365   0.376  0.4466 -0.0177  2.0161
 8494SOL    HW236945   2.840   0.247   0.288  1.4776 -2.6786  0.5439
 8495SOL     OW36946   3.983   2.523   5.949  0.4247 -0.2198  0.2927
 8495SOL    HW136947   3.948   2.604   5.985  3.3409  2.1415 -2.2115
 8495SOL    HW236948   4.037   2.493   6.023  0.3787 -0.3726  0.2649
 8496SOL     OW36949   0.098   1.176   1.682 -0.1220  0.1858  0.4205
 8496SOL    HW136950   0.089   1.156   1.589  0.5990  1.7663  0.0156
 8496SOL    HW236951   0.131   1.266   1.681  1.0498 -0.2494 -0.3872
 8497SOL     OW36952   4.632   4.189   2.724  0.2804  0.6124 -0.3895
 8497SOL    HW136953   4.665   4.127   2.790 -1.2581  2.0673  1.7595
 8497SOL    HW236954   4.541   4.197   2.755 -0.0786 -1.3450 -0.8901
 8498SOL     OW36955   1.524   2.889   0.381  0.2887 -0.4153  0.2606
 8498SOL    HW136956   1.490   2.939   0.455  0.6522  1.3625 -0.7733
 8498SOL    HW236957   1.587   2.832   0.427  0.1541 -1.5024 -0.9042
 8499SOL     OW36958   0.009   2.238  16.119  0.1803  0.1855  0.3132
 8499SOL    HW136959   4.687   2.257  16.200 -2.9697  2.1327 -2.0448
 8499SOL    HW236960   4.725   2.325  16.081 -1.6928 -0.3236 -0.3311
 8500SOL     OW36961   0.924   2.427   5.035  0.2996  0.1053 -0.1675
 8500SOL    HW136962   0.991   2.491   5.058  3.0765 -3.0395  0.5224
 8500SOL    HW236963   0.971   2.344   5.041  0.0492 -0.0072  0.2987
 8501SOL     OW36964   4.562   1.582   8.470 -0.2695  0.2767 -0.1122
 8501SOL    HW136965   4.496   1.605   8.536 -1.4266  1.1715 -1.5856
 8501SOL    HW236966   4.643   1.589   8.520 -0.3300 -1.6628  0.2801
 8502SOL     OW36967   0.876   0.058   6.231  0.0731 -0.5829  0.3116
 8502SOL    HW136968   0.955   0.110   6.244  0.7765 -0.9800 -2.4220
 8502SOL    HW236969   0.844   0.075   6.320 -0.6507 -0.9959  0.1320
 8503SOL     OW36970   0.568   2.473   4.510 -0.1626 -0.1106  0.0635
 8503SOL    HW136971   0.573   2.556   4.463  0.6785 -0.5341 -0.5928
 8503SOL    HW236972   0.659   2.446   4.495 -0.8286 -1.1639 -1.9905
 8504SOL     OW36973   1.884   1.373   1.287 -0.6675  0.0258  0.1211
 8504SOL    HW136974   1.865   1.338   1.200  0.7269 -1.5166  0.4435
 8504SOL    HW236975   1.934   1.451   1.261  0.7465 -1.3498 -1.2669
 8505SOL     OW36976   3.925   3.501   8.640  0.0360  0.4659 -0.0222
 8505SOL    HW136977   3.924   3.590   8.674 -0.3050  0.0606  1.0483
 8505SOL    HW236978   3.919   3.450   8.721 -1.0405 -0.2310 -0.5348
 8506SOL     OW36979   0.678   0.514   3.586  0.0141 -0.3262 -0.1801
 8506SOL    HW136980   0.665   0.445   3.522  1.3812 -1.5223  0.8124
 8506SOL    HW236981   0.672   0.460   3.665 -1.0914 -1.6248 -1.1749
 8507SOL     OW36982   2.869   0.733   4.621 -0.3313  0.1691 -0.2941
 8507SOL    HW136983   2.865   0.815   4.671 -1.4663  0.0493 -0.2014
 8507SOL    HW236984   2.903   0.674   4.689  0.6286  0.8994 -0.1371
 8508SOL     OW36985   1.024   3.418   6.443  0.6427 -0.3900  0.3378
 8508SOL    HW136986   0.937   3.417   6.404  2.5937 -2.0847 -4.0930
 8508SOL    HW236987   1.011   3.464   6.525 -2.2527  1.8813 -1.4119
 8509SOL     OW36988   2.042   2.296   3.767 -0.9515 -1.1376 -0.1556
 8509SOL    HW136989   2.008   2.212   3.734  0.4750 -1.2921 -1.2403
 8509SOL    HW236990   1.978   2.310   3.837  0.2351 -0.9661  0.8987
 8510SOL     OW36991   2.105   3.101   7.814 -0.5855  0.0794  0.6026
 8510SOL    HW136992   2.106   3.103   7.910 -1.9370  2.2848  0.5506
 8510SOL    HW236993   2.199   3.103   7.796 -0.7495 -0.5498 -0.3380
 8511SOL     OW36994   0.796   3.851  14.853 -0.2805  0.1540  0.2512
 8511SOL    HW136995   0.787   3.822  14.944 -0.9368  2.6578  0.9751
 8511SOL    HW236996   0.779   3.764  14.816  1.6434  0.4058 -1.2585
 8512SOL     OW36997   2.421   1.531   5.543 -0.3774  0.1249  0.1946
 8512SOL    HW136998   2.516   1.518   5.541 -0.4126 -0.3357  1.2402
 8512SOL    HW236999   2.390   1.464   5.605 -1.1811 -0.5279 -0.9143
 8513SOL     OW37000   3.703   3.444   3.789 -0.0584 -0.3854 -0.3332
 8513SOL    HW137001   3.620   3.472   3.750  0.2396 -0.6626 -1.1896
 8513SOL    HW237002   3.755   3.523   3.805 -1.8966  0.2849  2.2695
 8514SOL     OW37003   1.410   3.188   9.967  0.6579  0.4010 -0.4168
 8514SOL    HW137004   1.364   3.242  10.032  0.2943  0.4535 -0.7146
 8514SOL    HW237005   1.343   3.161   9.905  0.3313 -0.0365  0.1226
 8515SOL     OW37006   4.447   1.420   3.052  0.1996  0.0385  0.4392
 8515SOL    HW137007   4.471   1.384   2.967 -0.7195  0.3503  0.0477
 8515SOL    HW237008   4.366   1.461   3.023 -0.5487 -1.6836  0.1102
 8516SOL     OW37009   1.008   0.961   6.994  0.3502  0.4552 -0.3470
 8516SOL    HW137010   0.927   0.918   7.020  0.4819  0.8352  0.7253
 8516SOL    HW237011   1.055   0.896   6.942 -0.1194  0.5641 -0.8978
 8517SOL     OW37012   0.542   1.809   4.383 -0.0486  0.4224 -0.0997
 8517SOL    HW137013   0.575   1.729   4.342 -0.7139  1.4896 -2.6788
 8517SOL    HW237014   0.531   1.870   4.311 -1.1046 -0.0771 -0.3583
 8518SOL     OW37015   4.033   1.690   2.616  0.0901  0.0220  0.2423
 8518SOL    HW137016   4.044   1.632   2.541  0.8147 -0.1464  0.4810
 8518SOL    HW237017   4.026   1.627   2.688  1.5599  1.2693  1.4931
 8519SOL     OW37018   2.026   2.182   4.752  0.3694  0.5600 -0.2369
 8519SOL    HW137019   1.976   2.261   4.770 -0.9300 -0.3268  0.0667
 8519SOL    HW237020   1.984   2.115   4.805  0.7967 -0.7181 -1.4946
 8520SOL     OW37021   2.460   3.475   8.122 -0.3613  0.5632 -0.4267
 8520SOL    HW137022   2.526   3.444   8.061 -0.4182  1.7512 -1.0840
 8520SOL    HW237023   2.381   3.492   8.071  0.4767  5.6222 -0.0560
 8521SOL     OW37024   1.618   2.361   1.665  1.1631  0.3537  0.0100
 8521SOL    HW137025   1.647   2.390   1.578 -1.0346  3.9519  0.4460
 8521SOL    HW237026   1.580   2.277   1.642 -1.0108  1.5990 -0.9603
 8522SOL     OW37027   0.292   1.894   5.765  0.1706  0.2284 -0.1901
 8522SOL    HW137028   0.304   1.904   5.859 -0.7538 -1.2512  0.0899
 8522SOL    HW237029   0.378   1.928   5.741 -0.0232 -1.4940 -3.3664
 8523SOL     OW37030   3.473   1.501   1.500  0.1688 -0.4890 -0.4436
 8523SOL    HW137031   3.464   1.592   1.473  3.1604  0.1170  0.6105
 8523SOL    HW237032   3.565   1.495   1.527  0.1830 -1.4008 -0.6981
 8524SOL     OW37033   1.686   1.227   9.060  0.1057  0.2275 -0.3116
 8524SOL    HW137034   1.701   1.308   9.010 -1.0164  0.7035  0.1050
 8524SOL    HW237035   1.631   1.255   9.133  3.4852  3.4464  0.9504
 8525SOL     OW37036   2.466   1.152   9.154 -0.4580  0.4071 -0.2960
 8525SOL    HW137037   2.540   1.123   9.207  0.4257 -0.4721 -1.9999
 8525SOL    HW237038   2.397   1.100   9.197  0.6185 -0.4434  0.4068
 8526SOL     OW37039   1.499   3.109   8.292 -0.1350 -0.3962  0.1546
 8526SOL    HW137040   1.571   3.046   8.289  0.5186  0.2810  1.5215
 8526SOL    HW237041   1.427   3.060   8.334 -0.5003  1.6486  1.9003
 8527SOL     OW37042   1.215   2.390   3.714  0.2304 -0.1184 -0.3479
 8527SOL    HW137043   1.257   2.382   3.628  0.3756  1.1297 -0.4030
 8527SOL    HW237044   1.247   2.311   3.756  1.3266  1.1809  1.2540
 8528SOL     OW37045   4.616   3.202   3.609  0.1448  0.2862  0.0226
 8528SOL    HW137046   4.628   3.108   3.616  1.0848  0.2624 -2.0589
 8528SOL    HW237047   4.534   3.232   3.649  0.0662  0.9523 -0.6348
 8529SOL     OW37048   2.578   1.556  11.008 -0.2291  0.2672 -0.1075
 8529SOL    HW137049   2.492   1.576  10.969 -0.7698  0.0967  0.9820
 8529SOL    HW237050   2.631   1.568  10.930 -0.3630  0.8593 -0.1118
 8530SOL     OW37051   3.568   2.324   3.119 -0.1501  0.2317  0.3868
 8530SOL    HW137052   3.622   2.277   3.055 -4.8130 -3.3924 -0.9054
 8530SOL    HW237053   3.537   2.400   3.070 -0.5751  0.3580  0.8550
 8531SOL     OW37054   2.603   1.406  10.063  0.4398  0.3406  0.3440
 8531SOL    HW137055   2.640   1.320  10.045  1.2103  0.7287  0.0638
 8531SOL    HW237056   2.524   1.376  10.108  1.0718  0.1028  1.3124
 8532SOL     OW37057   3.799   3.700   0.596  0.9062 -0.3853  0.5748
 8532SOL    HW137058   3.841   3.712   0.682  2.0883  3.2772 -0.4686
 8532SOL    HW237059   3.733   3.769   0.606 -0.4479 -1.3656 -1.7696
 8533SOL     OW37060   4.198   4.694   6.893 -0.0198 -0.5639  0.7629
 8533SOL    HW137061   4.178   0.056   6.922 -1.4159 -0.5194 -0.3378
 8533SOL    HW237062   4.260   4.661   6.958  0.4994 -0.1568  0.4817
 8534SOL     OW37063   2.365   0.251   0.143 -0.1081 -0.2379 -0.3751
 8534SOL    HW137064   2.402   0.228   0.058  0.0560 -1.2151 -0.0369
 8534SOL    HW237065   2.301   0.183   0.163  0.8777 -1.3351 -0.9542
 8535SOL     OW37066   2.360   2.581   0.197  0.2457 -0.5995 -0.2832
 8535SOL    HW137067   2.425   2.636   0.152  0.4482 -1.3081 -0.8490
 8535SOL    HW237068   2.297   2.582   0.126  1.7946 -1.5758 -1.6648
 8536SOL     OW37069   4.549   4.148   0.321 -0.4187 -0.5644 -0.0164
 8536SOL    HW137070   4.522   4.059   0.299 -1.9682 -0.2448  0.5670
 8536SOL    HW237071   4.641   4.134   0.300 -0.1615 -1.3323  1.5534
 8537SOL     OW37072   4.253   2.101   9.281 -0.4521  0.0479 -0.1366
 8537SOL    HW137073   4.198   2.134   9.211 -4.1087  0.3217  2.8937
 8537SOL    HW237074   4.188   2.080   9.348 -0.5213 -1.3510 -0.6456
 8538SOL     OW37075   1.243   1.949  17.110  0.5238 -0.2701 -0.3922
 8538SOL    HW137076   1.262   1.957  17.017 -0.3257  0.0346 -0.5374
 8538SOL    HW237077   1.205   1.861  17.108  0.0353 -0.0602 -0.2634
 8539SOL     OW37078   3.371   3.584   8.182  0.3710  0.5165 -0.1413
 8539SOL    HW137079   3.415   3.662   8.217  0.4028  0.5512 -0.2577
 8539SOL    HW237080   3.409   3.593   8.095  0.7718  1.1405  0.0967
 8540SOL     OW37081   3.814   2.267   9.078 -0.1868  0.4067 -0.0228
 8540SOL    HW137082   3.756   2.320   9.024 -1.5860 -0.2482  0.8554
 8540SOL    HW237083   3.753   2.230   9.142 -0.6357 -1.7537 -1.7187
 8541SOL     OW37084   0.569   3.326  13.475 -0.0295  0.2678  0.2832
 8541SOL    HW137085   0.598   3.338  13.566 -0.8937  1.7295  0.3653
 8541SOL    HW237086   0.594   3.233  13.470 -1.1426  0.0109 -0.5756
 8542SOL     OW37087   2.513   1.852   2.552  0.4563 -0.1852  0.4860
 8542SOL    HW137088   2.521   1.763   2.519  1.7951  0.3979 -0.7344
 8542SOL    HW237089   2.476   1.826   2.637  1.9435 -0.3445  1.0852
 8543SOL     OW37090   4.722   0.486   8.689 -0.3674 -0.2004  0.7023
 8543SOL    HW137091   4.630   0.472   8.714 -0.5067 -0.1438  0.2293
 8543SOL    HW237092   0.011   0.576   8.720  0.4561 -0.5440  1.2603
 8544SOL     OW37093   1.637   3.774   3.354  0.1282  0.0144 -0.0193
 8544SOL    HW137094   1.698   3.798   3.423 -0.1299  0.4819  0.0432
 8544SOL    HW237095   1.564   3.729   3.398 -0.7738 -1.6408 -3.1933
 8545SOL     OW37096   2.968   0.424  13.438 -0.4445 -0.1566 -0.2679
 8545SOL    HW137097   3.034   0.368  13.397 -0.9836 -0.7051 -0.3857
 8545SOL    HW237098   2.972   0.394  13.529  1.1822  1.2839  0.1244
 8546SOL     OW37099   2.352   2.094   1.895 -0.1431  0.1008 -0.5248
 8546SOL    HW137100   2.278   2.155   1.900  0.1217  0.3922 -0.1843
 8546SOL    HW237101   2.382   2.107   1.806 -0.5791 -1.1993 -0.8565
 8547SOL     OW37102   2.317   1.178  10.570  0.6641 -0.0246  0.4977
 8547SOL    HW137103   2.252   1.155  10.637 -0.3814 -0.6663 -0.7428
 8547SOL    HW237104   2.278   1.224  10.496 -1.0084 -1.0917  0.7047
 8548SOL     OW37105   1.021   4.313   5.335  0.0190 -0.4681 -0.1178
 8548SOL    HW137106   1.006   4.219   5.328 -2.6278 -0.2474  2.5094
 8548SOL    HW237107   1.110   4.308   5.298  0.3665 -0.1553  0.6795
 8549SOL     OW37108   2.236   0.638   8.440 -0.6411 -0.0398  0.0386
 8549SOL    HW137109   2.319   0.591   8.443  0.0431  1.2242  0.6972
 8549SOL    HW237110   2.175   0.593   8.498  1.0081 -1.7022  0.4968
 8550SOL     OW37111   3.596   0.837   6.551  0.2161 -0.5016  0.8942
 8550SOL    HW137112   3.524   0.855   6.611 -0.4110  0.5908 -0.1807
 8550SOL    HW237113   3.589   0.912   6.491  2.4170  1.5002  3.1314
 8551SOL     OW37114   3.634   3.174  14.735  0.5727  0.4916 -0.3072
 8551SOL    HW137115   3.728   3.170  14.721  0.2513 -1.1075 -1.8535
 8551SOL    HW237116   3.636   3.254  14.788  0.0668  1.0979 -1.1997
 8552SOL     OW37117   3.355   2.627  10.543  0.4200  0.5613  0.1004
 8552SOL    HW137118   3.320   2.592  10.625  0.6223  2.0021  0.8040
 8552SOL    HW237119   3.448   2.611  10.562  1.0795  1.3249 -2.5628
 8553SOL     OW37120   4.593   3.433  12.761  0.4488  0.2971  0.5026
 8553SOL    HW137121   4.546   3.447  12.679  0.3926 -0.7902  0.3521
 8553SOL    HW237122   4.524   3.430  12.827  0.1796  0.9104  0.2545
 8554SOL     OW37123   1.946   4.530   4.750  0.0656 -0.5509  0.3843
 8554SOL    HW137124   2.000   4.601   4.784 -1.1372  1.2907 -1.5662
 8554SOL    HW237125   2.016   4.482   4.705 -0.5467  0.3438 -1.5102
 8555SOL     OW37126   3.656   4.273   3.542  1.0449 -0.1446 -0.4392
 8555SOL    HW137127   3.567   4.283   3.507  1.0079 -1.7373 -0.7696
 8555SOL    HW237128   3.690   4.363   3.537 -1.4092  0.7181 -1.6278
 8556SOL     OW37129   4.352   4.679   5.191  0.0594  0.0121  0.2313
 8556SOL    HW137130   4.428   4.622   5.207  1.5232  1.6238 -1.1229
 8556SOL    HW237131   4.326   4.642   5.107  1.1327  3.2619 -1.4862
 8557SOL     OW37132   4.027   4.547   7.791 -0.2777 -0.0419 -0.5143
 8557SOL    HW137133   4.092   4.542   7.860 -1.4394 -1.1305  0.5056
 8557SOL    HW237134   3.973   4.478   7.830  0.8588 -0.1577  0.8171
 8558SOL     OW37135   2.809   3.156  14.663  0.0054  0.0914 -0.2451
 8558SOL    HW137136   2.902   3.154  14.685 -0.4601 -1.1465  1.6468
 8558SOL    HW237137   2.786   3.075  14.709 -0.8326 -0.0886 -0.9803
 8559SOL     OW37138   3.550   0.952  15.544 -0.0860  0.6583 -0.1074
 8559SOL    HW137139   3.575   1.009  15.471  0.2149 -0.1548 -0.6337
 8559SOL    HW237140   3.469   0.912  15.513  0.4549  0.9103 -1.8585
 8560SOL     OW37141   2.500   2.177   5.628  0.3352  0.7989 -0.5776
 8560SOL    HW137142   2.457   2.260   5.605 -0.6140  0.6180  0.5063
 8560SOL    HW237143   2.478   2.178   5.722 -0.0245  1.2938 -0.6669
 8561SOL     OW37144   4.365   4.704  17.273  0.0658  0.5732 -0.5238
 8561SOL    HW137145   4.434   4.699  17.206  0.9840  0.0290  0.4590
 8561SOL    HW237146   4.323   4.622  17.249  1.3625 -0.4650  0.8076
 8562SOL     OW37147   3.667   2.848   7.309 -0.1654  0.0314  0.0425
 8562SOL    HW137148   3.652   2.940   7.333  0.2607  0.2922 -0.7070
 8562SOL    HW237149   3.694   2.851   7.218 -3.1571  0.7956 -0.8232
 8563SOL     OW37150   1.787   2.001   2.238  0.3219 -0.7512  0.1226
 8563SOL    HW137151   1.853   1.986   2.170 -1.6666 -1.0724 -1.7043
 8563SOL    HW237152   1.704   1.990   2.192 -0.8562 -0.1851  2.1043
 8564SOL     OW37153   0.688   1.244  16.653  0.2463  0.1295  0.4137
 8564SOL    HW137154   0.637   1.271  16.577  0.5147 -3.6307 -1.1091
 8564SOL    HW237155   0.660   1.153  16.663 -1.8904  0.7592  0.1640
 8565SOL     OW37156   4.580   1.071   6.291 -0.2168  0.6098 -0.2409
 8565SOL    HW137157   4.536   1.149   6.259  1.8101  0.0034 -4.4823
 8565SOL    HW237158   4.563   1.078   6.385 -0.8625 -1.4273 -0.2219
 8566SOL     OW37159   0.638   2.465  10.868 -0.0977  0.0158  0.4631
 8566SOL    HW137160   0.625   2.517  10.947  1.4591  2.3307 -0.8067
 8566SOL    HW237161   0.672   2.386  10.909  0.3874 -0.1138 -0.1848
 8567SOL     OW37162   3.111   0.291  16.600  0.2809  0.3366  0.0048
 8567SOL    HW137163   3.036   0.299  16.659  0.6054 -0.5976  0.5518
 8567SOL    HW237164   3.086   0.205  16.566  2.3368 -0.1295 -0.3505
 8568SOL     OW37165   3.488   1.004   3.144 -0.3991  0.0060 -0.2904
 8568SOL    HW137166   3.549   1.032   3.212 -1.5332 -0.4978  0.9377
 8568SOL    HW237167   3.541   1.021   3.066  0.3052  0.2205  0.2374
 8569SOL     OW37168   2.658   2.164   6.842 -0.1632  0.8031 -0.2359
 8569SOL    HW137169   2.609   2.192   6.764 -1.2832 -1.2222 -0.2507
 8569SOL    HW237170   2.749   2.172   6.812  0.7922 -0.2576  2.3574
 8570SOL     OW37171   0.441   1.097   2.598 -0.1829  0.4583 -0.1230
 8570SOL    HW137172   0.532   1.083   2.626 -0.0086  0.3577 -0.7206
 8570SOL    HW237173   0.429   1.061   2.510  1.4730 -0.4875  0.0262
 8571SOL     OW37174   0.365   3.322   6.463  0.4305 -0.0896  0.0414
 8571SOL    HW137175   0.422   3.394   6.494  4.1070 -2.0432 -2.2121
 8571SOL    HW237176   0.315   3.348   6.386  1.4225 -0.2951 -0.6759
 8572SOL     OW37177   0.997   1.616  13.524  0.1028  0.6673  0.0693
 8572SOL    HW137178   0.976   1.693  13.576  0.3965  0.7238  0.1036
 8572SOL    HW237179   0.911   1.579  13.505 -0.0486 -0.1710  2.3751
 8573SOL     OW37180   0.669   0.445   4.701  0.2799 -0.3038  0.5920
 8573SOL    HW137181   0.647   0.462   4.792 -1.3908 -2.9501  0.6824
 8573SOL    HW237182   0.723   0.369   4.720  1.4086  0.6179  1.0409
 8574SOL     OW37183   1.540   2.265  17.442 -0.0474 -0.1422 -0.0966
 8574SOL    HW137184   1.537   2.351  17.399  1.3805  0.0918  0.2606
 8574SOL    HW237185   1.556   2.301  17.529 -0.9450 -0.8510  0.3620
 8575SOL     OW37186   1.167   2.013  15.800  0.1791 -0.0763 -0.4767
 8575SOL    HW137187   1.201   2.072  15.867 -0.9693  0.1839 -0.1280
 8575SOL    HW237188   1.124   2.080  15.746 -3.1287 -0.7976  1.3077
 8576SOL     OW37189   2.623   4.333   6.985 -0.2440 -0.4942  0.7505
 8576SOL    HW137190   2.651   4.396   6.919  0.8952 -0.6151  1.1071
 8576SOL    HW237191   2.612   4.390   7.061  0.7454 -0.0016  0.5269
 8577SOL     OW37192   4.671   4.684   2.386 -0.4720  0.0247 -0.1283
 8577SOL    HW137193   4.676   4.692   2.290 -0.9432 -1.8852 -0.3258
 8577SOL    HW237194   0.011   4.618   2.409 -0.3263  0.6840  1.3283
 8578SOL     OW37195   1.927   4.587   3.089 -0.2465 -0.0395  0.4689
 8578SOL    HW137196   1.861   4.653   3.111 -1.0561 -0.5105 -0.5854
 8578SOL    HW237197   1.964   4.625   3.009 -2.5256  3.2508  0.9438
 8579SOL     OW37198   3.524   2.394   5.542 -0.0183 -0.1001  0.4628
 8579SOL    HW137199   3.559   2.323   5.488 -0.2849 -2.0645  2.8654
 8579SOL    HW237200   3.454   2.425   5.484 -0.3136 -0.4078  0.6510
 8580SOL     OW37201   0.780   0.131   5.665  0.1754 -0.1148  0.0751
 8580SOL    HW137202   0.800   0.209   5.716 -0.1888 -0.0955  0.1855
 8580SOL    HW237203   0.838   0.075   5.717 -1.3065  0.5593  2.4739
 8581SOL     OW37204   0.073   4.195  11.690 -0.6712 -0.0095 -0.0912
 8581SOL    HW137205   0.108   4.264  11.747 -0.7411 -1.0426  1.2146
 8581SOL    HW237206   0.154   4.167  11.648 -1.5287  0.8183 -2.3258
 8582SOL     OW37207   3.435   0.812  12.710 -0.7747 -0.0703  0.2029
 8582SOL    HW137208   3.460   0.848  12.795  0.4567  0.3234 -0.3339
 8582SOL    HW237209   3.474   0.726  12.729  1.4369  0.4546 -1.9718
 8583SOL     OW37210   4.644   3.168   1.421 -0.3579 -0.2256 -0.1767
 8583SOL    HW137211   0.007   3.200   1.409  0.0951 -1.1272  0.7503
 8583SOL    HW237212   4.656   3.086   1.469  2.0271  1.3835  1.9713
 8584SOL     OW37213   1.495   1.152   5.219 -0.1106  0.8271  0.4185
 8584SOL    HW137214   1.580   1.110   5.232 -0.6216  0.0515  1.1990
 8584SOL    HW237215   1.444   1.117   5.292 -2.3415 -0.3674 -1.7074
 8585SOL     OW37216   0.715   2.212   7.440 -0.0364 -0.0183  0.1119
 8585SOL    HW137217   0.765   2.293   7.451 -0.2383  0.1021  0.1330
 8585SOL    HW237218   0.740   2.184   7.352 -2.0885  0.3304 -0.5746
 8586SOL     OW37219   4.539   3.183  12.433  0.0298 -0.1621  0.4052
 8586SOL    HW137220   4.519   3.093  12.455  1.9324 -0.2985  1.5550
 8586SOL    HW237221   4.634   3.195  12.435  0.1937 -1.1308 -1.5401
 8587SOL     OW37222   3.694   4.458   8.954  0.1816 -0.2192  0.2060
 8587SOL    HW137223   3.611   4.418   8.977 -0.5192  2.2957  2.0364
 8587SOL    HW237224   3.751   4.420   9.022 -0.5271 -0.4298  0.6803
 8588SOL     OW37225   2.034   4.236   5.038 -0.2892  0.7012 -0.2933
 8588SOL    HW137226   1.958   4.283   5.071  0.1457  0.1991  1.4506
 8588SOL    HW237227   2.085   4.303   4.994 -0.6584 -1.6553 -4.3156
 8589SOL     OW37228   2.408   4.084  10.523  0.3179  0.0125 -0.5116
 8589SOL    HW137229   2.327   4.129  10.549  0.8091  0.2449  0.6412
 8589SOL    HW237230   2.391   3.992  10.543 -1.5783  0.2622 -1.0160
 8590SOL     OW37231   0.419   1.346   1.818 -0.9839  0.3075  0.0932
 8590SOL    HW137232   0.360   1.420   1.835  0.8157  1.4293  1.3533
 8590SOL    HW237233   0.402   1.333   1.724  1.3503  0.2631 -0.3294
 8591SOL     OW37234   2.462   4.646   2.658  0.1421  0.1694 -0.3221
 8591SOL    HW137235   2.401   4.599   2.715  1.6150 -0.1796  0.9932
 8591SOL    HW237236   2.424   4.656   2.571  2.5674  1.8808 -1.1691
 8592SOL     OW37237   2.864   3.820   4.818 -0.8590 -0.5218  0.5638
 8592SOL    HW137238   2.793   3.868   4.861  0.3285  1.6133  0.1104
 8592SOL    HW237239   2.807   3.767   4.762  0.0943  1.6506 -2.4401
 8593SOL     OW37240   2.987   0.942   9.112  0.7034  0.1638  0.4107
 8593SOL    HW137241   3.029   0.982   9.188  1.5536  2.3687 -1.2218
 8593SOL    HW237242   3.030   0.984   9.037  0.3107  2.0065  1.1966
 8594SOL     OW37243   1.617   0.807   8.544  0.4020  0.2482 -0.0084
 8594SOL    HW137244   1.627   0.784   8.637  0.0957 -0.6751 -0.2007
 8594SOL    HW237245   1.627   0.902   8.540 -0.1938  0.3938  1.8347
 8595SOL     OW37246   2.797   1.469   2.894 -0.1888 -0.8225 -0.7649
 8595SOL    HW137247   2.890   1.488   2.908 -1.1227  3.1452 -0.0261
 8595SOL    HW237248   2.775   1.559   2.871 -0.2623 -0.8592 -0.8362
 8596SOL     OW37249   2.298   3.305  12.812 -0.1946  0.2538 -0.0936
 8596SOL    HW137250   2.341   3.313  12.727 -0.6990 -2.5612 -0.6145
 8596SOL    HW237251   2.216   3.258  12.795 -0.5664  1.0170 -0.4141
 8597SOL     OW37252   1.830   1.612   3.107  0.5584  0.4515  0.1701
 8597SOL    HW137253   1.900   1.673   3.128  2.3243 -1.5855  0.2111
 8597SOL    HW237254   1.810   1.614   3.014 -0.2568  4.1170  0.4224
 8598SOL     OW37255   4.208   0.749   7.679  0.5091 -0.1682  0.0267
 8598SOL    HW137256   4.150   0.824   7.664 -0.6639 -1.3748 -1.4519
 8598SOL    HW237257   4.170   0.716   7.761  1.6765  0.0610  0.6618
 8599SOL     OW37258   1.913   3.133  11.772  0.2420 -0.1056  0.1547
 8599SOL    HW137259   1.886   3.154  11.862  0.9870 -1.0405  0.5968
 8599SOL    HW237260   1.992   3.083  11.793 -0.0799 -1.4748 -1.9556
 8600SOL     OW37261   4.677   0.476  12.019 -0.3271  0.1859 -0.0324
 8600SOL    HW137262   0.010   0.449  12.088 -0.9334 -0.3158  0.2921
 8600SOL    HW237263   4.608   0.518  12.070  0.9943  3.0661 -0.5941
 8601SOL     OW37264   2.766   2.831   8.513  0.2501  0.1562  0.5399
 8601SOL    HW137265   2.846   2.814   8.565 -1.4062 -0.8855  2.7684
 8601SOL    HW237266   2.710   2.758   8.539  0.1962  0.6803  1.9101
 8602SOL     OW37267   0.805   1.886   8.817 -0.6405 -0.1164 -0.2338
 8602SOL    HW137268   0.729   1.869   8.762 -0.1731  2.2280 -1.5916
 8602SOL    HW237269   0.800   1.979   8.835 -1.1303 -0.0863 -0.5298
 8603SOL     OW37270   1.465   1.133   9.332 -0.2741  0.3860  0.6901
 8603SOL    HW137271   1.481   1.223   9.303  0.2399 -0.4115 -1.4781
 8603SOL    HW237272   1.499   1.138   9.422  1.1347  1.4294  0.0875
 8604SOL     OW37273   4.161   2.885   2.679 -0.0514 -0.3630  0.1338
 8604SOL    HW137274   4.154   2.920   2.590  0.6630  1.4093  0.7747
 8604SOL    HW237275   4.251   2.911   2.701  0.7333 -2.2403 -0.8614
 8605SOL     OW37276   2.126   2.429   0.925 -0.5120  0.2781 -0.1421
 8605SOL    HW137277   2.186   2.380   0.982  0.1721  1.6085  0.2813
 8605SOL    HW237278   2.141   2.520   0.950 -0.4973 -0.0577  1.0785
 8606SOL     OW37279   2.390   0.743   5.684 -0.0069  0.0414 -0.3037
 8606SOL    HW137280   2.383   0.835   5.710 -0.7121  0.2041 -1.0567
 8606SOL    HW237281   2.297   0.721   5.670 -0.7821  2.6686  0.7951
 8607SOL     OW37282   3.299   0.632  14.046  0.1710  0.0200 -0.0020
 8607SOL    HW137283   3.252   0.676  13.975 -0.6727  1.7826  1.6482
 8607SOL    HW237284   3.339   0.712  14.081 -2.2295  1.7718 -1.3014
 8608SOL     OW37285   3.387   2.225   0.129  0.2639  0.0987 -0.2391
 8608SOL    HW137286   3.327   2.299   0.120 -1.6277 -1.4293 -0.1684
 8608SOL    HW237287   3.467   2.276   0.140  0.6002 -0.5106  0.1155
 8609SOL     OW37288   1.760   2.628   5.402  0.6254  0.0446 -0.5566
 8609SOL    HW137289   1.704   2.600   5.330  2.3207  0.5590 -2.0594
 8609SOL    HW237290   1.725   2.568   5.468 -1.0535  0.2879 -1.2384
 8610SOL     OW37291   1.546   2.034  17.294  0.3466  0.1568 -0.1361
 8610SOL    HW137292   1.517   1.968  17.357 -2.9411 -0.0494 -1.8849
 8610SOL    HW237293   1.543   2.117  17.341 -1.3319  0.1103 -0.1756
 8611SOL     OW37294   4.635   0.297  16.871 -0.1573  0.7586  0.7364
 8611SOL    HW137295   4.678   0.344  16.942  2.6682  0.2812 -0.6420
 8611SOL    HW237296   4.613   0.213  16.910 -0.5344  0.0739 -0.9653
 8612SOL     OW37297   3.228   3.464   3.814  0.0030 -0.7450  0.7839
 8612SOL    HW137298   3.177   3.384   3.798  1.5433 -2.0184  2.3037
 8612SOL    HW237299   3.158   3.527   3.828  1.0566  0.6906 -0.4475
 8613SOL     OW37300   0.200   3.642   4.994 -0.3690 -0.6483  0.2360
 8613SOL    HW137301   0.283   3.610   4.958 -0.9400 -0.8029 -0.9491
 8613SOL    HW237302   0.202   3.730   4.958  0.7869 -1.5741 -1.9851
 8614SOL     OW37303   3.579   4.354   2.719 -0.2309  0.7152  0.8707
 8614SOL    HW137304   3.521   4.412   2.670 -1.1211 -1.4013 -0.5602
 8614SOL    HW237305   3.580   4.280   2.658 -1.7568  1.3313  0.1129
 8615SOL     OW37306   3.651   0.665   8.631  0.0215  0.0088 -0.0966
 8615SOL    HW137307   3.739   0.672   8.669 -0.3544  0.5843  0.6580
 8615SOL    HW237308   3.673   0.661   8.538  1.1888 -0.5363  0.2008
 8616SOL     OW37309   3.663   4.690   8.052 -0.0616 -0.2623 -0.6689
 8616SOL    HW137310   3.710   4.708   7.971 -0.5189 -3.2504 -1.5743
 8616SOL    HW237311   3.617   0.046   8.065  0.2524 -0.3125  0.8248
 8617SOL     OW37312   0.327   4.118   5.446 -0.0729 -0.0060  0.0557
 8617SOL    HW137313   0.377   4.189   5.487 -1.2214  1.1166 -0.4974
 8617SOL    HW237314   0.263   4.167   5.394  0.2718  0.5295  0.1299
 8618SOL     OW37315   0.085   4.079   6.747 -0.3630 -0.2073  0.0096
 8618SOL    HW137316   0.104   4.008   6.685 -2.4919 -0.5020 -0.2861
 8618SOL    HW237317   0.002   4.112   6.714 -0.2687 -0.1945 -0.2187
 8619SOL     OW37318   1.764   2.286   4.872  0.5364 -0.6327  0.0785
 8619SOL    HW137319   1.693   2.235   4.909  0.5070 -0.1940  0.6215
 8619SOL    HW237320   1.806   2.317   4.952  1.3366  0.2280 -0.6596
 8620SOL     OW37321   4.454   3.925   3.433 -0.3904  0.0048 -0.1532
 8620SOL    HW137322   4.473   4.018   3.422 -0.6180 -0.1184 -1.5563
 8620SOL    HW237323   4.435   3.917   3.527  0.2625  1.0309  0.0647
 8621SOL     OW37324   1.750   1.407   3.692 -0.3696  0.2475 -0.8092
 8621SOL    HW137325   1.772   1.484   3.745  2.9993 -1.0468 -0.2581
 8621SOL    HW237326   1.823   1.399   3.631 -0.2337  0.7298 -0.7127
 8622SOL     OW37327   2.451   3.771  11.448 -0.1401 -0.1258 -0.4117
 8622SOL    HW137328   2.540   3.784  11.479  0.0772  1.2460 -1.5966
 8622SOL    HW237329   2.412   3.781  11.535 -1.8511 -0.5486 -1.1271
 8623SOL     OW37330   3.206   2.196  11.590  0.2218  0.0199 -0.7810
 8623SOL    HW137331   3.196   2.112  11.545 -0.9340  0.0752 -0.6291
 8623SOL    HW237332   3.113   2.211  11.605  0.1242  0.4192 -1.8074
 8624SOL     OW37333   4.199   1.146   2.289 -0.1756 -0.1025 -0.5748
 8624SOL    HW137334   4.280   1.109   2.253  1.1319  1.5018  0.7061
 8624SOL    HW237335   4.139   1.135   2.215 -0.9677  3.1695 -0.4552
 8625SOL     OW37336   0.473   0.870   7.071 -0.1864  0.5688  0.6587
 8625SOL    HW137337   0.394   0.859   7.019 -0.3893 -2.6017  1.5962
 8625SOL    HW237338   0.441   0.853   7.159  0.6885  1.6129  1.1769
 8626SOL     OW37339   1.574   3.493  14.894 -0.2557  0.5101  0.3385
 8626SOL    HW137340   1.576   3.504  14.799 -1.2492  0.3458  0.2937
 8626SOL    HW237341   1.666   3.520  14.900  0.5004 -1.9442 -0.0014
 8627SOL     OW37342   2.061   0.861   3.366 -0.2338 -0.5009 -0.3411
 8627SOL    HW137343   2.038   0.814   3.286 -0.7812 -3.9303  1.8127
 8627SOL    HW237344   1.973   0.899   3.374 -0.4806 -0.8257 -1.6349
 8628SOL     OW37345   2.926   0.255  16.817 -0.4478 -0.0804  0.5499
 8628SOL    HW137346   2.891   0.169  16.840 -0.8219 -0.0895 -0.0656
 8628SOL    HW237347   2.930   0.298  16.902 -1.6197  0.7664  0.1668
 8629SOL     OW37348   4.182   3.398   8.795 -0.0017  0.3655  0.1758
 8629SOL    HW137349   4.272   3.392   8.828 -0.2106  2.1642  1.1117
 8629SOL    HW237350   4.152   3.475   8.844 -0.3250 -1.0647  2.1993
 8630SOL     OW37351   1.358   0.482   2.794 -0.2665 -0.0593  0.6794
 8630SOL    HW137352   1.297   0.554   2.810  1.1079  0.6761  2.7589
 8630SOL    HW237353   1.442   0.528   2.803 -0.1269 -0.2508  0.3566
 8631SOL     OW37354   4.397   2.952   5.547 -0.0853 -0.0570  0.0459
 8631SOL    HW137355   4.349   2.871   5.536 -0.3362 -0.0976  1.3653
 8631SOL    HW237356   4.482   2.936   5.507 -0.8571 -1.6801 -0.9160
 8632SOL     OW37357   1.358   4.693   5.214  0.0391 -0.3078  0.1767
 8632SOL    HW137358   1.351   4.654   5.301 -0.8424  0.1621  0.3178
 8632SOL    HW237359   1.450   4.718   5.205 -0.0902 -0.3922 -1.3882
 8633SOL     OW37360   3.770   1.090   2.442 -0.3834 -0.5702  0.3811
 8633SOL    HW137361   3.726   1.107   2.358  0.0482 -0.1142  0.2490
 8633SOL    HW237362   3.692   1.057   2.487 -1.5897  1.9675  0.1717
 8634SOL     OW37363   2.890   1.471  10.281 -0.1117  0.4655 -0.0163
 8634SOL    HW137364   2.832   1.403  10.317  0.8760 -1.3854 -1.9498
 8634SOL    HW237365   2.823   1.530  10.247  0.3832  1.3453  0.5281
 8635SOL     OW37366   3.238   0.205   7.676  0.1375 -0.3434 -0.4667
 8635SOL    HW137367   3.266   0.261   7.603 -0.0036  0.9797  0.4891
 8635SOL    HW237368   3.318   0.153   7.684  0.9053  0.7752 -0.7646
 8636SOL     OW37369   1.899   2.114   5.354  0.3032  0.0561 -0.0598
 8636SOL    HW137370   1.966   2.059   5.314  0.4007  1.0213 -1.2089
 8636SOL    HW237371   1.883   2.080   5.443 -0.0495  0.5249  0.0557
 8637SOL     OW37372   3.051   2.987  15.358 -0.0357  0.0193  0.3244
 8637SOL    HW137373   3.076   3.069  15.315 -0.2252 -0.0495  0.0841
 8637SOL    HW237374   3.141   2.954  15.365 -0.7401 -1.8614  0.4528
 8638SOL     OW37375   1.935   0.980   9.595 -0.4268 -0.0583  0.4455
 8638SOL    HW137376   1.857   0.925   9.591 -0.6316  0.2803 -0.2049
 8638SOL    HW237377   1.914   1.016   9.681 -1.1879  0.9322 -0.1676
 8639SOL     OW37378   4.451   3.678   4.160  0.2955  0.1763  0.4830
 8639SOL    HW137379   4.369   3.652   4.202 -0.8056  1.4007 -0.9117
 8639SOL    HW237380   4.478   3.618   4.090  3.8801  1.2783  0.9020
 8640SOL     OW37381   1.531   3.143  15.959 -0.0164 -0.6252 -0.0799
 8640SOL    HW137382   1.534   3.084  15.884  0.8863  1.4159 -1.6635
 8640SOL    HW237383   1.490   3.229  15.944 -1.4068 -0.8149  2.5738
 8641SOL     OW37384   0.615   3.167   3.482  0.2949 -0.1680 -0.1350
 8641SOL    HW137385   0.525   3.199   3.487 -0.0011 -0.9128 -0.6946
 8641SOL    HW237386   0.597   3.073   3.473 -0.1107 -0.1291  0.2726
 8642SOL     OW37387   2.353   4.405   2.096 -0.1207  0.1299 -0.3240
 8642SOL    HW137388   2.433   4.378   2.052  0.4939  1.9711 -0.3440
 8642SOL    HW237389   2.390   4.439   2.178 -1.7510 -1.2793  0.9970
 8643SOL     OW37390   2.856   1.066   1.541 -0.2235  0.3553  0.2060
 8643SOL    HW137391   2.890   0.977   1.550  2.3268  1.1213 -1.9324
 8643SOL    HW237392   2.844   1.072   1.636  0.1949  0.1339  0.2725
 8644SOL     OW37393   0.708   4.272   3.455  0.1969  0.9433  0.2557
 8644SOL    HW137394   0.766   4.242   3.385 -0.6277  2.3254 -1.0161
 8644SOL    HW237395   0.763   4.331   3.505 -0.1652  1.3636  0.1545
 8645SOL     OW37396   2.282   1.458   3.636  0.6889 -0.0840  0.4802
 8645SOL    HW137397   2.244   1.388   3.582  0.7752 -1.8550  2.6744
 8645SOL    HW237398   2.218   1.458   3.708 -0.7573  0.6942 -0.8127
 8646SOL     OW37399   2.242   4.627   3.853 -0.2366  0.0438 -0.4512
 8646SOL    HW137400   2.296   4.563   3.900  2.5532  0.7991 -2.6206
 8646SOL    HW237401   2.311   4.667   3.800  1.1411 -0.9760  0.5903
 8647SOL     OW37402   4.327   0.107  10.025  0.1494 -0.2332 -0.3765
 8647SOL    HW137403   4.269   0.172   9.985 -1.1426 -1.1911 -0.0650
 8647SOL    HW237404   4.294   0.024   9.989 -0.1234  0.2874 -1.3399
 8648SOL     OW37405   1.271   2.403   1.406 -0.0634  0.0117 -0.2402
 8648SOL    HW137406   1.361   2.369   1.401 -0.3599 -0.8748  0.3454
 8648SOL    HW237407   1.249   2.416   1.314 -0.3574 -1.6243 -0.4012
 8649SOL     OW37408   1.593   1.795   5.284 -0.2124  0.2221  0.0429
 8649SOL    HW137409   1.622   1.725   5.226  1.0176  0.8643 -0.1236
 8649SOL    HW237410   1.655   1.790   5.357  0.7228 -0.4589 -0.8032
 8650SOL     OW37411   1.095   2.599   1.512  0.0328 -0.0374 -0.6802
 8650SOL    HW137412   1.148   2.522   1.491  0.5845  0.7806 -2.2838
 8650SOL    HW237413   1.072   2.630   1.424 -0.3133  0.7581 -0.3093
 8651SOL     OW37414   2.515   3.266  16.588  0.0786 -0.4164  0.3590
 8651SOL    HW137415   2.431   3.255  16.543 -0.6343 -0.4688  1.7262
 8651SOL    HW237416   2.582   3.225  16.532 -0.2087  0.6390 -0.7475
 8652SOL     OW37417   2.840   0.877   5.229 -0.8124  0.0776  0.1861
 8652SOL    HW137418   2.883   0.792   5.225  0.4604  0.6362  1.8674
 8652SOL    HW237419   2.916   0.932   5.210  0.6284 -1.8216  0.4772
 8653SOL     OW37420   2.131   2.238   8.089 -0.4338 -0.7392  0.4389
 8653SOL    HW137421   2.163   2.325   8.112 -0.4381 -0.5732 -0.1646
 8653SOL    HW237422   2.181   2.181   8.147 -0.4370 -1.2664 -0.0772
 8654SOL     OW37423   1.622   1.356   4.321  0.6564  0.5754  0.3695
 8654SOL    HW137424   1.564   1.423   4.356 -0.4622  0.2691 -0.9075
 8654SOL    HW237425   1.562   1.308   4.264  2.1337 -3.3384  2.1216
 8655SOL     OW37426   0.134   2.803   2.955  0.1772 -0.4654 -0.6112
 8655SOL    HW137427   0.174   2.724   2.991  0.6561  0.4734  0.8942
 8655SOL    HW237428   0.098   2.835   3.037 -0.9197  0.2820 -1.3932
 8656SOL     OW37429   0.875   3.240   0.036 -0.0770 -0.0094 -0.0507
 8656SOL    HW137430   0.807   3.305   0.051 -0.1828  0.2227 -1.5311
 8656SOL    HW237431   0.914   3.246   0.123 -2.0766 -0.2149  0.8555
 8657SOL     OW37432   3.694   4.725   2.015  0.3236  0.1717  0.4644
 8657SOL    HW137433   3.691   0.036   1.927  0.4616 -0.9530 -0.0253
 8657SOL    HW237434   3.773   0.043   2.044  0.0466  0.1127  1.3047
 8658SOL     OW37435   0.498   0.072  17.631 -0.0580 -0.1145 -0.1910
 8658SOL    HW137436   0.495   4.703  17.626  3.4746 -0.2304  0.2252
 8658SOL    HW237437   0.421   0.080  17.574  2.3890  3.1320 -3.0406
 8659SOL     OW37438   4.059   1.534   4.798 -0.0896  0.0286 -0.4563
 8659SOL    HW137439   4.148   1.501   4.808  0.2145  0.2291 -2.3724
 8659SOL    HW237440   4.061   1.614   4.850  1.1727  0.9454 -1.9104
 8660SOL     OW37441   3.093   3.074   3.655  0.1727  0.0999  0.4884
 8660SOL    HW137442   3.069   2.989   3.690 -0.6289 -0.5374 -1.6151
 8660SOL    HW237443   3.083   3.134   3.730  0.5540 -0.9209  1.3564
 8661SOL     OW37444   4.684   1.133   1.906 -0.1729 -0.1045  0.3035
 8661SOL    HW137445   4.611   1.182   1.868 -1.3694 -0.6687  1.8749
 8661SOL    HW237446   0.019   1.144   1.833 -1.0191 -0.9422 -0.5436
 8662SOL     OW37447   3.276   1.387   7.655 -0.2705 -0.1412  0.0075
 8662SOL    HW137448   3.287   1.294   7.631  1.3698  0.2567 -0.7926
 8662SOL    HW237449   3.187   1.401   7.622  0.5161  1.6034 -1.3698
 8663SOL     OW37450   4.045   0.998   9.732  0.2968 -0.5356  0.0465
 8663SOL    HW137451   4.129   0.969   9.768 -0.0149 -0.9529  0.4519
 8663SOL    HW237452   4.000   1.011   9.816 -0.5193  0.5067 -0.5575
 8664SOL     OW37453   2.827   2.456   8.351 -0.1927 -0.3990 -0.3756
 8664SOL    HW137454   2.855   2.460   8.443 -0.1166  0.8194 -0.4519
 8664SOL    HW237455   2.894   2.492   8.294  0.9477  0.1442  1.3270
 8665SOL     OW37456   4.086   1.617   3.440 -0.4026  0.1347 -0.4742
 8665SOL    HW137457   4.158   1.555   3.433 -0.5178 -0.0601  0.0201
 8665SOL    HW237458   4.111   1.691   3.386  0.4472 -0.6964 -1.2054
 8666SOL     OW37459   3.037   4.212  14.007 -0.1467 -0.4239  0.0688
 8666SOL    HW137460   3.074   4.152  14.073 -0.1186 -1.7795 -1.1643
 8666SOL    HW237461   2.943   4.195  14.016 -0.5958  1.8103 -0.5731
 8667SOL     OW37462   1.542   3.216   7.219 -0.3888 -0.3802  0.2249
 8667SOL    HW137463   1.596   3.201   7.141 -0.6366  0.2920 -0.0773
 8667SOL    HW237464   1.507   3.305   7.221 -0.7037 -0.5015  0.0833
 8668SOL     OW37465   3.680   0.839   5.751 -0.0956  0.5674 -0.3715
 8668SOL    HW137466   3.591   0.812   5.774  0.5292 -0.7841  0.4331
 8668SOL    HW237467   3.703   0.901   5.820  0.9497 -0.7845  0.4782
 8669SOL     OW37468   2.705   0.131  13.211 -0.6101 -0.7556  0.5068
 8669SOL    HW137469   2.616   0.111  13.179 -1.1821  0.5904  1.2802
 8669SOL    HW237470   2.705   0.116  13.305 -1.2434 -0.3381  0.5729
 8670SOL     OW37471   2.125   1.198   2.515 -0.3119 -0.3272  0.3938
 8670SOL    HW137472   2.120   1.195   2.419  1.4935 -0.3521  0.3051
 8670SOL    HW237473   2.036   1.172   2.539 -0.9853  1.2668 -0.3906
 8671SOL     OW37474   0.721   1.445   1.943 -0.3265 -0.3904  0.3554
 8671SOL    HW137475   0.730   1.538   1.965  0.2169  0.2347 -2.5530
 8671SOL    HW237476   0.804   1.418   1.904 -0.6166  2.3795 -2.1443
 8672SOL     OW37477   1.458   3.159   5.692 -0.6685  0.0453  0.0325
 8672SOL    HW137478   1.394   3.226   5.667 -0.3745 -0.3144 -1.6507
 8672SOL    HW237479   1.400   3.083   5.705 -0.9045  0.7365  3.2200
 8673SOL     OW37480   4.519   4.014   6.405 -0.5718  0.7822  0.2077
 8673SOL    HW137481   4.525   4.079   6.335 -1.8625 -0.5528 -1.1507
 8673SOL    HW237482   4.600   3.962   6.401 -1.7506 -0.8849 -1.8629
 8674SOL     OW37483   1.974   4.180   4.255  0.3156 -0.7290 -0.2509
 8674SOL    HW137484   1.991   4.273   4.239  1.7869 -1.1996 -1.4126
 8674SOL    HW237485   1.888   4.174   4.213 -1.3413 -3.0416  3.5532
 8675SOL     OW37486   3.448   0.597   5.547  0.0773  0.3518  0.2302
 8675SOL    HW137487   3.401   0.515   5.559  1.0900 -0.3158 -0.3630
 8675SOL    HW237488   3.405   0.655   5.610 -1.3487 -0.8151  0.3140
 8676SOL     OW37489   3.102   1.536   2.888 -0.2985  0.8111 -0.0237
 8676SOL    HW137490   3.138   1.538   2.977  1.1376  0.6105 -0.6096
 8676SOL    HW237491   3.184   1.561   2.846 -0.6412  0.5132 -0.8536
 8677SOL     OW37492   1.101   2.403   1.772 -0.1817 -0.1630 -0.5307
 8677SOL    HW137493   1.196   2.401   1.759 -0.0832 -0.0556  0.1775
 8677SOL    HW237494   1.092   2.321   1.821  1.0284  0.4262  0.6738
 8678SOL     OW37495   4.192   0.719   2.710 -0.1129 -0.2406 -0.8344
 8678SOL    HW137496   4.261   0.678   2.658 -0.5662 -0.7852 -1.0061
 8678SOL    HW237497   4.165   0.644   2.763 -0.7351  0.8288  0.3580
 8679SOL     OW37498   3.912   3.510   7.338  0.1808 -0.9030 -0.0630
 8679SOL    HW137499   3.872   3.588   7.300 -0.5013 -1.5783 -0.7224
 8679SOL    HW237500   3.999   3.508   7.300  1.1733  2.4377  1.9911
 8680SOL     OW37501   0.264   3.898   8.619 -0.0636 -0.2562 -0.0062
 8680SOL    HW137502   0.177   3.910   8.659  0.5522 -1.4111  1.6428
 8680SOL    HW237503   0.255   3.813   8.576  0.6637 -0.6436  0.6234
 8681SOL     OW37504   3.168   2.872   1.094 -0.2427 -0.2643  0.2075
 8681SOL    HW137505   3.238   2.890   1.156  1.0201 -0.9009 -1.0228
 8681SOL    HW237506   3.213   2.892   1.011  0.5662 -0.4492  0.6017
 8682SOL     OW37507   3.511   1.152   4.485  0.0879 -0.0327  0.4345
 8682SOL    HW137508   3.546   1.114   4.566  0.1799  0.3649  0.5806
 8682SOL    HW237509   3.588   1.193   4.446 -1.1881  2.5510  0.6437
 8683SOL     OW37510   1.653   0.853   8.260  0.2076 -0.2295  0.4597
 8683SOL    HW137511   1.643   0.796   8.336 -2.2466 -1.4289 -0.7997
 8683SOL    HW237512   1.572   0.905   8.259 -0.5067 -1.3506  0.5478
 8684SOL     OW37513   1.427   4.658   9.357  0.7670  0.4624  0.3273
 8684SOL    HW137514   1.482   4.662   9.435  2.2459 -0.7076 -0.6560
 8684SOL    HW237515   1.464   0.013   9.322  3.4395 -1.1021 -0.5404
 8685SOL     OW37516   3.189   4.276  10.079  0.9252 -0.1302 -0.1942
 8685SOL    HW137517   3.156   4.222  10.150  1.9708  0.5478  0.8090
 8685SOL    HW237518   3.123   4.268  10.011 -0.0318  1.9157  0.4884
 8686SOL     OW37519   0.035   0.931   2.599  0.6172 -0.0491  0.4237
 8686SOL    HW137520   0.097   0.863   2.572 -1.4798 -1.8910  0.1899
 8686SOL    HW237521   0.005   0.957   2.512  0.6047 -1.4653  0.0110
 8687SOL     OW37522   3.790   0.896  14.549 -0.1889 -0.7037  0.3358
 8687SOL    HW137523   3.726   0.835  14.511 -0.3872 -1.1021  1.2865
 8687SOL    HW237524   3.866   0.881  14.494  0.2245  1.1945  0.3898
 8688SOL     OW37525   0.736   1.988   4.672  0.2075 -0.2881 -0.2161
 8688SOL    HW137526   0.675   2.023   4.737  0.7133  1.1525 -0.5389
 8688SOL    HW237527   0.682   1.980   4.593 -0.7992 -1.0148  0.5379
 8689SOL     OW37528   1.012   0.111   2.997 -0.3988  0.0809  0.4012
 8689SOL    HW137529   1.045   0.173   3.062  1.9358 -0.0977 -0.5994
 8689SOL    HW237530   1.000   0.173   2.924 -0.2321  0.8966  1.0680
 8690SOL     OW37531   0.497   4.152   9.389  0.2650  0.1399  0.3100
 8690SOL    HW137532   0.490   4.151   9.293 -0.1469  0.4938  0.3378
 8690SOL    HW237533   0.409   4.137   9.422 -0.1808  1.8409 -0.1304
 8691SOL     OW37534   2.320   2.818   6.104  0.5024 -0.2225  0.1655
 8691SOL    HW137535   2.366   2.789   6.183  0.0570 -0.4127  0.3585
 8691SOL    HW237536   2.302   2.735   6.060 -0.9444  0.4073 -0.4334
 8692SOL     OW37537   2.364   4.438   4.772  0.1425 -0.3036  0.0888
 8692SOL    HW137538   2.324   4.358   4.737  1.5697 -0.0116 -2.2083
 8692SOL    HW237539   2.346   4.502   4.703 -1.7083 -3.6308 -2.5238
 8693SOL     OW37540   3.914   2.609   6.475 -0.4067 -0.1400 -0.3945
 8693SOL    HW137541   3.961   2.634   6.554 -1.1339  0.2664 -0.0871
 8693SOL    HW237542   3.897   2.515   6.483 -1.2126  0.3320  3.5496
 8694SOL     OW37543   1.673   2.982   0.167 -0.0450 -0.0920 -0.0629
 8694SOL    HW137544   1.616   2.956   0.240 -0.5121  2.3290  0.4151
 8694SOL    HW237545   1.683   3.077   0.162  0.1910 -0.2083 -1.9054
 8695SOL     OW37546   1.449   0.605  14.740 -0.3683 -0.2067  0.1087
 8695SOL    HW137547   1.525   0.575  14.690 -0.7247  0.6110 -0.9081
 8695SOL    HW237548   1.372   0.558  14.710  0.3352  0.0349 -2.0558
 8696SOL     OW37549   3.577   1.515   5.405 -0.1665  0.3663  0.6552
 8696SOL    HW137550   3.603   1.568   5.481 -1.5366 -0.4220  1.6782
 8696SOL    HW237551   3.502   1.563   5.369 -0.7019 -1.0337 -0.1028
 8697SOL     OW37552   0.651   2.624  15.829 -0.2268 -0.4523 -0.0181
 8697SOL    HW137553   0.603   2.629  15.746 -1.4473 -1.1420  0.6552
 8697SOL    HW237554   0.697   2.543  15.807 -1.3939 -1.1846  0.2329
 8698SOL     OW37555   3.574   2.956   2.325  0.2673 -0.3813  0.1799
 8698SOL    HW137556   3.490   2.916   2.301 -0.1565  0.8822 -0.4403
 8698SOL    HW237557   3.541   3.046   2.325  1.1983 -0.0454  0.5198
 8699SOL     OW37558   1.820   4.120  11.962  0.6407  0.1728  0.2194
 8699SOL    HW137559   1.810   4.215  11.961 -1.6268 -0.0741 -1.2574
 8699SOL    HW237560   1.794   4.114  12.054  2.4218 -0.6844  0.6598
 8700SOL     OW37561   0.309   3.919   0.041  0.7326 -0.0700 -0.1799
 8700SOL    HW137562   0.367   3.848   0.068 -1.1342 -2.1417 -1.6711
 8700SOL    HW237563   0.310   3.975   0.119 -2.6954 -0.3580  0.0522
 8701SOL     OW37564   2.765   3.847   2.923 -0.6145 -0.2765  0.5924
 8701SOL    HW137565   2.842   3.791   2.925 -1.0033 -1.0256 -3.6496
 8701SOL    HW237566   2.786   3.918   2.982  2.0965 -0.8077  0.2511
 8702SOL     OW37567   1.840   1.044   5.001  0.0958  0.0260 -0.0660
 8702SOL    HW137568   1.757   1.002   5.023 -0.1770 -0.7268 -2.5937
 8702SOL    HW237569   1.874   0.986   4.933  1.1208 -0.2051  0.6405
 8703SOL     OW37570   2.584   3.585  14.576  0.1229  0.6558 -0.3709
 8703SOL    HW137571   2.629   3.502  14.558 -0.2107  0.0932  1.3227
 8703SOL    HW237572   2.654   3.641  14.610  0.2471  0.2678  0.0220
 8704SOL     OW37573   3.948   2.122   8.782  0.0902  0.4238 -0.6915
 8704SOL    HW137574   4.027   2.077   8.812  0.0412  0.8085  0.0105
 8704SOL    HW237575   3.874   2.072   8.816  0.1094  0.1235 -1.0952
 8705SOL     OW37576   3.034   4.467   5.784  0.5361 -0.1359  0.4795
 8705SOL    HW137577   2.997   4.394   5.734 -2.9464  1.5390  0.5989
 8705SOL    HW237578   3.115   4.423   5.810 -1.1960 -2.6706  1.5872
 8706SOL     OW37579   1.884   3.956   6.283  0.5398 -0.1645  0.2133
 8706SOL    HW137580   1.940   3.960   6.205 -0.2063 -0.0195 -0.3235
 8706SOL    HW237581   1.902   4.044   6.315 -2.4601  0.1585  1.0460
 8707SOL     OW37582   1.366   4.179   8.795 -0.5465 -1.0446  0.2870
 8707SOL    HW137583   1.353   4.145   8.884 -2.7272  1.8339  1.0549
 8707SOL    HW237584   1.286   4.151   8.751  0.5523 -0.2518 -2.1787
 8708SOL     OW37585   2.367   1.622   3.893 -0.1463 -0.3190 -0.2347
 8708SOL    HW137586   2.382   1.580   3.978 -0.6567  0.2004  0.1075
 8708SOL    HW237587   2.295   1.683   3.907  1.8748  2.0082  0.1020
 8709SOL     OW37588   2.723   0.963   8.263 -0.0965 -0.1302  0.2082
 8709SOL    HW137589   2.644   0.951   8.211 -0.2858 -3.4762  1.2520
 8709SOL    HW237590   2.727   1.058   8.275  0.4787 -0.3188  1.6166
 8710SOL     OW37591   3.902   4.247   5.962 -0.1425 -0.0620 -0.0657
 8710SOL    HW137592   3.849   4.274   5.887  0.4957 -1.0316 -0.8603
 8710SOL    HW237593   3.898   4.325   6.017  1.8000  0.2126 -0.3222
 8711SOL     OW37594   2.859   3.520   6.157 -0.1231  0.1972 -0.2891
 8711SOL    HW137595   2.936   3.548   6.107  0.0236 -0.5680 -0.4924
 8711SOL    HW237596   2.906   3.494   6.236  0.3857 -1.4335 -1.1260
 8712SOL     OW37597   1.867   3.566   4.734  0.2151  0.1304  0.5542
 8712SOL    HW137598   1.870   3.518   4.652  0.2226 -0.6794  1.0239
 8712SOL    HW237599   1.930   3.510   4.781 -1.6660 -1.8428  0.6919
 8713SOL     OW37600   3.547   0.340   3.017 -0.3810 -0.0393 -0.1060
 8713SOL    HW137601   3.624   0.383   3.053 -0.9011 -0.2267  1.2006
 8713SOL    HW237602   3.580   0.250   3.012  0.4532  0.3736 -2.3316
 8714SOL     OW37603   3.553   1.930   4.763 -0.4098  0.2408 -0.1177
 8714SOL    HW137604   3.513   2.017   4.759 -2.0676 -0.5061  0.4211
 8714SOL    HW237605   3.600   1.925   4.680 -0.9120 -1.8946 -0.2824
 8715SOL     OW37606   2.791   3.537   8.662  0.3433 -0.2581  0.4595
 8715SOL    HW137607   2.712   3.559   8.712  0.7085 -0.1197  0.9802
 8715SOL    HW237608   2.759   3.528   8.573  0.6925 -0.7597  0.3819
 8716SOL     OW37609   2.642   1.435   5.913 -0.0358  0.1075  0.2632
 8716SOL    HW137610   2.701   1.396   5.849  0.8412  0.7972  0.6501
 8716SOL    HW237611   2.704   1.506   5.930 -1.1019  0.6255  2.0324
 8717SOL     OW37612   0.050   0.272   6.185  0.5139  0.0011  0.0548
 8717SOL    HW137613   4.726   0.318   6.252  1.4846  0.9757  0.1332
 8717SOL    HW237614   0.006   0.188   6.191 -0.6778  0.5699 -0.7080
 8718SOL     OW37615   2.469   1.830   9.791  0.5071 -0.0881 -0.3074
 8718SOL    HW137616   2.497   1.749   9.834  1.0677 -1.2002 -2.7607
 8718SOL    HW237617   2.383   1.815   9.753 -0.2082  0.6034  1.0403
 8719SOL     OW37618   3.981   0.383   8.887  0.0809 -0.2237 -0.3151
 8719SOL    HW137619   3.927   0.334   8.825  0.8982 -1.8465  0.2570
 8719SOL    HW237620   3.964   0.473   8.860  2.9666 -0.0669 -1.6446
 8720SOL     OW37621   2.574   2.713   1.744 -0.3496 -0.2326 -0.2840
 8720SOL    HW137622   2.563   2.759   1.661  1.0047 -0.2146 -0.4481
 8720SOL    HW237623   2.486   2.676   1.749 -0.2400 -0.4585  0.0247
 8721SOL     OW37624   3.419   0.179   5.459 -0.5099 -0.2278 -0.1162
 8721SOL    HW137625   3.359   0.190   5.386 -1.0851  1.4401  0.5856
 8721SOL    HW237626   3.505   0.160   5.421  0.1113 -1.6673  2.0253
 8722SOL     OW37627   2.874   0.575   4.395 -0.2846  0.8496  0.2060
 8722SOL    HW137628   2.847   0.638   4.462 -1.6538  0.8046 -0.3073
 8722SOL    HW237629   2.790   0.568   4.349 -0.7388  1.5725  0.9237
 8723SOL     OW37630   3.796   2.145   4.605  0.3624  0.0714  0.2464
 8723SOL    HW137631   3.709   2.183   4.618 -0.0490 -0.2129 -1.5489
 8723SOL    HW237632   3.857   2.218   4.609  3.1289 -2.4620  3.7073
 8724SOL     OW37633   2.294   2.197  14.318  0.2842  0.0693  0.2388
 8724SOL    HW137634   2.321   2.283  14.349 -1.0763  0.3722  0.6221
 8724SOL    HW237635   2.378   2.162  14.288 -0.6523 -2.0737  0.0820
 8725SOL     OW37636   0.261   2.212   4.835  0.6851  0.3211  0.5579
 8725SOL    HW137637   0.209   2.253   4.904 -0.3598 -2.5649  1.5182
 8725SOL    HW237638   0.308   2.280   4.788 -1.4103  1.9943  0.9092
 8726SOL     OW37639   1.059   1.034   0.362 -0.0092 -0.2462 -0.1993
 8726SOL    HW137640   1.117   1.107   0.384 -0.6788  0.3168 -0.2756
 8726SOL    HW237641   1.008   1.054   0.284 -0.7885  0.2369  0.4308
 8727SOL     OW37642   1.737   4.017   5.423 -0.0761  0.1776  0.2192
 8727SOL    HW137643   1.764   3.969   5.502 -0.2005 -0.6325 -0.2278
 8727SOL    HW237644   1.825   4.027   5.387 -1.5398 -0.5091 -3.5354
 8728SOL     OW37645   4.105   0.120  12.702 -0.3030  0.3998  0.0695
 8728SOL    HW137646   4.175   0.121  12.767  0.4139 -0.1609 -0.6789
 8728SOL    HW237647   4.034   0.146  12.760  1.1301  0.5171  1.7512
 8729SOL     OW37648   4.613   0.210   8.828  0.5816 -0.5709 -0.1198
 8729SOL    HW137649   4.692   0.264   8.828 -0.7356  1.3350  0.2899
 8729SOL    HW237650   4.593   0.209   8.735  1.6915 -1.8187 -0.3485
 8730SOL     OW37651   0.947   0.514   3.042 -0.0969 -0.1954 -0.4507
 8730SOL    HW137652   1.028   0.479   3.079 -0.9735 -0.2150  1.4665
 8730SOL    HW237653   0.883   0.501   3.112 -0.5089  0.8446 -0.6230
 8731SOL     OW37654   0.863   4.390   2.713 -0.0148  0.3502 -0.2452
 8731SOL    HW137655   0.921   4.315   2.726 -2.3867 -0.9488  2.6264
 8731SOL    HW237656   0.791   4.362   2.769  1.2529 -1.7035  0.3423
 8732SOL     OW37657   2.430   4.047  13.720  0.2369 -0.0715 -0.3448
 8732SOL    HW137658   2.428   4.009  13.807 -0.3532  2.3219  0.6908
 8732SOL    HW237659   2.477   3.982  13.669 -0.3592 -1.6569  1.1504
 8733SOL     OW37660   3.056   0.552   4.735 -0.6442  0.4790 -0.1477
 8733SOL    HW137661   3.124   0.494   4.700 -0.1634  1.0194 -0.1179
 8733SOL    HW237662   3.094   0.639   4.723  1.0990 -0.1344  0.9430
 8734SOL     OW37663   4.134   1.978   4.714 -0.4918  0.0427  0.0837
 8734SOL    HW137664   4.169   1.904   4.763  1.8380 -0.2020 -1.9334
 8734SOL    HW237665   4.109   1.951   4.626  0.2266  0.9183 -0.3986
 8735SOL     OW37666   3.349   1.682   9.551 -0.3242  0.4468  0.2970
 8735SOL    HW137667   3.294   1.758   9.532 -1.1349  0.2014  1.5845
 8735SOL    HW237668   3.292   1.607   9.534 -0.6858  0.6838  0.4625
 8736SOL     OW37669   4.460   0.757   0.699 -0.1905  0.4023  0.3078
 8736SOL    HW137670   4.452   0.674   0.653 -0.5382 -0.2499  1.5374
 8736SOL    HW237671   4.538   0.738   0.751 -0.7343 -0.7714  0.7063
 8737SOL     OW37672   4.520   2.211   1.282  0.0318 -0.1749 -0.6710
 8737SOL    HW137673   4.543   2.200   1.190  2.5056  1.8898 -0.3192
 8737SOL    HW237674   4.520   2.124   1.321  0.7891  1.3906  2.8738
 8738SOL     OW37675   2.724   3.808   4.582  0.5064  0.1707 -0.3630
 8738SOL    HW137676   2.650   3.759   4.545 -0.6419  2.4954 -1.1498
 8738SOL    HW237677   2.687   3.896   4.589 -0.5910 -0.3021 -0.2737
 8739SOL     OW37678   3.231   2.125   3.601  0.1438  0.3291 -0.4000
 8739SOL    HW137679   3.309   2.093   3.556  0.8858  1.2199  0.2652
 8739SOL    HW237680   3.248   2.219   3.599  2.3502 -0.0896 -1.6035
 8740SOL     OW37681   4.469   0.537   8.859  0.2685 -0.0917  0.1065
 8740SOL    HW137682   4.523   0.485   8.919 -1.1134 -2.0047 -0.3398
 8740SOL    HW237683   4.381   0.502   8.875 -0.0325  1.8364  2.8514
 8741SOL     OW37684   4.287   3.227   5.153  0.0970  0.2341 -0.2559
 8741SOL    HW137685   4.269   3.187   5.068 -0.1177 -1.2412  0.4814
 8741SOL    HW237686   4.244   3.313   5.157 -0.1334  0.0981  0.0802
 8742SOL     OW37687   0.894   3.727   9.889  0.7336  0.2736 -0.0371
 8742SOL    HW137688   0.876   3.815   9.856 -1.9851  0.9374  3.1830
 8742SOL    HW237689   0.855   3.738   9.976  1.7786  0.3477  0.4154
 8743SOL     OW37690   2.902   0.694   2.319 -0.7629  0.9493  0.1438
 8743SOL    HW137691   2.930   0.602   2.317  0.6915  1.4055  0.0896
 8743SOL    HW237692   2.986   0.737   2.303 -0.1840  0.0388  0.7385
 8744SOL     OW37693   2.126   1.041  12.326  0.0980 -0.0902 -0.5032
 8744SOL    HW137694   2.162   0.975  12.267  2.2579  2.0989 -1.6242
 8744SOL    HW237695   2.171   1.120  12.296  0.9267 -0.2516  0.3109
 8745SOL     OW37696   2.310   1.833   8.200 -0.0305 -0.0348 -0.0346
 8745SOL    HW137697   2.296   1.750   8.155 -2.4382 -0.1948  0.9745
 8745SOL    HW237698   2.229   1.878   8.177 -0.3681  0.0424  1.3380
 8746SOL     OW37699   3.656   3.739   0.296  0.6107 -0.9703 -0.1080
 8746SOL    HW137700   3.693   3.674   0.237  2.4177 -2.0104  2.1261
 8746SOL    HW237701   3.664   3.819   0.243 -0.8154 -0.5344  0.3357
 8747SOL     OW37702   2.697   2.171   5.422 -0.7022  0.0985 -0.7577
 8747SOL    HW137703   2.741   2.252   5.448  0.0074 -0.0120 -1.6063
 8747SOL    HW237704   2.616   2.175   5.473  0.9084  0.1836  1.8223
 8748SOL     OW37705   1.681   0.788   6.238  0.2940  0.0759 -0.2205
 8748SOL    HW137706   1.635   0.828   6.312  0.0026  0.7817 -0.7805
 8748SOL    HW237707   1.736   0.719   6.274 -1.1430 -0.7556  0.4128
 8749SOL     OW37708   4.276   1.051   4.707  0.0096  0.3418  0.2867
 8749SOL    HW137709   4.248   0.965   4.738 -1.7323  0.8129  0.0368
 8749SOL    HW237710   4.350   1.069   4.765  1.6852  0.8879 -2.0267
 8750SOL     OW37711   1.419   2.137  15.584  0.6256 -0.1221  0.8133
 8750SOL    HW137712   1.420   2.166  15.675 -2.5164  1.9973  0.1995
 8750SOL    HW237713   1.511   2.132  15.559  0.0845  0.1201 -1.1979
 8751SOL     OW37714   4.499   0.788   2.262 -0.0638  0.1615  0.2046
 8751SOL    HW137715   4.500   0.696   2.236 -1.0075  0.3466 -0.4823
 8751SOL    HW237716   4.487   0.829   2.176 -2.0065 -1.2929 -0.2271
 8752SOL     OW37717   0.126   0.482   3.746 -0.3416  0.0679  0.5158
 8752SOL    HW137718   0.105   0.432   3.667 -0.5374  1.1462 -0.1081
 8752SOL    HW237719   0.183   0.548   3.707  1.0321 -0.1622  2.1046
 8753SOL     OW37720   2.080   2.632   3.762 -0.0724  0.5077 -0.2945
 8753SOL    HW137721   2.077   2.580   3.842  0.2680  0.2399 -0.4532
 8753SOL    HW237722   2.075   2.569   3.690 -2.2029 -0.7960  0.9969
 8754SOL     OW37723   2.410   3.333   4.549  0.1135 -0.0616 -0.1685
 8754SOL    HW137724   2.371   3.337   4.461  0.1862 -0.1435 -0.2043
 8754SOL    HW237725   2.352   3.384   4.605 -0.5262  1.9170 -2.6219
 8755SOL     OW37726   0.564   2.674   5.568 -0.4224  0.2193  0.2084
 8755SOL    HW137727   0.477   2.690   5.533 -0.6154 -0.9046  0.1665
 8755SOL    HW237728   0.590   2.597   5.517  2.4954  1.9182 -0.8821
 8756SOL     OW37729   2.042   0.744   4.372 -0.1314 -0.2134 -0.6995
 8756SOL    HW137730   1.960   0.751   4.322  0.5450  1.3438 -1.5957
 8756SOL    HW237731   2.071   0.835   4.380 -0.3602 -0.1549 -0.5158
 8757SOL     OW37732   1.195   4.271   9.499 -0.0417 -0.1747 -0.0322
 8757SOL    HW137733   1.290   4.260   9.495 -0.0212 -0.8486  2.2339
 8757SOL    HW237734   1.186   4.365   9.486  1.3947  0.1222  1.0636
 8758SOL     OW37735   1.154   0.999   6.058  0.8257 -0.1438 -0.1348
 8758SOL    HW137736   1.227   1.037   6.107  1.1221 -1.7833  0.6800
 8758SOL    HW237737   1.202   0.965   5.982  2.0868  1.5396 -0.0910
 8759SOL     OW37738   1.810   0.562   6.039 -0.2183  0.0528 -0.3803
 8759SOL    HW137739   1.731   0.515   6.063  1.0655 -0.5233  2.6217
 8759SOL    HW237740   1.857   0.565   6.122  0.7832  2.5708 -1.0266
 8760SOL     OW37741   2.660   3.401   3.611 -0.0039  0.0371  0.8409
 8760SOL    HW137742   2.636   3.398   3.704 -0.7592  0.4645  0.6585
 8760SOL    HW237743   2.752   3.374   3.616  0.1953  0.5326 -0.2502
 8761SOL     OW37744   2.634   3.592   4.815  0.1564  0.0372 -0.6145
 8761SOL    HW137745   2.605   3.595   4.724  0.1312  2.8216 -0.5252
 8761SOL    HW237746   2.554   3.617   4.861 -0.1321  0.6272 -1.4289
 8762SOL     OW37747   3.808   0.091   7.529 -0.3912  0.5298 -0.4776
 8762SOL    HW137748   3.825   0.069   7.437 -0.6565 -1.4311 -0.0634
 8762SOL    HW237749   3.718   0.123   7.522 -0.4087  0.8427  1.1860
 8763SOL     OW37750   3.429   3.250  12.155 -0.1768 -0.0310 -0.3207
 8763SOL    HW137751   3.382   3.270  12.075 -0.6154 -0.4032 -0.1519
 8763SOL    HW237752   3.362   3.267  12.221 -0.2832  1.0615 -0.7160
 8764SOL     OW37753   3.383   1.015   4.785 -0.4992 -0.1383 -0.1588
 8764SOL    HW137754   3.447   1.050   4.723  1.5847 -1.6193  1.1770
 8764SOL    HW237755   3.359   1.103   4.812  2.1094 -0.1195  2.0762
 8765SOL     OW37756   1.819   0.088   7.597  0.3442  0.4925 -0.6572
 8765SOL    HW137757   1.851   0.057   7.681  2.5969  0.8216 -1.4021
 8765SOL    HW237758   1.728   0.106   7.620 -0.4381 -2.5984 -1.2608
 8766SOL     OW37759   2.696   2.105   4.252 -0.2345 -0.5812 -0.3637
 8766SOL    HW137760   2.664   2.031   4.303  1.1177 -0.2328  1.0212
 8766SOL    HW237761   2.627   2.120   4.187 -0.0802 -1.5088 -0.7281
 8767SOL     OW37762   2.487   1.650   6.749 -0.5195 -0.4693  0.0285
 8767SOL    HW137763   2.511   1.727   6.696  1.3739 -0.0649  1.4795
 8767SOL    HW237764   2.413   1.672   6.804  0.5826  3.2429  0.0883
 8768SOL     OW37765   0.948   3.403   6.726  0.0363 -0.2039 -0.4042
 8768SOL    HW137766   1.019   3.373   6.783  1.4639  1.5050 -1.2676
 8768SOL    HW237767   0.873   3.374   6.778  0.3883 -1.2662 -0.4807
 8769SOL     OW37768   4.612   1.519   2.250 -0.5159 -0.1767 -0.1224
 8769SOL    HW137769   4.601   1.428   2.278  1.2149  0.3623  2.3164
 8769SOL    HW237770   4.520   1.545   2.248 -0.1810  1.0963  1.5031
 8770SOL     OW37771   2.785   2.036   5.148 -0.6648  0.3401  0.0975
 8770SOL    HW137772   2.802   2.031   5.242  0.8422 -0.1974 -0.2038
 8770SOL    HW237773   2.735   1.955   5.136 -1.0487  0.4787  0.7633
 8771SOL     OW37774   2.928   4.690   5.643 -0.3757  0.4765  0.3824
 8771SOL    HW137775   2.991   4.622   5.669 -1.9355 -0.4340  1.7554
 8771SOL    HW237776   2.902   0.000   5.728  0.2137 -2.0645  1.7018
 8772SOL     OW37777   1.543   0.061  15.240  0.0409  0.0704  0.5641
 8772SOL    HW137778   1.516   4.697  15.259  0.3221 -0.1587 -0.1261
 8772SOL    HW237779   1.541   0.057  15.145 -0.2948 -0.8131  0.6073
 8773SOL     OW37780   2.553   1.662  13.536  0.1307 -0.5872  0.0685
 8773SOL    HW137781   2.570   1.569  13.521 -2.2361 -0.8674 -0.7745
 8773SOL    HW237782   2.459   1.670  13.550  0.1165 -0.9920  0.1987
 8774SOL     OW37783   4.632   2.222   0.995  0.8533  0.5724 -0.7547
 8774SOL    HW137784   4.689   2.145   1.001 -1.5142 -1.1297  0.1625
 8774SOL    HW237785   4.689   2.293   0.968  1.7896  0.0467 -0.1588
 8775SOL     OW37786   2.368   0.857   8.866 -0.3442 -0.7336 -0.5461
 8775SOL    HW137787   2.352   0.900   8.781 -0.3231  2.0346  0.8285
 8775SOL    HW237788   2.286   0.881   8.908  0.0933 -0.9982  0.4497
 8776SOL     OW37789   2.760   3.213   7.148  0.2474  0.3198  0.2257
 8776SOL    HW137790   2.773   3.151   7.076 -0.5503 -4.0189  3.8241
 8776SOL    HW237791   2.741   3.299   7.109 -0.6310 -1.1321 -2.5674
 8777SOL     OW37792   3.034   3.080   5.072 -0.1443 -0.7810 -0.2685
 8777SOL    HW137793   3.056   3.045   5.158 -0.9615  2.7981  1.4095
 8777SOL    HW237794   3.107   3.044   5.021 -0.8095 -0.8731 -1.1573
 8778SOL     OW37795   1.759   1.231  10.279 -0.1940  0.2081 -0.0250
 8778SOL    HW137796   1.785   1.179  10.355 -1.0957  1.4718  1.1276
 8778SOL    HW237797   1.664   1.234  10.272 -0.1668 -0.5906 -0.7903
 8779SOL     OW37798   2.519   4.368   6.227  0.3033 -0.9596  0.1859
 8779SOL    HW137799   2.585   4.359   6.295 -0.1734 -2.3238  0.4842
 8779SOL    HW237800   2.560   4.309   6.164  0.3600 -0.5770 -0.1352
 8780SOL     OW37801   1.634   4.629  12.245  0.3945  0.6329  0.0402
 8780SOL    HW137802   1.573   4.606  12.175  1.6030  2.3142 -1.5401
 8780SOL    HW237803   1.591   4.698  12.296 -0.5752 -0.7754  1.1249
 8781SOL     OW37804   4.111   4.401   6.946 -0.8302 -0.8621  0.0804
 8781SOL    HW137805   4.193   4.396   6.995  0.6709 -1.6475 -2.4656
 8781SOL    HW237806   4.119   4.489   6.909  0.9514 -1.4731 -1.0006
 8782SOL     OW37807   4.051   2.632   8.667  0.4074  0.3273 -0.3471
 8782SOL    HW137808   4.100   2.708   8.636  1.2160 -0.5947 -1.3641
 8782SOL    HW237809   4.089   2.621   8.754 -1.9203  0.8172  0.7405
 8783SOL     OW37810   2.816   3.954   7.264  0.2633  0.2731 -0.4424
 8783SOL    HW137811   2.882   3.885   7.257 -1.2446 -1.4783  2.8738
 8783SOL    HW237812   2.860   4.022   7.212  1.1758 -0.5864 -0.7930
 8784SOL     OW37813   4.448   4.311  14.604 -0.6864  0.7164  0.0462
 8784SOL    HW137814   4.474   4.303  14.512  0.6711 -0.1483  0.4950
 8784SOL    HW237815   4.478   4.225  14.635 -1.1141  0.0528 -1.3865
 8785SOL     OW37816   1.606   0.360   6.082 -0.3499  0.0121 -0.1499
 8785SOL    HW137817   1.562   0.425   6.027 -4.1200 -0.3929  2.4100
 8785SOL    HW237818   1.537   0.322   6.136  0.0267  2.3351  1.9643
 8786SOL     OW37819   2.885   0.727   7.153  0.2524 -0.1808 -0.1718
 8786SOL    HW137820   2.898   0.815   7.118  4.3618 -0.1435  1.4430
 8786SOL    HW237821   2.869   0.681   7.070 -0.8096  0.7283 -0.4704
 8787SOL     OW37822   1.920   4.170   8.200  0.6031 -0.4962 -0.2061
 8787SOL    HW137823   1.984   4.167   8.271  1.5796  0.9106 -1.0376
 8787SOL    HW237824   1.895   4.077   8.199  1.4921 -0.6926 -2.7425
 8788SOL     OW37825   0.058   1.720   8.220  0.8300  0.2925  0.1838
 8788SOL    HW137826   0.089   1.798   8.175  0.5081  0.2777 -0.0607
 8788SOL    HW237827   4.718   1.768   8.269  0.7033 -0.3694  0.6536
 8789SOL     OW37828   3.007   1.641  16.760  0.2471 -0.5587  0.4568
 8789SOL    HW137829   2.960   1.635  16.842  1.9911  1.1742  1.5765
 8789SOL    HW237830   2.958   1.712  16.719  0.1465 -0.9353 -0.0773
 8790SOL     OW37831   0.350   2.264  15.066  0.5051 -0.4251 -0.0105
 8790SOL    HW137832   0.319   2.321  14.996  1.8845  0.3100 -0.0248
 8790SOL    HW237833   0.433   2.309  15.077  0.7100 -0.6305 -0.7291
 8791SOL     OW37834   1.942   3.313   3.850  0.0149 -0.0415 -0.2388
 8791SOL    HW137835   1.934   3.301   3.944  0.9654  0.3730 -0.0947
 8791SOL    HW237836   1.854   3.301   3.815  0.5180 -0.6375 -1.2938
 8792SOL     OW37837   3.665   0.684   8.932  0.0415  0.0492 -0.1949
 8792SOL    HW137838   3.690   0.711   8.843 -2.4237 -0.0051 -0.8905
 8792SOL    HW237839   3.754   0.660   8.959 -0.4703 -0.8052  0.7159
 8793SOL     OW37840   2.727   2.954   3.146  0.7543  0.1376 -0.3853
 8793SOL    HW137841   2.709   2.980   3.055 -0.8301  2.4303  0.5954
 8793SOL    HW237842   2.635   2.942   3.171  1.0436  1.2419  1.2104
 8794SOL     OW37843   4.465   0.956   7.406 -0.2487  0.3118  0.1849
 8794SOL    HW137844   4.518   1.032   7.429  0.6982 -0.1971 -0.2784
 8794SOL    HW237845   4.525   0.887   7.434  0.3201  0.8309  0.2532
 8795SOL     OW37846   4.489   3.631   2.368 -0.5380  0.0114 -0.0039
 8795SOL    HW137847   4.443   3.612   2.287 -2.9750 -0.5081  1.5112
 8795SOL    HW237848   4.560   3.683   2.330 -0.1011 -1.4152 -1.1600
 8796SOL     OW37849   3.853   0.010   6.504  0.5276 -0.0428  0.5212
 8796SOL    HW137850   3.776   4.692   6.469  0.0470  1.1216  0.0795
 8796SOL    HW237851   3.922   4.699   6.449  0.7689  0.7553  0.2687
 8797SOL     OW37852   1.924   4.332   1.103  0.8697 -0.0184  0.6660
 8797SOL    HW137853   1.830   4.324   1.084  1.0443 -0.6489  0.1002
 8797SOL    HW237854   1.955   4.347   1.014  1.5443 -0.4807  0.8226
 8798SOL     OW37855   3.146   4.283  13.679 -0.6525 -0.0429  0.5090
 8798SOL    HW137856   3.092   4.338  13.735 -0.6787 -0.5922  1.0242
 8798SOL    HW237857   3.145   4.197  13.721  0.4246 -0.0549  0.5169
 8799SOL     OW37858   1.006   1.223   7.755  0.2783  0.3331 -0.7902
 8799SOL    HW137859   1.069   1.204   7.824 -0.3692  2.6818  0.4457
 8799SOL    HW237860   1.009   1.318   7.766  1.0003  0.2308 -0.1480
 8800SOL     OW37861   3.396   1.503  11.997 -0.0449 -0.6649 -0.0725
 8800SOL    HW137862   3.480   1.462  12.017  0.2700 -0.2576 -0.5575
 8800SOL    HW237863   3.413   1.533  11.907  0.5322 -0.9683 -0.0605
 8801SOL     OW37864   4.491   2.361   5.512 -0.0474 -0.0973 -0.2071
 8801SOL    HW137865   4.494   2.457   5.503 -2.5300  0.1375  1.4167
 8801SOL    HW237866   4.396   2.355   5.522 -0.0456 -0.9905 -0.7227
 8802SOL     OW37867   3.559   3.979  12.472 -0.1022 -0.0436 -0.2481
 8802SOL    HW137868   3.631   3.987  12.534  0.2701 -2.1610 -0.4081
 8802SOL    HW237869   3.540   4.071  12.456 -1.7244 -0.2896  0.2995
 8803SOL     OW37870   1.420   3.271   4.592 -0.1945  0.1789 -0.3160
 8803SOL    HW137871   1.357   3.236   4.654  1.2466 -0.0723  1.0105
 8803SOL    HW237872   1.501   3.295   4.638  0.4778 -0.5670 -1.1099
 8804SOL     OW37873   3.935   0.627  16.250  0.0998 -0.4906 -0.4884
 8804SOL    HW137874   4.005   0.638  16.185 -0.2535 -0.6535 -0.8960
 8804SOL    HW237875   3.961   0.538  16.276 -0.2190  0.0639  1.6953
 8805SOL     OW37876   0.162   1.860   7.021 -0.2340  0.3684  0.1781
 8805SOL    HW137877   0.081   1.885   7.066 -0.1468 -0.2462  0.6615
 8805SOL    HW237878   0.193   1.948   7.002 -2.8830  1.4318  0.7045
 8806SOL     OW37879   1.073   1.804   3.169 -0.4877 -0.1686 -0.5413
 8806SOL    HW137880   1.020   1.791   3.090  0.3102  1.4572 -1.3553
 8806SOL    HW237881   1.002   1.825   3.228  1.4104  0.7914  1.4110
 8807SOL     OW37882   3.338   0.800   4.948 -0.6204  0.0095  0.3116
 8807SOL    HW137883   3.314   0.892   4.951 -1.2233 -0.0756 -1.3726
 8807SOL    HW237884   3.412   0.801   4.888 -0.3029  0.1567  0.7143
 8808SOL     OW37885   3.974   2.423   6.809 -0.2116 -0.1284  0.0561
 8808SOL    HW137886   4.019   2.499   6.846  1.0228 -0.8252 -0.0450
 8808SOL    HW237887   3.887   2.462   6.795  0.1845  0.8649  0.3140
 8809SOL     OW37888   2.453   2.887   2.211  0.0582 -0.0939 -0.2140
 8809SOL    HW137889   2.457   2.941   2.132 -2.9364 -1.5949 -1.3982
 8809SOL    HW237890   2.519   2.822   2.188  0.2861 -0.1390  0.5666
 8810SOL     OW37891   3.548   2.316  15.306 -0.0486 -0.0246 -0.4393
 8810SOL    HW137892   3.536   2.410  15.290  0.7844  0.3021  0.8464
 8810SOL    HW237893   3.546   2.289  15.214 -0.8994 -1.1311 -0.0942
 8811SOL     OW37894   1.844   3.997  10.802  0.1746 -0.0779  0.4111
 8811SOL    HW137895   1.776   3.997  10.869 -0.4470 -0.0865 -0.2286
 8811SOL    HW237896   1.907   4.060  10.839  0.0193  1.6001 -2.1551
 8812SOL     OW37897   3.279   3.612   9.454  0.3660  0.2300 -0.0431
 8812SOL    HW137898   3.264   3.699   9.415  0.7283 -0.6856 -2.2342
 8812SOL    HW237899   3.243   3.568   9.377 -0.3796  0.4556  0.1777
 8813SOL     OW37900   0.257   1.609  10.824 -0.0462 -0.2528 -0.4361
 8813SOL    HW137901   0.247   1.679  10.889  1.4832 -0.0786 -0.3732
 8813SOL    HW237902   0.253   1.533  10.882 -1.9077 -2.4107 -3.3743
 8814SOL     OW37903   3.848   0.141   5.733  0.3063  0.6221 -0.1886
 8814SOL    HW137904   3.792   0.218   5.721  1.1292  1.4338  1.0349
 8814SOL    HW237905   3.926   0.190   5.761  2.0939 -2.4318  0.0976
 8815SOL     OW37906   0.805   3.339   4.459 -0.1786  0.1618  0.5380
 8815SOL    HW137907   0.742   3.410   4.451 -1.3091 -0.6288  2.4973
 8815SOL    HW237908   0.755   3.265   4.493 -1.7377 -0.0277 -2.1755
 8816SOL     OW37909   2.040   4.129   5.662 -0.1808 -1.0665  0.3969
 8816SOL    HW137910   2.121   4.139   5.712  0.0300  0.8730 -0.3344
 8816SOL    HW237911   2.049   4.055   5.602  0.9178 -1.4080  1.0061
 8817SOL     OW37912   1.950   2.843   4.389  0.1680 -0.5037  0.4139
 8817SOL    HW137913   1.935   2.913   4.326  0.0182 -0.5671  0.3798
 8817SOL    HW237914   2.030   2.806   4.351  0.9176  0.8563  0.6575
 8818SOL     OW37915   2.575   3.668   1.397 -0.4804  0.4113 -0.3099
 8818SOL    HW137916   2.505   3.607   1.372 -1.4285  1.0593  0.7409
 8818SOL    HW237917   2.632   3.677   1.321  0.5623  0.8566  0.5396
 8819SOL     OW37918   3.372   0.779   7.319  0.0379 -1.0027 -0.1936
 8819SOL    HW137919   3.284   0.796   7.351  0.1798  0.6368 -0.6830
 8819SOL    HW237920   3.417   0.786   7.404  0.7468  1.0154 -0.7424
 8820SOL     OW37921   0.526   1.998   4.188  0.9043 -0.5918 -0.0201
 8820SOL    HW137922   0.446   1.964   4.149  0.3152  1.3053 -0.4734
 8820SOL    HW237923   0.546   2.074   4.132 -0.8794  0.7587  1.1822
 8821SOL     OW37924   2.829   3.917   5.451 -0.0307  0.3675  0.2089
 8821SOL    HW137925   2.757   3.919   5.515  0.2401  1.1884  0.4912
 8821SOL    HW237926   2.836   3.824   5.430 -0.0892  0.6188 -0.8937
 8822SOL     OW37927   0.873   2.191   9.260 -0.1809  0.3032 -0.4497
 8822SOL    HW137928   0.811   2.234   9.318  1.8246  1.9531  0.4717
 8822SOL    HW237929   0.870   2.257   9.192 -4.2998 -0.6352 -1.1441
 8823SOL     OW37930   3.072   3.597   4.642 -0.5310 -0.2084  0.3000
 8823SOL    HW137931   3.041   3.671   4.589  1.0300  0.1683 -0.1052
 8823SOL    HW237932   3.039   3.512   4.616 -1.4539  0.0056  0.7550
 8824SOL     OW37933   3.860   2.542   3.603 -0.2082  0.6414 -0.1379
 8824SOL    HW137934   3.834   2.505   3.688  2.5908  0.3682  0.6062
 8824SOL    HW237935   3.941   2.497   3.580  1.0429  3.3691 -1.0142
 8825SOL     OW37936   2.936   2.501   3.665 -0.3099 -0.2439  0.1548
 8825SOL    HW137937   2.974   2.445   3.598  1.4760  0.8040  0.2798
 8825SOL    HW237938   2.847   2.509   3.631 -0.8908  0.5781  1.8665
 8826SOL     OW37939   0.898   2.714   7.396  0.2045 -0.0997 -0.4468
 8826SOL    HW137940   0.980   2.665   7.392  0.1586 -0.0894 -1.7168
 8826SOL    HW237941   0.872   2.704   7.487 -0.7014 -0.4165 -0.7450
 8827SOL     OW37942   0.674   1.375  12.875 -0.1564 -0.6970  0.1166
 8827SOL    HW137943   0.604   1.363  12.939  0.2639 -0.1954  0.6725
 8827SOL    HW237944   0.687   1.470  12.878  0.5218 -0.7324 -1.7122
 8828SOL     OW37945   2.532   1.753   7.670 -0.0839 -0.4458 -0.0953
 8828SOL    HW137946   2.587   1.822   7.632  0.8346 -0.4331  1.2499
 8828SOL    HW237947   2.457   1.805   7.698  0.7215 -0.7793  2.7070
 8829SOL     OW37948   1.138   4.587  16.658 -0.1525  0.4132  0.5210
 8829SOL    HW137949   1.162   4.678  16.639 -1.0638  0.4794 -0.3591
 8829SOL    HW237950   1.150   4.585  16.753 -1.3776  2.2978  0.7179
 8830SOL     OW37951   1.937   1.668  15.539  0.1369  0.1318 -0.2324
 8830SOL    HW137952   1.855   1.716  15.542 -0.6464 -1.0912 -1.7695
 8830SOL    HW237953   1.921   1.606  15.467  0.7353 -0.7302  0.3713
 8831SOL     OW37954   4.234   3.978   4.230 -0.4035 -0.5432  0.4954
 8831SOL    HW137955   4.156   3.970   4.286  0.0613 -1.6746  0.9781
 8831SOL    HW237956   4.310   3.981   4.288  0.1943 -3.3956 -0.1284
 8832SOL     OW37957   3.672   1.616   3.815 -0.0531 -0.1598  0.0678
 8832SOL    HW137958   3.616   1.584   3.886 -1.3384  0.3306 -0.7317
 8832SOL    HW237959   3.706   1.535   3.777 -2.2532 -0.6237 -0.8798
 8833SOL     OW37960   1.524   4.633  15.566 -0.5764  0.1821 -0.3602
 8833SOL    HW137961   1.560   4.651  15.479 -0.2711  1.1089 -0.0498
 8833SOL    HW237962   1.531   4.718  15.611 -1.7455 -0.6101  1.3219
 8834SOL     OW37963   3.819   4.321  15.491 -0.3157  0.2738 -0.2309
 8834SOL    HW137964   3.862   4.238  15.513 -0.9047  0.4739  1.6922
 8834SOL    HW237965   3.728   4.295  15.478 -0.4707  0.8739 -0.3482
 8835SOL     OW37966   4.563   4.069  14.685  0.0951 -0.3790  0.1894
 8835SOL    HW137967   4.637   4.020  14.722 -1.2515  0.0837  3.4841
 8835SOL    HW237968   4.534   3.999  14.626  2.0819 -1.5493  0.6048
 8836SOL     OW37969   1.295   3.672  10.676  0.7222  0.1375 -0.5845
 8836SOL    HW137970   1.251   3.631  10.751 -1.0837 -0.5209 -2.0049
 8836SOL    HW237971   1.238   3.748  10.665 -0.2932 -0.4255  0.7371
 8837SOL     OW37972   3.160   4.064   9.083  0.4285 -0.2297 -0.4005
 8837SOL    HW137973   3.235   4.030   9.033  0.6129 -0.0121 -0.2684
 8837SOL    HW237974   3.192   4.151   9.105  0.5853 -0.4424  0.2186
 8838SOL     OW37975   4.372   4.666   3.682  0.3081 -0.5267  0.3314
 8838SOL    HW137976   4.466   4.655   3.696  0.5611  0.8409 -0.2710
 8838SOL    HW237977   4.346   4.709   3.764 -4.3120 -0.3464 -1.2338
 8839SOL     OW37978   0.487   3.320   9.999  0.2516  0.1350  0.3900
 8839SOL    HW137979   0.561   3.373   9.971 -0.3053 -0.5242 -2.2471
 8839SOL    HW237980   0.489   3.348  10.091  0.7621 -0.7750  0.6577
 8840SOL     OW37981   3.034   0.687  13.418 -0.1862 -0.5907 -0.3280
 8840SOL    HW137982   2.955   0.737  13.438 -0.2816 -1.7178  2.0656
 8840SOL    HW237983   3.000   0.601  13.441 -0.8296 -0.1560  0.3246
 8841SOL     OW37984   3.031   3.710   2.966  0.2354  0.3131 -0.0528
 8841SOL    HW137985   3.053   3.722   3.058 -0.4135 -0.5831  0.2213
 8841SOL    HW237986   2.980   3.628   2.970 -0.2851  0.6139 -0.4946
 8842SOL     OW37987   4.116   3.492   1.296 -0.0750 -0.5244 -0.0332
 8842SOL    HW137988   4.034   3.443   1.292  0.7591 -1.9997  0.7745
 8842SOL    HW237989   4.154   3.452   1.375 -0.5269  1.5726  1.2463
 8843SOL     OW37990   4.068   2.775   3.967  0.4414  0.2284  0.3269
 8843SOL    HW137991   4.138   2.719   3.934  0.6033  1.0843 -0.8044
 8843SOL    HW237992   4.074   2.757   4.061 -1.4297  1.0656  0.6148
 8844SOL     OW37993   4.504   3.215   8.485 -0.3246  0.2100 -0.0644
 8844SOL    HW137994   4.518   3.176   8.399  2.8761  0.1151  0.5136
 8844SOL    HW237995   4.467   3.301   8.464 -1.2346 -0.6268 -1.8831
 8845SOL     OW37996   1.195   2.415   8.872 -0.1187 -0.1505 -0.2199
 8845SOL    HW137997   1.264   2.479   8.891 -1.4818  0.8983  1.1871
 8845SOL    HW237998   1.152   2.456   8.797  0.0275  0.3123 -0.0539
 8846SOL     OW37999   4.137   0.883   5.361 -0.2151 -0.5593  0.0131
 8846SOL    HW138000   4.162   0.791   5.351  0.5423 -0.6093  2.3868
 8846SOL    HW238001   4.219   0.928   5.385 -1.3408  0.6115  1.6833
 8847SOL     OW38002   2.297   1.586   8.070 -0.7044  0.0098  0.7158
 8847SOL    HW138003   2.299   1.539   8.153 -0.4885 -0.1890  0.5974
 8847SOL    HW238004   2.325   1.518   8.009 -2.4539  2.6598 -3.0718
 8848SOL     OW38005   0.268   3.889   3.953  0.0286  0.0024 -0.3595
 8848SOL    HW138006   0.274   3.803   3.995  0.6226  0.7945  1.1538
 8848SOL    HW238007   0.219   3.863   3.875 -1.4941 -0.9236  0.8979
 8849SOL     OW38008   2.323   0.453   2.591  0.2005 -0.1084  0.4181
 8849SOL    HW138009   2.401   0.417   2.549 -0.4999 -0.7409 -0.3631
 8849SOL    HW238010   2.266   0.432   2.516 -1.7595  0.2705  1.8252
 8850SOL     OW38011   2.667   1.613  10.225 -0.2685  0.2233  0.3896
 8850SOL    HW138012   2.624   1.543  10.176  0.7601  0.3599 -0.7187
 8850SOL    HW238013   2.609   1.686  10.206  0.4830  0.7477  0.1113
 8851SOL     OW38014   1.442   1.507   1.037  0.0639  0.4370  0.0287
 8851SOL    HW138015   1.355   1.544   1.020 -0.2851 -0.5756 -0.3707
 8851SOL    HW238016   1.453   1.452   0.960 -2.4565  0.7371 -0.5346
 8852SOL     OW38017   1.409   2.606   0.705 -0.0076  0.0078 -0.1040
 8852SOL    HW138018   1.387   2.685   0.754  1.6295 -0.7003  1.7641
 8852SOL    HW238019   1.350   2.607   0.629 -0.0438  0.2888 -0.0722
 8853SOL     OW38020   3.141   4.193   5.805 -0.0500 -0.5630 -0.3596
 8853SOL    HW138021   3.161   4.106   5.841  2.5450  0.3666  0.4232
 8853SOL    HW238022   3.225   4.211   5.764  0.5870  0.3696  1.3598
 8854SOL     OW38023   0.794   3.474   3.873 -0.3070 -0.6861 -0.1227
 8854SOL    HW138024   0.796   3.394   3.820  0.3368 -1.9362  1.8095
 8854SOL    HW238025   0.838   3.432   3.947 -0.3750  0.9467  0.8309
 8855SOL     OW38026   4.603   0.132   3.238 -0.2248  0.0203  0.2960
 8855SOL    HW138027   4.658   0.057   3.213  0.8004  0.8045  0.2016
 8855SOL    HW238028   4.610   0.131   3.333 -2.4338  0.7973  0.4588
 8856SOL     OW38029   0.560   0.307  11.684 -0.2550  0.0291 -0.2305
 8856SOL    HW138030   0.511   0.295  11.603  0.6886  1.5554 -1.0088
 8856SOL    HW238031   0.529   0.392  11.714  2.1544  2.0166 -3.4322
 8857SOL     OW38032   0.126   4.683  12.277  0.1185  0.3316 -0.1892
 8857SOL    HW138033   0.188   4.678  12.349  0.5102 -1.2196 -0.6347
 8857SOL    HW238034   0.099   0.047  12.262  2.2340  0.6215 -2.2732
 8858SOL     OW38035   2.839   3.439   2.719 -0.4043  0.1276  0.1003
 8858SOL    HW138036   2.753   3.432   2.679  0.6447  1.7234 -2.4958
 8858SOL    HW238037   2.817   3.465   2.808 -0.9031  0.8683 -0.2415
 8859SOL     OW38038   0.653   3.822   2.312 -0.4249  0.1279  0.4269
 8859SOL    HW138039   0.671   3.815   2.219 -0.1914 -0.1666  0.4929
 8859SOL    HW238040   0.711   3.761   2.357  0.0063 -0.7458 -1.3139
 8860SOL     OW38041   0.226   4.336   1.749 -0.2168 -0.3210 -0.6086
 8860SOL    HW138042   0.309   4.378   1.773 -0.5847 -1.4425  2.5972
 8860SOL    HW238043   0.208   4.288   1.829 -0.3617  3.1999  1.4728
 8861SOL     OW38044   4.684   2.246   8.447  0.2926  0.2960  0.0097
 8861SOL    HW138045   4.638   2.164   8.469 -0.7658  1.0916  0.8016
 8861SOL    HW238046   4.677   2.293   8.530 -1.1951 -0.8286  0.5361
 8862SOL     OW38047   0.464   1.360  13.226  0.6200 -0.1049 -0.0856
 8862SOL    HW138048   0.477   1.421  13.153  1.5682 -1.4355 -1.0114
 8862SOL    HW238049   0.452   1.279  13.176 -1.4428 -0.6118  1.2109
 8863SOL     OW38050   0.895   2.592   5.408  0.1042  0.1690 -0.6355
 8863SOL    HW138051   0.910   2.501   5.382 -0.4047 -0.0745 -0.0801
 8863SOL    HW238052   0.874   2.635   5.325 -1.0892  1.1778  0.1861
 8864SOL     OW38053   0.209   4.496   2.457  0.1942  0.2234 -0.2412
 8864SOL    HW138054   0.223   4.420   2.399  3.0130  0.5181  0.0487
 8864SOL    HW238055   0.302   4.503   2.478 -0.1331 -0.8984  1.6167
 8865SOL     OW38056   2.550   1.587   9.862  0.6616 -0.0688 -0.0282
 8865SOL    HW138057   2.568   1.536   9.941 -1.2858  0.8592  1.0172
 8865SOL    HW238058   2.541   1.516   9.798  0.1253 -1.5862  1.7268
 8866SOL     OW38059   2.416   2.462   1.248  0.0672  0.0789 -0.7917
 8866SOL    HW138060   2.452   2.546   1.276 -0.8398  0.0856  0.3334
 8866SOL    HW238061   2.495   2.425   1.208  0.7968  0.9813 -0.1629
 8867SOL     OW38062   0.632   4.656   2.746  0.0058  0.0079  0.2906
 8867SOL    HW138063   0.601   4.615   2.827 -1.8832  1.0606  0.0875
 8867SOL    HW238064   0.591   0.015   2.758  2.7549  1.5366 -1.1541
 8868SOL     OW38065   2.093   1.088  11.009  0.0385  0.7511  0.1515
 8868SOL    HW138066   2.119   1.130  11.091  0.2711  0.7920  0.0561
 8868SOL    HW238067   2.043   1.020  11.052 -1.9198  1.5808 -0.7881
 8869SOL     OW38068   4.708   0.506  14.050  0.1563  0.0172 -0.4121
 8869SOL    HW138069   0.059   0.520  14.103  0.2766 -1.8336 -0.1197
 8869SOL    HW238070   4.725   0.431  13.992 -0.8364  0.5378 -1.3950
 8870SOL     OW38071   2.725   3.794  17.499  0.1946 -0.0031 -0.0981
 8870SOL    HW138072   2.655   3.833  17.552  4.3721  1.5266  4.2567
 8870SOL    HW238073   2.682   3.709  17.490  1.2488 -0.5465 -0.0340
 8871SOL     OW38074   3.311   3.767   9.069  0.3303 -0.1882  0.8635
 8871SOL    HW138075   3.265   3.684   9.082 -1.2064  0.5590  0.1303
 8871SOL    HW238076   3.402   3.735   9.066  0.7013  0.7956  1.4799
 8872SOL     OW38077   2.047   2.680   5.779  0.0812  0.8160 -0.1125
 8872SOL    HW138078   2.103   2.617   5.826 -1.1669 -1.6270 -1.8781
 8872SOL    HW238079   1.959   2.644   5.784 -0.4907  2.2976  0.2427
 8873SOL     OW38080   4.207   4.496   2.589  0.2041 -0.2320  0.2583
 8873SOL    HW138081   4.133   4.458   2.541  1.0455  1.5412 -2.4431
 8873SOL    HW238082   4.188   4.576   2.638  0.1025  0.0716 -0.2761
 8874SOL     OW38083   2.761   3.836   6.268  0.4796 -0.3426  0.1808
 8874SOL    HW138084   2.732   3.917   6.310  0.5089 -0.8120  1.0843
 8874SOL    HW238085   2.806   3.796   6.342 -0.1183 -2.1092 -0.3980
 8875SOL     OW38086   1.916   0.492   3.735 -0.6314 -0.0036  0.0822
 8875SOL    HW138087   1.993   0.548   3.742  0.3479 -1.1701 -1.4757
 8875SOL    HW238088   1.879   0.505   3.822 -1.2591 -0.8817 -0.0463
 8876SOL     OW38089   4.312   4.208   3.265  0.0315  1.2336 -0.0339
 8876SOL    HW138090   4.263   4.268   3.209 -1.9988  0.5374  0.9915
 8876SOL    HW238091   4.246   4.202   3.335 -0.2129 -0.0478 -0.3750
 8877SOL     OW38092   4.083   0.231   3.430 -0.0336 -0.1265 -0.6132
 8877SOL    HW138093   4.016   0.191   3.374 -0.4467 -0.4253  0.0942
 8877SOL    HW238094   4.111   0.149   3.469 -4.0817 -1.9495 -1.5041
 8878SOL     OW38095   2.159   3.636   7.346 -0.4169  0.6249 -0.6790
 8878SOL    HW138096   2.086   3.663   7.290 -1.7751 -0.9731  0.3399
 8878SOL    HW238097   2.119   3.565   7.396 -0.0302  1.5452  0.9030
 8879SOL     OW38098   3.801   0.360   5.294 -0.0240 -0.0441 -0.1235
 8879SOL    HW138099   3.748   0.341   5.371 -2.4483  2.3478 -1.1867
 8879SOL    HW238100   3.892   0.351   5.323 -0.0942  0.0162  0.1144
 8880SOL     OW38101   3.993   1.182  16.563 -0.1042  0.3065 -0.4061
 8880SOL    HW138102   3.941   1.256  16.533 -0.3305  0.5927  0.7009
 8880SOL    HW238103   4.029   1.211  16.646 -0.0255 -0.3662 -0.2016
 8881SOL     OW38104   3.298   3.127   5.712  0.1088 -0.5889  0.0560
 8881SOL    HW138105   3.341   3.148   5.795 -0.2545 -0.8911  0.3204
 8881SOL    HW238106   3.361   3.178   5.660 -0.8952  0.2743 -0.3065
 8882SOL     OW38107   2.612   0.605   3.397 -0.0272 -0.3832 -0.2601
 8882SOL    HW138108   2.674   0.540   3.366 -1.0996 -0.8480 -1.4636
 8882SOL    HW238109   2.658   0.683   3.368  0.9670 -0.3616  1.3789
 8883SOL     OW38110   0.077   0.534   5.577  0.5762  0.7431  0.7289
 8883SOL    HW138111   0.015   0.464   5.595 -1.2336  1.8474 -1.2909
 8883SOL    HW238112   0.117   0.507   5.494  1.6771  1.3056  1.0716
 8884SOL     OW38113   0.417   2.431  16.705  0.3560 -0.3984 -0.0323
 8884SOL    HW138114   0.456   2.514  16.731 -3.6638  0.7233  2.3454
 8884SOL    HW238115   0.442   2.422  16.613  2.3070 -0.8548  0.5290
 8885SOL     OW38116   3.930   1.134   8.832 -0.3725 -0.0726  0.1228
 8885SOL    HW138117   3.845   1.091   8.830 -0.4018 -0.0005 -0.1094
 8885SOL    HW238118   3.899   1.224   8.837 -0.9526 -0.2096 -1.0657
 8886SOL     OW38119   4.698   3.546   9.014  0.7185 -0.2532 -0.0992
 8886SOL    HW138120   4.687   3.457   9.046  0.2833  0.1794  0.9626
 8886SOL    HW238121   0.024   3.576   9.088 -0.1101  0.5339  0.1861
 8887SOL     OW38122   1.788   2.834   7.182  0.2116  0.2557 -0.2182
 8887SOL    HW138123   1.838   2.904   7.224  0.7959  0.7634 -1.7918
 8887SOL    HW238124   1.841   2.759   7.211 -2.5144 -1.0937  1.2905
 8888SOL     OW38125   1.185   1.453   9.136 -0.0723  0.0340 -0.8149
 8888SOL    HW138126   1.115   1.518   9.135  0.4157  0.5713  1.7069
 8888SOL    HW238127   1.207   1.454   9.042  0.2906  1.4940 -0.7180
 8889SOL     OW38128   1.739   3.986   7.892 -0.1588  0.3160  0.1932
 8889SOL    HW138129   1.730   3.900   7.852  0.2815 -0.6177  2.1085
 8889SOL    HW238130   1.806   3.957   7.954 -0.2838  1.3561  0.8262
 8890SOL     OW38131   2.890   0.761   8.357 -0.2112  0.0747 -0.2509
 8890SOL    HW138132   2.803   0.799   8.348  0.1745  0.7315 -1.2827
 8890SOL    HW238133   2.931   0.792   8.276  0.6510  3.1251  1.3475
 8891SOL     OW38134   4.056   2.876  13.843 -0.6000  0.1200  0.0981
 8891SOL    HW138135   4.070   2.782  13.847 -0.9863  0.0171 -0.9552
 8891SOL    HW238136   3.963   2.877  13.867 -0.5584  1.1761  0.2244
 8892SOL     OW38137   0.325   0.158  15.596  0.0927  0.2617  0.1438
 8892SOL    HW138138   0.234   0.130  15.605 -0.2693  1.9432  1.5913
 8892SOL    HW238139   0.331   0.201  15.682  1.5355 -0.2129  0.2907
 8893SOL     OW38140   3.374   3.847   3.614 -0.7573  0.2117 -0.4374
 8893SOL    HW138141   3.416   3.923   3.575  0.7560 -1.1880 -1.5286
 8893SOL    HW238142   3.280   3.864   3.622 -1.4319 -3.3931 -0.7064
 8894SOL     OW38143   2.301   4.411  15.186  0.0502 -0.4495 -0.3121
 8894SOL    HW138144   2.257   4.381  15.265 -1.1328  0.0180 -0.7989
 8894SOL    HW238145   2.320   4.504  15.200 -1.5828 -0.1269 -0.2858
 8895SOL     OW38146   2.487   1.190   1.656  0.0824 -0.2614  0.0050
 8895SOL    HW138147   2.488   1.201   1.561 -0.3416  1.5835  0.2130
 8895SOL    HW238148   2.423   1.118   1.655 -1.2590  0.9265 -0.9699
 8896SOL     OW38149   2.505   1.709  11.676  1.1392 -0.0143 -0.3632
 8896SOL    HW138150   2.568   1.758  11.622  2.3054 -0.1437  0.8823
 8896SOL    HW238151   2.529   1.741  11.763  1.4312  1.0413 -0.8292
 8897SOL     OW38152   3.464   4.238  12.394 -0.0547 -0.7381 -0.4472
 8897SOL    HW138153   3.488   4.198  12.311  1.1758 -0.7511 -0.0731
 8897SOL    HW238154   3.545   4.285  12.411 -0.7781  0.2772  0.2118
 8898SOL     OW38155   2.141   1.586   6.568 -0.3204 -0.4346  1.1790
 8898SOL    HW138156   2.082   1.556   6.637 -1.5226  1.9983  1.1987
 8898SOL    HW238157   2.116   1.531   6.494  1.1557  0.0824  0.2844
 8899SOL     OW38158   1.653   2.250   4.636  0.1447 -0.0211  0.6549
 8899SOL    HW138159   1.708   2.251   4.715 -1.9345 -1.6011  2.1244
 8899SOL    HW238160   1.613   2.334   4.661  0.1149  0.3999 -0.8040
 8900SOL     OW38161   0.787   4.108  15.318 -0.2878 -0.1231 -0.2439
 8900SOL    HW138162   0.803   4.151  15.234 -0.6181 -0.9725 -0.7378
 8900SOL    HW238163   0.727   4.172  15.357 -0.9245 -0.5047 -0.6071
 8901SOL     OW38164   2.586   3.291   5.000  0.7413 -0.0113 -0.7402
 8901SOL    HW138165   2.663   3.283   4.944  0.0487 -1.1093 -1.5324
 8901SOL    HW238166   2.558   3.199   5.003 -1.5324  0.7114  0.8311
 8902SOL     OW38167   3.358   2.763   5.639 -0.5210 -0.2334  0.1388
 8902SOL    HW138168   3.362   2.717   5.723 -0.9957 -0.5267  0.0004
 8902SOL    HW238169   3.450   2.787   5.637 -0.3331 -0.9220  0.8422
 8903SOL     OW38170   0.441   1.547  10.424  0.0539  0.2658  0.0908
 8903SOL    HW138171   0.362   1.584  10.465  0.6068  0.7473  0.7083
 8903SOL    HW238172   0.439   1.470  10.480 -1.5058  1.0653  1.1464
 8904SOL     OW38173   3.478   0.318   0.318 -0.4405 -0.4017  0.0050
 8904SOL    HW138174   3.535   0.270   0.378  0.6496  0.5376 -0.2776
 8904SOL    HW238175   3.412   0.251   0.331 -0.3706 -0.7432 -1.3572
 8905SOL     OW38176   3.618   3.153   6.881 -0.8540 -0.3373 -0.0412
 8905SOL    HW138177   3.689   3.206   6.845 -0.4490 -1.4627 -0.8762
 8905SOL    HW238178   3.566   3.229   6.910  3.8715  1.5120  3.5783
 8906SOL     OW38179   3.307   1.774  12.467 -0.0912  0.1893  0.4927
 8906SOL    HW138180   3.323   1.806  12.379 -1.4184 -0.9632 -0.1704
 8906SOL    HW238181   3.398   1.762  12.496 -0.5038 -0.2708  1.6276
 8907SOL     OW38182   2.656   2.560   3.075 -0.1984  0.7440  0.4037
 8907SOL    HW138183   2.599   2.565   2.998 -0.8769 -1.3862  0.7889
 8907SOL    HW238184   2.599   2.593   3.144  0.0536  1.7217  0.1402
 8908SOL     OW38185   1.631   4.021   3.086  0.5544 -0.2502  1.0028
 8908SOL    HW138186   1.710   4.034   3.033 -0.7790  0.1939 -0.8635
 8908SOL    HW238187   1.679   3.974   3.154  1.3949 -2.2282 -0.9313
 8909SOL     OW38188   1.839   0.926   0.308  0.7287  0.0020  0.5263
 8909SOL    HW138189   1.916   0.941   0.363  0.2887  0.0608  1.1207
 8909SOL    HW238190   1.875   0.892   0.226 -2.5640 -1.9682 -0.0890
 8910SOL     OW38191   1.207   2.339   4.465  0.2509 -0.0634  0.5297
 8910SOL    HW138192   1.236   2.296   4.546 -0.5973 -0.5826  0.5634
 8910SOL    HW238193   1.254   2.423   4.468  2.2564 -1.2127  0.9165
 8911SOL     OW38194   0.344   0.213   8.647  0.2990 -0.1941  0.1935
 8911SOL    HW138195   0.430   0.240   8.680  0.8663  2.0413 -3.0844
 8911SOL    HW238196   0.309   0.299   8.625  0.9193  0.2314  0.9143
 8912SOL     OW38197   4.665   2.899  17.200  0.1308  0.0163 -0.8408
 8912SOL    HW138198   4.663   2.891  17.104 -0.4333 -0.6226 -0.7753
 8912SOL    HW238199   4.658   2.806  17.220  0.3381  0.7268  2.4257
 8913SOL     OW38200   2.228   2.867   8.666 -0.2458 -0.3476  0.0008
 8913SOL    HW138201   2.301   2.908   8.712 -0.8019  0.8342 -0.1589
 8913SOL    HW238202   2.283   2.834   8.595 -0.9232 -1.1440 -0.1575
 8914SOL     OW38203   3.790   0.710   7.616  0.0929 -0.9205  0.8230
 8914SOL    HW138204   3.794   0.794   7.662  0.1834  1.1242 -2.9487
 8914SOL    HW238205   3.799   0.734   7.524  0.8573 -0.9068  0.9031
 8915SOL     OW38206   3.114   2.067   5.413  0.0082  0.1858 -0.9059
 8915SOL    HW138207   3.027   2.028   5.421 -0.4253  1.1031 -1.1301
 8915SOL    HW238208   3.113   2.138   5.348 -1.0123 -1.8790 -3.1745
 8916SOL     OW38209   3.821   3.686   5.365 -0.2243  0.3291  0.0659
 8916SOL    HW138210   3.797   3.659   5.454  1.6348 -0.1537  0.4090
 8916SOL    HW238211   3.907   3.648   5.346  0.2178  0.8773  0.9899
 8917SOL     OW38212   2.397   2.785  12.362 -0.3915  0.1880 -0.3550
 8917SOL    HW138213   2.423   2.860  12.308  0.0623  0.1929 -0.1240
 8917SOL    HW238214   2.386   2.823  12.449 -0.5825 -0.7631  0.0340
 8918SOL     OW38215   2.336   3.896   5.055  0.2854 -0.1914  0.5182
 8918SOL    HW138216   2.377   3.981   5.070 -1.9057  0.6906  1.4544
 8918SOL    HW238217   2.259   3.898   5.112 -0.3178  1.9211 -0.3899
 8919SOL     OW38218   3.201   2.482  15.256  0.3754 -0.1476 -0.7771
 8919SOL    HW138219   3.276   2.531  15.289 -0.4246  0.2965  0.3970
 8919SOL    HW238220   3.164   2.536  15.187 -0.5147 -0.0151 -0.1882
 8920SOL     OW38221   0.515   1.438   5.051 -0.3505 -0.5803 -0.5247
 8920SOL    HW138222   0.491   1.468   5.138  1.0769  0.4704 -0.5010
 8920SOL    HW238223   0.567   1.505   5.007  0.0450 -0.7713 -0.3456
 8921SOL     OW38224   1.605   3.547   4.031  0.0385 -0.6016 -0.7645
 8921SOL    HW138225   1.565   3.631   4.055  1.4109  0.1168 -1.0236
 8921SOL    HW238226   1.698   3.562   4.016 -0.0869 -0.1236 -1.0692
 8922SOL     OW38227   3.761   2.226  13.759 -0.0862 -0.7254  0.1897
 8922SOL    HW138228   3.820   2.294  13.728  0.5001 -1.0301  0.6287
 8922SOL    HW238229   3.764   2.228  13.855  1.2176  1.9787  0.0827
 8923SOL     OW38230   2.645   1.679   7.260  0.0433 -0.1765 -0.2647
 8923SOL    HW138231   2.669   1.694   7.169 -0.9528 -0.3121 -0.5514
 8923SOL    HW238232   2.645   1.770   7.290 -2.7386 -0.6143  1.0472
 8924SOL     OW38233   4.613   4.164  15.059 -0.0312 -0.6702 -0.1702
 8924SOL    HW138234   4.529   4.191  15.021 -0.0688 -1.1859 -0.4611
 8924SOL    HW238235   4.663   4.162  14.977  0.4604 -0.3213  0.1205
 8925SOL     OW38236   2.932   1.903   4.457  0.4542  0.5835 -0.0286
 8925SOL    HW138237   2.950   1.942   4.542 -0.2633 -2.6315  1.6058
 8925SOL    HW238238   2.841   1.873   4.461  1.3879 -2.1203  1.2055
 8926SOL     OW38239   1.336   3.287   2.270 -0.4783 -0.3155  0.3737
 8926SOL    HW138240   1.402   3.341   2.227 -1.6116  1.8510  1.3366
 8926SOL    HW238241   1.357   3.198   2.243  1.2415 -0.1288  1.0726
 8927SOL     OW38242   1.691   3.959   0.955 -0.0041 -0.7636  0.2714
 8927SOL    HW138243   1.739   3.988   1.033  1.2314 -2.2494  0.0563
 8927SOL    HW238244   1.635   3.896   0.999 -1.6564 -0.2025 -1.0473
 8928SOL     OW38245   3.145   0.161  16.997 -0.2001  0.0788 -0.2143
 8928SOL    HW138246   3.122   0.117  17.079  3.7133  1.7107  1.7619
 8928SOL    HW238247   3.080   0.121  16.939 -0.5056  1.7946 -1.0491
 8929SOL     OW38248   1.579   1.494   6.545  0.4103  0.2170  0.4794
 8929SOL    HW138249   1.509   1.523   6.603  1.1115  1.1727  0.8481
 8929SOL    HW238250   1.627   1.575   6.532 -0.1598 -0.1902 -3.9968
 8930SOL     OW38251   2.626   3.688   3.737 -0.7563  0.1095  0.0236
 8930SOL    HW138252   2.585   3.603   3.747 -0.5907  0.2200  1.6166
 8930SOL    HW238253   2.625   3.719   3.828 -1.4487  1.4857 -0.4501
 8931SOL     OW38254   3.367   4.674   7.483  0.2023  0.3116 -0.0764
 8931SOL    HW138255   3.367   4.682   7.387 -1.6097 -2.0226 -0.2798
 8931SOL    HW238256   3.363   4.579   7.495 -1.8366  0.5129  0.8284
 8932SOL     OW38257   1.790   1.108  13.583 -0.3841 -0.2400 -0.4826
 8932SOL    HW138258   1.827   1.170  13.645  0.3987  0.2510 -1.4335
 8932SOL    HW238259   1.763   1.165  13.511  0.6203  1.6056  0.6225
 8933SOL     OW38260   3.288   2.281   6.283  0.5823 -0.2211  0.2486
 8933SOL    HW138261   3.280   2.246   6.372 -0.0419 -0.1952  0.2058
 8933SOL    HW238262   3.194   2.277   6.267  0.5434  1.1547  0.1193
 8934SOL     OW38263   4.477   2.915   3.060 -0.5704  0.5886 -1.0272
 8934SOL    HW138264   4.453   2.842   3.003 -0.1655 -1.4645  1.4357
 8934SOL    HW238265   4.397   2.933   3.110 -0.0353 -0.9352  0.3804
 8935SOL     OW38266   4.157   3.385   2.671 -0.0491 -0.1919 -0.1329
 8935SOL    HW138267   4.230   3.435   2.636 -2.5743  3.8254  0.3827
 8935SOL    HW238268   4.179   3.292   2.666 -0.6886 -0.3844  0.6430
 8936SOL     OW38269   0.998   2.585   6.295  0.0412 -0.2732  0.1383
 8936SOL    HW138270   1.024   2.638   6.220  0.6731 -3.3091 -1.7811
 8936SOL    HW238271   0.946   2.521   6.247  0.3516 -0.9086  0.6406
 8937SOL     OW38272   4.237   1.640  15.096 -0.1054  0.0976 -0.1635
 8937SOL    HW138273   4.195   1.708  15.043  1.0100  0.9657  0.0405
 8937SOL    HW238274   4.314   1.631  15.039  0.0807  0.4252  0.0302
 8938SOL     OW38275   3.101   1.416   1.738 -0.2002  0.3063 -0.3898
 8938SOL    HW138276   3.038   1.453   1.677 -0.1673  0.2283 -0.4707
 8938SOL    HW238277   3.142   1.490   1.783  1.1381 -0.5904 -0.1447
 8939SOL     OW38278   2.803   2.697   6.174 -0.5073 -0.1813  0.1951
 8939SOL    HW138279   2.745   2.680   6.099 -1.2685  0.4209  0.6479
 8939SOL    HW238280   2.889   2.660   6.155 -0.3261  0.4278 -0.1870
 8940SOL     OW38281   2.074   1.700   5.863 -0.5155 -0.1807 -0.4638
 8940SOL    HW138282   2.121   1.635   5.916 -1.3062 -1.6975 -1.5978
 8940SOL    HW238283   2.000   1.718   5.921  0.7293  0.2224  0.9933
 8941SOL     OW38284   0.403   1.152   7.784  0.4085  0.4081  0.0569
 8941SOL    HW138285   0.451   1.233   7.768  0.3352  0.4198 -0.1035
 8941SOL    HW238286   0.464   1.116   7.848  1.4363  0.3946 -0.9311
 8942SOL     OW38287   2.293   1.808   1.121 -0.3308 -0.4256  0.0421
 8942SOL    HW138288   2.310   1.893   1.161 -1.3380 -0.2591  0.1205
 8942SOL    HW238289   2.264   1.823   1.031 -0.3553  1.4085  0.3650
 8943SOL     OW38290   0.363   1.625   6.713  0.2215  0.7623  0.0257
 8943SOL    HW138291   0.417   1.552   6.683 -2.7898 -0.5518 -2.1492
 8943SOL    HW238292   0.297   1.581   6.767 -1.1809  0.6807 -1.7581
 8944SOL     OW38293   2.702   1.467   4.910 -0.4804 -0.0176 -0.7996
 8944SOL    HW138294   2.663   1.548   4.876 -0.4753 -0.5997 -2.2290
 8944SOL    HW238295   2.636   1.410   4.870 -0.7656 -0.5642  0.4499
 8945SOL     OW38296   2.762   3.114   8.081  0.4131  0.4859 -0.2762
 8945SOL    HW138297   2.673   3.124   8.114  1.0276 -0.0009  1.5391
 8945SOL    HW238298   2.774   3.020   8.091 -0.1783  0.1623 -2.5835
 8946SOL     OW38299   3.681   3.991   2.824  0.1827  0.4805 -0.1833
 8946SOL    HW138300   3.632   3.938   2.762 -2.2055  0.3159  1.8390
 8946SOL    HW238301   3.695   3.931   2.898 -1.2677 -1.9262 -1.8714
 8947SOL     OW38302   4.308   3.920   7.762  0.2528 -0.1772  0.0264
 8947SOL    HW138303   4.347   4.001   7.793  1.9300 -1.3439  0.9873
 8947SOL    HW238304   4.383   3.861   7.762 -0.4127 -1.0264 -0.2538
 8948SOL     OW38305   1.560   2.327   3.927 -0.0593  0.5747  0.2809
 8948SOL    HW138306   1.568   2.373   3.843  4.1448 -0.3114  0.2010
 8948SOL    HW238307   1.481   2.367   3.962  0.2334  0.5056  1.0047
 8949SOL     OW38308   3.387   0.875   6.748  0.5657 -0.3049  0.0907
 8949SOL    HW138309   3.419   0.890   6.837  1.0665  0.2961 -0.1890
 8949SOL    HW238310   3.410   0.960   6.711  1.7066 -0.5482  0.2458
 8950SOL     OW38311   0.949   1.367   6.708 -0.1152  0.0637  0.2816
 8950SOL    HW138312   0.882   1.343   6.644 -1.5248 -1.7564  2.4408
 8950SOL    HW238313   0.931   1.307   6.781  1.9270  0.3199  0.9954
 8951SOL     OW38314   3.216   3.587   6.881 -0.1270  0.5085 -0.0485
 8951SOL    HW138315   3.277   3.627   6.943 -0.3361 -2.4588  2.0372
 8951SOL    HW238316   3.278   3.589   6.807  1.4038 -0.3618  1.2033
 8952SOL     OW38317   0.248   1.307   5.876  0.4377  0.1023  0.1111
 8952SOL    HW138318   0.248   1.262   5.960 -1.4054 -0.6074 -0.2796
 8952SOL    HW238319   0.338   1.288   5.851  1.1977 -0.5631  3.3943
 8953SOL     OW38320   2.374   1.354   7.929  0.8150 -0.3617 -0.6311
 8953SOL    HW138321   2.445   1.299   7.963 -0.9099 -2.1375  0.1326
 8953SOL    HW238322   2.429   1.416   7.880 -0.4322  0.5614 -0.8548
 8954SOL     OW38323   3.186   0.139  13.632 -0.6188 -1.1444  0.6456
 8954SOL    HW138324   3.205   0.151  13.539  0.0813 -0.3316  0.8873
 8954SOL    HW238325   3.263   0.098  13.671 -0.0859  0.8593  1.7267
 8955SOL     OW38326   0.084   4.112   4.013  0.1161  0.0290 -0.0380
 8955SOL    HW138327   0.115   4.030   3.975 -2.2637 -0.7152 -0.3527
 8955SOL    HW238328   4.719   4.092   4.031  0.2984 -1.6780 -1.0427
 8956SOL     OW38329   3.012   3.995   2.519 -0.0622  0.2508  0.4997
 8956SOL    HW138330   3.037   3.945   2.597  0.8521  1.5643  1.0378
 8956SOL    HW238331   2.977   3.922   2.467 -1.1345  0.3076  1.1431
 8957SOL     OW38332   4.072   0.112   4.044 -0.1838  0.0049 -0.3761
 8957SOL    HW138333   4.057   0.205   4.025 -1.8964 -0.7423 -2.6755
 8957SOL    HW238334   4.142   0.098   3.981  0.6332 -2.1293  1.0047
 8958SOL     OW38335   2.936   0.328  15.652 -0.5599  0.2653 -0.3076
 8958SOL    HW138336   2.939   0.252  15.593  0.6671 -0.2113  0.3584
 8958SOL    HW238337   3.013   0.322  15.709 -0.5601  2.1059 -0.1259
 8959SOL     OW38338   4.095   0.198   6.978 -0.5508 -0.2331  0.3651
 8959SOL    HW138339   4.151   0.269   7.010  1.2727 -2.2456  1.6348
 8959SOL    HW238340   4.010   0.237   6.956 -1.5261 -1.9724  1.0795
 8960SOL     OW38341   2.463   0.168   9.016 -0.6689 -0.1582  0.3051
 8960SOL    HW138342   2.466   0.232   9.087  2.6026  1.1635 -1.0286
 8960SOL    HW238343   2.509   0.093   9.054  1.5596  1.3336  0.5112
 8961SOL     OW38344   3.193   0.961   3.703  0.5951  0.4863 -0.1893
 8961SOL    HW138345   3.173   1.054   3.718 -1.0111  0.7469 -4.0661
 8961SOL    HW238346   3.250   0.959   3.626  0.3200  1.4760 -0.4198
 8962SOL     OW38347   4.011   0.396  13.601  0.1481 -0.0518 -0.3758
 8962SOL    HW138348   3.995   0.343  13.679  2.7181  2.1286  1.6439
 8962SOL    HW238349   4.069   0.461  13.643 -1.5183  0.4308  1.1965
 8963SOL     OW38350   3.105   2.057  16.521  0.0503  0.0715 -0.5830
 8963SOL    HW138351   3.110   2.054  16.617  2.2684  1.0715 -0.6622
 8963SOL    HW238352   3.042   2.129  16.525 -1.3847 -1.2258  0.0488
 8964SOL     OW38353   3.571   4.687  14.915  0.1275  0.1477 -0.1755
 8964SOL    HW138354   3.517   4.609  14.907  0.0511  0.2643 -0.7909
 8964SOL    HW238355   3.511   0.030  14.940  0.3745  0.3688 -0.1952
 8965SOL     OW38356   4.071   3.953   7.351 -0.4505 -0.9502 -0.0986
 8965SOL    HW138357   4.013   4.012   7.302 -0.5472 -0.7049  0.3100
 8965SOL    HW238358   4.151   4.006   7.349 -0.7580 -0.5171 -0.8835
 8966SOL     OW38359   2.505   2.141   4.544  0.1201  0.0385 -0.5910
 8966SOL    HW138360   2.421   2.127   4.588  0.0701  1.6975 -0.1343
 8966SOL    HW238361   2.538   2.052   4.536 -1.1203 -0.3536 -1.3923
 8967SOL     OW38362   1.856   2.630   4.970 -0.5633  0.1844  0.1077
 8967SOL    HW138363   1.764   2.611   4.986 -1.1669  2.5609 -0.5668
 8967SOL    HW238364   1.886   2.677   5.047 -0.5759 -1.2500  0.9977
 8968SOL     OW38365   4.221   1.571   4.108 -0.3448 -0.3178 -0.3309
 8968SOL    HW138366   4.141   1.572   4.162  0.2631  0.0530  0.5720
 8968SOL    HW238367   4.191   1.647   4.059 -0.3394  0.2720  0.5829
 8969SOL     OW38368   0.844   3.792   6.078  0.3949 -1.1122  0.1454
 8969SOL    HW138369   0.751   3.815   6.082  1.1017  1.7810  0.2776
 8969SOL    HW238370   0.878   3.850   6.147  1.0470 -1.8126  0.4081
 8970SOL     OW38371   3.842   3.341   5.567  0.0891 -0.4749 -0.3464
 8970SOL    HW138372   3.786   3.357   5.643  1.2150  0.9638  0.1829
 8970SOL    HW238373   3.774   3.341   5.500 -0.9122  0.5785  0.6756
 8971SOL     OW38374   2.765   0.374   3.378  0.5354 -0.3335  0.2646
 8971SOL    HW138375   2.846   0.390   3.330  0.8449 -3.3903 -0.2222
 8971SOL    HW238376   2.781   0.281   3.396 -0.9801 -0.2938  1.7549
 8972SOL     OW38377   0.291   4.511   9.355  0.2343  0.2762 -0.2700
 8972SOL    HW138378   0.237   4.482   9.281 -1.4984 -1.8784  1.8464
 8972SOL    HW238379   0.379   4.485   9.330  0.7271  0.5948  1.1705
 8973SOL     OW38380   2.084   3.324   1.845 -0.5779 -0.4735  0.0982
 8973SOL    HW138381   2.084   3.416   1.819  0.4230  0.4579  3.3553
 8973SOL    HW238382   2.174   3.291   1.836 -0.7887 -0.5646 -1.5469
 8974SOL     OW38383   2.209   1.397   1.085  0.0366  0.0039 -0.3892
 8974SOL    HW138384   2.153   1.418   1.011 -1.0938  1.8586  0.9683
 8974SOL    HW238385   2.284   1.457   1.083 -0.7031  1.0093  1.2732
 8975SOL     OW38386   0.053   0.081   0.253 -0.0723 -0.0934 -0.0948
 8975SOL    HW138387   0.041   0.120   0.167  1.6585  0.2118 -0.2016
 8975SOL    HW238388   0.112   0.007   0.238  1.4409  1.1402 -0.2297
 8976SOL     OW38389   3.573   3.563   7.409  0.2172 -0.1164  0.1325
 8976SOL    HW138390   3.606   3.618   7.338 -0.0595  1.8004  1.4957
 8976SOL    HW238391   3.505   3.521   7.355  0.2369  0.4564 -0.3446
 8977SOL     OW38392   1.485   2.457  15.371  0.0371  0.4555  0.2208
 8977SOL    HW138393   1.482   2.518  15.444 -1.4420  2.0300 -1.1779
 8977SOL    HW238394   1.495   2.507  15.291  0.3107 -0.3731 -0.2694
 8978SOL     OW38395   1.221   2.545   6.681  0.5268 -0.2010  0.5192
 8978SOL    HW138396   1.191   2.489   6.610  1.9520  0.7087 -0.8130
 8978SOL    HW238397   1.151   2.546   6.746 -0.7868 -1.6535 -0.8915
 8979SOL     OW38398   3.301   3.317   7.671 -0.5291 -0.0501  0.2945
 8979SOL    HW138399   3.325   3.271   7.591 -0.1760  0.3692  0.1535
 8979SOL    HW238400   3.228   3.370   7.640 -0.0364 -0.0753 -0.9130
 8980SOL     OW38401   1.214   3.244   6.504 -0.1496 -0.3277  0.5733
 8980SOL    HW138402   1.151   3.201   6.562  0.4769 -2.7467 -0.5555
 8980SOL    HW238403   1.146   3.305   6.475 -2.7047 -2.8559  1.2977
 8981SOL     OW38404   0.263   0.044   2.856 -0.0289  0.4540  0.0698
 8981SOL    HW138405   0.223   4.723   2.783  1.5189  2.2023 -1.9167
 8981SOL    HW238406   0.221   4.724   2.929 -0.1606  2.0527  1.0268
 8982SOL     OW38407   2.305   1.846   0.199  0.0940 -0.0884 -0.2157
 8982SOL    HW138408   2.309   1.922   0.256  1.2509  0.4931 -1.0687
 8982SOL    HW238409   2.216   1.818   0.222  0.3238  0.5434  1.4288
 8983SOL     OW38410   2.746   2.993   9.681 -0.5632 -0.0758 -0.2204
 8983SOL    HW138411   2.653   2.978   9.671 -0.2194 -1.0710 -1.9108
 8983SOL    HW238412   2.775   3.022   9.594 -0.2782  1.7228  0.4655
 8984SOL     OW38413   2.066   0.841   5.398 -0.4166  0.2688 -0.3915
 8984SOL    HW138414   2.146   0.851   5.346  0.0466 -1.5994 -0.0398
 8984SOL    HW238415   2.080   0.912   5.461  2.2949 -1.6378  1.1372
 8985SOL     OW38416   2.667   2.659   3.598 -0.4146  0.7287 -0.3419
 8985SOL    HW138417   2.598   2.627   3.540 -1.8063 -1.3164  2.4149
 8985SOL    HW238418   2.679   2.749   3.567 -2.6444  1.0358 -0.3205
 8986SOL     OW38419   1.136   3.342   6.937 -0.6775  0.2080 -0.0770
 8986SOL    HW138420   1.192   3.272   6.903 -1.1059  0.8343 -2.0867
 8986SOL    HW238421   1.110   3.301   7.020  1.6221  2.3772  1.7192
 8987SOL     OW38422   4.368   2.473   9.803 -0.1888 -0.3341  0.2546
 8987SOL    HW138423   4.300   2.406   9.800 -0.9066  0.4481 -1.0780
 8987SOL    HW238424   4.347   2.522   9.883 -0.9874 -1.5814  0.8018
 8988SOL     OW38425   0.187   3.287   1.889  0.4381  0.1231 -0.1433
 8988SOL    HW138426   0.133   3.305   1.965 -0.7454 -1.2077 -0.6808
 8988SOL    HW238427   0.198   3.378   1.861  2.0276  0.1556  0.5625
 8989SOL     OW38428   3.762   0.972   7.119 -0.4813 -0.2774  0.2219
 8989SOL    HW138429   3.756   0.925   7.203  0.1310 -0.3962  0.1987
 8989SOL    HW238430   3.845   1.015   7.139 -0.1645 -1.1370  0.7723
 8990SOL     OW38431   3.788   3.507   9.126  0.3890  0.3804  0.4722
 8990SOL    HW138432   3.851   3.442   9.096  1.5859  1.1223  1.3814
 8990SOL    HW238433   3.808   3.591   9.084  1.3826 -0.9031 -1.5486
 8991SOL     OW38434   0.735   1.648   3.836  0.1729  0.4876  0.0867
 8991SOL    HW138435   0.649   1.681   3.864  0.1128 -1.7154  2.4855
 8991SOL    HW238436   0.715   1.555   3.825 -1.2643  0.9087 -0.8729
 8992SOL     OW38437   4.143   2.211   1.809  0.2011  0.1179  0.2888
 8992SOL    HW138438   4.206   2.247   1.746 -0.8096  4.0244  1.4911
 8992SOL    HW238439   4.164   2.118   1.806 -1.2524 -0.2142  0.4087
 8993SOL     OW38440   0.274   0.460   0.037  0.2925 -0.4054 -0.2448
 8993SOL    HW138441   0.293   0.553   0.030 -0.6000 -0.1017  1.4958
 8993SOL    HW238442   0.300   0.435  17.656  0.1523  0.3392 -0.4948
 8994SOL     OW38443   3.462   1.684  16.637  0.2268 -0.2162 -0.3402
 8994SOL    HW138444   3.386   1.721  16.682  1.3237 -0.8370  2.0075
 8994SOL    HW238445   3.496   1.764  16.597 -3.1360  1.3870  0.0608
 8995SOL     OW38446   2.928   0.418  15.985 -0.0390 -0.6358 -0.2756
 8995SOL    HW138447   2.999   0.423  16.049  0.9173  1.0041 -1.4622
 8995SOL    HW238448   2.959   0.499  15.943  1.0869 -1.7900 -1.6696
 8996SOL     OW38449   2.651   0.643   2.517 -0.1637 -0.1241 -0.0028
 8996SOL    HW138450   2.598   0.609   2.446 -0.8042 -0.8533  0.8263
 8996SOL    HW238451   2.731   0.636   2.465 -0.4713 -0.1857 -0.4643
 8997SOL     OW38452   2.883   2.135   8.331  0.8532 -0.0061 -0.1310
 8997SOL    HW138453   2.797   2.161   8.298  1.1577  2.6617  1.1570
 8997SOL    HW238454   2.929   2.186   8.265  0.3687  0.6673  0.0482
 8998SOL     OW38455   1.492   4.376   9.306  0.4449  0.1160 -0.4515
 8998SOL    HW138456   1.482   4.329   9.389 -0.9212 -0.3520 -0.8731
 8998SOL    HW238457   1.483   4.468   9.329 -2.1400 -0.2444  0.0238
 8999SOL     OW38458   3.079   2.141   2.743  0.4395  0.1918 -0.6156
 8999SOL    HW138459   3.103   2.133   2.836  1.8666 -1.4989 -1.1262
 8999SOL    HW238460   2.985   2.154   2.751  0.2287 -1.8188  0.1991
 9000SOL     OW38461   3.292   3.403  12.569 -0.4653 -0.2480 -0.0271
 9000SOL    HW138462   3.332   3.324  12.605 -2.1479 -1.4490 -0.7416
 9000SOL    HW238463   3.200   3.381  12.552 -0.5966  0.6735 -0.5077
 9001SOL     OW38464   1.628   1.544   9.637 -0.1463 -0.3562 -0.5609
 9001SOL    HW138465   1.677   1.469   9.672  2.1395  1.0212 -0.8623
 9001SOL    HW238466   1.699   1.582   9.586  2.3445 -0.4860  2.8363
 9002SOL     OW38467   0.737   0.777   7.016 -0.5139 -0.4350 -0.4295
 9002SOL    HW138468   0.647   0.809   7.017 -0.1505  0.6169 -0.7845
 9002SOL    HW238469   0.727   0.714   7.087  0.6559 -1.0561 -0.8146
 9003SOL     OW38470   0.940   3.682   4.477  0.0824  0.2931  0.2508
 9003SOL    HW138471   0.851   3.650   4.462  1.4295 -2.6556 -1.2508
 9003SOL    HW238472   0.977   3.682   4.389 -0.6443  0.4168 -0.0579
 9004SOL     OW38473   1.583   2.897   7.014  0.4430 -0.0188  0.5334
 9004SOL    HW138474   1.636   2.897   6.934  0.4799  1.0885  0.5491
 9004SOL    HW238475   1.652   2.882   7.079 -1.0978 -1.3252  1.8697
 9005SOL     OW38476   2.196   1.641   8.378 -0.2224  0.5356 -0.1087
 9005SOL    HW138477   2.242   1.698   8.440  0.5675 -0.2402  0.0319
 9005SOL    HW238478   2.227   1.552   8.395 -1.8234 -0.4743 -2.4505
 9006SOL     OW38479   3.446   0.957   8.201  0.0882 -0.0187  0.5379
 9006SOL    HW138480   3.466   0.878   8.152  2.1433 -0.1931  1.6462
 9006SOL    HW238481   3.496   1.027   8.158  1.9049 -1.9374 -0.4808
 9007SOL     OW38482   1.188   2.925   3.991  0.4364 -0.2331 -0.1829
 9007SOL    HW138483   1.267   2.977   4.005 -1.5389  2.5303  0.6959
 9007SOL    HW238484   1.220   2.875   3.917  0.3696 -0.7944  0.1709
 9008SOL     OW38485   4.686   3.483   1.556 -0.6483 -0.5242  0.0324
 9008SOL    HW138486   4.599   3.466   1.521 -0.8275  1.4653 -0.4976
 9008SOL    HW238487   0.017   3.413   1.525  0.0647 -0.6561  1.6761
 9009SOL     OW38488   3.486   0.257   6.874  0.6006  0.4651  0.4612
 9009SOL    HW138489   3.472   0.188   6.939  0.4577 -0.7868 -0.8938
 9009SOL    HW238490   3.447   0.210   6.801 -2.9160  0.6932  2.2106
 9010SOL     OW38491   2.021   3.722   3.299 -0.4283 -0.0297 -0.2675
 9010SOL    HW138492   2.021   3.627   3.286  3.3294 -0.0363 -0.2924
 9010SOL    HW238493   2.092   3.739   3.361 -1.0242 -0.9833  0.6790
 9011SOL     OW38494   1.925   1.958   3.433 -1.1416 -0.4536 -0.8441
 9011SOL    HW138495   1.895   2.020   3.367 -1.5434  1.7054  1.3705
 9011SOL    HW238496   2.001   1.925   3.385 -0.1968 -0.1552  0.4336
 9012SOL     OW38497   2.489   2.565   3.435  0.0351 -0.7539 -0.2167
 9012SOL    HW138498   2.414   2.536   3.487  1.3383 -2.4564  0.6930
 9012SOL    HW238499   2.448   2.587   3.351  0.1200  1.7664  0.3873
 9013SOL     OW38500   3.345   0.502   3.086  0.4336  0.4527 -0.0681
 9013SOL    HW138501   3.322   0.510   2.993 -0.0146 -0.4147 -0.0299
 9013SOL    HW238502   3.426   0.452   3.078  0.1871 -0.0146  0.3952
 9014SOL     OW38503   0.207   2.578   3.767 -0.0477  0.2002 -0.4784
 9014SOL    HW138504   0.229   2.519   3.696  1.8156  1.2248 -0.7534
 9014SOL    HW238505   0.120   2.543   3.785 -0.4863  1.9594  0.8383
 9015SOL     OW38506   3.585   3.184   9.619 -0.1779 -0.8820  0.2415
 9015SOL    HW138507   3.535   3.104   9.637 -0.6110 -0.3306  1.4764
 9015SOL    HW238508   3.634   3.183   9.701 -1.6845 -1.2979  1.1393
 9016SOL     OW38509   0.966   1.758   0.313  0.3791 -0.0686  0.0931
 9016SOL    HW138510   0.966   1.854   0.322  1.4590  0.0180 -0.8275
 9016SOL    HW238511   0.874   1.737   0.330  0.3937  0.0397  0.3175
 9017SOL     OW38512   3.350   4.433   3.866  0.7046 -0.4955  0.0168
 9017SOL    HW138513   3.401   4.513   3.850  0.5592 -0.1752  1.1768
 9017SOL    HW238514   3.265   4.472   3.843  0.8551  0.5442  1.2367
 9018SOL     OW38515   2.314   0.350  10.158  0.1692  0.4490 -0.0627
 9018SOL    HW138516   2.293   0.434  10.116 -0.9406  0.6851  0.9608
 9018SOL    HW238517   2.391   0.328  10.106  0.8023  4.1513 -0.7298
 9019SOL     OW38518   2.839   1.720   5.134 -0.3501 -0.2659 -1.2717
 9019SOL    HW138519   2.761   1.736   5.188  0.5059 -1.2304  0.2740
 9019SOL    HW238520   2.876   1.653   5.192  1.8810 -0.2891 -2.7266
 9020SOL     OW38521   3.793   0.185   6.724 -0.6204  0.6106 -0.0345
 9020SOL    HW138522   3.861   0.247   6.696 -0.1198  1.3831  2.8568
 9020SOL    HW238523   3.817   0.112   6.668 -1.5168  0.3702 -0.1093
 9021SOL     OW38524   3.612   1.798   6.763 -0.4035  0.2567  0.1210
 9021SOL    HW138525   3.691   1.782   6.710 -0.7759 -1.2819  0.0218
 9021SOL    HW238526   3.636   1.862   6.830 -0.0077 -0.5841  0.7809
 9022SOL     OW38527   1.975   2.166   0.914 -0.5716 -0.0001 -0.1140
 9022SOL    HW138528   1.920   2.215   0.853 -0.1776  0.4059 -0.1480
 9022SOL    HW238529   2.031   2.234   0.951 -0.8901  0.9951 -1.4638
 9023SOL     OW38530   1.091   3.211   2.395 -0.1259  0.0821  0.1887
 9023SOL    HW138531   1.086   3.125   2.354  0.9390  0.8280 -1.5639
 9023SOL    HW238532   1.147   3.258   2.332 -0.1716  0.7072  0.6087
 9024SOL     OW38533   0.569   1.772   2.255 -0.4329  0.2941 -0.3243
 9024SOL    HW138534   0.547   1.864   2.239 -1.9582 -0.0372 -0.0781
 9024SOL    HW238535   0.591   1.772   2.349 -0.0658  0.2857 -0.4090
 9025SOL     OW38536   3.265   2.180   3.022  0.3988  0.2353  0.4818
 9025SOL    HW138537   3.257   2.269   2.988 -0.2351  0.5995  1.5772
 9025SOL    HW238538   3.197   2.185   3.089  0.7234 -2.0331  0.9572
 9026SOL     OW38539   0.384   3.125  16.130  0.4087 -0.2396  0.3454
 9026SOL    HW138540   0.307   3.071  16.111 -2.0657  2.9896  1.1460
 9026SOL    HW238541   0.434   3.069  16.190  1.9581 -1.3989 -2.0490
 9027SOL     OW38542   3.944   0.616   4.688  0.0740 -0.2284  0.2244
 9027SOL    HW138543   3.870   0.580   4.639 -0.9971  1.5655  0.5258
 9027SOL    HW238544   3.901   0.616   4.773  1.5251  1.0179  0.9568
 9028SOL     OW38545   1.528   2.713   3.910 -0.1447 -0.1939  0.4637
 9028SOL    HW138546   1.449   2.753   3.873  0.7577  2.1826  1.0827
 9028SOL    HW238547   1.515   2.628   3.869  0.4067 -1.0414  2.0420
 9029SOL     OW38548   1.715   3.245   4.633 -0.2992  0.5373 -0.4858
 9029SOL    HW138549   1.755   3.249   4.546 -0.4967  1.2854 -0.5413
 9029SOL    HW238550   1.795   3.226   4.683  0.6763  1.2093 -1.7877
 9030SOL     OW38551   3.923   1.415   0.971 -0.5972 -0.2222 -0.7948
 9030SOL    HW138552   3.836   1.441   1.001 -0.2925 -0.4178  0.2469
 9030SOL    HW238553   3.955   1.503   0.950 -1.2572 -0.4036 -2.5848
 9031SOL     OW38554   4.668   3.680   9.564  0.2825  0.0940 -0.2523
 9031SOL    HW138555   4.677   3.586   9.581  4.0977  0.5355  0.1995
 9031SOL    HW238556   4.619   3.669   9.482  0.3667 -1.4932 -0.0832
 9032SOL     OW38557   0.860   4.197   6.789  0.1366  0.2553 -0.6426
 9032SOL    HW138558   0.883   4.287   6.812  0.6855  0.3037 -1.4011
 9032SOL    HW238559   0.856   4.169   6.881 -1.5512  0.9085 -0.5171
 9033SOL     OW38560   3.984   1.547   5.562  0.3848 -0.4802  0.3999
 9033SOL    HW138561   3.980   1.452   5.556  2.2608 -0.4499 -1.2032
 9033SOL    HW238562   4.079   1.550   5.567  0.4511  0.6733 -1.7584
 9034SOL     OW38563   2.895   4.595   7.372 -0.2075 -0.7899 -0.0233
 9034SOL    HW138564   2.843   4.676   7.374 -2.7041 -2.4092  1.3732
 9034SOL    HW238565   2.960   4.617   7.439  1.0106  2.3710 -2.2189
 9035SOL     OW38566   3.864   0.880   6.241  0.3709 -0.2908  0.3292
 9035SOL    HW138567   3.861   0.836   6.326 -1.8276 -1.7106 -0.4830
 9035SOL    HW238568   3.923   0.826   6.188  1.6326  0.1500  1.2727
 9036SOL     OW38569   3.495   3.829   8.173  0.3434  0.3072 -0.2541
 9036SOL    HW138570   3.428   3.893   8.149 -0.5740 -0.6356 -0.2549
 9036SOL    HW238571   3.518   3.796   8.086 -0.7098 -0.6152 -0.1903
 9037SOL     OW38572   3.088   2.851   4.325 -0.5282  0.1485 -0.3719
 9037SOL    HW138573   3.144   2.800   4.266 -0.3474  0.1594 -0.2111
 9037SOL    HW238574   3.035   2.905   4.267  0.5227  0.6059 -0.9029
 9038SOL     OW38575   0.296   1.804  17.602 -0.2568  0.5580  0.2590
 9038SOL    HW138576   0.215   1.774  17.561 -0.3850  0.3264  0.6896
 9038SOL    HW238577   0.302   1.890  17.559 -0.9834  0.3516 -0.2519
 9039SOL     OW38578   4.656   1.259   8.649 -0.0533 -0.5498 -0.0093
 9039SOL    HW138579   4.668   1.246   8.744 -0.9366  1.2111  0.3281
 9039SOL    HW238580   0.015   1.291   8.622 -0.5051  1.1704  0.6091
 9040SOL     OW38581   0.402   0.057   4.714 -0.3929  0.2194 -0.2782
 9040SOL    HW138582   0.326   0.042   4.656 -1.2199 -0.6965  1.0561
 9040SOL    HW238583   0.461   0.105   4.656 -0.6364  3.0209  1.7918
 9041SOL     OW38584   0.831   0.311   6.068  0.2493 -0.1410 -0.0620
 9041SOL    HW138585   0.828   0.396   6.110 -0.1650 -0.6209  0.8758
 9041SOL    HW238586   0.924   0.293   6.076  0.0693 -0.5204  1.1290
 9042SOL     OW38587   3.415   0.567  12.228  0.1581 -0.1651  0.0423
 9042SOL    HW138588   3.368   0.650  12.219 -0.3309 -0.1931  2.5682
 9042SOL    HW238589   3.505   0.601  12.224  0.2376 -0.4235 -0.3731
 9043SOL     OW38590   0.128   2.888   3.500  0.1248  0.4749 -0.2576
 9043SOL    HW138591   0.057   2.893   3.563 -0.6069  1.4297 -1.1608
 9043SOL    HW238592   0.152   2.796   3.511 -3.3319 -0.3491  0.2386
 9044SOL     OW38593   3.057   2.743   6.640  0.2392 -0.6291 -0.3900
 9044SOL    HW138594   3.098   2.662   6.668 -1.1278 -0.6243  1.6462
 9044SOL    HW238595   3.047   2.718   6.548  0.0578  0.7573 -0.7434
 9045SOL     OW38596   3.867   0.108  10.042 -1.1968  0.1775  0.3426
 9045SOL    HW138597   3.842   0.191  10.083 -0.9752  0.3164  0.1964
 9045SOL    HW238598   3.866   0.149   9.956  0.8976  3.7133  2.0114
 9046SOL     OW38599   1.675   1.286   5.729  0.0481 -0.5065 -0.4392
 9046SOL    HW138600   1.708   1.262   5.643  0.1734  1.0595 -0.8235
 9046SOL    HW238601   1.605   1.347   5.706 -1.4083 -1.8658  0.3981
 9047SOL     OW38602   3.711   1.732  10.092  0.0440 -0.5517  0.4209
 9047SOL    HW138603   3.757   1.815  10.108  0.2321 -0.6138  0.1978
 9047SOL    HW238604   3.707   1.733   9.997 -0.1573  2.0135  0.4546
 9048SOL     OW38605   2.192   2.388   9.894  0.4152 -0.0521 -0.0879
 9048SOL    HW138606   2.123   2.447   9.864  1.7319  1.2222 -0.5698
 9048SOL    HW238607   2.148   2.349   9.970 -1.4365  1.2339 -0.5134
 9049SOL     OW38608   0.111   2.104   8.277  0.9611  0.4334 -0.5577
 9049SOL    HW138609   0.066   2.168   8.333 -1.2825 -2.0675  0.5066
 9049SOL    HW238610   0.163   2.054   8.340 -2.3773 -0.6787  1.2952
 9050SOL     OW38611   1.978   4.228   6.797  0.5906  0.7376 -0.9902
 9050SOL    HW138612   2.052   4.251   6.854 -1.2696  0.7798  1.3930
 9050SOL    HW238613   2.013   4.147   6.761  0.2215  0.3376 -0.4314
 9051SOL     OW38614   2.911   4.153   2.208  0.3126 -0.1047 -0.6188
 9051SOL    HW138615   2.906   4.066   2.169  0.7780  0.0220 -0.9575
 9051SOL    HW238616   2.902   4.147   2.304  0.8291  0.6503 -0.5231
 9052SOL     OW38617   2.434   2.694   8.486 -0.4654  0.3829  0.1942
 9052SOL    HW138618   2.493   2.682   8.561  0.8171 -0.8453 -1.0135
 9052SOL    HW238619   2.387   2.610   8.492 -0.2434  0.2210 -0.3237
 9053SOL     OW38620   4.057   4.342   0.574  0.2636  0.2473 -0.0737
 9053SOL    HW138621   3.986   4.403   0.591  0.0950 -0.4170  1.5715
 9053SOL    HW238622   4.102   4.345   0.658 -1.1458 -0.4840  0.7061
 9054SOL     OW38623   2.362   4.109   9.081  0.0855  0.3497 -0.0574
 9054SOL    HW138624   2.330   4.107   9.172 -0.1556 -0.2267 -0.1530
 9054SOL    HW238625   2.394   4.019   9.073  0.3685  0.3848  0.7095
 9055SOL     OW38626   1.382   2.192   0.308  0.0311 -0.1585  0.0733
 9055SOL    HW138627   1.365   2.178   0.215  1.6432  0.4059 -0.3047
 9055SOL    HW238628   1.420   2.279   0.303  0.1155 -0.3181 -2.2550
 9056SOL     OW38629   3.431   0.533  16.553 -0.2312  0.4399 -0.1380
 9056SOL    HW138630   3.498   0.602  16.560  2.0565 -1.8627  0.7202
 9056SOL    HW238631   3.465   0.477  16.623 -0.0692 -1.6641 -1.8868
 9057SOL     OW38632   4.065   4.367  11.262 -0.2914  0.1700 -0.0853
 9057SOL    HW138633   4.031   4.382  11.351 -1.6814  1.6976 -0.8797
 9057SOL    HW238634   4.132   4.300  11.274 -0.7967 -0.2364  0.4760
 9058SOL     OW38635   3.834   2.635  14.820  0.5419 -0.5032 -0.0634
 9058SOL    HW138636   3.786   2.577  14.880  1.5190 -0.0998  1.1275
 9058SOL    HW238637   3.766   2.695  14.789  0.5541 -0.3517  0.1992
 9059SOL     OW38638   3.386   1.279   5.531  0.0790  0.2437  0.3954
 9059SOL    HW138639   3.362   1.196   5.573 -2.0917  0.7819  0.2050
 9059SOL    HW238640   3.365   1.351   5.590 -0.4586  1.4681 -1.3111
 9060SOL     OW38641   1.288   2.764   3.798 -0.7099  0.4077  0.3058
 9060SOL    HW138642   1.303   2.812   3.717 -0.0835 -0.2409  0.0380
 9060SOL    HW238643   1.253   2.683   3.760 -1.1059  0.8902 -0.3484
 9061SOL     OW38644   1.762   1.650   5.091  0.3656 -0.4560 -0.8547
 9061SOL    HW138645   1.746   1.556   5.096 -0.1950 -0.2449  1.3313
 9061SOL    HW238646   1.856   1.656   5.105  0.2326 -0.5597  0.0988
 9062SOL     OW38647   0.610   2.328   3.729 -0.0842 -0.2113 -0.3812
 9062SOL    HW138648   0.641   2.326   3.820 -0.1610 -0.1248 -0.3530
 9062SOL    HW238649   0.548   2.255   3.728 -1.5393  1.0480 -0.1659
 9063SOL     OW38650   2.241   0.820  12.160  0.0855 -0.4057 -0.1749
 9063SOL    HW138651   2.147   0.801  12.162  0.3196 -1.8616 -3.6187
 9063SOL    HW238652   2.257   0.809  12.067  1.6504  0.0784  0.0379
 9064SOL     OW38653   2.461   1.759   6.108  0.4087 -0.2589  0.1063
 9064SOL    HW138654   2.542   1.739   6.156  1.3895 -0.2371 -1.5384
 9064SOL    HW238655   2.501   1.815   6.042  0.2259 -0.0398  0.1847
 9065SOL     OW38656   2.238   3.511  12.989 -0.1398 -0.2075 -0.3770
 9065SOL    HW138657   2.243   3.433  12.933  0.4735 -0.4360 -0.0075
 9065SOL    HW238658   2.233   3.579  12.922 -1.5896 -0.1221 -0.1709
 9066SOL     OW38659   3.875   0.916   5.433 -0.1653  0.6225  0.3217
 9066SOL    HW138660   3.961   0.888   5.404 -0.8326 -1.1591  0.0541
 9066SOL    HW238661   3.864   1.009   5.413 -2.2505  0.3613  0.1837
 9067SOL     OW38662   0.360   3.470   1.718 -0.0981 -0.5778 -0.7714
 9067SOL    HW138663   0.379   3.497   1.628  1.1975  0.8165 -0.0678
 9067SOL    HW238664   0.394   3.381   1.710  0.1962 -0.5808  0.4782
 9068SOL     OW38665   1.097   2.776   4.712  0.0242  0.9379 -0.6414
 9068SOL    HW138666   1.090   2.734   4.626 -1.4679  1.3332 -0.7217
 9068SOL    HW238667   1.189   2.802   4.719 -0.7332  3.6375 -0.9786
 9069SOL     OW38668   2.213   3.053   1.576 -0.2252 -0.4426 -0.5422
 9069SOL    HW138669   2.221   3.074   1.483  0.3402  0.1950 -0.3434
 9069SOL    HW238670   2.118   3.064   1.581 -0.2820 -0.9762 -0.3949
 9070SOL     OW38671   1.560   3.588   8.374 -0.0589  0.2790 -0.1424
 9070SOL    HW138672   1.628   3.531   8.336 -1.5658 -0.9980 -0.9298
 9070SOL    HW238673   1.481   3.548   8.337  0.5258  0.3364 -1.4562
 9071SOL     OW38674   2.010   2.966   8.537 -0.0190 -0.3557  0.1258
 9071SOL    HW138675   2.082   2.924   8.583 -0.3153 -0.8393  0.1484
 9071SOL    HW238676   2.042   3.054   8.520 -0.7048 -0.0456  0.4291
 9072SOL     OW38677   2.399   0.582   3.974 -0.2813 -0.0550 -0.4722
 9072SOL    HW138678   2.341   0.577   3.897  0.2731 -1.8937 -0.7613
 9072SOL    HW238679   2.406   0.490   3.998  1.0300  0.5466  1.3923
 9073SOL     OW38680   2.839   1.067   8.630  0.1953  0.1800  0.4466
 9073SOL    HW138681   2.870   1.146   8.673 -0.5435  0.0574  1.2120
 9073SOL    HW238682   2.807   1.081   8.541 -1.4080 -2.3064  0.6366
 9074SOL     OW38683   3.052   0.082  15.576  0.0505 -0.4795  0.2068
 9074SOL    HW138684   3.002   0.025  15.635  0.9082  1.0467  2.4099
 9074SOL    HW238685   3.106   0.120  15.645  2.6198 -0.2510 -1.9283
 9075SOL     OW38686   0.703   4.038   7.686  0.3531 -0.0056  0.0051
 9075SOL    HW138687   0.711   4.100   7.758  0.6199  2.1006 -1.8394
 9075SOL    HW238688   0.793   4.005   7.686  0.2941 -0.1738  1.3223
 9076SOL     OW38689   1.986   4.573  10.851  0.6720 -0.6532  0.1207
 9076SOL    HW138690   1.960   4.646  10.795 -0.7730 -1.5562 -0.3721
 9076SOL    HW238691   1.973   4.604  10.940 -0.5115  1.0326 -0.6501
 9077SOL     OW38692   0.804   0.488   0.352 -0.5831  0.2240 -0.1901
 9077SOL    HW138693   0.806   0.534   0.436 -1.2164  3.1682 -1.7827
 9077SOL    HW238694   0.717   0.449   0.362 -0.2154 -0.8371 -1.1515
 9078SOL     OW38695   3.025   1.358   5.467  0.3214  0.0025  0.0537
 9078SOL    HW138696   2.985   1.416   5.531  0.1078 -0.9034  0.7316
 9078SOL    HW238697   3.022   1.268   5.499 -0.5098  0.3122  0.8208
 9079SOL     OW38698   1.790   2.949   1.717  0.2068  0.1851  0.2460
 9079SOL    HW138699   1.825   2.929   1.804 -1.1275 -3.3232 -0.0264
 9079SOL    HW238700   1.773   2.858   1.692 -3.8895  2.4245 -5.1874
 9080SOL     OW38701   4.369   3.346  12.179 -0.0173 -0.2619  0.0743
 9080SOL    HW138702   4.387   3.347  12.085  0.1216 -0.1819  0.1020
 9080SOL    HW238703   4.453   3.322  12.218 -1.2961 -2.4574  1.4680
 9081SOL     OW38704   3.714   3.933  15.835 -0.4659  0.2347 -0.3259
 9081SOL    HW138705   3.641   3.961  15.890 -0.2708 -2.0381  1.0727
 9081SOL    HW238706   3.713   4.001  15.767 -1.9142 -0.5331 -1.0592
 9082SOL     OW38707   4.292   4.298   6.697  0.2967 -0.2783 -0.3009
 9082SOL    HW138708   4.252   4.212   6.687  0.4771 -0.1037 -2.4776
 9082SOL    HW238709   4.331   4.284   6.783 -0.7985 -0.9684  0.0805
 9083SOL     OW38710   0.688   1.352   8.087 -0.1300 -0.4031  0.7441
 9083SOL    HW138711   0.774   1.393   8.076 -1.6198  2.7488  0.8413
 9083SOL    HW238712   0.697   1.323   8.178  0.2610 -0.5392  0.6627
 9084SOL     OW38713   4.398   0.718   9.877 -0.0446 -0.1485 -0.3791
 9084SOL    HW138714   4.427   0.760   9.959 -0.2284  1.1325 -0.9703
 9084SOL    HW238715   4.445   0.772   9.813 -1.9161 -0.8189 -2.2723
 9085SOL     OW38716   1.542   0.833  11.791 -0.0165  0.0597 -0.6172
 9085SOL    HW138717   1.457   0.856  11.754  1.3574  1.3044 -3.0145
 9085SOL    HW238718   1.575   0.923  11.789 -0.1377  0.0805 -1.9718
 9086SOL     OW38719   0.779   4.023   6.266  0.6670  0.3869 -0.0123
 9086SOL    HW138720   0.746   4.022   6.176 -0.8585  0.7802  0.5287
 9086SOL    HW238721   0.806   4.115   6.275 -3.7891  2.0152 -3.1583
 9087SOL     OW38722   2.190   3.505   4.620 -0.2169  0.1346  0.0685
 9087SOL    HW138723   2.123   3.463   4.674  1.5250 -3.0625 -0.1994
 9087SOL    HW238724   2.153   3.521   4.534 -0.8265  1.4856  0.5809
 9088SOL     OW38725   2.988   2.077  17.329 -0.1769  0.3153  0.1085
 9088SOL    HW138726   3.070   2.027  17.333 -0.2762  0.2333  1.1973
 9088SOL    HW238727   2.934   2.011  17.286  0.5171 -0.3947  0.3151
 9089SOL     OW38728   4.390   2.267   4.353 -0.4036 -0.1434 -0.2207
 9089SOL    HW138729   4.373   2.350   4.310  1.0551 -0.4610 -1.4358
 9089SOL    HW238730   4.467   2.296   4.403 -0.3262 -1.2957  0.3355
 9090SOL     OW38731   0.339   3.316   2.374  0.2811 -0.0265 -0.6712
 9090SOL    HW138732   0.402   3.340   2.442  0.9083 -2.2441 -0.4832
 9090SOL    HW238733   0.256   3.321   2.421  1.0270  0.1335  0.6339
 9091SOL     OW38734   3.724   2.337  10.959 -0.0960  0.4619  0.1175
 9091SOL    HW138735   3.754   2.414  11.006 -1.1452 -0.2464  1.9760
 9091SOL    HW238736   3.691   2.390  10.886  0.7520 -1.4479 -1.6475
 9092SOL     OW38737   0.905   2.328   1.295 -0.3816 -0.4605 -0.3359
 9092SOL    HW138738   0.834   2.333   1.358 -1.3111 -3.0117 -1.1800
 9092SOL    HW238739   0.906   2.234   1.274  0.5610 -0.0085 -2.3312
 9093SOL     OW38740   1.670   0.051   5.768  0.8795 -0.0818 -0.6440
 9093SOL    HW138741   1.758   0.083   5.746  1.3452 -0.4921  0.6307
 9093SOL    HW238742   1.674   0.026   5.860  0.0946 -0.5973 -0.7581
 9094SOL     OW38743   1.221   3.526   4.164 -0.3000  0.3139  0.0715
 9094SOL    HW138744   1.307   3.561   4.139  0.4017 -0.1199  1.8708
 9094SOL    HW238745   1.209   3.583   4.240  1.8494 -0.3279  0.9030
 9095SOL     OW38746   2.469   4.167   6.625  0.5758 -0.2438 -0.5186
 9095SOL    HW138747   2.383   4.208   6.628 -0.0805 -1.6846  0.6706
 9095SOL    HW238748   2.444   4.093   6.680  0.9817  0.2732  0.3521
 9096SOL     OW38749   1.958   4.599   1.889  0.3559  0.3509 -0.3641
 9096SOL    HW138750   2.048   4.588   1.920  1.1408  2.9694 -1.7652
 9096SOL    HW238751   1.923   4.675   1.936  0.9005  0.7576 -0.6268
 9097SOL     OW38752   3.707   1.910   3.151  0.5410 -0.4354 -0.0070
 9097SOL    HW138753   3.635   1.944   3.099 -0.2522 -2.6853 -0.4029
 9097SOL    HW238754   3.700   1.953   3.236  0.2126 -0.7583  0.1299
 9098SOL     OW38755   0.814   3.657   8.366  0.1305 -0.1036 -0.0038
 9098SOL    HW138756   0.860   3.628   8.287 -0.9404 -0.7206 -0.3903
 9098SOL    HW238757   0.743   3.593   8.366 -0.8889  1.0183 -1.6457
 9099SOL     OW38758   0.407   2.556   8.230  0.4588  0.0197 -0.0175
 9099SOL    HW138759   0.383   2.479   8.281  2.5165 -0.6687 -0.0861
 9099SOL    HW238760   0.453   2.610   8.296  0.1667  0.8402 -0.4869
 9100SOL     OW38761   4.556   2.439   2.870 -0.1994 -0.0221  0.0320
 9100SOL    HW138762   4.479   2.494   2.881  0.5635  1.3002 -1.1148
 9100SOL    HW238763   4.539   2.372   2.937  2.7001 -1.7177 -0.9139
 9101SOL     OW38764   3.667   4.064  13.784  0.7748 -0.3174  0.3898
 9101SOL    HW138765   3.618   4.137  13.822 -0.6608 -0.8396 -0.4980
 9101SOL    HW238766   3.619   4.062  13.702  1.8231 -0.0319 -0.2334
 9102SOL     OW38767   2.967   4.182  10.866  0.2744  0.1994  0.4637
 9102SOL    HW138768   2.892   4.175  10.925  0.1243 -2.0543 -0.0022
 9102SOL    HW238769   2.925   4.186  10.780 -2.0615  0.8021  1.6208
 9103SOL     OW38770   2.636   0.293   0.499 -0.0681 -0.1668  0.1028
 9103SOL    HW138771   2.595   0.378   0.480  2.9737  2.0125  3.2545
 9103SOL    HW238772   2.658   0.267   0.409  0.0545  0.5716 -0.0861
 9104SOL     OW38773   0.942   3.340   5.363  0.0294 -0.2007 -0.2800
 9104SOL    HW138774   1.008   3.405   5.339  0.9888 -1.1575 -0.2297
 9104SOL    HW238775   0.867   3.400   5.364 -0.8271 -1.2828  0.2914
 9105SOL     OW38776   2.891   2.522   6.727 -0.1104  0.3410  0.1497
 9105SOL    HW138777   2.933   2.608   6.719 -2.3197  1.4650  0.7077
 9105SOL    HW238778   2.824   2.524   6.659 -0.4235 -1.9575  0.3975
 9106SOL     OW38779   0.406   2.526   7.260  0.0336 -0.0463  0.0518
 9106SOL    HW138780   0.428   2.435   7.278  1.0810 -0.0309 -1.2002
 9106SOL    HW238781   0.316   2.528   7.291  0.0622  1.2921  0.0629
 9107SOL     OW38782   3.219   3.129   0.212  0.5265  0.6527 -0.2834
 9107SOL    HW138783   3.243   3.167   0.296 -5.3458  0.1716  1.6301
 9107SOL    HW238784   3.178   3.049   0.246 -0.2458  1.6273  1.0550
 9108SOL     OW38785   4.381   1.054   3.656  0.5884  0.0335  0.4547
 9108SOL    HW138786   4.332   1.084   3.734 -0.2331  1.0068 -0.4300
 9108SOL    HW238787   4.381   0.959   3.664  2.4540 -0.0979 -1.3621
 9109SOL     OW38788   4.307   2.550   6.428 -0.1804  0.1450 -0.5625
 9109SOL    HW138789   4.300   2.457   6.405  2.9237 -0.0454 -0.7354
 9109SOL    HW238790   4.311   2.548   6.523  0.0231  0.6945 -0.5574
 9110SOL     OW38791   2.495   0.923   7.142 -0.2905 -0.0001  0.5543
 9110SOL    HW138792   2.473   0.988   7.075 -0.3555 -0.6510 -0.0509
 9110SOL    HW238793   2.576   0.969   7.163 -1.5245  1.8790  1.1968
 9111SOL     OW38794   0.195   3.119  10.917 -0.0100 -0.1100  0.2744
 9111SOL    HW138795   0.148   3.179  10.974 -0.2305  0.4326 -0.4838
 9111SOL    HW238796   0.287   3.147  10.927  0.2259  0.0948 -2.5372
 9112SOL     OW38797   3.515   4.385   8.642 -0.1773  0.3793  0.2060
 9112SOL    HW138798   3.458   4.355   8.572  2.3906 -3.8648 -0.0552
 9112SOL    HW238799   3.507   4.481   8.641 -0.9927  0.3032 -0.0778
 9113SOL     OW38800   3.277   3.050  13.468 -0.5422  0.4017  0.4766
 9113SOL    HW138801   3.284   2.971  13.415 -0.6482  0.6102  0.1534
 9113SOL    HW238802   3.182   3.063  13.472 -1.1739 -4.6961  0.9773
 9114SOL     OW38803   4.690   1.738   3.428  0.0415 -0.2660  0.5177
 9114SOL    HW138804   4.693   1.655   3.475  0.6203 -0.0265  0.9082
 9114SOL    HW238805   4.597   1.756   3.442  0.0405  0.1300 -0.0011
 9115SOL     OW38806   0.688   1.062   6.559  0.1713  0.0776 -0.5561
 9115SOL    HW138807   0.708   0.977   6.598 -1.4401 -1.2522 -2.6395
 9115SOL    HW238808   0.665   1.116   6.635 -0.7717 -0.5684 -0.3849
 9116SOL     OW38809   1.075   0.346   9.405 -0.5100 -0.6517 -0.1534
 9116SOL    HW138810   1.048   0.408   9.336  1.2214  0.2048 -0.0596
 9116SOL    HW238811   1.081   0.399   9.484  0.4531 -4.8066  2.5434
 9117SOL     OW38812   1.141   0.266  14.584  0.5674  0.1607 -0.3069
 9117SOL    HW138813   1.155   0.318  14.663 -3.1455  1.2755 -0.3787
 9117SOL    HW238814   1.233   0.273  14.557  1.6612 -0.3599  3.2877
 9118SOL     OW38815   2.284   4.441   6.344 -0.3768  0.1405 -0.5189
 9118SOL    HW138816   2.289   4.387   6.423  0.6142  0.5348 -0.3196
 9118SOL    HW238817   2.362   4.415   6.296  1.8401  1.1293  2.5294
 9119SOL     OW38818   1.099   0.578   8.089  0.1899  0.6151  0.4996
 9119SOL    HW138819   1.065   0.503   8.137  0.7586  0.4111  0.5870
 9119SOL    HW238820   1.184   0.585   8.132 -0.4911 -0.3387  1.9989
 9120SOL     OW38821   1.457   1.242   6.593  0.0198 -0.5600 -0.5623
 9120SOL    HW138822   1.472   1.180   6.522 -3.0572 -1.8523 -0.0676
 9120SOL    HW238823   1.488   1.322   6.550  1.1238 -1.3233 -1.1890
 9121SOL     OW38824   0.384   1.543   2.570  0.8109 -0.4250  0.3612
 9121SOL    HW138825   0.434   1.502   2.641  0.8255  1.6161  1.5488
 9121SOL    HW238826   0.327   1.471   2.544 -0.8679  0.9924  0.1795
 9122SOL     OW38827   3.909   0.653   9.060 -1.1770 -0.2661  0.1141
 9122SOL    HW138828   3.994   0.697   9.069 -1.4201 -0.2577  2.2398
 9122SOL    HW238829   3.893   0.635   9.152 -0.7329  0.4323  0.3291
 9123SOL     OW38830   2.520   3.570  14.840  0.6344  0.2825  0.3421
 9123SOL    HW138831   2.510   3.662  14.815  2.0916  0.8842  2.0393
 9123SOL    HW238832   2.560   3.542  14.757  1.4443  0.5374  0.6474
 9124SOL     OW38833   0.704   0.547   9.452  0.0296  0.2070 -0.7117
 9124SOL    HW138834   0.773   0.487   9.482 -0.2493 -1.0676 -2.6734
 9124SOL    HW238835   0.758   0.615   9.411  0.9404 -0.4015 -0.5298
 9125SOL     OW38836   0.802   1.766  10.009  0.3589  0.3870  0.7677
 9125SOL    HW138837   0.878   1.752  10.065 -0.1740 -1.4716  1.0317
 9125SOL    HW238838   0.827   1.849   9.968  1.5224 -1.6241 -2.5930
 9126SOL     OW38839   1.623   2.275  10.122  0.7376 -0.3114  0.1201
 9126SOL    HW138840   1.600   2.182  10.132 -0.8943  0.2320  1.2235
 9126SOL    HW238841   1.688   2.266  10.051 -0.5525 -0.4098 -1.0397
 9127SOL     OW38842   0.151   0.507   4.951  0.4040  0.2872  0.8713
 9127SOL    HW138843   0.207   0.527   4.877 -0.6970  1.4357  0.3461
 9127SOL    HW238844   0.114   0.595   4.956  0.5173  0.4499 -1.4036
 9128SOL     OW38845   0.180   3.955   4.887 -0.1339  0.4373 -0.5991
 9128SOL    HW138846   0.139   3.998   4.812 -1.6933  1.4601  0.8291
 9128SOL    HW238847   0.268   3.942   4.851 -0.0124  0.2593 -0.2349
 9129SOL     OW38848   3.733   1.022  14.808  0.7442 -0.5073 -0.8773
 9129SOL    HW138849   3.742   0.989  14.718 -3.0517 -1.0262 -1.0409
 9129SOL    HW238850   3.782   0.962  14.864  2.0522  0.7082 -0.7045
 9130SOL     OW38851   4.011   1.174  14.255 -0.2170 -0.5885  0.1222
 9130SOL    HW138852   4.054   1.251  14.216 -0.3675 -1.1195 -1.0770
 9130SOL    HW238853   3.918   1.185  14.235 -1.1807 -1.6867  3.9699
 9131SOL     OW38854   3.733   3.818   1.514 -0.9176 -0.5005 -0.2423
 9131SOL    HW138855   3.753   3.910   1.494 -2.0292 -0.3565 -0.7347
 9131SOL    HW238856   3.814   3.785   1.476 -1.5924  0.6659 -2.7092
 9132SOL     OW38857   0.469   2.081  12.310  0.1761  0.4493 -0.2315
 9132SOL    HW138858   0.531   2.140  12.354  0.8028 -0.5842  0.2682
 9132SOL    HW238859   0.483   2.116  12.222 -2.0876 -1.2461 -1.2568
 9133SOL     OW38860   1.248   3.854  12.756 -0.7527  0.1284 -0.2256
 9133SOL    HW138861   1.287   3.859  12.669 -1.5240  0.4541 -0.5560
 9133SOL    HW238862   1.239   3.761  12.775  0.9028  0.0425  0.0941
 9134SOL     OW38863   0.663   2.386  11.982  0.4614 -0.6097  0.3207
 9134SOL    HW138864   0.692   2.415  12.069  2.0575 -3.0320  0.5955
 9134SOL    HW238865   0.736   2.413  11.926  0.0398 -0.9169 -0.3731
 9135SOL     OW38866   2.523   0.490  17.623  0.7488 -0.3465 -0.4417
 9135SOL    HW138867   2.606   0.531  17.645  0.3011  0.6206 -0.5269
 9135SOL    HW238868   2.456   0.548  17.659  0.2866 -0.2034 -1.5367
 9136SOL     OW38869   2.916   1.707   7.382 -0.1257 -0.1492 -0.0479
 9136SOL    HW138870   2.903   1.731   7.474 -0.8658  1.9074 -0.6863
 9136SOL    HW238871   2.832   1.669   7.357 -1.0180  0.7953  1.4726
 9137SOL     OW38872   4.649   2.630  17.530 -0.2150  0.2256  0.4979
 9137SOL    HW138873   4.657   2.635  17.435 -0.7975 -2.2054  0.3089
 9137SOL    HW238874   0.013   2.622  17.558  0.6036  2.1104 -1.6705
 9138SOL     OW38875   3.472   3.120   8.930 -0.0882  0.6245  0.5958
 9138SOL    HW138876   3.524   3.098   9.007 -3.2457  1.2766  2.9125
 9138SOL    HW238877   3.469   3.033   8.891  3.1936  0.1716  1.3270
 9139SOL     OW38878   3.842   0.435   3.758 -0.5354  0.3239  0.1913
 9139SOL    HW138879   3.889   0.473   3.832  0.9330 -0.2166 -0.4600
 9139SOL    HW238880   3.916   0.427   3.698 -1.4945 -1.1198 -0.7982
 9140SOL     OW38881   1.355   3.695   8.492 -0.0424 -0.1013 -0.0654
 9140SOL    HW138882   1.431   3.672   8.438 -0.1400  0.8446 -0.6083
 9140SOL    HW238883   1.392   3.759   8.553 -0.5242 -0.2446  0.3665
 9141SOL     OW38884   1.021   2.679   3.598  0.1895 -0.0981  0.0311
 9141SOL    HW138885   0.979   2.762   3.574 -1.0305 -1.0627 -1.1213
 9141SOL    HW238886   0.966   2.648   3.670 -0.7431 -0.5286 -0.8789
 9142SOL     OW38887   4.469   2.604   6.922 -0.1422  0.0523 -0.0852
 9142SOL    HW138888   4.560   2.602   6.952 -0.3016 -0.2726  0.3821
 9142SOL    HW238889   4.425   2.556   6.992  2.2771  1.1412  2.1942
 9143SOL     OW38890   1.963   4.344   8.804  0.5878  0.1829  0.3526
 9143SOL    HW138891   1.965   4.438   8.822  0.4304 -0.3289  2.9976
 9143SOL    HW238892   2.034   4.304   8.854  0.4531 -2.2499 -1.3853
 9144SOL     OW38893   3.178   0.335   1.378  0.6560 -0.1789  0.9214
 9144SOL    HW138894   3.147   0.286   1.455  1.2691  1.2155  2.0580
 9144SOL    HW238895   3.151   0.418   1.416 -0.3194  1.1842 -2.7724
 9145SOL     OW38896   0.857   2.561   5.887 -0.0677 -0.1294  0.2295
 9145SOL    HW138897   0.907   2.624   5.939  1.2433 -1.4709  0.5690
 9145SOL    HW238898   0.852   2.613   5.807 -1.2487 -1.8062 -0.7751
 9146SOL     OW38899   0.915   0.779   4.874  0.3352  0.3446  0.3732
 9146SOL    HW138900   0.842   0.841   4.868  0.1361 -0.1895 -2.4327
 9146SOL    HW238901   0.885   0.707   4.930  0.8798 -0.2188 -0.0602
 9147SOL     OW38902   2.856   0.873  12.577 -0.2677  0.3266 -0.0930
 9147SOL    HW138903   2.902   0.908  12.502 -1.7237 -0.5054 -1.3699
 9147SOL    HW238904   2.875   0.779  12.573  0.7913  0.5821 -0.8789
 9148SOL     OW38905   2.467   2.482   5.496 -0.4963  0.9091 -0.2187
 9148SOL    HW138906   2.431   2.569   5.478 -1.5833  0.2952 -1.0564
 9148SOL    HW238907   2.489   2.460   5.405 -0.7193  3.0760 -0.8035
 9149SOL     OW38908   1.074   3.167   7.139  0.6982 -0.8056 -0.1938
 9149SOL    HW138909   1.068   3.121   7.222 -2.0586 -2.3327 -1.2492
 9149SOL    HW238910   1.007   3.234   7.152 -0.9424 -2.9783  2.4625
 9150SOL     OW38911   2.157   2.851  11.642 -0.2103 -0.1089  0.1004
 9150SOL    HW138912   2.124   2.890  11.723 -0.6629  3.4221 -1.7780
 9150SOL    HW238913   2.249   2.836  11.665  0.1879 -0.4878 -1.7521
 9151SOL     OW38914   1.751   4.176   4.082 -0.3357  0.0262 -0.6348
 9151SOL    HW138915   1.763   4.177   3.987 -2.1921  0.3666 -0.8680
 9151SOL    HW238916   1.674   4.229   4.103  0.2375  0.4236  0.4560
 9152SOL     OW38917   0.893   2.030  10.731  0.0710 -0.0727 -0.4702
 9152SOL    HW138918   0.922   2.088  10.661  1.5236  0.1967  0.3436
 9152SOL    HW238919   0.884   1.945  10.689  2.9161  0.5115 -2.2585
 9153SOL     OW38920   3.496   0.753   7.076 -0.1599 -0.0309  0.1056
 9153SOL    HW138921   3.508   0.844   7.046 -1.6940 -0.3093 -1.3444
 9153SOL    HW238922   3.447   0.767   7.157  2.2037 -2.4537  1.9565
 9154SOL     OW38923   1.592   0.485  15.545 -0.8369  0.7177 -0.6488
 9154SOL    HW138924   1.585   0.419  15.476 -2.6531  0.1414  0.0793
 9154SOL    HW238925   1.575   0.437  15.626 -0.5825 -0.7842 -1.4899
 9155SOL     OW38926   1.189   1.556   0.965  0.4495 -0.2949  0.7433
 9155SOL    HW138927   1.151   1.606   0.893  1.2950 -1.9926 -0.8727
 9155SOL    HW238928   1.148   1.594   1.042  0.4840  1.6087 -0.1758
 9156SOL     OW38929   0.094   3.827   3.727  0.2120 -0.8682 -0.2137
 9156SOL    HW138930   0.051   3.909   3.705 -0.2552 -0.6385  1.5939
 9156SOL    HW238931   0.075   3.772   3.651  0.1959  3.7950 -3.5395
 9157SOL     OW38932   1.491   3.380   8.617 -0.2713  0.5526  0.3671
 9157SOL    HW138933   1.475   3.442   8.546 -0.9518 -1.4896 -1.2634
 9157SOL    HW238934   1.417   3.320   8.609  0.1621  0.8525 -5.6888
 9158SOL     OW38935   2.875   2.877   2.787 -0.2730  0.1047  0.6829
 9158SOL    HW138936   2.875   2.958   2.736  2.9328  0.6281  1.5224
 9158SOL    HW238937   2.865   2.903   2.879 -2.8402 -0.5195  0.5634
 9159SOL     OW38938   3.914   3.459   1.609  0.0345  0.0013 -0.6417
 9159SOL    HW138939   3.939   3.528   1.671 -3.7373  1.5299 -0.8562
 9159SOL    HW238940   3.996   3.409   1.600 -0.0861 -0.1232 -1.0366
 9160SOL     OW38941   1.289   0.082   5.798  0.6659  0.2319  0.1281
 9160SOL    HW138942   1.275   4.722   5.760  1.6479  0.3674 -0.5355
 9160SOL    HW238943   1.222   0.132   5.752 -0.4468 -1.6392 -0.2993
 9161SOL     OW38944   4.484   0.427   8.041 -0.2198  0.0134 -0.4036
 9161SOL    HW138945   4.484   0.434   7.945  3.0901 -1.2845 -0.4958
 9161SOL    HW238946   4.552   0.360   8.046  1.3409  1.6810  0.7357
 9162SOL     OW38947   2.232   4.091   5.886 -0.6003 -0.3849  0.2107
 9162SOL    HW138948   2.233   4.180   5.920  2.8871 -1.1915  2.1925
 9162SOL    HW238949   2.304   4.055   5.937 -1.0130 -0.8351  0.4761
 9163SOL     OW38950   0.843   2.908   1.093 -0.9109  0.0385 -0.5569
 9163SOL    HW138951   0.839   2.819   1.058  0.8889  0.4745 -1.8453
 9163SOL    HW238952   0.919   2.900   1.150 -1.8425  1.7403  0.9348
 9164SOL     OW38953   0.704   4.490   4.690  0.6824  0.3691  0.2888
 9164SOL    HW138954   0.698   4.539   4.772 -2.3395  1.2496 -0.4532
 9164SOL    HW238955   0.615   4.491   4.654  1.1869 -1.7104 -0.9834
 9165SOL     OW38956   0.245   0.784   5.593  0.7628 -0.2971  0.4249
 9165SOL    HW138957   0.226   0.814   5.682 -1.2927  2.4115 -0.9370
 9165SOL    HW238958   0.192   0.704   5.590  0.0907  0.2047 -1.2664
 9166SOL     OW38959   3.177   0.238   1.879 -0.0270 -0.4535  0.2813
 9166SOL    HW138960   3.232   0.244   1.801 -1.7330 -3.1701 -1.1261
 9166SOL    HW238961   3.092   0.226   1.836  0.7760  1.2865 -1.7691
 9167SOL     OW38962   0.449   0.550   9.398  0.0239  0.1478  0.2908
 9167SOL    HW138963   0.430   0.456   9.396 -0.0096  0.1286  1.7549
 9167SOL    HW238964   0.542   0.531   9.411 -0.2628 -1.1741  0.4906
 9168SOL     OW38965   1.563   2.377   2.219 -0.5515 -0.5210  0.4858
 9168SOL    HW138966   1.544   2.326   2.140  0.5496  0.2798 -0.2933
 9168SOL    HW238967   1.653   2.402   2.198 -0.4548 -1.4184 -0.1959
 9169SOL     OW38968   1.752   0.426   4.609  0.1214  0.0399 -0.5538
 9169SOL    HW138969   1.781   0.408   4.519  1.1309  0.3917 -0.3055
 9169SOL    HW238970   1.812   0.500   4.618  1.2493 -0.7579 -1.4444
 9170SOL     OW38971   1.322   3.767   0.969 -0.0616 -0.0833  0.3687
 9170SOL    HW138972   1.255   3.797   0.908  2.7403 -0.3823 -2.8632
 9170SOL    HW238973   1.280   3.689   1.007 -1.5039 -0.4195 -1.8990
 9171SOL     OW38974   3.856   0.949  11.869 -0.3201 -0.2576 -0.1955
 9171SOL    HW138975   3.811   0.865  11.878 -2.1669  0.6011 -1.2945
 9171SOL    HW238976   3.943   0.914  11.889 -1.2706 -0.7579  2.9682
 9172SOL     OW38977   3.696   3.177   3.714  0.0820 -0.0427 -0.5518
 9172SOL    HW138978   3.635   3.195   3.642  1.0967 -0.7346 -1.5967
 9172SOL    HW238979   3.730   3.263   3.739  0.1206  0.1859 -1.3893
 9173SOL     OW38980   2.030   1.847   3.214 -0.1129  0.5271  0.1554
 9173SOL    HW138981   2.104   1.827   3.157 -1.1240 -0.7640 -0.7190
 9173SOL    HW238982   2.044   1.768   3.267 -1.0735 -0.5034 -1.1372
 9174SOL     OW38983   3.763   4.485   6.187 -0.1014 -0.3049 -0.4777
 9174SOL    HW138984   3.724   4.536   6.259  1.3422  0.3195 -0.1327
 9174SOL    HW238985   3.855   4.478   6.213 -0.1481 -1.1756 -0.5279
 9175SOL     OW38986   4.514   0.398   1.223 -0.3424  0.0997  0.0661
 9175SOL    HW138987   4.477   0.475   1.181  0.9772  2.1434  2.6181
 9175SOL    HW238988   4.451   0.389   1.294  0.4989  0.0611  0.8046
 9176SOL     OW38989   1.531   1.116   4.696 -0.3966  0.8664 -0.3248
 9176SOL    HW138990   1.544   1.210   4.687  2.3139  0.2311 -2.8084
 9176SOL    HW238991   1.435   1.113   4.704 -0.1992  0.8932  1.9095
 9177SOL     OW38992   1.320   3.557  11.670  0.6235  0.1537 -0.3838
 9177SOL    HW138993   1.343   3.464  11.670  0.9215  0.2301 -0.7753
 9177SOL    HW238994   1.386   3.586  11.733 -1.9998 -0.6315  2.7468
 9178SOL     OW38995   2.052   2.194   7.836  0.0389  0.4449  0.3533
 9178SOL    HW138996   1.957   2.194   7.824  0.4066  0.8088 -2.5455
 9178SOL    HW238997   2.059   2.191   7.932 -1.3355 -1.2647  0.4060
 9179SOL     OW38998   1.594   1.136   9.604 -0.1476  0.0918 -0.0354
 9179SOL    HW138999   1.623   1.216   9.648 -0.4595 -1.3522  2.7966
 9179SOL    HW239000   1.667   1.079   9.629 -0.6526 -0.7598 -0.5174
 9180SOL     OW39001   3.001   0.966  17.647  0.0302  0.0065  0.6628
 9180SOL    HW139002   2.914   0.946  17.612 -0.5801 -0.3690  2.3998
 9180SOL    HW239003   3.051   0.979  17.566 -2.3860  0.5214 -0.7426
 9181SOL     OW39004   1.269   2.226   9.402 -0.3966  0.1088 -0.1659
 9181SOL    HW139005   1.246   2.212   9.310  0.5065 -4.0985  0.2460
 9181SOL    HW239006   1.350   2.276   9.392 -0.3551  0.1035  0.1505
 9182SOL     OW39007   0.066   1.944   3.300  0.1662 -0.0307  0.3976
 9182SOL    HW139008   0.028   1.875   3.354 -0.6683 -1.9035 -2.6084
 9182SOL    HW239009   0.050   1.923   3.208  0.7327  0.3769  0.2037
 9183SOL     OW39010   2.270   4.183   4.705  0.5096 -0.3754  0.5089
 9183SOL    HW139011   2.192   4.171   4.651 -0.2280  0.4553  1.3799
 9183SOL    HW239012   2.274   4.101   4.753  3.1809  0.0426  0.9730
 9184SOL     OW39013   3.129   2.335   0.538 -0.0372 -0.3033  0.6344
 9184SOL    HW139014   3.104   2.248   0.509  0.4742 -0.7508  1.5388
 9184SOL    HW239015   3.136   2.330   0.633 -0.5664 -0.1335  0.6807
 9185SOL     OW39016   4.525   0.557   5.969 -0.2965 -0.4777 -0.0085
 9185SOL    HW139017   4.545   0.642   5.929 -0.3214 -0.0815  0.8138
 9185SOL    HW239018   4.612   0.519   5.977  0.3681  0.6764 -1.7436
 9186SOL     OW39019   0.963   2.492   6.829 -0.6693 -0.6155  0.1777
 9186SOL    HW139020   0.947   2.410   6.781  2.3279  0.6554 -2.9875
 9186SOL    HW239021   0.876   2.529   6.813  0.1157  1.0951 -0.0778
 9187SOL     OW39022   0.915   4.055   9.516 -0.2516  0.2300  0.1078
 9187SOL    HW139023   0.821   4.070   9.525  0.2241  2.7673  0.8793
 9187SOL    HW239024   0.960   4.126   9.563 -0.1962  0.3287 -0.0970
 9188SOL     OW39025   3.112   0.938  17.361 -0.1045 -0.0084  0.2397
 9188SOL    HW139026   3.129   0.895  17.277 -0.6729  2.1549 -0.9717
 9188SOL    HW239027   3.186   0.999  17.365 -0.9271  1.0116 -0.1462
 9189SOL     OW39028   0.984   0.482   7.494  0.3515 -0.3878 -0.4158
 9189SOL    HW139029   1.028   0.526   7.566 -0.9165 -0.2801  0.2976
 9189SOL    HW239030   1.005   0.537   7.419  2.8462 -0.7229  0.0431
 9190SOL     OW39031   1.314   1.550   4.939  0.4266  0.2946 -0.3189
 9190SOL    HW139032   1.254   1.517   4.872  0.6434 -0.1843 -0.2758
 9190SOL    HW239033   1.248   1.610   4.973 -1.5541 -1.5175 -0.8927
 9191SOL     OW39034   3.862   0.663   1.861 -0.1856  0.7521  0.4671
 9191SOL    HW139035   3.864   0.567   1.855 -2.7200  0.8428 -1.5786
 9191SOL    HW239036   3.771   0.674   1.836  0.2591  0.8928 -1.0616
 9192SOL     OW39037   1.509   4.677   5.573  0.2286  0.2477 -0.0310
 9192SOL    HW139038   1.557   4.595   5.585 -0.4522 -0.2947 -0.9898
 9192SOL    HW239039   1.545   0.003   5.644 -0.3847 -1.5732  1.6708
 9193SOL     OW39040   2.842   0.589  15.617 -0.6046  0.2852  0.5179
 9193SOL    HW139041   2.781   0.586  15.690 -0.4361  2.1866  0.7269
 9193SOL    HW239042   2.882   0.505  15.640  2.1982  1.4346 -0.1407
 9194SOL     OW39043   1.041   3.874   4.674 -0.5438 -0.3545 -0.0972
 9194SOL    HW139044   0.972   3.900   4.734  1.1393  3.0769  0.3266
 9194SOL    HW239045   0.990   3.841   4.599 -0.8944  1.4946 -0.6704
 9195SOL     OW39046   3.326   1.991   0.314 -0.7712  0.1155 -0.4918
 9195SOL    HW139047   3.352   2.044   0.237 -0.3192  0.1411 -0.3212
 9195SOL    HW239048   3.406   1.958   0.354 -0.7576  0.1359 -0.5017
 9196SOL     OW39049   2.476   4.028   6.018  0.4800 -0.3406  0.3207
 9196SOL    HW139050   2.545   4.060   6.076  2.4380 -3.3901 -0.3290
 9196SOL    HW239051   2.535   3.997   5.950 -0.0216 -0.4022 -0.0930
 9197SOL     OW39052   0.345   0.415  13.532  0.0869 -0.4354  0.2414
 9197SOL    HW139053   0.322   0.327  13.505 -0.9084 -0.4364  1.1267
 9197SOL    HW239054   0.376   0.448  13.447  0.4340 -0.5954  0.3060
 9198SOL     OW39055   1.522   2.088   6.303 -0.0305 -0.0001 -0.3817
 9198SOL    HW139056   1.455   2.151   6.329  1.3969  1.2339  0.3268
 9198SOL    HW239057   1.485   2.008   6.340 -1.3471 -0.1762 -2.1080
 9199SOL     OW39058   1.473   0.188   8.468 -0.3033  0.3205 -0.4831
 9199SOL    HW139059   1.423   0.108   8.453 -0.1393 -0.1255  1.4179
 9199SOL    HW239060   1.549   0.150   8.513 -1.6347 -1.2419  0.4191
 9200SOL     OW39061   0.064   3.323  11.470 -0.3314 -0.2474  0.3547
 9200SOL    HW139062   4.698   3.337  11.455  0.0925  0.4342 -1.5929
 9200SOL    HW239063   0.084   3.371  11.551  2.2845  0.3637 -0.6735
 9201SOL     OW39064   4.044   2.268   9.576  0.8795  0.3281  0.2793
 9201SOL    HW139065   3.950   2.260   9.593  0.6558  1.5921 -0.3743
 9201SOL    HW239066   4.045   2.345   9.519 -0.1757  1.4740  1.7878
 9202SOL     OW39067   0.921   4.476   6.796  0.0770 -0.1231  0.3239
 9202SOL    HW139068   0.898   4.555   6.846 -4.1763  0.0764 -2.0198
 9202SOL    HW239069   1.017   4.481   6.799  0.1056  0.5496 -2.3225
 9203SOL     OW39070   2.972   0.748   1.704 -0.8354 -0.0392 -0.2514
 9203SOL    HW139071   2.898   0.760   1.763  0.1269  0.3479  0.8791
 9203SOL    HW239072   3.006   0.837   1.715  2.0919 -1.4479  2.2037
 9204SOL     OW39073   1.736   2.697   0.685  0.1574 -0.2124 -0.2820
 9204SOL    HW139074   1.769   2.787   0.674  1.3856 -0.6104  0.1785
 9204SOL    HW239075   1.731   2.669   0.594 -2.5367 -3.6367  0.9182
 9205SOL     OW39076   0.984   3.622   8.750 -0.2477 -0.0473  0.1392
 9205SOL    HW139077   1.033   3.585   8.823 -0.8143  1.0177  1.0650
 9205SOL    HW239078   1.024   3.576   8.676 -0.6587  0.2859 -0.2916
 9206SOL     OW39079   1.205   2.262   2.152  0.3033 -0.2048 -0.0722
 9206SOL    HW139080   1.217   2.243   2.245  0.6889 -2.0243 -0.4881
 9206SOL    HW239081   1.133   2.325   2.158 -0.3957 -0.8609 -1.3981
 9207SOL     OW39082   4.667   2.491  16.075 -0.3369  0.5467 -0.1318
 9207SOL    HW139083   4.710   2.576  16.071 -0.0964  0.5265  1.7182
 9207SOL    HW239084   4.576   2.515  16.057 -0.1600  2.2638  1.2731
 9208SOL     OW39085   1.356   3.469   6.826  0.0702 -0.2893 -0.4717
 9208SOL    HW139086   1.272   3.429   6.850  0.0518 -1.2682 -2.1800
 9208SOL    HW239087   1.407   3.393   6.799 -0.2195 -0.6139 -0.1135
 9209SOL     OW39088   4.293   0.428   4.842 -0.2259  0.0902  1.0766
 9209SOL    HW139089   4.303   0.500   4.780 -0.6549  0.3850  1.3427
 9209SOL    HW239090   4.285   0.479   4.923 -1.0820  0.0261  1.0310
 9210SOL     OW39091   0.683   1.370   7.046 -0.1913  0.0510 -0.0812
 9210SOL    HW139092   0.778   1.382   7.035 -0.1085  1.9499  2.6613
 9210SOL    HW239093   0.677   1.309   7.119  1.2410  1.5848  1.3465
 9211SOL     OW39094   0.768   4.375   3.863  0.3578 -0.0189 -0.0052
 9211SOL    HW139095   0.683   4.340   3.836  0.2585  0.1712  0.0550
 9211SOL    HW239096   0.802   4.409   3.780 -0.9274  3.8879  1.0660
 9212SOL     OW39097   4.599   0.722   6.662  0.2309 -0.7489  0.3447
 9212SOL    HW139098   4.658   0.694   6.592 -0.0687 -2.8574  0.9581
 9212SOL    HW239099   4.530   0.762   6.609  0.1431  1.0157  1.7871
 9213SOL     OW39100   1.606   0.710  10.652  0.7174  0.8381 -0.1039
 9213SOL    HW139101   1.596   0.616  10.634  1.8185  0.1697  2.7179
 9213SOL    HW239102   1.594   0.703  10.747 -2.0086 -1.8543 -0.6104
 9214SOL     OW39103   1.351   2.563   1.663  0.6298 -0.5130  0.4431
 9214SOL    HW139104   1.341   2.531   1.574 -0.6133 -2.1658  1.1916
 9214SOL    HW239105   1.278   2.623   1.679  0.3034 -1.1708  1.4299
 9215SOL     OW39106   2.842   2.558   1.282  0.1997  0.5014 -0.0191
 9215SOL    HW139107   2.876   2.625   1.341  2.8388 -0.7296 -0.1298
 9215SOL    HW239108   2.856   2.480   1.334 -3.5641  1.7657  2.8816
 9216SOL     OW39109   1.049   3.970   7.602  0.1604  0.7709 -0.3677
 9216SOL    HW139110   1.053   4.044   7.663 -0.6825  0.0410  0.5626
 9216SOL    HW239111   1.096   3.895   7.637  0.1124  1.1992  0.6291
 9217SOL     OW39112   4.178   4.481  16.059  0.3556  0.3627  0.1928
 9217SOL    HW139113   4.096   4.439  16.034 -0.7895  0.5966  3.6243
 9217SOL    HW239114   4.189   4.560  16.005 -0.8404 -0.1595 -0.8142
 9218SOL     OW39115   1.292   0.949   3.808 -0.4916 -0.8405 -0.0768
 9218SOL    HW139116   1.266   0.904   3.728 -0.5675 -1.2143  0.1566
 9218SOL    HW239117   1.218   1.009   3.812 -0.1232 -0.2680 -1.7600
 9219SOL     OW39118   4.232   0.538  13.296  0.3275  0.2998 -0.1054
 9219SOL    HW139119   4.306   0.548  13.236 -0.1041 -0.6442 -0.7859
 9219SOL    HW239120   4.241   0.611  13.357 -0.7472  1.1385 -0.9507
 9220SOL     OW39121   3.905   3.332   3.362 -0.2774  0.0566 -0.3726
 9220SOL    HW139122   3.848   3.409   3.359 -0.0438  0.1960 -1.3378
 9220SOL    HW239123   3.845   3.271   3.319  0.7664  0.5437 -2.5340
 9221SOL     OW39124   4.103   3.680   6.749 -0.4484 -0.3895  0.3346
 9221SOL    HW139125   4.014   3.663   6.779 -1.3774  0.1949 -2.0836
 9221SOL    HW239126   4.100   3.772   6.724 -1.0104 -0.7283 -0.8059
 9222SOL     OW39127   3.234   4.670   8.624  0.2608  0.0001  0.2180
 9222SOL    HW139128   3.325   4.640   8.623  0.0770 -0.5921  1.6478
 9222SOL    HW239129   3.239   4.698   8.715  2.3852  0.9320 -0.1788
 9223SOL     OW39130   1.109   3.112   0.716  0.1380 -1.0189  0.1174
 9223SOL    HW139131   1.037   3.140   0.773  2.0899  2.7405  0.7159
 9223SOL    HW239132   1.092   3.161   0.636  0.0313  0.0810  0.8126
 9224SOL     OW39133   1.378   4.442   8.748 -0.2843  0.5785  0.0658
 9224SOL    HW139134   1.368   4.470   8.839  0.2748  0.9619  0.0155
 9224SOL    HW239135   1.407   4.353   8.765 -0.3872  1.0151  2.5084
 9225SOL     OW39136   0.414   1.826   8.754 -0.5185  0.4334  0.4516
 9225SOL    HW139137   0.402   1.793   8.665 -2.8879  1.8614  0.2301
 9225SOL    HW239138   0.323   1.845   8.780 -0.7848 -0.2147 -0.0042
 9226SOL     OW39139   2.939   2.378   1.900  0.2303 -0.4057  0.3832
 9226SOL    HW139140   2.847   2.349   1.899  0.3478 -0.7201 -0.9928
 9226SOL    HW239141   2.974   2.319   1.834 -0.1109  0.1100 -0.2609
 9227SOL     OW39142   4.075   1.905  13.545  0.1327  0.3197  0.2846
 9227SOL    HW139143   4.007   1.867  13.601  1.4608 -1.0284  0.9978
 9227SOL    HW239144   4.026   1.936  13.469  0.2080  1.3270  0.6612
 9228SOL     OW39145   0.396   2.781   3.689 -0.4439  0.0845 -0.1741
 9228SOL    HW139146   0.326   2.718   3.703 -0.7882  0.2232 -1.2665
 9228SOL    HW239147   0.462   2.726   3.731  0.4090  0.8260 -0.5240
 9229SOL     OW39148   0.000   2.226   4.078 -0.0209  0.6419 -0.1646
 9229SOL    HW139149   4.713   2.166   4.151  0.3168  2.7033  1.6128
 9229SOL    HW239150   0.028   2.294   4.140  1.4392 -1.2038  1.1918
 9230SOL     OW39151   4.570   4.665  17.092 -0.3895 -0.2707  0.5286
 9230SOL    HW139152   4.645   4.649  17.149 -0.8978  2.6768  2.0390
 9230SOL    HW239153   4.620   4.679  17.011 -0.4392 -0.3929  0.4765
 9231SOL     OW39154   0.681   0.796   5.145 -0.1868 -0.1560 -0.0603
 9231SOL    HW139155   0.705   0.857   5.076 -1.7175  0.1005 -0.3782
 9231SOL    HW239156   0.704   0.846   5.223 -2.7372 -2.0162  1.9017
 9232SOL     OW39157   3.953   1.286   5.524 -0.8385  0.2235  0.6680
 9232SOL    HW139158   3.859   1.271   5.511 -0.7020  0.0544 -0.1656
 9232SOL    HW239159   3.976   1.260   5.613 -2.8685 -0.4990  0.9814
 9233SOL     OW39160   2.874   2.755  15.432 -0.6404 -0.3197  0.0750
 9233SOL    HW139161   2.796   2.760  15.377  0.8859 -0.8016 -2.1236
 9233SOL    HW239162   2.938   2.800  15.377 -3.1688  1.1014 -1.6965
 9234SOL     OW39163   2.628   2.967   2.651  0.0308  0.1745 -0.2693
 9234SOL    HW139164   2.706   2.952   2.598 -0.7969 -1.6278 -0.9885
 9234SOL    HW239165   2.555   2.964   2.588  1.3906  2.8198 -1.9965
 9235SOL     OW39166   1.503   2.957   7.412  0.1943  0.2972  0.5089
 9235SOL    HW139167   1.513   3.034   7.356  0.3947 -0.0687  0.0456
 9235SOL    HW239168   1.506   2.884   7.350  1.5954 -0.8659  1.9569
 9236SOL     OW39169   2.597   0.704   9.460  0.0001 -0.9221  0.5240
 9236SOL    HW139170   2.646   0.641   9.407  0.8254  0.2752 -0.1253
 9236SOL    HW239171   2.511   0.703   9.419 -0.4505 -0.3382  1.4555
 9237SOL     OW39172   0.643   4.505   8.644  0.3132  0.2193  0.4332
 9237SOL    HW139173   0.716   4.444   8.652  0.5690  0.1474 -2.8471
 9237SOL    HW239174   0.666   4.547   8.727 -0.3376  0.6865  0.3800
 9238SOL     OW39175   2.926   0.726  10.079 -0.4823  0.4611 -0.4051
 9238SOL    HW139176   2.936   0.665  10.152  0.9302  1.1012 -0.0644
 9238SOL    HW239177   2.853   0.782  10.105 -2.2916 -2.3979  0.5727
 9239SOL     OW39178   0.641   3.524  10.016 -0.1085 -0.2411  0.4364
 9239SOL    HW139179   0.715   3.566  10.060 -0.5496  0.5891  0.3776
 9239SOL    HW239180   0.586   3.597   9.990 -1.3600 -0.6003  2.1024
 9240SOL     OW39181   1.541   2.275   3.117 -0.4169 -0.6838  0.3598
 9240SOL    HW139182   1.451   2.296   3.094 -0.2050  1.2515  1.3163
 9240SOL    HW239183   1.573   2.226   3.041 -0.1764  1.6348 -1.0132
 9241SOL     OW39184   4.198   0.652   4.535  0.6839  0.1823 -0.1114
 9241SOL    HW139185   4.186   0.670   4.442  1.4660  1.5031  0.0463
 9241SOL    HW239186   4.107   0.642   4.562  1.3056  0.7082  2.1853
 9242SOL     OW39187   1.851   2.917   4.862 -0.2828 -0.3832 -0.5855
 9242SOL    HW139188   1.884   2.980   4.925 -0.8563  0.8166 -1.4798
 9242SOL    HW239189   1.856   2.839   4.917 -2.7092 -1.5719 -1.9871
 9243SOL     OW39190   2.353   2.791  15.482  0.4171  0.5524  0.2782
 9243SOL    HW139191   2.337   2.881  15.453  1.5459  0.4073 -0.8251
 9243SOL    HW239192   2.444   2.799  15.513  0.1791  1.0683  0.8484
 9244SOL     OW39193   2.300   1.960  17.434  0.2864  0.4314 -0.1012
 9244SOL    HW139194   2.237   1.888  17.428 -1.1216  1.8551 -2.2830
 9244SOL    HW239195   2.326   1.967  17.526 -1.2389  0.1087  0.3471
 9245SOL     OW39196   0.734   0.547  10.840 -0.3294 -0.2670 -0.3660
 9245SOL    HW139197   0.790   0.619  10.810 -0.3040 -0.3326 -0.4769
 9245SOL    HW239198   0.649   0.588  10.857 -0.0849 -0.0914  0.4046
 9246SOL     OW39199   0.689   1.007   4.579 -0.4285 -0.4349 -0.1067
 9246SOL    HW139200   0.595   0.990   4.581 -0.1343 -2.0060  0.5773
 9246SOL    HW239201   0.714   0.963   4.497 -1.3073 -1.0389 -0.0524
 9247SOL     OW39202   4.128   1.271   4.091 -0.4371 -0.1328  0.4150
 9247SOL    HW139203   4.067   1.286   4.019 -0.5506  1.1429  0.7738
 9247SOL    HW239204   4.143   1.363   4.114 -0.3578  0.0806 -0.4798
 9248SOL     OW39205   1.837   2.392   6.261 -0.2574  0.1126  0.4293
 9248SOL    HW139206   1.807   2.321   6.205 -0.0203  0.1336  0.2792
 9248SOL    HW239207   1.784   2.469   6.240 -0.8401 -0.5585 -0.5425
 9249SOL     OW39208   4.449   0.544  11.763 -0.0537  0.3306 -0.1183
 9249SOL    HW139209   4.422   0.487  11.835  2.4362  1.1520  1.4896
 9249SOL    HW239210   4.509   0.497  11.706 -0.4051 -0.0035 -0.2129
 9250SOL     OW39211   3.500   1.015   3.691  0.4331 -0.3132  0.2176
 9250SOL    HW139212   3.559   1.090   3.701  1.0362 -0.5652 -1.4455
 9250SOL    HW239213   3.438   1.025   3.763 -2.5124  0.2267 -2.4111
 9251SOL     OW39214   1.072   0.007   4.221 -0.5346  0.1053  0.0376
 9251SOL    HW139215   1.134   4.664   4.243  0.2915  1.3385  1.6011
 9251SOL    HW239216   1.095   0.081   4.277  2.0726  0.6912 -1.8031
 9252SOL     OW39217   2.794   2.290  12.545 -0.3593  0.5002  0.0223
 9252SOL    HW139218   2.886   2.262  12.549 -0.2446  0.6344 -1.6424
 9252SOL    HW239219   2.808   2.385  12.552 -0.9572  0.6887 -1.3891
 9253SOL     OW39220   2.132   0.094   6.700 -0.0976 -0.3260  0.4512
 9253SOL    HW139221   2.135   0.181   6.739  0.7728  1.1855 -2.9636
 9253SOL    HW239222   2.206   0.057   6.748  0.8417 -0.3907 -1.0249
 9254SOL     OW39223   2.131   2.055   4.420 -0.0452  0.0856  0.2485
 9254SOL    HW139224   2.068   1.986   4.402  1.4108 -1.5693  1.4896
 9254SOL    HW239225   2.104   2.129   4.365  2.1985  0.0991 -0.8678
 9255SOL     OW39226   0.791   2.691   6.495  0.2850  0.3971  0.4444
 9255SOL    HW139227   0.873   2.690   6.446 -1.7693  0.4812 -3.0384
 9255SOL    HW239228   0.741   2.761   6.452  0.9654  1.1470  0.8738
 9256SOL     OW39229   4.590   4.302   3.767  0.4482  0.7235 -0.2128
 9256SOL    HW139230   4.510   4.321   3.716  1.1702 -2.2558 -2.4116
 9256SOL    HW239231   4.624   4.383   3.805  3.9724 -1.4493  1.2466
 9257SOL     OW39232   0.910   1.425   9.999  0.3525  0.4195  0.2247
 9257SOL    HW139233   0.816   1.428  10.018  0.1945  1.2908 -0.7177
 9257SOL    HW239234   0.919   1.333  10.025 -0.0610 -0.5206 -2.9555
 9258SOL     OW39235   0.364   2.588  12.137 -0.2266 -0.7077  0.2061
 9258SOL    HW139236   0.367   2.527  12.064  1.1654 -1.5234  0.9414
 9258SOL    HW239237   0.448   2.630  12.118 -0.4088 -0.4593 -0.0470
 9259SOL     OW39238   3.780   3.370   5.076 -0.4214 -0.3146 -0.2840
 9259SOL    HW139239   3.728   3.449   5.058  0.2455  0.8943  2.9171
 9259SOL    HW239240   3.743   3.302   5.020  1.9570 -1.6645 -0.1881
 9260SOL     OW39241   0.023   3.760   0.254 -0.0987  0.2266 -0.5575
 9260SOL    HW139242   0.115   3.767   0.279 -0.5857 -0.3105  1.3524
 9260SOL    HW239243   4.726   3.848   0.225  0.6597  0.8294  0.6627
 9261SOL     OW39244   2.686   1.185  13.081  0.1901  0.3819 -0.0672
 9261SOL    HW139245   2.742   1.115  13.049  1.0091 -0.2577  2.7843
 9261SOL    HW239246   2.608   1.143  13.045  1.1419 -2.7809  1.4960
 9262SOL     OW39247   1.691   1.759  16.337 -0.2665  0.0417  0.6461
 9262SOL    HW139248   1.712   1.676  16.381  0.2090 -0.6467 -0.8969
 9262SOL    HW239249   1.602   1.773  16.368 -0.9726 -3.2192 -0.0070
 9263SOL     OW39250   1.461   1.096  10.335  0.0310  0.4030 -0.6521
 9263SOL    HW139251   1.450   1.128  10.425  1.1376  0.4360 -0.5313
 9263SOL    HW239252   1.434   1.005  10.347 -1.2078  1.0052  1.2226
 9264SOL     OW39253   2.950   2.608   3.928 -0.2921 -0.3894 -0.2406
 9264SOL    HW139254   2.946   2.579   3.837  0.0790 -0.3675 -0.2633
 9264SOL    HW239255   2.994   2.693   3.917 -0.4935 -0.1240  1.0084
 9265SOL     OW39256   2.817   1.817   3.802  0.9871 -0.3774 -0.3069
 9265SOL    HW139257   2.864   1.850   3.725  1.5148 -1.9429 -0.6451
 9265SOL    HW239258   2.737   1.789   3.758  0.3035 -0.7699  1.2010
 9266SOL     OW39259   0.487   3.619   7.343 -0.0239  0.0303  0.3868
 9266SOL    HW139260   0.519   3.671   7.269  1.0612  0.8440  1.4113
 9266SOL    HW239261   0.419   3.677   7.378 -1.6598 -2.9471  2.1264
 9267SOL     OW39262   2.795   1.281   5.730 -0.1700  0.2183 -0.2018
 9267SOL    HW139263   2.759   1.198   5.762  1.6115 -0.4375  0.0618
 9267SOL    HW239264   2.886   1.264   5.706 -0.6722  0.4376 -2.2738
 9268SOL     OW39265   0.883   4.328   7.545  0.3476  0.3520  0.1336
 9268SOL    HW139266   0.883   4.377   7.464 -0.4624  1.8638  1.0444
 9268SOL    HW239267   0.798   4.285   7.529  0.6156  0.7106 -2.2026
 9269SOL     OW39268   0.083   1.095   9.433 -0.4884 -0.1904 -0.5253
 9269SOL    HW139269   0.098   1.040   9.355  1.0343 -1.0428  0.3729
 9269SOL    HW239270   0.156   1.072   9.489  0.3610 -1.9084 -2.3496
 9270SOL     OW39271   0.764   4.684   3.103 -0.1713  0.3498  0.6362
 9270SOL    HW139272   0.735   0.017   3.034  2.8076  0.7470 -0.2541
 9270SOL    HW239273   0.719   4.716   3.182 -2.0454 -1.1214  0.1725
 9271SOL     OW39274   1.488   2.504  10.304  0.6072 -0.4041 -0.2007
 9271SOL    HW139275   1.569   2.549  10.278  1.1281 -1.4500 -0.3893
 9271SOL    HW239276   1.459   2.469  10.219  0.1825  0.5417 -0.4478
 9272SOL     OW39277   0.734   3.330   2.886 -0.1335 -0.4882 -0.6437
 9272SOL    HW139278   0.798   3.275   2.932  0.1716  0.4610  0.0641
 9272SOL    HW239279   0.676   3.262   2.854  0.3499 -0.1861 -2.1588
 9273SOL     OW39280   2.703   3.411  15.432  0.1595  0.0609  0.4571
 9273SOL    HW139281   2.752   3.463  15.368 -1.1136  0.9087  0.1665
 9273SOL    HW239282   2.764   3.337  15.441 -1.8087 -1.9323 -2.4346
 9274SOL     OW39283   3.617   1.018  14.242  0.1980  0.4149 -0.4219
 9274SOL    HW139284   3.658   0.945  14.195 -0.1027  0.9713 -1.5432
 9274SOL    HW239285   3.631   1.091  14.182 -0.6699  0.6596 -0.3299
 9275SOL     OW39286   3.247   4.246  11.612 -0.0761  0.1950 -0.3503
 9275SOL    HW139287   3.252   4.273  11.520 -0.1196  1.6652  0.0676
 9275SOL    HW239288   3.302   4.316  11.648  0.1204  0.2329 -0.7283
 9276SOL     OW39289   0.524   1.413   6.644  0.1085  0.1129  0.5113
 9276SOL    HW139290   0.611   1.384   6.616 -0.2082 -0.9707  0.6588
 9276SOL    HW239291   0.525   1.391   6.737 -1.6069  0.2470  0.5626
 9277SOL     OW39292   3.256   4.002   8.163  0.0391 -0.3491 -0.0534
 9277SOL    HW139293   3.273   4.088   8.126  1.1867 -0.5472  0.0307
 9277SOL    HW239294   3.165   4.008   8.192 -0.4475  0.9187 -1.8560
 9278SOL     OW39295   3.481   2.986  13.155 -0.2269 -0.2976  0.0332
 9278SOL    HW139296   3.506   3.059  13.099 -0.6615 -0.6920 -0.6961
 9278SOL    HW239297   3.562   2.935  13.146 -0.0119  0.1330 -0.4946
 9279SOL     OW39298   3.191   4.094  12.260  0.0029 -0.4583 -0.4982
 9279SOL    HW139299   3.237   4.013  12.282  0.5098  0.4781  1.8934
 9279SOL    HW239300   3.127   4.116  12.328  0.2364  0.8418 -0.6889
 9280SOL     OW39301   1.491   0.484   4.534  0.4121 -0.5662 -0.1445
 9280SOL    HW139302   1.573   0.456   4.574  0.8003 -0.1888 -0.6789
 9280SOL    HW239303   1.492   0.571   4.573 -1.0761 -0.5440 -0.1533
 9281SOL     OW39304   3.133   0.212  15.012  0.2525  0.8417  0.0152
 9281SOL    HW139305   3.196   0.280  14.987  0.6364 -0.2915 -2.0905
 9281SOL    HW239306   3.103   0.255  15.092  0.2024  1.6141 -0.4140
 9282SOL     OW39307   0.549   1.698   4.910  0.1801 -0.1253  0.0344
 9282SOL    HW139308   0.537   1.700   4.815 -1.2794 -0.7050  0.2012
 9282SOL    HW239309   0.515   1.786   4.927 -0.2911 -0.1142 -0.9750
 9283SOL     OW39310   2.102   0.540   6.607 -0.0341  0.0017 -0.2020
 9283SOL    HW139311   2.022   0.496   6.635  0.1778  1.0199  1.9548
 9283SOL    HW239312   2.145   0.562   6.689  0.6413  1.8483 -1.0318
 9284SOL     OW39313   1.980   0.451   9.148 -0.2643  0.0054  0.0952
 9284SOL    HW139314   1.948   0.370   9.109 -0.4915 -0.0965  0.4858
 9284SOL    HW239315   2.006   0.418   9.234  0.2152  1.4126  0.4905
 9285SOL     OW39316   1.889   2.219  12.915 -0.6446  0.2604 -0.1575
 9285SOL    HW139317   1.893   2.127  12.941  1.3726  0.6215  0.7954
 9285SOL    HW239318   1.968   2.247  12.960 -1.0821 -0.1153  0.8463
 9286SOL     OW39319   1.845   0.465   2.770  0.2364  0.1646  0.5582
 9286SOL    HW139320   1.833   0.375   2.798 -0.2381 -0.2868 -1.1136
 9286SOL    HW239321   1.932   0.466   2.729 -0.3025  0.2938 -0.5794
 9287SOL     OW39322   4.638   4.483  14.186  0.1132 -0.0638 -0.3361
 9287SOL    HW139323   4.610   4.421  14.117  2.1286 -1.6816  0.2952
 9287SOL    HW239324   4.599   4.564  14.155 -0.0451  0.0429  0.1492
 9288SOL     OW39325   1.279   0.890   6.637  0.2024  0.1110  0.1325
 9288SOL    HW139326   1.237   0.976   6.638  0.7394  0.3928 -1.1519
 9288SOL    HW239327   1.235   0.853   6.714 -1.3185 -1.5404 -1.5083
 9289SOL     OW39328   3.666   4.561   6.705 -0.5315  0.8452  0.0924
 9289SOL    HW139329   3.719   4.614   6.764 -1.9530  2.7471 -0.3447
 9289SOL    HW239330   3.733   4.523   6.647 -2.1047  0.8542 -1.7321
 9290SOL     OW39331   3.698   4.564   3.579 -0.3727 -0.1501 -0.1943
 9290SOL    HW139332   3.613   4.574   3.538 -1.2423 -0.3642  1.5538
 9290SOL    HW239333   3.735   4.649   3.557  0.2962 -0.4893 -0.3897
 9291SOL     OW39334   2.487   3.066  16.832 -0.3823 -0.0058  0.4314
 9291SOL    HW139335   2.553   3.062  16.762 -1.9138 -1.4131 -0.9313
 9291SOL    HW239336   2.411   3.062  16.775  1.3980 -0.5838 -1.9150
 9292SOL     OW39337   0.321   2.053   1.821 -0.4573  0.0459 -0.3568
 9292SOL    HW139338   0.240   2.080   1.865 -0.3976 -0.6155  0.1639
 9292SOL    HW239339   0.322   1.957   1.813 -1.2737  0.0308 -0.3160
 9293SOL     OW39340   4.492   3.283  11.436  0.1448 -0.4231  0.1789
 9293SOL    HW139341   4.453   3.293  11.349  0.3450 -1.8144 -0.0660
 9293SOL    HW239342   4.443   3.212  11.478 -0.8141  1.0208  1.5166
 9294SOL     OW39343   3.192   0.633   4.065  0.3957  0.6814  0.2550
 9294SOL    HW139344   3.118   0.684   4.032 -0.9812 -0.8402  0.9605
 9294SOL    HW239345   3.147   0.568   4.119  0.6021  0.9266  0.7187
 9295SOL     OW39346   0.108   0.540   8.401 -0.6651  0.0345 -0.7724
 9295SOL    HW139347   0.053   0.618   8.410  1.3932  1.4854 -0.7072
 9295SOL    HW239348   0.037   0.477   8.387  1.3296 -2.4357  0.3152
 9296SOL     OW39349   3.650   3.472   0.559  0.4611  0.4095  0.1685
 9296SOL    HW139350   3.635   3.444   0.649 -2.6967  0.0171 -0.4839
 9296SOL    HW239351   3.677   3.563   0.565  1.1028  0.3325 -1.4780
 9297SOL     OW39352   0.299   0.587   4.178 -0.0422 -0.1626  0.6644
 9297SOL    HW139353   0.227   0.577   4.241 -0.8548  3.1021  0.2985
 9297SOL    HW239354   0.355   0.511   4.190  1.4288  1.1014  1.7909
 9298SOL     OW39355   3.616   3.105   4.653 -0.3532  0.1698 -0.0351
 9298SOL    HW139356   3.558   3.090   4.579 -0.4958 -0.5112  0.2186
 9298SOL    HW239357   3.649   3.192   4.631  1.5567 -1.1577 -2.3423
 9299SOL     OW39358   1.749   2.370  11.312 -0.0980 -0.3737  0.1058
 9299SOL    HW139359   1.818   2.432  11.338  1.6480 -1.6387 -1.5503
 9299SOL    HW239360   1.770   2.300  11.373  0.6564 -1.4177 -1.3683
 9300SOL     OW39361   3.326   0.378  12.023 -0.2842  0.2650 -1.1159
 9300SOL    HW139362   3.357   0.453  12.073 -0.8661  0.7489 -1.4759
 9300SOL    HW239363   3.358   0.407  11.937 -2.2207  0.4418 -1.7791
 9301SOL     OW39364   3.098   2.392  12.151 -0.0508 -0.4163  0.2436
 9301SOL    HW139365   3.193   2.385  12.157 -0.1857 -2.0848  0.3239
 9301SOL    HW239366   3.078   2.364  12.062  1.5490  1.6582 -0.7717
 9302SOL     OW39367   0.395   3.432  16.168 -0.2957  1.2199  0.0379
 9302SOL    HW139368   0.306   3.431  16.132  0.3796 -2.7691 -1.4859
 9302SOL    HW239369   0.384   3.430  16.263 -2.2792  0.5521 -0.2015
 9303SOL     OW39370   4.605   2.363   9.222  0.3044 -0.5658 -0.1534
 9303SOL    HW139371   4.585   2.297   9.288 -0.9571  0.6924  0.7267
 9303SOL    HW239372   4.690   2.399   9.249  1.1103 -2.0911 -0.6928
 9304SOL     OW39373   2.239   1.381  11.462 -0.0647 -0.2433 -0.7402
 9304SOL    HW139374   2.241   1.477  11.460 -0.3265 -0.1934  1.2696
 9304SOL    HW239375   2.318   1.361  11.513 -0.2957  0.5291 -0.0721
 9305SOL     OW39376   2.865   3.175  16.865  0.1114  0.1524  0.0643
 9305SOL    HW139377   2.877   3.100  16.806 -0.5858  0.5923 -0.6375
 9305SOL    HW239378   2.863   3.246  16.801 -0.3251 -0.7891 -0.9809
 9306SOL     OW39379   0.046   0.763   4.846 -0.5244 -0.5771 -0.0063
 9306SOL    HW139380   0.049   0.826   4.774 -1.6399 -1.5381 -0.8955
 9306SOL    HW239381   0.091   0.816   4.911 -0.3840  0.4514 -0.9279
 9307SOL     OW39382   2.316   2.160   8.593  0.3293  0.2135 -0.6904
 9307SOL    HW139383   2.346   2.131   8.679 -3.1947 -1.9683 -0.2008
 9307SOL    HW239384   2.400   2.160   8.547  0.6280  0.3924 -0.1534
 9308SOL     OW39385   4.339   4.701  10.326 -0.8184 -0.8116 -0.0480
 9308SOL    HW139386   4.337   4.696  10.422  0.6521 -1.4612 -0.0394
 9308SOL    HW239387   4.433   4.683  10.316  0.0940  2.5183  2.1657
 9309SOL     OW39388   3.516   4.651   3.810  0.0621 -0.0056 -1.0702
 9309SOL    HW139389   3.504   0.018   3.792  0.1064  0.2171  0.0766
 9309SOL    HW239390   3.539   4.611   3.726 -0.4645 -0.4616 -0.9962
 9310SOL     OW39391   1.401   2.400   5.236 -0.1942  0.2025  0.1247
 9310SOL    HW139392   1.390   2.487   5.198  0.1726 -0.4151 -1.3821
 9310SOL    HW239393   1.371   2.342   5.166  0.0478 -0.2258  0.3828
 9311SOL     OW39394   4.526   4.477   5.224  0.1523 -0.0775 -0.3843
 9311SOL    HW139395   4.514   4.479   5.319  0.2352 -2.2402 -0.3110
 9311SOL    HW239396   4.609   4.429   5.225  0.9900  1.3677 -0.3465
 9312SOL     OW39397   4.388   0.279   6.149 -0.3554 -0.4139 -0.1727
 9312SOL    HW139398   4.384   0.194   6.194 -1.5305  0.4650  1.3814
 9312SOL    HW239399   4.424   0.335   6.218 -3.0645  1.1026 -0.0050
 9313SOL     OW39400   0.030   1.439   6.194  0.1692 -0.2298 -0.1339
 9313SOL    HW139401   4.671   1.399   6.183 -0.3137  0.8385 -0.2932
 9313SOL    HW239402   0.023   1.532   6.216 -1.0644  0.1214 -2.0687
 9314SOL     OW39403   3.735   2.693   9.286  0.0393 -0.3556 -0.0967
 9314SOL    HW139404   3.749   2.758   9.356 -1.7755 -0.7457  0.6538
 9314SOL    HW239405   3.639   2.688   9.291  0.1953 -2.2832  1.1171
 9315SOL     OW39406   3.018   3.014   3.206  0.0288  0.1470 -0.4461
 9315SOL    HW139407   3.017   3.077   3.278  1.2478  1.4753 -1.5884
 9315SOL    HW239408   2.925   3.014   3.185 -0.1043 -1.1667  0.1656
 9316SOL     OW39409   2.718   2.949   7.722 -0.0855  0.6197 -0.2385
 9316SOL    HW139410   2.801   2.982   7.688 -0.1121  1.2234  0.2723
 9316SOL    HW239411   2.668   2.960   7.641 -1.2690 -1.0023  0.2645
 9317SOL     OW39412   3.981   1.417   9.452  0.3988  0.0295 -0.1216
 9317SOL    HW139413   4.061   1.436   9.500  2.3593 -0.5611 -3.1678
 9317SOL    HW239414   3.922   1.488   9.477 -0.3304 -0.7181  0.3098
 9318SOL     OW39415   0.010   2.744   6.259  0.1294 -0.2489  0.2614
 9318SOL    HW139416   4.713   2.689   6.333 -1.5879  1.3341  0.8834
 9318SOL    HW239417   4.684   2.707   6.188 -0.2592  1.1364 -0.1746
 9319SOL     OW39418   3.786   2.917   9.772  0.2934 -0.3475 -0.5581
 9319SOL    HW139419   3.814   2.875   9.854  1.5169 -0.0110 -0.8056
 9319SOL    HW239420   3.751   3.001   9.801  1.6878 -0.0447  0.2273
 9320SOL     OW39421   3.076   3.240  12.566  0.3051  0.4941 -0.0941
 9320SOL    HW139422   3.078   3.187  12.646 -1.8650 -1.4518 -1.3550
 9320SOL    HW239423   2.984   3.258  12.550  0.3320  0.7831  0.0665
 9321SOL     OW39424   1.713   3.329   7.853  0.3535  0.1839  0.0434
 9321SOL    HW139425   1.737   3.261   7.916  1.3042 -1.1989 -1.8036
 9321SOL    HW239426   1.632   3.353   7.898 -0.3795  2.4728 -2.5286
 9322SOL     OW39427   4.356   4.718   0.315 -0.3327  0.4781 -0.2811
 9322SOL    HW139428   4.332   4.672   0.235  0.3158  0.6498 -0.5802
 9322SOL    HW239429   4.436   4.674   0.345  0.4937  2.0863 -0.0777
 9323SOL     OW39430   2.266   2.497   4.404  0.1038 -0.2061  0.1037
 9323SOL    HW139431   2.202   2.446   4.356 -0.5869 -0.4583  1.2825
 9323SOL    HW239432   2.347   2.446   4.401 -0.7423 -1.4720 -0.8487
 9324SOL     OW39433   1.862   1.634   3.800 -0.0948 -0.0543 -0.2083
 9324SOL    HW139434   1.927   1.647   3.869 -2.4806  0.6678  1.9142
 9324SOL    HW239435   1.797   1.696   3.833 -1.1072 -1.4531  0.3966
 9325SOL     OW39436   2.384   3.422  17.011 -0.2558  0.6750  0.0733
 9325SOL    HW139437   2.469   3.466  17.022  0.1495 -0.3995  1.2346
 9325SOL    HW239438   2.384   3.419  16.915  0.2470  0.6657  0.0755
 9326SOL     OW39439   1.650   3.519   3.646 -0.1913  0.1696  0.5241
 9326SOL    HW139440   1.643   3.447   3.710  1.8819  0.0030  0.5612
 9326SOL    HW239441   1.574   3.573   3.668 -0.6503 -1.1339  2.1872
 9327SOL     OW39442   0.290   0.283  13.834  0.5556  0.3474 -0.1603
 9327SOL    HW139443   0.348   0.333  13.776  2.2640 -1.5482 -0.0603
 9327SOL    HW239444   0.282   0.196  13.797 -0.8038 -0.5268  2.1720
 9328SOL     OW39445   3.740   1.257  14.099 -0.5693  0.4093 -0.5916
 9328SOL    HW139446   3.679   1.325  14.126  2.0413  2.7676 -0.6142
 9328SOL    HW239447   3.726   1.249  14.004 -0.2941  0.9752 -0.6766
 9329SOL     OW39448   3.339   1.768  16.309 -0.3983 -0.0192  0.4012
 9329SOL    HW139449   3.372   1.703  16.371  0.5795 -1.2882 -1.4737
 9329SOL    HW239450   3.312   1.724  16.229  1.0051 -2.1055  1.0903
 9330SOL     OW39451   4.657   1.024  15.098  0.6947 -0.0642 -0.0916
 9330SOL    HW139452   4.575   1.070  15.118  0.2143 -1.4015  0.9842
 9330SOL    HW239453   4.633   0.932  15.106 -0.1640  0.0407 -1.4792
 9331SOL     OW39454   0.789   2.273   2.446 -0.8185  0.4800 -0.1675
 9331SOL    HW139455   0.884   2.273   2.453 -1.0830 -1.2258  3.6947
 9331SOL    HW239456   0.787   2.189   2.399  0.4121  1.0515 -1.2489
 9332SOL     OW39457   0.789   2.896   5.292 -0.6249  0.2485 -0.0694
 9332SOL    HW139458   0.815   2.824   5.233 -1.7352  0.5700 -0.9648
 9332SOL    HW239459   0.825   2.975   5.252  2.8570 -0.6303  1.3566
 9333SOL     OW39460   1.184   0.132   8.322 -0.1696 -0.3767 -0.3497
 9333SOL    HW139461   1.194   0.039   8.343 -1.9975 -0.3225  0.7650
 9333SOL    HW239462   1.149   0.169   8.403 -1.4203 -0.2843 -0.9239
 9334SOL     OW39463   1.426   3.282   0.306 -0.2048  0.3097  0.5184
 9334SOL    HW139464   1.516   3.269   0.275  0.0143 -2.2001  2.1704
 9334SOL    HW239465   1.442   3.282   0.400 -1.2410 -0.0203  0.6932
 9335SOL     OW39466   0.297   1.992   4.046  0.5328 -0.0371 -0.7237
 9335SOL    HW139467   0.240   1.922   4.015 -0.8879  0.1860  1.3703
 9335SOL    HW239468   0.246   2.059   4.000 -0.8343  0.4120  1.4089
 9336SOL     OW39469   2.669   1.081   7.648 -0.2248 -0.3416 -0.8859
 9336SOL    HW139470   2.738   1.135   7.609  0.2771  0.5065  1.1975
 9336SOL    HW239471   2.602   1.108   7.585 -0.6546  3.6526  1.3157
 9337SOL     OW39472   1.403   4.604  11.002 -0.0434 -0.1737 -0.4582
 9337SOL    HW139473   1.330   4.544  10.992 -0.4465  0.3078 -0.3999
 9337SOL    HW239474   1.454   4.556  11.067 -0.3871 -0.4102 -0.3679
 9338SOL     OW39475   3.303   2.489   7.444  0.8306  0.3604 -0.6676
 9338SOL    HW139476   3.228   2.545   7.463 -0.6491 -1.6193 -0.6712
 9338SOL    HW239477   3.381   2.544   7.447  0.5212  0.7508  0.3583
 9339SOL     OW39478   2.963   3.409   6.669  0.2563 -0.8744 -0.3704
 9339SOL    HW139479   2.973   3.493   6.714 -0.2698 -0.5821 -0.8120
 9339SOL    HW239480   2.878   3.411   6.625  0.8404 -0.1701 -1.4681
 9340SOL     OW39481   2.184   2.231  12.606 -0.0408 -0.1994  0.3427
 9340SOL    HW139482   2.247   2.170  12.643 -1.2012 -1.5977  0.0123
 9340SOL    HW239483   2.121   2.174  12.562 -1.1305 -0.6389  2.4961
 9341SOL     OW39484   4.110   3.925   8.163  0.0607 -0.6248  0.1848
 9341SOL    HW139485   4.088   3.957   8.250 -0.8059  1.2492 -0.7387
 9341SOL    HW239486   4.036   3.956   8.111 -0.1913 -0.5044  0.6220
 9342SOL     OW39487   0.182   0.847  16.351  0.1859 -0.0280 -0.5170
 9342SOL    HW139488   0.233   0.888  16.421 -1.0998  0.4885  0.1077
 9342SOL    HW239489   0.103   0.825  16.400 -0.0678 -0.2425 -1.0180
 9343SOL     OW39490   4.216   4.499   7.963  0.3697 -0.2050  0.5084
 9343SOL    HW139491   4.228   4.404   7.959  1.5540  0.0699 -2.1050
 9343SOL    HW239492   4.232   4.510   8.057 -1.0583 -0.2564  0.7610
 9344SOL     OW39493   2.190   2.735   4.247  0.5224 -0.5334 -0.3061
 9344SOL    HW139494   2.225   2.654   4.283  0.4429  0.3892  1.8320
 9344SOL    HW239495   2.217   2.740   4.155 -0.7193 -1.3173 -0.7144
 9345SOL     OW39496   4.260   4.089   3.698  0.2381  0.2623  0.1219
 9345SOL    HW139497   4.195   4.053   3.759 -0.6359  1.0712 -0.3319
 9345SOL    HW239498   4.332   4.026   3.695 -0.2812 -0.3457  0.4858
 9346SOL     OW39499   0.581   2.819   4.025 -0.2245 -0.1430  0.0857
 9346SOL    HW139500   0.515   2.751   4.013 -1.9047  1.2144  1.6601
 9346SOL    HW239501   0.527   2.890   3.992  2.2652  1.6531 -0.1291
 9347SOL     OW39502   0.733   1.344  10.863  0.4321  0.0833  0.3758
 9347SOL    HW139503   0.770   1.433  10.858  0.3072  0.2182  1.9406
 9347SOL    HW239504   0.642   1.373  10.855  0.5220  0.5225  0.8967
 9348SOL     OW39505   4.063   3.277  16.931 -0.8677  0.2481 -0.2374
 9348SOL    HW139506   3.997   3.345  16.947 -0.7462  0.7267 -1.7628
 9348SOL    HW239507   4.092   3.303  16.843  1.3446  0.9445  0.6914
 9349SOL     OW39508   1.876   4.296  14.611 -0.3274  0.1384 -0.2464
 9349SOL    HW139509   1.958   4.332  14.576  1.3327 -0.8874  2.5764
 9349SOL    HW239510   1.848   4.369  14.667  1.8003  0.7457  0.0404
 9350SOL     OW39511   3.306   1.167  14.948  0.6914 -0.5202  0.0672
 9350SOL    HW139512   3.353   1.187  14.867 -0.9448 -1.2310 -1.0611
 9350SOL    HW239513   3.245   1.105  14.908 -1.1891 -0.2577  2.5711
 9351SOL     OW39514   2.745   0.623   4.908  0.4660 -0.2082 -0.1028
 9351SOL    HW139515   2.656   0.617   4.875  0.5169  0.0497 -0.2860
 9351SOL    HW239516   2.750   0.713   4.941 -1.4708 -0.9448  2.1796
 9352SOL     OW39517   2.691   3.906  14.876  0.0602 -0.0806 -0.1263
 9352SOL    HW139518   2.628   3.953  14.930  0.5587  2.7522 -2.0105
 9352SOL    HW239519   2.690   3.955  14.794 -0.6994 -1.6169 -1.0408
 9353SOL     OW39520   0.195   0.164   7.125  0.0704  0.4157  0.6564
 9353SOL    HW139521   0.195   0.069   7.136 -0.2326  0.5796  2.1406
 9353SOL    HW239522   0.238   0.174   7.040  2.1841 -3.1362  1.2818
 9354SOL     OW39523   2.585   3.270   3.333  0.1923 -0.7405  0.1792
 9354SOL    HW139524   2.534   3.271   3.252 -1.4933 -0.8813  1.2343
 9354SOL    HW239525   2.519   3.228   3.389  1.5543 -2.9472  0.0991
 9355SOL     OW39526   2.684   1.432   5.535  0.3459  0.1827 -0.2571
 9355SOL    HW139527   2.777   1.447   5.520  0.4194  0.1602  0.1714
 9355SOL    HW239528   2.686   1.373   5.610 -0.8330  1.9818  1.1980
 9356SOL     OW39529   1.856   1.127   7.762  0.3434 -0.3877  0.1762
 9356SOL    HW139530   1.928   1.172   7.807 -0.7127 -0.5855  2.0856
 9356SOL    HW239531   1.843   1.191   7.692 -1.7012 -0.4186  0.5489
 9357SOL     OW39532   0.377   1.956   3.288 -0.4855 -0.2624 -0.0573
 9357SOL    HW139533   0.351   1.991   3.202  0.4696 -0.8544 -0.5880
 9357SOL    HW239534   0.311   2.000   3.342  0.6944  3.2043 -1.4297
 9358SOL     OW39535   4.440   2.326   3.787 -0.1481 -0.0703 -0.2906
 9358SOL    HW139536   4.445   2.359   3.697 -3.0240  1.2181  0.0199
 9358SOL    HW239537   4.444   2.231   3.779  1.3768 -0.0403  0.0962
 9359SOL     OW39538   0.965   1.079  12.503  0.1415  0.4133 -0.4498
 9359SOL    HW139539   0.995   1.169  12.497 -0.2639  0.5671 -0.1247
 9359SOL    HW239540   1.045   1.037  12.535 -0.4112  0.2982  0.7520
 9360SOL     OW39541   1.474   3.080   7.940 -0.2182  0.2441  0.4738
 9360SOL    HW139542   1.422   3.122   8.009 -0.9950  1.4176 -0.8338
 9360SOL    HW239543   1.429   3.100   7.858 -0.2397  0.3929  0.5225
 9361SOL     OW39544   0.053   1.472   2.054  0.1548 -0.2985  0.0503
 9361SOL    HW139545   4.721   1.495   2.126  0.8648  2.8558 -0.3938
 9361SOL    HW239546   0.122   1.425   2.101 -1.6794 -1.3275  1.7291
 9362SOL     OW39547   3.976   4.654   5.888  0.4843 -0.3275  0.2832
 9362SOL    HW139548   4.012   4.584   5.835 -1.3624 -0.2549 -1.0569
 9362SOL    HW239549   3.947   4.719   5.824  4.2772  1.3069  0.2289
 9363SOL     OW39550   3.429   3.765   3.329 -0.0692 -0.0648  0.2024
 9363SOL    HW139551   3.412   3.695   3.266  0.1767 -1.4135  1.6145
 9363SOL    HW239552   3.394   3.722   3.407 -1.4468  4.3339  1.9857
 9364SOL     OW39553   1.304   0.684   5.226  0.1276 -0.0998 -0.5187
 9364SOL    HW139554   1.372   0.618   5.214  0.0038  0.1483 -2.6204
 9364SOL    HW239555   1.294   0.698   5.132 -0.4930  0.3674 -0.3805
 9365SOL     OW39556   3.475   4.168   7.887  0.1374  0.6159 -0.0760
 9365SOL    HW139557   3.505   4.190   7.975 -0.2988  0.0292  0.2245
 9365SOL    HW239558   3.446   4.252   7.854 -1.0219  0.2194 -0.0761
 9366SOL     OW39559   2.004   3.807   4.079 -0.5645  0.4121  0.4259
 9366SOL    HW139560   1.992   3.715   4.057  0.4266  0.1919  0.8095
 9366SOL    HW239561   2.055   3.832   4.002 -1.2070 -0.6442 -0.3362
 9367SOL     OW39562   3.764   2.423   4.377 -0.5409  0.5218  0.1087
 9367SOL    HW139563   3.733   2.344   4.332 -2.8478  1.2533  0.3910
 9367SOL    HW239564   3.683   2.469   4.398 -0.1117  1.9247 -1.2743
 9368SOL     OW39565   2.083   0.093  16.727  0.0973  0.1568 -0.2619
 9368SOL    HW139566   2.124   0.179  16.730  0.9534 -0.3897  3.7101
 9368SOL    HW239567   2.019   0.102  16.798  0.9200  0.2111  0.4725
 9369SOL     OW39568   1.070   0.689   3.370  0.8570 -0.0978  0.3608
 9369SOL    HW139569   1.050   0.751   3.300  0.7963 -0.1270  0.3518
 9369SOL    HW239570   1.035   0.609   3.330  1.6925  0.4702 -1.5201
 9370SOL     OW39571   1.317   4.328   3.038  0.3724 -0.0620  0.2547
 9370SOL    HW139572   1.304   4.241   3.001 -2.8659  1.2967 -1.8122
 9370SOL    HW239573   1.327   4.366   2.951 -0.4514  1.2135  0.7196
 9371SOL     OW39574   1.119   2.231   5.527 -0.0497 -0.0689  0.1438
 9371SOL    HW139575   1.204   2.274   5.530 -1.3480  2.6762 -1.6585
 9371SOL    HW239576   1.075   2.285   5.461  2.1387  0.3877 -0.9306
 9372SOL     OW39577   1.805   1.539  15.348 -0.2619 -0.0727 -0.1544
 9372SOL    HW139578   1.768   1.488  15.420  1.9390 -0.6481  0.5576
 9372SOL    HW239579   1.736   1.529  15.282  0.8047 -0.0202 -1.2637
 9373SOL     OW39580   4.520   3.602   5.556 -0.1773 -0.5049  0.1210
 9373SOL    HW139581   4.549   3.689   5.582  2.4416 -0.7528 -1.9559
 9373SOL    HW239582   4.524   3.609   5.461  1.8306  1.3226  0.3464
 9374SOL     OW39583   4.251   2.259  17.556 -0.7709  0.0363 -0.3032
 9374SOL    HW139584   4.346   2.272  17.548 -0.8317  0.3598 -0.5311
 9374SOL    HW239585   4.237   2.178  17.509 -1.6137  0.1032 -0.1550
 9375SOL     OW39586   2.088   0.426   7.325  0.0633 -0.0590  0.0256
 9375SOL    HW139587   2.072   0.341   7.364 -0.1368 -0.3477 -0.6775
 9375SOL    HW239588   2.001   0.449   7.292 -0.2874 -1.0706  0.2506
 9376SOL     OW39589   4.617   2.606  17.266 -0.1458  0.0434 -0.0088
 9376SOL    HW139590   4.543   2.559  17.230 -2.1489  2.0864  1.4200
 9376SOL    HW239591   4.685   2.566  17.212  0.2906  1.8198 -0.7657
 9377SOL     OW39592   3.394   4.499  12.826 -0.0330  0.5237  0.1894
 9377SOL    HW139593   3.478   4.490  12.870 -0.5901  1.7348  1.4959
 9377SOL    HW239594   3.415   4.487  12.733  0.5831 -0.3229  0.4412
 9378SOL     OW39595   0.298   2.539   2.569 -0.2036  0.4930 -0.1054
 9378SOL    HW139596   0.284   2.528   2.663  1.9359 -1.0151  0.0599
 9378SOL    HW239597   0.370   2.479   2.548  1.0314  1.2452  1.9257
 9379SOL     OW39598   4.719   2.793  11.128  0.0141 -0.4876 -0.5167
 9379SOL    HW139599   0.049   2.744  11.187 -1.0748 -1.0107  0.1044
 9379SOL    HW239600   4.720   2.875  11.179  0.2996 -0.5227 -0.4667
 9380SOL     OW39601   4.324   2.475   7.124 -1.3560  0.1853 -0.6310
 9380SOL    HW139602   4.320   2.386   7.160  0.0247  0.0282 -0.8794
 9380SOL    HW239603   4.266   2.522   7.185  1.4024  1.1156  1.2772
 9381SOL     OW39604   2.524   3.273  10.650  0.1388  0.4776  0.1526
 9381SOL    HW139605   2.613   3.268  10.614  0.8064 -0.6371  1.9454
 9381SOL    HW239606   2.539   3.233  10.736  2.1000 -0.5304 -0.6417
 9382SOL     OW39607   2.456   1.238   2.320  0.4790  0.0367  0.4279
 9382SOL    HW139608   2.445   1.312   2.260 -1.3304 -1.1512 -0.7099
 9382SOL    HW239609   2.542   1.202   2.299  1.3827  2.5412 -0.1128
 9383SOL     OW39610   0.891   3.943   1.286 -0.0112 -0.0976 -0.1995
 9383SOL    HW139611   0.806   3.950   1.242 -0.4794 -1.0662  0.5640
 9383SOL    HW239612   0.855   3.947   1.375 -1.4086 -2.2156 -0.6760
 9384SOL     OW39613   1.331   4.448  12.686  0.6103  0.0915  0.4138
 9384SOL    HW139614   1.274   4.495  12.747 -1.0381 -1.1646 -0.1540
 9384SOL    HW239615   1.404   4.451  12.748  0.4936  1.9381  0.4803
 9385SOL     OW39616   3.450   1.472   1.896 -0.2620  0.1394 -0.1545
 9385SOL    HW139617   3.502   1.424   1.832 -1.8892 -0.0336 -1.3468
 9385SOL    HW239618   3.378   1.506   1.843 -0.6481  0.7448  0.7557
 9386SOL     OW39619   0.114   0.156  10.087  0.4457  0.1057 -0.2119
 9386SOL    HW139620   0.102   0.214  10.012 -1.4059 -1.3996 -1.0956
 9386SOL    HW239621   0.027   0.116  10.087 -0.5323  2.2380 -1.4152
 9387SOL     OW39622   0.373   3.037   5.098 -0.0169 -0.3333 -0.0067
 9387SOL    HW139623   0.443   3.054   5.161 -0.7691  1.7122  0.2741
 9387SOL    HW239624   0.359   3.125   5.063 -0.4056 -1.4454 -2.6547
 9388SOL     OW39625   2.304   0.727   9.278  0.0162  0.3461  0.2985
 9388SOL    HW139626   2.236   0.724   9.346  2.0439  1.4784  2.3854
 9388SOL    HW239627   2.310   0.819   9.255  0.3446  0.6558  1.6455
 9389SOL     OW39628   2.887   2.339  17.354  0.3358  0.7131 -0.1960
 9389SOL    HW139629   2.915   2.358  17.264 -0.1674 -1.1284 -0.7455
 9389SOL    HW239630   2.941   2.264  17.380 -0.7397  0.8140  2.2704
 9390SOL     OW39631   3.467   0.124   4.180 -0.3971 -0.0276  0.0067
 9390SOL    HW139632   3.436   0.209   4.211 -0.3141  0.5851 -1.5963
 9390SOL    HW239633   3.456   0.143   4.086  0.7194  1.3805  0.1653
 9391SOL     OW39634   4.150   4.453   5.736 -0.6320  0.4019  0.0278
 9391SOL    HW139635   4.228   4.509   5.732 -1.3575  1.5777  2.0756
 9391SOL    HW239636   4.144   4.428   5.644  1.2113  0.6650 -0.1706
 9392SOL     OW39637   3.445   1.804   1.177 -0.1319 -0.1121 -0.3479
 9392SOL    HW139638   3.473   1.865   1.109  0.9186 -0.5964 -0.3434
 9392SOL    HW239639   3.421   1.725   1.129 -1.0351 -0.8340  1.2669
 9393SOL     OW39640   3.158   2.796  15.638 -1.0199  0.6037  0.1616
 9393SOL    HW139641   3.101   2.720  15.625  0.7108 -0.6444 -0.3255
 9393SOL    HW239642   3.100   2.864  15.605 -0.8827 -0.0847 -1.5005
 9394SOL     OW39643   4.342   3.389   4.076 -0.2780 -0.8716  0.5047
 9394SOL    HW139644   4.431   3.389   4.041 -0.6978 -0.5980 -0.5761
 9394SOL    HW239645   4.292   3.448   4.019  3.0181  0.2451 -1.2607
 9395SOL     OW39646   1.836   3.691   7.325  0.2441 -0.3146 -0.3370
 9395SOL    HW139647   1.859   3.636   7.249  1.9730 -2.3628  1.6766
 9395SOL    HW239648   1.820   3.776   7.284 -0.3039  0.6732  1.9399
 9396SOL     OW39649   2.623   1.489   4.235 -0.1162  0.1869 -0.2572
 9396SOL    HW139650   2.642   1.579   4.206  1.0190  0.1280  0.3178
 9396SOL    HW239651   2.621   1.507   4.329 -1.6157  1.3367 -0.5136
 9397SOL     OW39652   4.255   4.182   6.319  0.2515  0.4819 -0.3502
 9397SOL    HW139653   4.336   4.187   6.370  0.2957 -1.5927 -0.2185
 9397SOL    HW239654   4.219   4.094   6.330  0.9427  0.2678  0.2225
 9398SOL     OW39655   1.246   0.693   2.275 -0.5202 -0.5383 -0.1831
 9398SOL    HW139656   1.244   0.622   2.210 -3.4413  0.8332 -1.5586
 9398SOL    HW239657   1.164   0.741   2.266  1.0101  2.4384  1.7718
 9399SOL     OW39658   0.235   2.994   7.343 -0.2570  0.4421 -0.2255
 9399SOL    HW139659   0.302   2.933   7.311 -0.5744  0.9339 -1.8144
 9399SOL    HW239660   0.177   2.948   7.405  0.8265 -2.5019 -1.4111
 9400SOL     OW39661   4.687   3.521   8.470  0.3845  0.5062  0.1334
 9400SOL    HW139662   0.006   3.542   8.389  2.3841 -1.8503  0.6296
 9400SOL    HW239663   4.607   3.481   8.437  0.5651 -1.8906  2.6156
 9401SOL     OW39664   4.283   0.519   5.792 -0.1169  0.4400  0.6682
 9401SOL    HW139665   4.356   0.532   5.853 -2.1820  1.0032  2.9839
 9401SOL    HW239666   4.266   0.612   5.778 -0.2725  0.0834 -1.4715
 9402SOL     OW39667   2.311   3.786   3.112  1.0579 -0.1958 -0.2990
 9402SOL    HW139668   2.241   3.842   3.077  0.0910 -1.6679 -0.7266
 9402SOL    HW239669   2.336   3.854   3.175 -1.0645 -0.0326  0.3736
 9403SOL     OW39670   3.643   4.670  10.089 -0.3137  0.4207 -0.1371
 9403SOL    HW139671   3.731   4.708  10.082 -0.0156 -0.6099 -1.9132
 9403SOL    HW239672   3.594   0.025  10.092 -0.7418  0.1180  1.3245
 9404SOL     OW39673   0.260   2.705   7.527 -0.1879 -0.0731  0.2449
 9404SOL    HW139674   0.178   2.742   7.494  1.0498  0.3991 -2.3178
 9404SOL    HW239675   0.330   2.738   7.471 -0.2286  0.2518  0.3878
 9405SOL     OW39676   4.094   1.712  17.617 -0.2129  0.0875 -0.1268
 9405SOL    HW139677   4.102   1.717  17.522 -1.8358 -0.2048 -0.2822
 9405SOL    HW239678   4.102   1.617  17.632  2.8223  0.3500 -0.0604
 9406SOL     OW39679   2.503   4.682   6.100  0.3927  0.3679 -0.3856
 9406SOL    HW139680   2.540   4.627   6.031  1.0710  0.7576 -0.3336
 9406SOL    HW239681   2.413   4.651   6.111  0.7464 -0.4981  0.0619
 9407SOL     OW39682   2.185   3.794  11.503  0.1317 -0.3217  0.2301
 9407SOL    HW139683   2.261   3.754  11.461  0.9349 -1.0578  2.4125
 9407SOL    HW239684   2.152   3.722  11.556 -2.5015  1.0812  0.4981
 9408SOL     OW39685   2.224   0.339   8.894 -0.7414 -0.1661 -0.0716
 9408SOL    HW139686   2.235   0.352   8.988  3.3961  2.4007 -0.8933
 9408SOL    HW239687   2.277   0.414   8.866 -0.3533 -0.3708  0.0983
 9409SOL     OW39688   0.339   4.692   4.211  0.2385  0.5801 -0.2800
 9409SOL    HW139689   0.376   4.675   4.297  0.5434  1.6054 -0.2040
 9409SOL    HW239690   0.304   4.608   4.182  2.2139 -1.2251  2.6295
 9410SOL     OW39691   3.191   1.732   3.513  0.2099 -0.1631  0.0576
 9410SOL    HW139692   3.116   1.672   3.511  1.4667 -1.7041 -0.7552
 9410SOL    HW239693   3.139   1.798   3.560  1.6347 -1.3221  3.2821
 9411SOL     OW39694   2.321   1.023   8.628  0.7244  0.1833 -0.5754
 9411SOL    HW139695   2.378   1.096   8.600  1.7811 -0.2768  0.3658
 9411SOL    HW239696   2.350   0.951   8.572 -1.0677 -0.1324 -1.1009
 9412SOL     OW39697   0.488   1.714  11.095 -0.0992  0.5556 -0.1182
 9412SOL    HW139698   0.520   1.742  11.180  1.3885 -1.9569  0.1423
 9412SOL    HW239699   0.474   1.793  11.043 -0.0888 -1.8006 -3.7471
 9413SOL     OW39700   1.392   1.050   0.204 -0.1646 -0.3532 -0.1832
 9413SOL    HW139701   1.436   1.055   0.289 -0.7860 -1.4425  0.2093
 9413SOL    HW239702   1.304   1.086   0.212  1.1006  1.9707  3.2417
 9414SOL     OW39703   3.010   4.374   9.154 -0.4343 -0.4871 -0.5649
 9414SOL    HW139704   3.105   4.371   9.163 -0.4393  1.3817  0.1462
 9414SOL    HW239705   2.995   4.316   9.079  3.0884 -0.3777 -1.3322
 9415SOL     OW39706   0.025   2.491   1.035 -0.5968  0.2911  0.5072
 9415SOL    HW139707   0.015   2.506   0.940 -1.2091  1.9954  0.8311
 9415SOL    HW239708   4.667   2.515   1.073  0.2622  0.8204  2.0663
 9416SOL     OW39709   4.442   3.855   2.025  0.1968  0.4060  0.5786
 9416SOL    HW139710   4.446   3.928   2.087 -1.0146  1.6515 -0.8141
 9416SOL    HW239711   4.524   3.871   1.979 -0.8695 -1.6609 -2.0688
 9417SOL     OW39712   2.157   1.991   5.358  0.2236 -0.1158  0.5141
 9417SOL    HW139713   2.176   1.981   5.452 -0.3255 -0.8494  0.5457
 9417SOL    HW239714   2.240   2.025   5.325  0.6344 -1.4802  0.1232
 9418SOL     OW39715   1.458   1.777   1.990 -0.3771  0.0463  0.1087
 9418SOL    HW139716   1.486   1.713   2.055 -2.4444 -2.4409 -1.4853
 9418SOL    HW239717   1.400   1.724   1.936  1.1521 -0.8297 -0.6603
 9419SOL     OW39718   2.699   3.824  11.598  0.1173 -0.1431 -0.1520
 9419SOL    HW139719   2.688   3.841  11.691 -0.8764 -0.4533 -0.2181
 9419SOL    HW239720   2.714   3.914  11.569  1.2895 -0.1416  0.4664
 9420SOL     OW39721   4.161   1.834   3.233 -0.0822 -0.1925  0.2008
 9420SOL    HW139722   4.076   1.879   3.237 -1.2433 -2.4537  1.1182
 9420SOL    HW239723   4.147   1.779   3.156 -0.5581  0.0234  0.1301
 9421SOL     OW39724   0.815   2.033   3.901  0.1456  0.2376  0.0704
 9421SOL    HW139725   0.747   2.006   3.840  0.1407 -0.3025  0.3092
 9421SOL    HW239726   0.875   1.959   3.898 -1.5677 -1.1591  0.3729
 9422SOL     OW39727   0.180   4.039  13.065  0.4323  0.5300 -0.0861
 9422SOL    HW139728   0.268   4.044  13.102 -0.0645  0.6342  1.0676
 9422SOL    HW239729   0.183   4.094  12.986  0.1134 -0.6218 -0.9064
 9423SOL     OW39730   3.813   2.090   3.532  0.0181 -0.7578 -0.1502
 9423SOL    HW139731   3.856   2.070   3.615  1.5748 -0.2711 -0.8380
 9423SOL    HW239732   3.719   2.083   3.549  0.0970 -0.4113  0.4443
 9424SOL     OW39733   4.007   4.032   8.661  0.1187  0.0511 -0.3249
 9424SOL    HW139734   4.006   4.113   8.710 -2.1259 -0.0152 -0.2557
 9424SOL    HW239735   4.100   4.013   8.674  0.4341  0.5275 -1.9085
 9425SOL     OW39736   2.149   2.872   9.607 -0.3668 -0.3156  0.1157
 9425SOL    HW139737   2.193   2.797   9.647  0.5008  0.4956  0.6663
 9425SOL    HW239738   2.216   2.939   9.592 -0.1115 -0.0572  2.5094
 9426SOL     OW39739   3.035   1.364   2.214 -0.2850  0.2593  0.2884
 9426SOL    HW139740   3.008   1.286   2.261  0.7760 -0.2281  0.0820
 9426SOL    HW239741   2.976   1.359   2.140 -1.5151  1.4873  1.1803
 9427SOL     OW39742   2.344   3.412  16.234  0.4340  0.2384 -0.4219
 9427SOL    HW139743   2.340   3.500  16.270  0.0986 -0.0478  0.2554
 9427SOL    HW239744   2.297   3.411  16.151 -1.7170  0.5056  0.7715
 9428SOL     OW39745   2.210   4.689  16.198  0.1261 -0.2081 -0.2270
 9428SOL    HW139746   2.255   4.613  16.234  0.9429  0.6924  0.6566
 9428SOL    HW239747   2.187   0.007  16.280  3.6639 -0.2821  0.8064
 9429SOL     OW39748   1.578   0.395   3.133  0.1570  0.4333 -0.3133
 9429SOL    HW139749   1.539   0.337   3.198  0.2084  0.7243 -0.0237
 9429SOL    HW239750   1.655   0.434   3.174  0.9792 -0.9471 -0.5623
 9430SOL     OW39751   0.263   4.116   0.250 -0.4266  0.6571 -0.6241
 9430SOL    HW139752   0.241   4.078   0.336 -0.6661  1.0650 -0.5083
 9430SOL    HW239753   0.197   4.184   0.254  0.4079  1.4725 -0.6812
 9431SOL     OW39754   4.577   1.230   9.388  0.5819 -0.3530  0.0206
 9431SOL    HW139755   4.620   1.304   9.432 -0.7224  0.5998 -0.3177
 9431SOL    HW239756   4.652   1.171   9.399 -0.7126 -1.8579  0.7589
 9432SOL     OW39757   3.942   0.241   9.830  0.5032 -0.3126  0.5400
 9432SOL    HW139758   3.961   0.256   9.738  0.0518 -1.8581  0.2017
 9432SOL    HW239759   4.027   0.250   9.874  0.5330  2.1295 -0.0064
 9433SOL     OW39760   2.249   2.771   5.558 -0.1381  0.1097  0.1062
 9433SOL    HW139761   2.178   2.728   5.606 -0.3095  0.5927  0.2900
 9433SOL    HW239762   2.199   2.838   5.512 -0.1525  0.4173  0.5734
 9434SOL     OW39763   1.082   2.812   7.101 -0.2722  0.2707  0.1887
 9434SOL    HW139764   1.176   2.824   7.090 -0.2876 -1.3746 -1.6979
 9434SOL    HW239765   1.082   2.858   7.184  2.3865  0.8372 -0.1294
 9435SOL     OW39766   2.013   0.914   0.845  0.7016  0.6294 -0.2173
 9435SOL    HW139767   1.976   0.882   0.763  1.8229  1.9548 -1.2392
 9435SOL    HW239768   2.053   0.833   0.878 -1.1318 -0.0868  0.2099
 9436SOL     OW39769   4.441   4.172   5.935  0.0152 -0.3528  0.3039
 9436SOL    HW139770   4.347   4.173   5.916  0.3152  0.1573 -1.1285
 9436SOL    HW239771   4.466   4.264   5.922 -4.1764  0.8706  1.1031
 9437SOL     OW39772   1.477   0.143   4.601  0.6418 -0.3165 -0.7210
 9437SOL    HW139773   1.565   0.113   4.580  0.5155 -0.7541 -0.6292
 9437SOL    HW239774   1.492   0.211   4.666  0.2026 -0.3414 -0.5939
 9438SOL     OW39775   1.943   4.425  13.271  0.3140  0.2185  0.1338
 9438SOL    HW139776   2.023   4.474  13.293  1.4589 -1.7795  0.4350
 9438SOL    HW239777   1.984   4.340  13.253  1.9790  0.8433  0.9779
 9439SOL     OW39778   4.418   1.226   7.294  0.0794 -0.1017  0.1644
 9439SOL    HW139779   4.484   1.181   7.347 -2.1239 -0.4266  2.6575
 9439SOL    HW239780   4.459   1.311   7.277 -1.8162  1.0081  1.2060
 9440SOL     OW39781   1.007   0.259   1.275  0.4377  0.5745  0.0517
 9440SOL    HW139782   0.988   0.317   1.202 -2.1012 -1.4420 -0.8844
 9440SOL    HW239783   1.026   0.183   1.220 -2.7677 -0.5882  0.5825
 9441SOL     OW39784   0.972   2.453   3.803  0.1552 -0.2052  0.1258
 9441SOL    HW139785   0.958   2.358   3.796  2.2802 -0.5230  0.3557
 9441SOL    HW239786   1.062   2.455   3.771 -0.2435  3.6792 -0.7433
 9442SOL     OW39787   4.122   1.406   4.435  0.1252 -1.2395 -0.1084
 9442SOL    HW139788   4.178   1.473   4.474 -2.1248  1.8533 -2.2797
 9442SOL    HW239789   4.178   1.329   4.448  1.3679 -0.2059  0.5735
 9443SOL     OW39790   4.412   1.159   2.558 -0.5812  0.5316  0.0763
 9443SOL    HW139791   4.457   1.106   2.623 -1.1120 -0.8094 -0.6513
 9443SOL    HW239792   4.322   1.132   2.576 -0.1308 -1.8434 -1.1987
 9444SOL     OW39793   1.043   1.749   6.579  1.0279  0.1476 -0.0372
 9444SOL    HW139794   0.972   1.690   6.604  0.6065  0.1319 -1.2909
 9444SOL    HW239795   1.035   1.742   6.484 -1.2271 -3.6434  0.4483
 9445SOL     OW39796   2.078   2.577   3.391 -0.0870 -0.2235 -0.8262
 9445SOL    HW139797   2.001   2.632   3.373  1.2617  1.8488 -0.3551
 9445SOL    HW239798   2.024   2.500   3.408  0.6357 -0.1692  1.7443
 9446SOL     OW39799   3.069   1.455   4.588  0.0516 -0.4735  0.2882
 9446SOL    HW139800   3.128   1.512   4.637 -0.2512  1.4708 -1.6153
 9446SOL    HW239801   3.116   1.441   4.506 -1.0781 -0.9047 -0.2950
 9447SOL     OW39802   0.227   2.514   5.258 -0.5772 -0.6343  0.7041
 9447SOL    HW139803   0.258   2.525   5.347 -0.2757  0.7384  0.4397
 9447SOL    HW239804   0.305   2.536   5.208 -1.7545 -0.1238 -0.9362
 9448SOL     OW39805   3.091   2.880   8.369  0.0714 -0.0466 -0.3126
 9448SOL    HW139806   3.124   2.964   8.335  2.3926  0.3432  2.9525
 9448SOL    HW239807   3.000   2.886   8.339  0.8261  0.2272 -2.5675
 9449SOL     OW39808   1.672   1.591   3.443  0.6108  0.0820  0.0036
 9449SOL    HW139809   1.698   1.523   3.505 -0.8271 -0.0102  0.5050
 9449SOL    HW239810   1.722   1.561   3.367 -2.7288 -0.8358 -1.8378
 9450SOL     OW39811   4.716   4.184  16.488  0.4774  0.2787 -0.0819
 9450SOL    HW139812   4.672   4.157  16.407 -2.4173 -0.1161  1.5882
 9450SOL    HW239813   0.017   4.095  16.510  0.1784  0.0626 -0.5762
 9451SOL     OW39814   0.024   4.339   5.228 -0.1387  0.0707 -0.3066
 9451SOL    HW139815   0.091   4.407   5.237  0.6180 -0.5417 -1.2920
 9451SOL    HW239816   0.070   4.279   5.169 -0.7074 -0.7933  0.1237
 9452SOL     OW39817   2.302   2.049   7.012 -0.4266 -0.7995 -0.1090
 9452SOL    HW139818   2.365   1.999   7.065  0.7196  2.3432  1.4687
 9452SOL    HW239819   2.308   2.123   7.073  0.1106 -1.0669  0.1569
 9453SOL     OW39820   4.639   2.638   0.101 -0.3841  0.4580  0.5290
 9453SOL    HW139821   4.665   2.671   0.015  0.9911  1.8304  1.4669
 9453SOL    HW239822   4.703   2.689   0.152  0.3990 -0.4420  0.4557
 9454SOL     OW39823   0.568   2.323   7.946 -0.1791 -0.3221 -0.3082
 9454SOL    HW139824   0.550   2.229   7.947 -1.0634 -0.1557 -0.0126
 9454SOL    HW239825   0.485   2.358   7.912 -0.8285 -1.1556  0.4187
 9455SOL     OW39826   0.807   1.140  11.009  0.1266 -0.1632 -0.0947
 9455SOL    HW139827   0.871   1.169  10.945 -0.3853 -0.5426 -0.7765
 9455SOL    HW239828   0.735   1.197  10.981 -0.4108 -0.5126  0.5438
 9456SOL     OW39829   3.256   3.095   1.287  0.6711  0.4678  0.2291
 9456SOL    HW139830   3.175   3.089   1.339  0.2944  0.7723 -0.3269
 9456SOL    HW239831   3.275   3.189   1.281  1.8342  0.2826  0.9930
 9457SOL     OW39832   0.767   0.558   2.235 -0.4162  0.1755  0.1184
 9457SOL    HW139833   0.735   0.479   2.191 -0.8678 -0.5882  1.8004
 9457SOL    HW239834   0.684   0.598   2.259 -2.0698 -2.1837 -1.6395
 9458SOL     OW39835   3.016   2.438   3.402  0.4764  0.0391 -0.0214
 9458SOL    HW139836   2.927   2.473   3.407  1.5819  3.0508 -1.1356
 9458SOL    HW239837   3.016   2.387   3.321  0.8847 -0.6741  0.4322
 9459SOL     OW39838   0.627   4.607   4.219 -0.0748 -0.2570  0.3525
 9459SOL    HW139839   0.710   4.655   4.217  0.7621 -1.7609 -1.1046
 9459SOL    HW239840   0.662   4.521   4.243 -2.7540 -1.2712  0.6177
 9460SOL     OW39841   0.415   3.637   6.736  0.0888 -0.4185 -0.5440
 9460SOL    HW139842   0.509   3.639   6.756  0.0113  1.5510 -0.3988
 9460SOL    HW239843   0.379   3.697   6.801 -0.9356 -0.2520 -1.2635
 9461SOL     OW39844   3.077   0.415  10.627 -0.6178  0.4183 -0.0145
 9461SOL    HW139845   3.002   0.422  10.686  0.0209 -0.8811  0.9613
 9461SOL    HW239846   3.101   0.323  10.639 -0.1155  0.6279  0.5572
 9462SOL     OW39847   0.529   2.179  12.071 -0.4056  0.0312  0.1980
 9462SOL    HW139848   0.444   2.220  12.052 -0.3673 -0.9437 -2.1729
 9462SOL    HW239849   0.588   2.232  12.018 -1.0486 -0.0684 -0.6255
 9463SOL     OW39850   0.900   1.822   3.369  0.2270 -0.2214 -0.8894
 9463SOL    HW139851   0.844   1.899   3.383  1.7069  0.4270  1.6419
 9463SOL    HW239852   0.866   1.759   3.432 -1.0592  1.9680  0.6393
 9464SOL     OW39853   3.384   2.230  14.388  0.1611  0.3947 -0.3328
 9464SOL    HW139854   3.337   2.254  14.468  0.8474  1.2775 -0.1904
 9464SOL    HW239855   3.468   2.268  14.413  0.4408  0.7790 -1.9029
 9465SOL     OW39856   2.221   1.924   7.391  0.2087  0.2501 -0.3234
 9465SOL    HW139857   2.128   1.929   7.371 -0.0020  2.1479  1.1468
 9465SOL    HW239858   2.226   1.992   7.458  0.5356 -0.9866  0.9238
 9466SOL     OW39859   3.602   0.484   1.590 -0.5121 -0.1393 -0.3397
 9466SOL    HW139860   3.579   0.392   1.602  0.4524 -0.2916  0.3096
 9466SOL    HW239861   3.690   0.473   1.554 -0.6788  2.3668 -1.5234
 9467SOL     OW39862   1.120   2.691   9.086  0.0301 -0.2092  0.2362
 9467SOL    HW139863   1.065   2.697   9.164 -0.7737 -0.6628 -0.2981
 9467SOL    HW239864   1.071   2.738   9.019  1.0618 -1.4371 -1.3647
 9468SOL     OW39865   4.393   2.536  16.048  0.5063 -0.0293  0.1419
 9468SOL    HW139866   4.311   2.504  16.086  1.3261 -0.3856  1.6065
 9468SOL    HW239867   4.376   2.536  15.954  2.7471  0.3628 -0.2699
 9469SOL     OW39868   1.791   2.548   8.383 -0.2799 -0.4220  0.1269
 9469SOL    HW139869   1.816   2.500   8.304  1.0223 -0.9268  0.8429
 9469SOL    HW239870   1.841   2.628   8.366 -0.4711 -0.4659 -0.6408
 9470SOL     OW39871   4.299   0.874   4.270 -0.1666 -0.5724  0.2933
 9470SOL    HW139872   4.368   0.906   4.328  0.9593  1.4690 -2.1757
 9470SOL    HW239873   4.317   0.916   4.186 -1.9616 -1.2541 -0.4253
 9471SOL     OW39874   0.853   4.153   7.127  0.0101  0.2388  0.1873
 9471SOL    HW139875   0.819   4.076   7.174 -1.7424  1.2684  0.6308
 9471SOL    HW239876   0.931   4.123   7.081 -0.5605 -1.0033  0.0183
 9472SOL     OW39877   0.324   0.913   8.735  0.8644 -0.6312 -0.2547
 9472SOL    HW139878   0.392   0.978   8.720  0.6202 -0.3302 -0.0555
 9472SOL    HW239879   0.290   0.912   8.646 -0.4435 -1.4207  0.2343
 9473SOL     OW39880   2.862   2.045  15.641 -0.2085 -0.1923  0.6576
 9473SOL    HW139881   2.864   1.987  15.564 -1.1990 -1.4047  1.5374
 9473SOL    HW239882   2.823   1.981  15.700  0.3015 -0.8495  0.2845
 9474SOL     OW39883   3.243   1.182  13.353  0.1264 -0.0789 -0.0978
 9474SOL    HW139884   3.261   1.269  13.388  0.1376 -1.4840  3.4569
 9474SOL    HW239885   3.178   1.160  13.420 -0.9683 -0.9795 -1.4555
 9475SOL     OW39886   2.593   3.533  11.669  0.3334  0.4637  0.0511
 9475SOL    HW139887   2.594   3.572  11.756 -0.3080 -0.6289  0.5415
 9475SOL    HW239888   2.523   3.583  11.626  0.6572  0.7925 -0.0966
 9476SOL     OW39889   1.267   3.425  17.365  0.1621  0.1798  0.0913
 9476SOL    HW139890   1.221   3.356  17.413  1.3719 -2.4930 -2.5350
 9476SOL    HW239891   1.318   3.463  17.436  2.0634 -2.0749 -0.0516
 9477SOL     OW39892   3.740   1.362   6.366  0.0912  0.5264 -0.0458
 9477SOL    HW139893   3.702   1.419   6.299 -0.9218  1.5987  1.4453
 9477SOL    HW239894   3.661   1.335   6.413  0.9652  0.8719  1.6144
 9478SOL     OW39895   2.030   1.840   0.205  0.3650  0.3032  0.5779
 9478SOL    HW139896   1.969   1.778   0.245  0.2501 -0.7863 -1.2475
 9478SOL    HW239897   2.021   1.816   0.112 -2.0602  1.3670  0.5294
 9479SOL     OW39898   0.701   4.404  12.059  0.2704 -0.3950  0.2708
 9479SOL    HW139899   0.634   4.452  12.011 -0.2845 -0.6971  0.7564
 9479SOL    HW239900   0.700   4.318  12.017 -0.7094  0.1584 -0.8357
 9480SOL     OW39901   0.247   3.594   2.548  0.2071  0.0869 -0.0257
 9480SOL    HW139902   0.241   3.578   2.454  1.3515 -0.8833  0.0656
 9480SOL    HW239903   0.338   3.572   2.565  0.4316  0.4604 -0.7162
 9481SOL     OW39904   2.360   2.172  11.326  1.0796  0.4287  0.1179
 9481SOL    HW139905   2.283   2.229  11.330  0.9225  0.3667 -2.2765
 9481SOL    HW239906   2.432   2.230  11.299  0.1928  1.1336 -0.7153
 9482SOL     OW39907   0.072   0.522  13.560 -0.6938  0.0712 -0.3811
 9482SOL    HW139908   0.072   0.615  13.584 -0.7857 -0.5364  2.0052
 9482SOL    HW239909   0.159   0.491  13.586  0.0390 -0.7278 -3.7390
 9483SOL     OW39910   2.604   2.890   1.510 -0.0786 -0.3579 -0.1270
 9483SOL    HW139911   2.625   2.983   1.506  1.2292 -0.6235  0.4183
 9483SOL    HW239912   2.693   2.855   1.507  1.5381  3.6892  1.1963
 9484SOL     OW39913   4.139   2.207   4.425 -0.1644 -0.5324 -0.2118
 9484SOL    HW139914   4.115   2.135   4.366 -1.8740 -0.9329  0.9757
 9484SOL    HW239915   4.225   2.233   4.392  0.2509 -0.4184  0.9471
 9485SOL     OW39916   4.174   3.761   4.731 -0.1441 -0.5146 -0.8646
 9485SOL    HW139917   4.116   3.837   4.723  1.1549  0.6129  0.4235
 9485SOL    HW239918   4.148   3.737   4.820  1.4235  2.3127  0.3613
 9486SOL     OW39919   1.843   1.737   7.703  0.2405 -0.0835 -0.4461
 9486SOL    HW139920   1.927   1.744   7.656  0.8372 -1.0969  0.4705
 9486SOL    HW239921   1.867   1.737   7.796  0.0595  2.0840 -0.4052
 9487SOL     OW39922   3.622   1.776   4.985 -0.0209 -0.1399  0.0259
 9487SOL    HW139923   3.587   1.837   4.921 -2.1743 -0.4845  0.8414
 9487SOL    HW239924   3.536   1.766   5.028  0.4213  1.0633  1.1905
 9488SOL     OW39925   4.536   0.304   6.380  0.4382  0.0574  0.7803
 9488SOL    HW139926   4.591   0.266   6.448 -0.2535 -0.8315  0.8522
 9488SOL    HW239927   4.495   0.218   6.366  2.0506 -0.5455 -0.2798
 9489SOL     OW39928   3.353   4.570   3.027  0.2768  0.3959  0.4835
 9489SOL    HW139929   3.381   4.494   3.079  1.5239  1.2486  1.0468
 9489SOL    HW239930   3.326   4.524   2.947 -0.7302  0.2749  0.8902
 9490SOL     OW39931   1.076   1.692   8.237 -0.2230 -0.3050  0.1051
 9490SOL    HW139932   1.169   1.709   8.251 -0.3438  0.4417 -0.0077
 9490SOL    HW239933   1.036   1.744   8.307  2.5855 -0.2157  1.6038
 9491SOL     OW39934   4.687   4.399   2.173  0.0892  0.2076  0.4309
 9491SOL    HW139935   4.723   4.484   2.149  0.5759  0.2405  1.2586
 9491SOL    HW239936   0.038   4.364   2.217  0.0839 -1.2331 -0.6986
 9492SOL     OW39937   2.027   0.962  12.566  0.5719  0.1066 -0.1148
 9492SOL    HW139938   1.995   0.878  12.532  0.1012 -0.4988  1.8091
 9492SOL    HW239939   2.064   0.997  12.485 -0.8044  0.8993 -0.3969
 9493SOL     OW39940   0.656   4.715   8.158  0.0429  0.1406 -0.0293
 9493SOL    HW139941   0.679   0.079   8.179 -0.0469 -0.2484  1.7397
 9493SOL    HW239942   0.582   0.007   8.100  1.4366 -0.6063 -2.0577
 9494SOL     OW39943   4.488   1.019   4.412 -0.1874  0.9448 -0.3185
 9494SOL    HW139944   4.483   1.112   4.433 -1.9435  1.3730 -2.6450
 9494SOL    HW239945   4.552   1.012   4.341  1.4708 -1.4770  1.3916
 9495SOL     OW39946   4.605   3.528  11.309 -0.4887 -0.8079  0.2113
 9495SOL    HW139947   4.592   3.538  11.404  3.4091 -1.2101  0.8180
 9495SOL    HW239948   4.529   3.569  11.269  0.8460 -1.0249 -2.5503
 9496SOL     OW39949   2.997   3.623   5.947 -0.5141 -0.5474  0.3059
 9496SOL    HW139950   3.046   3.584   5.875 -0.5737 -0.5001  0.2394
 9496SOL    HW239951   2.929   3.674   5.903 -1.1346 -2.2542 -0.7454
 9497SOL     OW39952   1.910   1.448  14.029 -0.2862  0.0076 -0.7588
 9497SOL    HW139953   1.947   1.499  13.957 -0.2849  0.9402 -0.1007
 9497SOL    HW239954   1.988   1.419  14.077 -1.2254 -2.9311 -0.9680
 9498SOL     OW39955   0.528   3.936   8.711 -0.0612 -0.0437 -0.4019
 9498SOL    HW139956   0.569   3.862   8.665 -0.4629 -1.9604  2.3006
 9498SOL    HW239957   0.439   3.912   8.685 -0.5502  0.8892  0.4162
 9499SOL     OW39958   4.441   1.064   2.089  0.3200  0.2012 -0.0204
 9499SOL    HW139959   4.414   0.992   2.032 -1.3785 -0.6695  1.8727
 9499SOL    HW239960   4.527   1.085   2.053  0.4083 -0.1218 -0.0015
 9500SOL     OW39961   1.500   3.758   6.679 -0.1748  0.3564  0.5497
 9500SOL    HW139962   1.489   3.697   6.752 -0.2149  1.0604  1.1281
 9500SOL    HW239963   1.585   3.795   6.702 -0.9901  0.1832  3.8368
 9501SOL     OW39964   0.871   0.709  11.212 -0.1228 -0.0474  0.4393
 9501SOL    HW139965   0.879   0.759  11.293  3.5716 -1.0604  0.6966
 9501SOL    HW239966   0.801   0.755  11.165  0.4568  0.3428 -0.0339
 9502SOL     OW39967   3.380   0.571  17.281  1.1931 -0.0769 -0.5916
 9502SOL    HW139968   3.445   0.633  17.248 -0.0622  1.3900 -0.3215
 9502SOL    HW239969   3.388   0.582  17.376  3.3201 -0.5654 -0.7096
 9503SOL     OW39970   4.371   2.266   5.005 -0.2823  0.1200  0.1142
 9503SOL    HW139971   4.414   2.182   4.987 -0.5976 -0.7271  3.3575
 9503SOL    HW239972   4.408   2.282   5.091  1.1662  0.0897 -0.4934
 9504SOL     OW39973   3.670   3.495   2.152  0.6982  0.1576  0.1074
 9504SOL    HW139974   3.741   3.558   2.168  1.2583 -0.1178 -1.2917
 9504SOL    HW239975   3.694   3.433   2.222 -3.1409 -3.3412 -1.7079
 9505SOL     OW39976   4.107   4.416  12.893 -0.1213  0.3767  0.2535
 9505SOL    HW139977   4.120   4.481  12.962 -1.4889  0.0177  0.8430
 9505SOL    HW239978   4.013   4.404  12.901 -0.2091  0.9745  0.0655
 9506SOL     OW39979   1.383   0.500   3.734 -0.6053 -0.0105  0.2304
 9506SOL    HW139980   1.441   0.432   3.700 -0.4994 -0.6264  1.6430
 9506SOL    HW239981   1.304   0.500   3.679 -0.3276  0.1371 -0.1651
 9507SOL     OW39982   2.087   0.549  16.592 -1.0600  0.3859  0.2968
 9507SOL    HW139983   2.051   0.580  16.509  0.8873 -1.9947 -1.4156
 9507SOL    HW239984   2.139   0.627  16.612  0.6911 -0.9296  0.9201
 9508SOL     OW39985   3.343   1.092   3.928  0.0914  0.1231 -0.0340
 9508SOL    HW139986   3.258   1.120   3.961  0.4891  1.5033 -0.1860
 9508SOL    HW239987   3.352   1.023   3.994 -2.0904  1.0666  1.2677
 9509SOL     OW39988   3.821   2.250  14.300 -0.0244 -0.7899 -0.0344
 9509SOL    HW139989   3.835   2.338  14.265 -0.0476 -0.0506  1.7614
 9509SOL    HW239990   3.749   2.258  14.364  0.7630 -1.9053  0.9925
 9510SOL     OW39991   2.336   0.262   8.000 -0.1318  0.1853 -0.3611
 9510SOL    HW139992   2.316   0.213   7.920 -2.2205  0.7134 -0.1638
 9510SOL    HW239993   2.418   0.304   7.975  0.3776 -0.9423 -0.5963
 9511SOL     OW39994   1.379   1.296   1.965  0.2728 -0.6697  0.3574
 9511SOL    HW139995   1.317   1.334   1.903  1.4381  1.9173  0.7917
 9511SOL    HW239996   1.327   1.231   2.012  2.0460 -2.0976  0.3592
 9512SOL     OW39997   3.400   2.684   8.146 -0.4074 -0.2873  0.1451
 9512SOL    HW139998   3.475   2.744   8.158 -1.7360  1.5662 -0.8260
 9512SOL    HW239999   3.414   2.613   8.209  1.8319 -2.5421 -2.8854
 9513SOL     OW40000   0.175   0.524   6.733 -0.1756 -0.4999  0.1109
 9513SOL    HW140001   0.191   0.614   6.705 -1.7246  0.0757  1.0451
 9513SOL    HW240002   0.261   0.483   6.735  0.4743  0.8855  0.2849
 9514SOL     OW40003   4.573   2.926   4.095  0.1662 -1.0009  0.2088
 9514SOL    HW140004   4.534   2.954   4.012  2.0760  1.8232  0.2740
 9514SOL    HW240005   4.499   2.912   4.154  1.2400 -3.4466  1.0147
 9515SOL     OW40006   0.447   4.675  15.800 -0.4767  0.1029  0.3133
 9515SOL    HW140007   0.400   4.716  15.728  0.8674  1.9251  0.4773
 9515SOL    HW240008   0.479   0.027  15.843  1.0917 -0.1411 -0.4156
 9516SOL     OW40009   0.577   4.676   5.835  0.3516 -0.5611  0.8013
 9516SOL    HW140010   0.532   0.011   5.892 -1.7780 -1.9783  0.6200
 9516SOL    HW240011   0.661   4.723   5.829  2.1514 -3.8200  0.3570
 9517SOL     OW40012   1.340   1.000  17.308 -0.8780 -0.9987 -0.0700
 9517SOL    HW140013   1.387   1.082  17.323  0.6354 -1.8572 -0.0915
 9517SOL    HW240014   1.248   1.026  17.310 -0.3793  0.7598 -0.0992
 9518SOL     OW40015   2.919   1.229  13.262 -0.0970  0.0976  0.0594
 9518SOL    HW140016   2.833   1.242  13.221  0.3876 -0.4737 -1.1431
 9518SOL    HW240017   2.893   1.160  13.323  0.5512  1.6058  2.0400
 9519SOL     OW40018   0.087   3.141  17.609 -0.5170 -0.2670 -0.6830
 9519SOL    HW140019   0.002   3.143  17.653 -0.2398 -0.3754 -0.1409
 9519SOL    HW240020   0.055   3.132  17.519 -2.8134  1.1574 -0.0011
 9520SOL     OW40021   2.475   0.753  13.542 -0.0602  0.1491  0.3995
 9520SOL    HW140022   2.455   0.798  13.460  1.2581 -0.2676 -0.1330
 9520SOL    HW240023   2.489   0.664  13.510  2.1003  0.9352 -0.8275
 9521SOL     OW40024   1.399   0.990  14.599 -0.6602  0.3526  0.7803
 9521SOL    HW140025   1.416   0.949  14.684  0.0214 -1.9785 -0.4844
 9521SOL    HW240026   1.382   1.073  14.645 -0.2440  1.3494 -0.8691
 9522SOL     OW40027   2.040   1.130   4.632  0.0285  0.1934 -0.3833
 9522SOL    HW140028   2.044   1.069   4.558 -1.4491  2.1020 -2.0353
 9522SOL    HW240029   1.970   1.189   4.603 -0.1211  0.0535 -0.3036
 9523SOL     OW40030   2.577   1.346  17.670 -0.4289 -0.0837  0.6781
 9523SOL    HW140031   2.651   1.386  17.625  0.1330  0.7665  2.3508
 9523SOL    HW240032   2.527   1.422  17.700  2.6620  2.4076 -0.5985
 9524SOL     OW40033   1.130   0.568   6.386  0.3267 -0.3407 -0.2514
 9524SOL    HW140034   1.093   0.653   6.412 -0.3539 -0.7970  0.2887
 9524SOL    HW240035   1.208   0.593   6.337  0.1546  1.0145  0.1534
 9525SOL     OW40036   3.236   1.556   4.784  0.3455  0.1836 -0.0957
 9525SOL    HW140037   3.262   1.625   4.724 -0.4477  1.4258  0.9954
 9525SOL    HW240038   3.225   1.602   4.867 -1.6127 -2.6134  1.2088
 9526SOL     OW40039   2.273   1.736  14.842 -0.1339  0.0476  0.2963
 9526SOL    HW140040   2.364   1.747  14.868 -0.4866  2.1191  0.6917
 9526SOL    HW240041   2.217   1.775  14.909 -3.1320 -3.0489 -0.4447
 9527SOL     OW40042   3.000   2.096  11.401 -0.2267 -0.7825  0.6801
 9527SOL    HW140043   3.038   2.068  11.318 -2.0193 -0.8078 -0.1249
 9527SOL    HW240044   3.014   2.019  11.456  1.7343 -0.0427  1.2154
 9528SOL     OW40045   0.432   3.011   3.878  0.3763 -0.0621 -0.8289
 9528SOL    HW140046   0.433   2.987   3.786 -2.1721 -0.9589 -0.6354
 9528SOL    HW240047   0.477   3.095   3.877  3.1386 -1.5207  2.5810
 9529SOL     OW40048   0.574   1.256  10.306 -0.1965 -0.1276 -0.5382
 9529SOL    HW140049   0.633   1.209  10.248  2.8960  0.6268  2.0092
 9529SOL    HW240050   0.501   1.195  10.301  0.1049 -0.6432  1.3211
 9530SOL     OW40051   0.057   3.919   9.607  0.2874 -0.3455 -0.1163
 9530SOL    HW140052   0.020   3.831   9.601  1.3361 -0.7931 -0.0215
 9530SOL    HW240053   4.706   3.965   9.573 -0.7308 -1.9854  0.0070
 9531SOL     OW40054   1.191   1.352   7.360  0.0243  0.0625 -0.1145
 9531SOL    HW140055   1.231   1.377   7.443 -0.5647 -0.0172  0.1919
 9531SOL    HW240056   1.102   1.376   7.384 -0.6055 -0.6959 -1.6932
 9532SOL     OW40057   4.670   2.993   9.831 -0.5575  0.3793 -0.1149
 9532SOL    HW140058   0.007   2.928   9.862  1.0589  0.9897 -2.1901
 9532SOL    HW240059   4.583   2.953   9.822  0.4740 -2.1903  1.1577
 9533SOL     OW40060   2.752   2.949  10.894  0.3897  0.3685  0.4624
 9533SOL    HW140061   2.713   2.865  10.918 -1.0443  0.7902 -0.3883
 9533SOL    HW240062   2.677   3.003  10.867  0.2171  0.4975  1.2128
 9534SOL     OW40063   0.185   2.761  10.945  0.1812 -0.1199  0.5614
 9534SOL    HW140064   0.168   2.668  10.954 -0.1809 -0.1746 -0.7290
 9534SOL    HW240065   0.120   2.792  11.008  0.0077 -1.3802  0.9915
 9535SOL     OW40066   1.606   4.405   5.510  0.3661 -0.2612 -0.3655
 9535SOL    HW140067   1.667   4.436   5.443  0.2598 -1.1818 -0.8884
 9535SOL    HW240068   1.659   4.333   5.544  1.3146 -0.3007 -1.8912
 9536SOL     OW40069   0.694   2.420   2.877 -0.1741  0.0168  0.2383
 9536SOL    HW140070   0.715   2.341   2.829 -0.1935 -0.7479  1.4865
 9536SOL    HW240071   0.599   2.431   2.872 -0.1919 -0.1598  0.1969
 9537SOL     OW40072   4.483   4.196   4.176  0.4923 -0.5526  0.1833
 9537SOL    HW140073   4.504   4.114   4.131 -0.2214 -0.8880  0.4521
 9537SOL    HW240074   4.427   4.228   4.105  0.3493 -0.1802  0.4661
 9538SOL     OW40075   3.821   3.860  12.468  0.0222  0.2450 -0.3016
 9538SOL    HW140076   3.793   3.779  12.510 -0.6623 -0.1095 -1.4680
 9538SOL    HW240077   3.905   3.882  12.511  0.7675  0.5028 -1.9080
 9539SOL     OW40078   3.074   4.001   2.952 -0.0466 -0.3152 -0.0494
 9539SOL    HW140079   3.017   4.070   2.986  1.2644 -0.1896  1.8885
 9539SOL    HW240080   3.020   3.925   2.971  0.1258 -0.3315  0.3807
 9540SOL     OW40081   4.238   4.380   6.139 -0.5411  0.4366  0.1271
 9540SOL    HW140082   4.208   4.329   6.064  0.0297  0.3289 -0.0290
 9540SOL    HW240083   4.259   4.306   6.196 -0.9868  1.5441  1.7067
 9541SOL     OW40084   1.664   2.848  10.840 -0.0459  0.2273 -0.1326
 9541SOL    HW140085   1.654   2.796  10.920 -1.0882  0.1753 -0.3040
 9541SOL    HW240086   1.727   2.915  10.867  0.2415 -1.0101  2.2315
 9542SOL     OW40087   0.013   0.792  13.570 -0.4819  0.0618  0.0536
 9542SOL    HW140088   0.017   0.885  13.549 -1.1635 -0.1213 -0.8480
 9542SOL    HW240089   4.668   0.798  13.634  1.0963  0.4344  1.8135
 9543SOL     OW40090   2.700   4.158   6.160 -0.2038 -0.5924 -0.6514
 9543SOL    HW140091   2.782   4.207   6.160  0.2999 -1.4209 -0.4951
 9543SOL    HW240092   2.697   4.116   6.246 -1.3292 -0.6016 -0.6949
 9544SOL     OW40093   3.683   2.648  13.681 -0.1117  0.1402  0.3138
 9544SOL    HW140094   3.657   2.592  13.608  1.5544 -0.8559  0.4932
 9544SOL    HW240095   3.631   2.612  13.754  2.7751  0.0641  2.3358
 9545SOL     OW40096   2.153   2.456  12.051  0.8237 -0.3409  0.3861
 9545SOL    HW140097   2.106   2.514  11.991 -0.0198 -1.8616 -0.4257
 9545SOL    HW240098   2.095   2.381  12.066 -0.9372  1.1258  0.8064
 9546SOL     OW40099   4.259   4.374  13.269  0.3313  0.3451  0.0365
 9546SOL    HW140100   4.206   4.447  13.238 -1.5876  0.6856  4.1124
 9546SOL    HW240101   4.340   4.388  13.220  0.8312 -3.0714 -0.0885
 9547SOL     OW40102   0.335   2.940   6.818 -0.4494  0.1164  0.2852
 9547SOL    HW140103   0.298   2.948   6.730 -1.0905 -1.1426  0.4347
 9547SOL    HW240104   0.268   2.990   6.866  0.2977  1.6178 -0.2363
 9548SOL     OW40105   2.137   4.147   3.714 -0.3536 -0.6971 -0.0860
 9548SOL    HW140106   2.116   4.237   3.737  1.6131 -0.7216  1.8510
 9548SOL    HW240107   2.168   4.171   3.626 -0.3705  0.6193  0.2618
 9549SOL     OW40108   2.277   2.619   4.644 -0.2780  0.3538 -0.1974
 9549SOL    HW140109   2.263   2.535   4.688 -1.5688  0.6774  0.0073
 9549SOL    HW240110   2.281   2.594   4.552  0.6516  1.6346 -0.5132
 9550SOL     OW40111   1.001   0.090  11.709  0.3417 -0.0850 -0.3879
 9550SOL    HW140112   1.045   0.023  11.657  0.4018  0.5728 -1.1901
 9550SOL    HW240113   1.045   0.170  11.679  0.8133 -1.4415 -3.2973
 9551SOL     OW40114   0.685   0.948   5.529 -0.3383  0.3365 -0.4133
 9551SOL    HW140115   0.637   0.910   5.602  1.9439  0.7335  1.2854
 9551SOL    HW240116   0.722   0.870   5.488 -0.8032 -0.0765 -0.0546
 9552SOL     OW40117   3.531   0.041  16.068  0.0941  0.4754 -0.1788
 9552SOL    HW140118   3.536   0.009  15.978  2.1792  0.5818 -0.0936
 9552SOL    HW240119   3.527   4.687  16.119  1.4160 -0.6397 -1.8432
 9553SOL     OW40120   1.618   1.565  11.672 -0.3147  0.1250 -0.0265
 9553SOL    HW140121   1.644   1.478  11.702  0.8094  0.9110  1.2802
 9553SOL    HW240122   1.596   1.615  11.751  0.8953  0.2675  0.2150
 9554SOL     OW40123   2.255   1.520   7.238 -0.6393 -0.3569 -0.7535
 9554SOL    HW140124   2.293   1.598   7.279 -0.6842 -0.1963 -1.0151
 9554SOL    HW240125   2.166   1.538   7.207 -0.4510  0.6350 -0.7243
 9555SOL     OW40126   1.891   4.564   6.367 -0.3630 -0.1530  0.0426
 9555SOL    HW140127   1.899   4.536   6.458  0.5331 -0.9366 -0.2877
 9555SOL    HW240128   1.911   4.479   6.329 -0.4703 -1.5473  3.0916
 9556SOL     OW40129   3.295   3.863   6.329  0.0999  0.1299 -0.1705
 9556SOL    HW140130   3.293   3.823   6.242 -1.9891 -1.9071  0.8134
 9556SOL    HW240131   3.239   3.802   6.378  0.1689 -1.2612 -1.8189
 9557SOL     OW40132   2.978   1.197  16.180 -0.5944  0.1198  0.5257
 9557SOL    HW140133   2.978   1.125  16.116 -1.7451  1.9487 -1.5039
 9557SOL    HW240134   3.062   1.183  16.225 -0.4680 -3.1764 -0.7431
 9558SOL     OW40135   0.655   2.693   2.916 -0.0870  0.1827  0.6373
 9558SOL    HW140136   0.582   2.732   2.963 -1.4654  0.9056 -2.0998
 9558SOL    HW240137   0.621   2.616   2.871  0.8780  0.0202  0.1784
 9559SOL     OW40138   4.200   4.661   3.261 -0.0673  0.0551  0.8270
 9559SOL    HW140139   4.126   4.614   3.221  1.3074 -1.9854  0.6891
 9559SOL    HW240140   4.173   4.657   3.353  0.1852 -1.3628  0.8313
 9560SOL     OW40141   3.305   4.288   8.146  0.0436  0.1073  0.2322
 9560SOL    HW140142   3.245   4.351   8.106 -0.6771 -0.4518  0.4282
 9560SOL    HW240143   3.384   4.341   8.137  0.3880 -0.5205 -0.4221
 9561SOL     OW40144   1.895   1.677   2.323  0.0953 -0.8992  0.4264
 9561SOL    HW140145   1.970   1.627   2.289 -0.5884 -1.5483 -0.1547
 9561SOL    HW240146   1.886   1.743   2.255  0.7323 -0.4024  0.8285
 9562SOL     OW40147   0.982   0.092   8.150 -0.1220 -0.0746 -0.2414
 9562SOL    HW140148   1.051   0.123   8.208  0.2555  1.8179 -1.6943
 9562SOL    HW240149   0.908   0.141   8.186  1.3195  0.0742  2.4620
 9563SOL     OW40150   2.297   1.963   6.293 -0.0569  0.0853  0.0421
 9563SOL    HW140151   2.333   1.875   6.306  1.3115  1.2780  4.3117
 9563SOL    HW240152   2.203   1.945   6.304 -0.7956  3.9460 -0.0070
 9564SOL     OW40153   0.111   4.533  16.773 -0.5563  0.0270 -0.5927
 9564SOL    HW140154   0.065   4.514  16.691 -1.2275  1.7670 -0.6164
 9564SOL    HW240155   0.142   4.443  16.788 -1.6606 -0.2300  0.1280
 9565SOL     OW40156   0.447   1.423  11.609  0.8084 -0.5664 -0.0532
 9565SOL    HW140157   0.452   1.518  11.603 -1.4629 -0.4306  0.2999
 9565SOL    HW240158   0.509   1.394  11.542  1.8397  1.7813 -0.0949
 9566SOL     OW40159   1.309   1.665  16.840 -0.2003  0.0285 -0.5551
 9566SOL    HW140160   1.243   1.599  16.821 -0.7661  0.3880  0.2017
 9566SOL    HW240161   1.255   1.743  16.830 -3.5130 -2.2560 -0.3588
 9567SOL     OW40162   3.570   2.171   5.388 -0.5882  0.6191 -0.3073
 9567SOL    HW140163   3.557   2.224   5.310 -1.9626 -0.2399 -0.6750
 9567SOL    HW240164   3.620   2.096   5.357 -1.3239  0.0549 -0.1388
 9568SOL     OW40165   3.045   2.183   7.037 -0.3428  0.2669 -0.3278
 9568SOL    HW140166   3.085   2.221   7.115  2.2732 -2.0806 -0.5182
 9568SOL    HW240167   2.990   2.255   7.005  0.8289  1.3831  0.2094
   4.72673   4.72673  17.70790
